<event>
 7    1  0.2639126E-011  0.5052887E+02  0.7816164E-02  0.1300439E+00
        -11   -1    0    0    0    0  0.00000000000E+00  0.00000000000E+00  0.45593999997E+02  0.45594000000E+02  0.51100000000E-03 0.  1.
         11   -1    0    0    0    0 -0.00000000000E+00 -0.00000000000E+00 -0.45593999997E+02  0.45594000000E+02  0.51100000000E-03 0. -1.
    9900012    2    1    2    0    0  0.38931699598E+02  0.10656800142E+02  0.48908328160E+01  0.50528869801E+02  0.30000030248E+02 0.  0.
         12    1    1    2    0    0 -0.38931699598E+02 -0.10656800142E+02 -0.48908328160E+01  0.40659130199E+02  0.00000000000E+00 0. -1.
         11    1    3    3    0    0  0.52894477024E+01 -0.26835866432E+01 -0.91910499331E+00  0.60020536916E+01  0.51100000000E-03 0. -1.
        -11    1    3    3    0    0  0.47837764886E+01 -0.72257516496E+01  0.19297940099E+01  0.88780690229E+01  0.51100000000E-03 0.  1.
         12    1    3    3    0    0  0.28858475407E+02  0.20566138435E+02  0.38801437995E+01  0.35648747087E+02  0.00000000000E+00 0. -1.
</event>
<event>
 7    1  0.2639126E-011  0.5052885E+02  0.7816164E-02  0.1300439E+00
        -11   -1    0    0    0    0  0.00000000000E+00  0.00000000000E+00  0.45593999997E+02  0.45594000000E+02  0.51100000000E-03 0. -1.
         11   -1    0    0    0    0 -0.00000000000E+00 -0.00000000000E+00 -0.45593999997E+02  0.45594000000E+02  0.51100000000E-03 0.  1.
    9900012    2    1    2    0    0 -0.21411003890E+01  0.39925687607E+02  0.73838710043E+01  0.50528851057E+02  0.29999973273E+02 0.  0.
         12    1    1    2    0    0  0.21411003890E+01 -0.39925687607E+02 -0.73838710043E+01  0.40659148943E+02  0.00000000000E+00 0. -1.
         11    1    3    3    0    0  0.13656682657E+01  0.46761109687E+01  0.58423797413E+01  0.76068695865E+01  0.51100000000E-03 0. -1.
        -11    1    3    3    0    0  0.90983653678E+01  0.17207291465E+02  0.61936969224E+01  0.20426282426E+02  0.51100000000E-03 0.  1.
        -12    1    3    3    0    0 -0.12605134022E+02  0.18042285173E+02 -0.46522056593E+01  0.22495699044E+02  0.00000000000E+00 0.  1.
</event>
<event>
 7    1  0.2639126E-011  0.5052886E+02  0.7816164E-02  0.1300439E+00
        -11   -1    0    0    0    0  0.00000000000E+00  0.00000000000E+00  0.45593999997E+02  0.45594000000E+02  0.51100000000E-03 0. -1.
         11   -1    0    0    0    0 -0.00000000000E+00 -0.00000000000E+00 -0.45593999997E+02  0.45594000000E+02  0.51100000000E-03 0.  1.
    9900012    2    1    2    0    0  0.29288137770E+02  0.27147657823E+02 -0.76403575569E+01  0.50528863230E+02  0.30000010274E+02 0.  0.
         12    1    1    2    0    0 -0.29288137770E+02 -0.27147657823E+02  0.76403575569E+01  0.40659136770E+02  0.00000000000E+00 0. -1.
         11    1    3    3    0    0  0.13169650187E+02  0.13375131711E+02  0.80321806395E+01  0.20416898894E+02  0.51100000000E-03 0. -1.
        -11    1    3    3    0    0 -0.69868203438E+00  0.25318986333E+01  0.19604068752E+01  0.32774780933E+01  0.51100000000E-03 0.  1.
        -12    1    3    3    0    0  0.16817169617E+02  0.11240627478E+02 -0.17632945072E+02  0.26834486243E+02  0.00000000000E+00 0.  1.
</event>
<event>
 7    1  0.2639126E-011  0.5052886E+02  0.7816164E-02  0.1300439E+00
        -11   -1    0    0    0    0  0.00000000000E+00  0.00000000000E+00  0.45593999997E+02  0.45594000000E+02  0.51100000000E-03 0.  1.
         11   -1    0    0    0    0 -0.00000000000E+00 -0.00000000000E+00 -0.45593999997E+02  0.45594000000E+02  0.51100000000E-03 0. -1.
    9900012    2    1    2    0    0  0.33360755847E+02  0.14596502966E+02  0.18087784894E+02  0.50528857217E+02  0.29999991996E+02 0.  0.
         12    1    1    2    0    0 -0.33360755847E+02 -0.14596502966E+02 -0.18087784894E+02  0.40659142783E+02  0.00000000000E+00 0. -1.
         11    1    3    3    0    0 -0.67020355774E+00  0.14992599945E+01  0.52391390264E+01  0.54904946351E+01  0.51100000000E-03 0. -1.
        -11    1    3    3    0    0  0.82872286827E+01  0.14591938182E+02  0.87576202335E+01  0.18928780509E+02  0.51100000000E-03 0.  1.
        -12    1    3    3    0    0  0.25743730722E+02 -0.14946952107E+01  0.40910256342E+01  0.26109582072E+02  0.00000000000E+00 0.  1.
</event>
<event>
 7    1  0.2639126E-011  0.5052888E+02  0.7816164E-02  0.1300439E+00
        -11   -1    0    0    0    0  0.00000000000E+00  0.00000000000E+00  0.45593999997E+02  0.45594000000E+02  0.51100000000E-03 0. -1.
         11   -1    0    0    0    0 -0.00000000000E+00 -0.00000000000E+00 -0.45593999997E+02  0.45594000000E+02  0.51100000000E-03 0.  1.
    9900012    2    1    2    0    0  0.35269225131E+02 -0.17903902973E+02 -0.94178377585E+01  0.50528884772E+02  0.30000075754E+02 0.  0.
         12    1    1    2    0    0 -0.35269225131E+02  0.17903902973E+02  0.94178377585E+01  0.40659115228E+02  0.00000000000E+00 0. -1.
         11    1    3    3    0    0  0.41147537367E+01 -0.12586716382E+02 -0.69861184029E+00  0.13260644266E+02  0.51100000000E-03 0. -1.
        -11    1    3    3    0    0  0.38038913997E+01 -0.46216834002E+01 -0.78803888268E+01  0.98959625886E+01  0.51100000000E-03 0.  1.
        -12    1    3    3    0    0  0.27350579995E+02 -0.69550319172E+00 -0.83883709149E+00  0.27372277918E+02  0.00000000000E+00 0.  1.
</event>
<event>
 7    1  0.2639126E-011  0.5052886E+02  0.7816164E-02  0.1300439E+00
        -11   -1    0    0    0    0  0.00000000000E+00  0.00000000000E+00  0.45593999997E+02  0.45594000000E+02  0.51100000000E-03 0.  1.
         11   -1    0    0    0    0 -0.00000000000E+00 -0.00000000000E+00 -0.45593999997E+02  0.45594000000E+02  0.51100000000E-03 0. -1.
    9900012    2    1    2    0    0 -0.15054999227E+02  0.32137104800E+02  0.19842349497E+02  0.50528864000E+02  0.30000012615E+02 0.  0.
         12    1    1    2    0    0  0.15054999227E+02 -0.32137104800E+02 -0.19842349497E+02  0.40659136000E+02  0.00000000000E+00 0. -1.
         11    1    3    3    0    0 -0.87926684424E+01  0.10736569388E+02 -0.19106339232E+01  0.14008406862E+02  0.51100000000E-03 0. -1.
        -11    1    3    3    0    0 -0.11253746586E+02  0.52629914567E+01  0.85595228410E+01  0.15086792993E+02  0.51100000000E-03 0.  1.
        -12    1    3    3    0    0  0.49914158014E+01  0.16137543956E+02  0.13193460579E+02  0.21433664145E+02  0.00000000000E+00 0.  1.
</event>
<event>
 7    1  0.2639126E-011  0.5052886E+02  0.7816164E-02  0.1300439E+00
        -11   -1    0    0    0    0  0.00000000000E+00  0.00000000000E+00  0.45593999997E+02  0.45594000000E+02  0.51100000000E-03 0.  1.
         11   -1    0    0    0    0 -0.00000000000E+00 -0.00000000000E+00 -0.45593999997E+02  0.45594000000E+02  0.51100000000E-03 0. -1.
    9900012    2    1    2    0    0  0.10355136541E+02 -0.30872671635E+02  0.24347798320E+02  0.50528856014E+02  0.29999988340E+02 0.  0.
         12    1    1    2    0    0 -0.10355136541E+02  0.30872671635E+02 -0.24347798320E+02  0.40659143986E+02  0.00000000000E+00 0. -1.
         11    1    3    3    0    0  0.53567386400E+01 -0.66512964173E+01  0.20978952733E+01  0.87940637778E+01  0.51100000000E-03 0. -1.
        -11    1    3    3    0    0  0.14437581073E+02 -0.19888316384E+02  0.18223165768E+02  0.30595304324E+02  0.51100000000E-03 0.  1.
         12    1    3    3    0    0 -0.94391831726E+01 -0.43330588337E+01  0.40267372790E+01  0.11139487912E+02  0.00000000000E+00 0. -1.
</event>
<event>
 7    1  0.2639126E-011  0.5052884E+02  0.7816164E-02  0.1300439E+00
        -11   -1    0    0    0    0  0.00000000000E+00  0.00000000000E+00  0.45593999997E+02  0.45594000000E+02  0.51100000000E-03 0.  1.
         11   -1    0    0    0    0 -0.00000000000E+00 -0.00000000000E+00 -0.45593999997E+02  0.45594000000E+02  0.51100000000E-03 0. -1.
    9900012    2    1    2    0    0 -0.14651023938E+02  0.24065251389E+02  0.29315157959E+02  0.50528839741E+02  0.29999938875E+02 0.  0.
         12    1    1    2    0    0  0.14651023938E+02 -0.24065251389E+02 -0.29315157959E+02  0.40659160259E+02  0.00000000000E+00 0. -1.
         11    1    3    3    0    0 -0.60973884289E+01  0.10709242617E+02  0.89330947438E+01  0.15220584912E+02  0.51100000000E-03 0. -1.
        -11    1    3    3    0    0 -0.16525928745E+02  0.12549229206E+02  0.15767146820E+02  0.26061319875E+02  0.51100000000E-03 0.  1.
         12    1    3    3    0    0  0.79722932358E+01  0.80677956597E+00  0.46149163950E+01  0.92469349537E+01  0.00000000000E+00 0. -1.
</event>
<event>
 7    1  0.2639126E-011  0.5052886E+02  0.7816164E-02  0.1300439E+00
        -11   -1    0    0    0    0  0.00000000000E+00  0.00000000000E+00  0.45593999997E+02  0.45594000000E+02  0.51100000000E-03 0.  1.
         11   -1    0    0    0    0 -0.00000000000E+00 -0.00000000000E+00 -0.45593999997E+02  0.45594000000E+02  0.51100000000E-03 0. -1.
    9900012    2    1    2    0    0  0.35508867702E+02 -0.88573390167E+01  0.17715344835E+02  0.50528861021E+02  0.30000003558E+02 0.  0.
         12    1    1    2    0    0 -0.35508867702E+02  0.88573390167E+01 -0.17715344835E+02  0.40659138979E+02  0.00000000000E+00 0. -1.
         11    1    3    3    0    0 -0.18698627394E+01  0.41623279667E+01  0.88208524579E+01  0.99312033064E+01  0.51100000000E-03 0. -1.
        -11    1    3    3    0    0  0.41207193168E+01 -0.14897021432E+01  0.49630319132E+00  0.44097457163E+01  0.51100000000E-03 0.  1.
         12    1    3    3    0    0  0.33258011124E+02 -0.11529964840E+02  0.83981891860E+01  0.36187911998E+02  0.00000000000E+00 0. -1.
</event>
<event>
 7    1  0.2639126E-011  0.5052884E+02  0.7816164E-02  0.1300439E+00
        -11   -1    0    0    0    0  0.00000000000E+00  0.00000000000E+00  0.45593999997E+02  0.45594000000E+02  0.51100000000E-03 0.  1.
         11   -1    0    0    0    0 -0.00000000000E+00 -0.00000000000E+00 -0.45593999997E+02  0.45594000000E+02  0.51100000000E-03 0. -1.
    9900012    2    1    2    0    0 -0.11722888624E+02 -0.38591696714E+02 -0.51402741908E+01  0.50528836313E+02  0.29999928457E+02 0.  0.
         12    1    1    2    0    0  0.11722888624E+02  0.38591696714E+02  0.51402741908E+01  0.40659163687E+02  0.00000000000E+00 0. -1.
         11    1    3    3    0    0  0.59218997580E+00 -0.10078729530E+02  0.26135112849E+01  0.10428898284E+02  0.51100000000E-03 0. -1.
        -11    1    3    3    0    0 -0.96738571055E+01 -0.18454939804E+02  0.70602363563E+01  0.22000346636E+02  0.51100000000E-03 0.  1.
        -12    1    3    3    0    0 -0.26412214947E+01 -0.10058027380E+02 -0.14814021832E+02  0.18099591393E+02  0.00000000000E+00 0.  1.
</event>
<event>
 7    1  0.2639126E-011  0.5052887E+02  0.7816164E-02  0.1300439E+00
        -11   -1    0    0    0    0  0.00000000000E+00  0.00000000000E+00  0.45593999997E+02  0.45594000000E+02  0.51100000000E-03 0.  1.
         11   -1    0    0    0    0 -0.00000000000E+00 -0.00000000000E+00 -0.45593999997E+02  0.45594000000E+02  0.51100000000E-03 0. -1.
    9900012    2    1    2    0    0  0.21014483776E+02  0.31768444655E+02  0.14223992746E+02  0.50528873426E+02  0.30000041266E+02 0.  0.
         12    1    1    2    0    0 -0.21014483776E+02 -0.31768444655E+02 -0.14223992746E+02  0.40659126574E+02  0.00000000000E+00 0. -1.
         11    1    3    3    0    0  0.50674997703E+01  0.50642932769E+01 -0.46583817861E+01  0.85455919305E+01  0.51100000000E-03 0. -1.
        -11    1    3    3    0    0  0.19158165264E+02  0.14666673527E+02  0.16679069472E+02  0.29331518327E+02  0.51100000000E-03 0.  1.
         12    1    3    3    0    0 -0.32111812589E+01  0.12037477851E+02  0.22033050596E+01  0.12651763169E+02  0.00000000000E+00 0. -1.
</event>
<event>
 7    1  0.2639126E-011  0.5052886E+02  0.7816164E-02  0.1300439E+00
        -11   -1    0    0    0    0  0.00000000000E+00  0.00000000000E+00  0.45593999997E+02  0.45594000000E+02  0.51100000000E-03 0.  1.
         11   -1    0    0    0    0 -0.00000000000E+00 -0.00000000000E+00 -0.45593999997E+02  0.45594000000E+02  0.51100000000E-03 0. -1.
    9900012    2    1    2    0    0  0.23054166045E+02  0.93177766079E+00  0.33478394693E+02  0.50528859664E+02  0.29999999435E+02 0.  0.
         12    1    1    2    0    0 -0.23054166045E+02 -0.93177766079E+00 -0.33478394693E+02  0.40659140336E+02  0.00000000000E+00 0. -1.
         11    1    3    3    0    0  0.26194639230E+02  0.76454339308E+01  0.25006181612E+02  0.37012442549E+02  0.51100000000E-03 0. -1.
        -11    1    3    3    0    0  0.67107396760E+00  0.18018267157E-01  0.49865541486E+01  0.50315392740E+01  0.51100000000E-03 0.  1.
         12    1    3    3    0    0 -0.38115471532E+01 -0.67316745371E+01  0.34856589327E+01  0.84848778406E+01  0.00000000000E+00 0. -1.
</event>
<event>
 7    1  0.2639126E-011  0.5052885E+02  0.7816164E-02  0.1300439E+00
        -11   -1    0    0    0    0  0.00000000000E+00  0.00000000000E+00  0.45593999997E+02  0.45594000000E+02  0.51100000000E-03 0.  1.
         11   -1    0    0    0    0 -0.00000000000E+00 -0.00000000000E+00 -0.45593999997E+02  0.45594000000E+02  0.51100000000E-03 0. -1.
    9900012    2    1    2    0    0 -0.26385841134E+02 -0.29939500157E+02  0.77833351542E+01  0.50528848655E+02  0.29999965971E+02 0.  0.
         12    1    1    2    0    0  0.26385841134E+02  0.29939500157E+02 -0.77833351542E+01  0.40659151345E+02  0.00000000000E+00 0. -1.
         11    1    3    3    0    0 -0.23931902077E+02 -0.35133748474E+02  0.79081719263E+01  0.43239512050E+02  0.51100000000E-03 0.  1.
        -11    1    3    3    0    0 -0.21425194776E+01  0.14627133606E+01  0.17224447155E+01  0.31139582763E+01  0.51100000000E-03 0. -1.
        -12    1    3    3    0    0 -0.31141957937E+00  0.37315349570E+01 -0.18472814875E+01  0.41753783283E+01  0.00000000000E+00 0.  1.
</event>
<event>
 7    1  0.2639126E-011  0.5052879E+02  0.7816164E-02  0.1300439E+00
        -11   -1    0    0    0    0  0.00000000000E+00  0.00000000000E+00  0.45593999997E+02  0.45594000000E+02  0.51100000000E-03 0.  1.
         11   -1    0    0    0    0 -0.00000000000E+00 -0.00000000000E+00 -0.45593999997E+02  0.45594000000E+02  0.51100000000E-03 0. -1.
    9900012    2    1    2    0    0 -0.64370793658E+01 -0.19099082985E+02  0.35312329598E+02  0.50528787228E+02  0.29999779256E+02 0.  0.
         12    1    1    2    0    0  0.64370793658E+01  0.19099082985E+02 -0.35312329598E+02  0.40659212772E+02  0.00000000000E+00 0. -1.
         11    1    3    3    0    0 -0.51063746894E+01 -0.18096701402E+02  0.19964350175E+02  0.27425188099E+02  0.51100000000E-03 0. -1.
        -11    1    3    3    0    0 -0.16584166701E+01 -0.64393113124E+01  0.16272715257E+02  0.17578860547E+02  0.51100000000E-03 0.  1.
        -12    1    3    3    0    0  0.32771199365E+00  0.54369297292E+01 -0.92473583410E+00  0.55247385815E+01  0.00000000000E+00 0.  1.
</event>
<event>
 7    1  0.2639126E-011  0.5052886E+02  0.7816164E-02  0.1300439E+00
        -11   -1    0    0    0    0  0.00000000000E+00  0.00000000000E+00  0.45593999997E+02  0.45594000000E+02  0.51100000000E-03 0. -1.
         11   -1    0    0    0    0 -0.00000000000E+00 -0.00000000000E+00 -0.45593999997E+02  0.45594000000E+02  0.51100000000E-03 0.  1.
    9900012    2    1    2    0    0 -0.23775682901E+02 -0.16981689230E+02 -0.28275520039E+02  0.50528857117E+02  0.29999991693E+02 0.  0.
         12    1    1    2    0    0  0.23775682901E+02  0.16981689230E+02  0.28275520039E+02  0.40659142883E+02  0.00000000000E+00 0. -1.
         11    1    3    3    0    0 -0.10741257111E+02 -0.81525811100E+01 -0.50237113263E+01  0.14390165351E+02  0.51100000000E-03 0. -1.
        -11    1    3    3    0    0 -0.18300904279E+02 -0.41148991102E+01 -0.22083205626E+02  0.28974531283E+02  0.51100000000E-03 0.  1.
         12    1    3    3    0    0  0.52664784882E+01 -0.47142090093E+01 -0.11686030868E+01  0.71641604829E+01  0.00000000000E+00 0. -1.
</event>
<event>
 7    1  0.2639126E-011  0.5052887E+02  0.7816164E-02  0.1300439E+00
        -11   -1    0    0    0    0  0.00000000000E+00  0.00000000000E+00  0.45593999997E+02  0.45594000000E+02  0.51100000000E-03 0. -1.
         11   -1    0    0    0    0 -0.00000000000E+00 -0.00000000000E+00 -0.45593999997E+02  0.45594000000E+02  0.51100000000E-03 0.  1.
    9900012    2    1    2    0    0 -0.38569815609E+02 -0.84392265128E+00 -0.12838304188E+02  0.50528868972E+02  0.30000027727E+02 0.  0.
         12    1    1    2    0    0  0.38569815609E+02  0.84392265128E+00  0.12838304188E+02  0.40659131028E+02  0.00000000000E+00 0. -1.
         11    1    3    3    0    0 -0.14407275954E+02  0.47333144571E+01 -0.91528771091E+01  0.17712962084E+02  0.51100000000E-03 0. -1.
        -11    1    3    3    0    0 -0.10762307935E+02  0.67902769212E+01 -0.66228864650E+01  0.14345652936E+02  0.51100000000E-03 0.  1.
         12    1    3    3    0    0 -0.13400231720E+02 -0.12367514030E+02  0.29374593862E+01  0.18470253952E+02  0.00000000000E+00 0. -1.
</event>
<event>
 7    1  0.2639126E-011  0.5052887E+02  0.7816164E-02  0.1300439E+00
        -11   -1    0    0    0    0  0.00000000000E+00  0.00000000000E+00  0.45593999997E+02  0.45594000000E+02  0.51100000000E-03 0. -1.
         11   -1    0    0    0    0 -0.00000000000E+00 -0.00000000000E+00 -0.45593999997E+02  0.45594000000E+02  0.51100000000E-03 0.  1.
    9900012    2    1    2    0    0  0.93080976154E+01  0.29875934796E+02 -0.25960593311E+02  0.50528873519E+02  0.30000041548E+02 0.  0.
         12    1    1    2    0    0 -0.93080976154E+01 -0.29875934796E+02  0.25960593311E+02  0.40659126481E+02  0.00000000000E+00 0. -1.
         11    1    3    3    0    0 -0.23190449950E+01  0.41866997376E+01 -0.41230742038E+01  0.63171326987E+01  0.51100000000E-03 0.  1.
        -11    1    3    3    0    0 -0.49668042387E+00  0.26236597696E+02 -0.13725691987E+02  0.29614192052E+02  0.51100000000E-03 0. -1.
        -12    1    3    3    0    0  0.12123823034E+02 -0.54736263705E+00 -0.81118271202E+01  0.14597548769E+02  0.00000000000E+00 0.  1.
</event>
<event>
 7    1  0.2639126E-011  0.5052886E+02  0.7816164E-02  0.1300439E+00
        -11   -1    0    0    0    0  0.00000000000E+00  0.00000000000E+00  0.45593999997E+02  0.45594000000E+02  0.51100000000E-03 0.  1.
         11   -1    0    0    0    0 -0.00000000000E+00 -0.00000000000E+00 -0.45593999997E+02  0.45594000000E+02  0.51100000000E-03 0. -1.
    9900012    2    1    2    0    0  0.93074514173E+01 -0.34580334999E+01  0.39428154121E+02  0.50528856072E+02  0.29999988515E+02 0.  0.
         12    1    1    2    0    0 -0.93074514173E+01  0.34580334999E+01 -0.39428154121E+02  0.40659143928E+02  0.00000000000E+00 0. -1.
         11    1    3    3    0    0  0.55574869924E+01 -0.24883788484E+01  0.17152497422E+01  0.63261183124E+01  0.51100000000E-03 0. -1.
        -11    1    3    3    0    0  0.12929561276E+02 -0.31423891525E+01  0.18375718418E+02  0.22687335498E+02  0.51100000000E-03 0.  1.
        -12    1    3    3    0    0 -0.91795968506E+01  0.21727345011E+01  0.19337185961E+02  0.21515402261E+02  0.00000000000E+00 0.  1.
</event>
<event>
 7    1  0.2639126E-011  0.5052890E+02  0.7816164E-02  0.1300439E+00
        -11   -1    0    0    0    0  0.00000000000E+00  0.00000000000E+00  0.45593999997E+02  0.45594000000E+02  0.51100000000E-03 0.  1.
         11   -1    0    0    0    0 -0.00000000000E+00 -0.00000000000E+00 -0.45593999997E+02  0.45594000000E+02  0.51100000000E-03 0. -1.
    9900012    2    1    2    0    0  0.62711861868E+01  0.27413731345E+02  0.29365324845E+02  0.50528895907E+02  0.30000109598E+02 0.  0.
         12    1    1    2    0    0 -0.62711861868E+01 -0.27413731345E+02 -0.29365324845E+02  0.40659104093E+02  0.00000000000E+00 0. -1.
         11    1    3    3    0    0  0.11911129280E+02  0.55654046624E+01  0.11131169126E+02  0.17226481248E+02  0.51100000000E-03 0. -1.
        -11    1    3    3    0    0  0.38355933451E+01  0.10380353165E+02  0.13980120515E+02  0.17829954515E+02  0.51100000000E-03 0.  1.
         12    1    3    3    0    0 -0.94755364388E+01  0.11467973518E+02  0.42540352029E+01  0.15472460144E+02  0.00000000000E+00 0. -1.
</event>
<event>
 7    1  0.2639126E-011  0.5052885E+02  0.7816164E-02  0.1300439E+00
        -11   -1    0    0    0    0  0.00000000000E+00  0.00000000000E+00  0.45593999997E+02  0.45594000000E+02  0.51100000000E-03 0.  1.
         11   -1    0    0    0    0 -0.00000000000E+00 -0.00000000000E+00 -0.45593999997E+02  0.45594000000E+02  0.51100000000E-03 0. -1.
    9900012    2    1    2    0    0  0.11836451923E+01  0.35581488930E+02  0.19639826502E+02  0.50528853975E+02  0.29999982143E+02 0.  0.
         12    1    1    2    0    0 -0.11836451923E+01 -0.35581488930E+02 -0.19639826502E+02  0.40659146025E+02  0.00000000000E+00 0. -1.
         11    1    3    3    0    0 -0.10330153635E+01  0.18612221803E+02  0.20949666323E+02  0.28042297347E+02  0.51100000000E-03 0. -1.
        -11    1    3    3    0    0 -0.40931154107E+01  0.72384032065E+01  0.45647316876E+01  0.94860344921E+01  0.51100000000E-03 0.  1.
         12    1    3    3    0    0  0.63097759665E+01  0.97308639208E+01 -0.58745715091E+01  0.13000522136E+02  0.00000000000E+00 0. -1.
</event>
<event>
 7    1  0.2639126E-011  0.5052887E+02  0.7816164E-02  0.1300439E+00
        -11   -1    0    0    0    0  0.00000000000E+00  0.00000000000E+00  0.45593999997E+02  0.45594000000E+02  0.51100000000E-03 0. -1.
         11   -1    0    0    0    0 -0.00000000000E+00 -0.00000000000E+00 -0.45593999997E+02  0.45594000000E+02  0.51100000000E-03 0.  1.
    9900012    2    1    2    0    0  0.12586222717E+01  0.38084656640E+02 -0.14182381569E+02  0.50528866359E+02  0.30000019786E+02 0.  0.
         12    1    1    2    0    0 -0.12586222717E+01 -0.38084656640E+02  0.14182381569E+02  0.40659133641E+02  0.00000000000E+00 0. -1.
         11    1    3    3    0    0 -0.59125554321E+01  0.20371752941E+02 -0.12463640806E+02  0.24603027701E+02  0.51100000000E-03 0. -1.
        -11    1    3    3    0    0  0.81724900768E+01  0.11868789969E+02 -0.86479286188E+01  0.16806083394E+02  0.51100000000E-03 0.  1.
         12    1    3    3    0    0 -0.10013123731E+01  0.58441137298E+01  0.69291878554E+01  0.91197552648E+01  0.00000000000E+00 0. -1.
</event>
<event>
 7    1  0.2639126E-011  0.5052882E+02  0.7816164E-02  0.1300439E+00
        -11   -1    0    0    0    0  0.00000000000E+00  0.00000000000E+00  0.45593999997E+02  0.45594000000E+02  0.51100000000E-03 0.  1.
         11   -1    0    0    0    0 -0.00000000000E+00 -0.00000000000E+00 -0.45593999997E+02  0.45594000000E+02  0.51100000000E-03 0. -1.
    9900012    2    1    2    0    0  0.24445677986E+02 -0.78475549171E+01  0.31527659429E+02  0.50528823921E+02  0.29999890791E+02 0.  0.
         12    1    1    2    0    0 -0.24445677986E+02  0.78475549171E+01 -0.31527659429E+02  0.40659176079E+02  0.00000000000E+00 0. -1.
         11    1    3    3    0    0  0.90656780460E+01 -0.44342695008E+01  0.40763493442E+01  0.10884203631E+02  0.51100000000E-03 0.  1.
        -11    1    3    3    0    0  0.16915118820E+02 -0.11016230477E+02  0.15738594959E+02  0.25596522228E+02  0.51100000000E-03 0. -1.
         12    1    3    3    0    0 -0.15351188808E+01  0.76029450603E+01  0.11712715125E+02  0.14048098062E+02  0.00000000000E+00 0. -1.
</event>
<event>
 7    1  0.2639126E-011  0.5052886E+02  0.7816164E-02  0.1300439E+00
        -11   -1    0    0    0    0  0.00000000000E+00  0.00000000000E+00  0.45593999997E+02  0.45594000000E+02  0.51100000000E-03 0.  1.
         11   -1    0    0    0    0 -0.00000000000E+00 -0.00000000000E+00 -0.45593999997E+02  0.45594000000E+02  0.51100000000E-03 0. -1.
    9900012    2    1    2    0    0  0.24281180545E+02  0.32419652701E+02  0.35434653210E+01  0.50528858883E+02  0.29999997059E+02 0.  0.
         12    1    1    2    0    0 -0.24281180545E+02 -0.32419652701E+02 -0.35434653210E+01  0.40659141117E+02  0.00000000000E+00 0. -1.
         11    1    3    3    0    0 -0.25126425725E+01  0.49800574264E+01 -0.16683024610E+01  0.58221626592E+01  0.51100000000E-03 0. -1.
        -11    1    3    3    0    0 -0.10956685458E+01 -0.19751650714E+01  0.34628851880E+01  0.41344093542E+01  0.51100000000E-03 0.  1.
        -12    1    3    3    0    0  0.27889491664E+02  0.29414760346E+02  0.17488825940E+01  0.40572286869E+02  0.00000000000E+00 0.  1.
</event>
<event>
 7    1  0.2639126E-011  0.5052886E+02  0.7816164E-02  0.1300439E+00
        -11   -1    0    0    0    0  0.00000000000E+00  0.00000000000E+00  0.45593999997E+02  0.45594000000E+02  0.51100000000E-03 0.  1.
         11   -1    0    0    0    0 -0.00000000000E+00 -0.00000000000E+00 -0.45593999997E+02  0.45594000000E+02  0.51100000000E-03 0. -1.
    9900012    2    1    2    0    0 -0.27596452323E+02 -0.20665910413E+02  0.21552773227E+02  0.50528855054E+02  0.29999985421E+02 0.  0.
         12    1    1    2    0    0  0.27596452323E+02  0.20665910413E+02 -0.21552773227E+02  0.40659144946E+02  0.00000000000E+00 0. -1.
         11    1    3    3    0    0 -0.48188030132E+01 -0.11385983319E+01  0.65320147431E+01  0.81966142709E+01  0.51100000000E-03 0. -1.
        -11    1    3    3    0    0 -0.13873194148E+02  0.18800194725E+01  0.12922088685E+02  0.19052043600E+02  0.51100000000E-03 0.  1.
         12    1    3    3    0    0 -0.89044551617E+01 -0.21407331553E+02  0.20986697991E+01  0.23280197183E+02  0.00000000000E+00 0. -1.
</event>
<event>
 7    1  0.2639126E-011  0.5052886E+02  0.7816164E-02  0.1300439E+00
        -11   -1    0    0    0    0  0.00000000000E+00  0.00000000000E+00  0.45593999997E+02  0.45594000000E+02  0.51100000000E-03 0. -1.
         11   -1    0    0    0    0 -0.00000000000E+00 -0.00000000000E+00 -0.45593999997E+02  0.45594000000E+02  0.51100000000E-03 0.  1.
    9900012    2    1    2    0    0 -0.27552971924E+02 -0.29383937421E+02 -0.55302320545E+01  0.50528861953E+02  0.30000006391E+02 0.  0.
         12    1    1    2    0    0  0.27552971924E+02  0.29383937421E+02  0.55302320545E+01  0.40659138047E+02  0.00000000000E+00 0. -1.
         11    1    3    3    0    0  0.21479723778E+01 -0.65158514694E+01 -0.17329325173E+01  0.70762391903E+01  0.51100000000E-03 0.  1.
        -11    1    3    3    0    0 -0.97229342315E+00 -0.60301527635E+00 -0.68810628813E+01  0.69755292675E+01  0.51100000000E-03 0. -1.
        -12    1    3    3    0    0 -0.28728650878E+02 -0.22265070675E+02  0.30837633442E+01  0.36477093495E+02  0.00000000000E+00 0.  1.
</event>
<event>
 7    1  0.2639126E-011  0.5052886E+02  0.7816164E-02  0.1300439E+00
        -11   -1    0    0    0    0  0.00000000000E+00  0.00000000000E+00  0.45593999997E+02  0.45594000000E+02  0.51100000000E-03 0.  1.
         11   -1    0    0    0    0 -0.00000000000E+00 -0.00000000000E+00 -0.45593999997E+02  0.45594000000E+02  0.51100000000E-03 0. -1.
    9900012    2    1    2    0    0 -0.29729721966E+02  0.39544485779E+01  0.27453083034E+02  0.50528858349E+02  0.29999995439E+02 0.  0.
         12    1    1    2    0    0  0.29729721966E+02 -0.39544485779E+01 -0.27453083034E+02  0.40659141651E+02  0.00000000000E+00 0. -1.
         11    1    3    3    0    0 -0.24056732016E+02 -0.10137526638E+02  0.16290333608E+02  0.30771265346E+02  0.51100000000E-03 0. -1.
        -11    1    3    3    0    0  0.11464774331E+01  0.33853596422E+01  0.29926748914E+01  0.46616706961E+01  0.51100000000E-03 0.  1.
        -12    1    3    3    0    0 -0.68194673823E+01  0.10706615574E+02  0.81700745342E+01  0.15095922308E+02  0.00000000000E+00 0.  1.
</event>
<event>
 7    1  0.2639126E-011  0.5052886E+02  0.7816164E-02  0.1300439E+00
        -11   -1    0    0    0    0  0.00000000000E+00  0.00000000000E+00  0.45593999997E+02  0.45594000000E+02  0.51100000000E-03 0. -1.
         11   -1    0    0    0    0 -0.00000000000E+00 -0.00000000000E+00 -0.45593999997E+02  0.45594000000E+02  0.51100000000E-03 0.  1.
    9900012    2    1    2    0    0 -0.11915206229E+02  0.31625084395E+02  0.22606355534E+02  0.50528863106E+02  0.30000009896E+02 0.  0.
         12    1    1    2    0    0  0.11915206229E+02 -0.31625084395E+02 -0.22606355534E+02  0.40659136894E+02  0.00000000000E+00 0. -1.
         11    1    3    3    0    0 -0.43249144197E+01  0.46952387672E+01 -0.60590899849E+01  0.88012910147E+01  0.51100000000E-03 0. -1.
        -11    1    3    3    0    0 -0.43685220485E+01  0.65050282597E+01  0.21932284883E+01  0.81369299500E+01  0.51100000000E-03 0.  1.
         12    1    3    3    0    0 -0.32217697603E+01  0.20424817368E+02  0.26472217031E+02  0.33590642141E+02  0.00000000000E+00 0. -1.
</event>
<event>
 7    1  0.2639126E-011  0.5052886E+02  0.7816164E-02  0.1300439E+00
        -11   -1    0    0    0    0  0.00000000000E+00  0.00000000000E+00  0.45593999997E+02  0.45594000000E+02  0.51100000000E-03 0. -1.
         11   -1    0    0    0    0 -0.00000000000E+00 -0.00000000000E+00 -0.45593999997E+02  0.45594000000E+02  0.51100000000E-03 0.  1.
    9900012    2    1    2    0    0  0.32831942477E+00  0.33571232437E+02 -0.22935352695E+02  0.50528857802E+02  0.29999993776E+02 0.  0.
         12    1    1    2    0    0 -0.32831942477E+00 -0.33571232437E+02  0.22935352695E+02  0.40659142198E+02  0.00000000000E+00 0. -1.
         11    1    3    3    0    0  0.31558121769E+01  0.47221929128E+00  0.55734910672E-01  0.31914335645E+01  0.51100000000E-03 0. -1.
        -11    1    3    3    0    0  0.90540259281E+01  0.23640177726E+02 -0.95478741090E+01  0.27055411449E+02  0.51100000000E-03 0.  1.
        -12    1    3    3    0    0 -0.11881518680E+02  0.94588354199E+01 -0.13443213497E+02  0.20282012789E+02  0.00000000000E+00 0.  1.
</event>
<event>
 7    1  0.2639126E-011  0.5052886E+02  0.7816164E-02  0.1300439E+00
        -11   -1    0    0    0    0  0.00000000000E+00  0.00000000000E+00  0.45593999997E+02  0.45594000000E+02  0.51100000000E-03 0. -1.
         11   -1    0    0    0    0 -0.00000000000E+00 -0.00000000000E+00 -0.45593999997E+02  0.45594000000E+02  0.51100000000E-03 0.  1.
    9900012    2    1    2    0    0  0.26287301551E+02  0.88418998396E+01 -0.29731542874E+02  0.50528855183E+02  0.29999985815E+02 0.  0.
         12    1    1    2    0    0 -0.26287301551E+02 -0.88418998396E+01  0.29731542874E+02  0.40659144817E+02  0.00000000000E+00 0. -1.
         11    1    3    3    0    0  0.13994877524E+02  0.65191456832E+01 -0.10197244889E+02  0.18502423110E+02  0.51100000000E-03 0. -1.
        -11    1    3    3    0    0  0.14153639787E+02  0.10086160384E+02 -0.13909778068E+02  0.22260684551E+02  0.51100000000E-03 0.  1.
         12    1    3    3    0    0 -0.18612157610E+01 -0.77634062278E+01 -0.56245199164E+01  0.97657475217E+01  0.00000000000E+00 0. -1.
</event>
<event>
 7    1  0.2639126E-011  0.5052886E+02  0.7816164E-02  0.1300439E+00
        -11   -1    0    0    0    0  0.00000000000E+00  0.00000000000E+00  0.45593999997E+02  0.45594000000E+02  0.51100000000E-03 0. -1.
         11   -1    0    0    0    0 -0.00000000000E+00 -0.00000000000E+00 -0.45593999997E+02  0.45594000000E+02  0.51100000000E-03 0.  1.
    9900012    2    1    2    0    0 -0.17078307592E+02 -0.68275985957E+01 -0.36261283523E+02  0.50528863566E+02  0.30000011295E+02 0.  0.
         12    1    1    2    0    0  0.17078307592E+02  0.68275985957E+01  0.36261283523E+02  0.40659136434E+02  0.00000000000E+00 0. -1.
         11    1    3    3    0    0 -0.45696555092E+01  0.33073704073E+01  0.49113459710E+00  0.56623019998E+01  0.51100000000E-03 0. -1.
        -11    1    3    3    0    0 -0.65068428561E+01 -0.77818285670E+01 -0.31067362469E+01  0.10608848673E+02  0.51100000000E-03 0.  1.
         12    1    3    3    0    0 -0.60018092271E+01 -0.23531404360E+01 -0.33645681874E+02  0.34257712893E+02  0.00000000000E+00 0. -1.
</event>
<event>
 7    1  0.2639126E-011  0.5052887E+02  0.7816164E-02  0.1300439E+00
        -11   -1    0    0    0    0  0.00000000000E+00  0.00000000000E+00  0.45593999997E+02  0.45594000000E+02  0.51100000000E-03 0.  1.
         11   -1    0    0    0    0 -0.00000000000E+00 -0.00000000000E+00 -0.45593999997E+02  0.45594000000E+02  0.51100000000E-03 0. -1.
    9900012    2    1    2    0    0 -0.19746879161E+02 -0.26323886508E+02  0.23880508844E+02  0.50528868921E+02  0.30000027572E+02 0.  0.
         12    1    1    2    0    0  0.19746879161E+02  0.26323886508E+02 -0.23880508844E+02  0.40659131079E+02  0.00000000000E+00 0. -1.
         11    1    3    3    0    0 -0.11980735357E+02 -0.17085767570E+02  0.96987279233E+01  0.23011449254E+02  0.51100000000E-03 0. -1.
        -11    1    3    3    0    0 -0.38363091557E+01 -0.15614102389E+02  0.10100869714E+02  0.18988023346E+02  0.51100000000E-03 0.  1.
         12    1    3    3    0    0 -0.39298346474E+01  0.63759834511E+01  0.40809112063E+01  0.85293963209E+01  0.00000000000E+00 0. -1.
</event>
<event>
 7    1  0.2639126E-011  0.5052885E+02  0.7816164E-02  0.1300439E+00
        -11   -1    0    0    0    0  0.00000000000E+00  0.00000000000E+00  0.45593999997E+02  0.45594000000E+02  0.51100000000E-03 0.  1.
         11   -1    0    0    0    0 -0.00000000000E+00 -0.00000000000E+00 -0.45593999997E+02  0.45594000000E+02  0.51100000000E-03 0. -1.
    9900012    2    1    2    0    0 -0.11388392947E+02  0.27293724853E+02  0.27902035339E+02  0.50528849906E+02  0.29999969776E+02 0.  0.
         12    1    1    2    0    0  0.11388392947E+02 -0.27293724853E+02 -0.27902035339E+02  0.40659150094E+02  0.00000000000E+00 0. -1.
         11    1    3    3    0    0 -0.36064668621E+00  0.24467357634E+02  0.20366876078E+02  0.31836948614E+02  0.51100000000E-03 0. -1.
        -11    1    3    3    0    0  0.23268364683E+01  0.28617309688E+01  0.23068050916E+01  0.43502898846E+01  0.51100000000E-03 0.  1.
         12    1    3    3    0    0 -0.13354582729E+02 -0.35363749656E-01  0.52283541695E+01  0.14341611408E+02  0.00000000000E+00 0. -1.
</event>
<event>
 7    1  0.2639126E-011  0.5052886E+02  0.7816164E-02  0.1300439E+00
        -11   -1    0    0    0    0  0.00000000000E+00  0.00000000000E+00  0.45593999997E+02  0.45594000000E+02  0.51100000000E-03 0.  1.
         11   -1    0    0    0    0 -0.00000000000E+00 -0.00000000000E+00 -0.45593999997E+02  0.45594000000E+02  0.51100000000E-03 0. -1.
    9900012    2    1    2    0    0 -0.24094834005E+02  0.28896652675E+02  0.15413887847E+02  0.50528862035E+02  0.30000006640E+02 0.  0.
         12    1    1    2    0    0  0.24094834005E+02 -0.28896652675E+02 -0.15413887847E+02  0.40659137965E+02  0.00000000000E+00 0. -1.
         11    1    3    3    0    0 -0.17201508872E+02  0.10845536197E+02  0.10054461294E+02  0.22685011683E+02  0.51100000000E-03 0. -1.
        -11    1    3    3    0    0 -0.13001063013E+02  0.15670470141E+02  0.19493036750E+01  0.20454609725E+02  0.51100000000E-03 0.  1.
         12    1    3    3    0    0  0.61077378806E+01  0.23806463369E+01  0.34101228786E+01  0.73892406272E+01  0.00000000000E+00 0. -1.
</event>
<event>
 7    1  0.2639126E-011  0.5052887E+02  0.7816164E-02  0.1300439E+00
        -11   -1    0    0    0    0  0.00000000000E+00  0.00000000000E+00  0.45593999997E+02  0.45594000000E+02  0.51100000000E-03 0. -1.
         11   -1    0    0    0    0 -0.00000000000E+00 -0.00000000000E+00 -0.45593999997E+02  0.45594000000E+02  0.51100000000E-03 0.  1.
    9900012    2    1    2    0    0 -0.10221899095E+01  0.35220119694E+02 -0.20289488644E+02  0.50528867534E+02  0.30000023356E+02 0.  0.
         12    1    1    2    0    0  0.10221899095E+01 -0.35220119694E+02  0.20289488644E+02  0.40659132466E+02  0.00000000000E+00 0. -1.
         11    1    3    3    0    0 -0.33860870358E+01  0.10868863016E+02  0.29363260013E+01  0.11756690832E+02  0.51100000000E-03 0. -1.
        -11    1    3    3    0    0  0.24870445335E+01  0.84097572916E+01  0.19400131298E+01  0.89818182692E+01  0.51100000000E-03 0.  1.
         12    1    3    3    0    0 -0.12314740719E+00  0.15941499387E+02 -0.25165827775E+02  0.29790358433E+02  0.00000000000E+00 0. -1.
</event>
<event>
 7    1  0.2639126E-011  0.5052880E+02  0.7816164E-02  0.1300439E+00
        -11   -1    0    0    0    0  0.00000000000E+00  0.00000000000E+00  0.45593999997E+02  0.45594000000E+02  0.51100000000E-03 0.  1.
         11   -1    0    0    0    0 -0.00000000000E+00 -0.00000000000E+00 -0.45593999997E+02  0.45594000000E+02  0.51100000000E-03 0. -1.
    9900012    2    1    2    0    0  0.33556860793E+02  0.75719413204E+01  0.21674258265E+02  0.50528798422E+02  0.29999813283E+02 0.  0.
         12    1    1    2    0    0 -0.33556860793E+02 -0.75719413204E+01 -0.21674258265E+02  0.40659201578E+02  0.00000000000E+00 0. -1.
         11    1    3    3    0    0  0.10309155212E+02  0.22051612899E+01  0.15823307269E+00  0.10543550420E+02  0.51100000000E-03 0. -1.
        -11    1    3    3    0    0  0.16061293073E+02 -0.62802486621E+01  0.39055663308E+01  0.17682197461E+02  0.51100000000E-03 0.  1.
         12    1    3    3    0    0  0.71864125079E+01  0.11647028693E+02  0.17610458861E+02  0.22303050540E+02  0.00000000000E+00 0. -1.
</event>
<event>
 7    1  0.2639126E-011  0.5052886E+02  0.7816164E-02  0.1300439E+00
        -11   -1    0    0    0    0  0.00000000000E+00  0.00000000000E+00  0.45593999997E+02  0.45594000000E+02  0.51100000000E-03 0. -1.
         11   -1    0    0    0    0 -0.00000000000E+00 -0.00000000000E+00 -0.45593999997E+02  0.45594000000E+02  0.51100000000E-03 0.  1.
    9900012    2    1    2    0    0 -0.21627472086E+02 -0.58677235586E+01 -0.33926213849E+02  0.50528859395E+02  0.29999998618E+02 0.  0.
         12    1    1    2    0    0  0.21627472086E+02  0.58677235586E+01  0.33926213849E+02  0.40659140605E+02  0.00000000000E+00 0. -1.
         11    1    3    3    0    0 -0.30092046067E+01 -0.63412098422E+01 -0.10190402361E+00  0.70197321401E+01  0.51100000000E-03 0. -1.
        -11    1    3    3    0    0 -0.17574168142E+02 -0.71262425652E+01 -0.19151773456E+02  0.26952275335E+02  0.51100000000E-03 0.  1.
         12    1    3    3    0    0 -0.10440993375E+01  0.75997288488E+01 -0.14672536369E+02  0.16556851920E+02  0.00000000000E+00 0. -1.
</event>
<event>
 7    1  0.2639126E-011  0.5052886E+02  0.7816164E-02  0.1300439E+00
        -11   -1    0    0    0    0  0.00000000000E+00  0.00000000000E+00  0.45593999997E+02  0.45594000000E+02  0.51100000000E-03 0.  1.
         11   -1    0    0    0    0 -0.00000000000E+00 -0.00000000000E+00 -0.45593999997E+02  0.45594000000E+02  0.51100000000E-03 0. -1.
    9900012    2    1    2    0    0 -0.36941058346E+02 -0.12564093962E+02 -0.11430999143E+02  0.50528856007E+02  0.29999988320E+02 0.  0.
         12    1    1    2    0    0  0.36941058346E+02  0.12564093962E+02  0.11430999143E+02  0.40659143993E+02  0.00000000000E+00 0. -1.
         11    1    3    3    0    0 -0.10338719622E+02  0.64450111300E+01  0.19726325305E+01  0.12341741014E+02  0.51100000000E-03 0. -1.
        -11    1    3    3    0    0  0.17450414891E+01 -0.27676031538E+00 -0.89119196909E+00  0.19788859133E+01  0.51100000000E-03 0.  1.
        -12    1    3    3    0    0 -0.28347380213E+02 -0.18732344777E+02 -0.12512439704E+02  0.36208229080E+02  0.00000000000E+00 0.  1.
</event>
<event>
 7    1  0.2639126E-011  0.5052890E+02  0.7816164E-02  0.1300439E+00
        -11   -1    0    0    0    0  0.00000000000E+00  0.00000000000E+00  0.45593999997E+02  0.45594000000E+02  0.51100000000E-03 0. -1.
         11   -1    0    0    0    0 -0.00000000000E+00 -0.00000000000E+00 -0.45593999997E+02  0.45594000000E+02  0.51100000000E-03 0.  1.
    9900012    2    1    2    0    0  0.64110194279E+01  0.39305319058E+02  0.81947237541E+01  0.50528895561E+02  0.30000108548E+02 0.  0.
         12    1    1    2    0    0 -0.64110194279E+01 -0.39305319058E+02 -0.81947237541E+01  0.40659104439E+02  0.00000000000E+00 0. -1.
         11    1    3    3    0    0  0.62624312298E+01  0.28701583792E+02  0.36785966311E+00  0.29379146994E+02  0.51100000000E-03 0. -1.
        -11    1    3    3    0    0  0.50771692890E+01  0.96835261403E+01 -0.10196349739E+01  0.10981255950E+02  0.51100000000E-03 0.  1.
         12    1    3    3    0    0 -0.49285810909E+01  0.92020912533E+00  0.88464990649E+01  0.10168492617E+02  0.00000000000E+00 0. -1.
</event>
<event>
 7    1  0.2639126E-011  0.5052886E+02  0.7816164E-02  0.1300439E+00
        -11   -1    0    0    0    0  0.00000000000E+00  0.00000000000E+00  0.45593999997E+02  0.45594000000E+02  0.51100000000E-03 0. -1.
         11   -1    0    0    0    0 -0.00000000000E+00 -0.00000000000E+00 -0.45593999997E+02  0.45594000000E+02  0.51100000000E-03 0.  1.
    9900012    2    1    2    0    0  0.27411768306E+02 -0.29830088793E+02 -0.34535050232E+01  0.50528856674E+02  0.29999990346E+02 0.  0.
         12    1    1    2    0    0 -0.27411768306E+02  0.29830088793E+02  0.34535050232E+01  0.40659143326E+02  0.00000000000E+00 0. -1.
         11    1    3    3    0    0  0.34186028434E+00 -0.69738372943E+01  0.58627531298E+01  0.91171897855E+01  0.51100000000E-03 0. -1.
        -11    1    3    3    0    0  0.22136443705E+02 -0.15342685034E+02  0.19441480090E+01  0.27003700408E+02  0.51100000000E-03 0.  1.
        -12    1    3    3    0    0  0.49334643165E+01 -0.75135664641E+01 -0.11260406162E+02  0.14407966481E+02  0.00000000000E+00 0.  1.
</event>
<event>
 7    1  0.2639126E-011  0.5052887E+02  0.7816164E-02  0.1300439E+00
        -11   -1    0    0    0    0  0.00000000000E+00  0.00000000000E+00  0.45593999997E+02  0.45594000000E+02  0.51100000000E-03 0.  1.
         11   -1    0    0    0    0 -0.00000000000E+00 -0.00000000000E+00 -0.45593999997E+02  0.45594000000E+02  0.51100000000E-03 0. -1.
    9900012    2    1    2    0    0  0.16168242074E+02 -0.92107267546E+01 -0.36151284064E+02  0.50528869678E+02  0.30000029872E+02 0.  0.
         12    1    1    2    0    0 -0.16168242074E+02  0.92107267546E+01  0.36151284064E+02  0.40659130322E+02  0.00000000000E+00 0. -1.
         11    1    3    3    0    0  0.38757021200E+00 -0.79168674288E+01 -0.95293080221E+01  0.12394947043E+02  0.51100000000E-03 0. -1.
        -11    1    3    3    0    0  0.42565619279E+01 -0.10313168741E+02 -0.17916296582E+02  0.21106242024E+02  0.51100000000E-03 0.  1.
        -12    1    3    3    0    0  0.11524109934E+02  0.90193094153E+01 -0.87056794599E+01  0.17027680610E+02  0.00000000000E+00 0.  1.
</event>
<event>
 7    1  0.2639126E-011  0.5052877E+02  0.7816164E-02  0.1300439E+00
        -11   -1    0    0    0    0  0.00000000000E+00  0.00000000000E+00  0.45593999997E+02  0.45594000000E+02  0.51100000000E-03 0.  1.
         11   -1    0    0    0    0 -0.00000000000E+00 -0.00000000000E+00 -0.45593999997E+02  0.45594000000E+02  0.51100000000E-03 0. -1.
    9900012    2    1    2    0    0 -0.29171679808E+02  0.35211743273E+01  0.28103150753E+02  0.50528774064E+02  0.29999739244E+02 0.  0.
         12    1    1    2    0    0  0.29171679808E+02 -0.35211743273E+01 -0.28103150753E+02  0.40659225936E+02  0.00000000000E+00 0. -1.
         11    1    3    3    0    0 -0.17094749073E+01 -0.46942383848E+01  0.51825200130E+01  0.71983812360E+01  0.51100000000E-03 0. -1.
        -11    1    3    3    0    0 -0.12612719368E+02 -0.78434216713E+01  0.10350499696E+02  0.18103391880E+02  0.51100000000E-03 0.  1.
        -12    1    3    3    0    0 -0.14849485533E+02  0.16058834383E+02  0.12570131044E+02  0.25227000948E+02  0.00000000000E+00 0.  1.
</event>
<event>
 7    1  0.2639126E-011  0.5052888E+02  0.7816164E-02  0.1300439E+00
        -11   -1    0    0    0    0  0.00000000000E+00  0.00000000000E+00  0.45593999997E+02  0.45594000000E+02  0.51100000000E-03 0. -1.
         11   -1    0    0    0    0 -0.00000000000E+00 -0.00000000000E+00 -0.45593999997E+02  0.45594000000E+02  0.51100000000E-03 0.  1.
    9900012    2    1    2    0    0 -0.38512557047E+02  0.12240666879E+02  0.44847448213E+01  0.50528881563E+02  0.30000065998E+02 0.  0.
         12    1    1    2    0    0  0.38512557047E+02 -0.12240666879E+02 -0.44847448213E+01  0.40659118437E+02  0.00000000000E+00 0. -1.
         11    1    3    3    0    0 -0.47683245806E+00 -0.29686047695E+01 -0.35205926053E+01  0.46297468639E+01  0.51100000000E-03 0. -1.
        -11    1    3    3    0    0 -0.14454772680E+01  0.28422667850E+01 -0.43083977503E+01  0.53600537726E+01  0.51100000000E-03 0.  1.
        -12    1    3    3    0    0 -0.36590247321E+02  0.12367004864E+02  0.12313735177E+02  0.40539080926E+02  0.00000000000E+00 0.  1.
</event>
<event>
 7    1  0.2639126E-011  0.5052885E+02  0.7816164E-02  0.1300439E+00
        -11   -1    0    0    0    0  0.00000000000E+00  0.00000000000E+00  0.45593999997E+02  0.45594000000E+02  0.51100000000E-03 0.  1.
         11   -1    0    0    0    0 -0.00000000000E+00 -0.00000000000E+00 -0.45593999997E+02  0.45594000000E+02  0.51100000000E-03 0. -1.
    9900012    2    1    2    0    0  0.34132676344E+02 -0.19350816583E+02  0.10661735056E+02  0.50528852306E+02  0.29999977070E+02 0.  0.
         12    1    1    2    0    0 -0.34132676344E+02  0.19350816583E+02 -0.10661735056E+02  0.40659147694E+02  0.00000000000E+00 0. -1.
         11    1    3    3    0    0  0.76433586878E+00  0.16252070038E+00 -0.51531809289E+01  0.52120913505E+01  0.51100000000E-03 0. -1.
        -11    1    3    3    0    0  0.24527570055E+01  0.30201864519E+01 -0.76085685626E-01  0.38914434886E+01  0.51100000000E-03 0.  1.
        -12    1    3    3    0    0  0.30915583469E+02 -0.22533523735E+02  0.15891001670E+02  0.41425317467E+02  0.00000000000E+00 0.  1.
</event>
<event>
 7    1  0.2639126E-011  0.5052885E+02  0.7816164E-02  0.1300439E+00
        -11   -1    0    0    0    0  0.00000000000E+00  0.00000000000E+00  0.45593999997E+02  0.45594000000E+02  0.51100000000E-03 0. -1.
         11   -1    0    0    0    0 -0.00000000000E+00 -0.00000000000E+00 -0.45593999997E+02  0.45594000000E+02  0.51100000000E-03 0.  1.
    9900012    2    1    2    0    0  0.19437541198E+02  0.24165546724E+02 -0.26294000119E+02  0.50528854675E+02  0.29999984270E+02 0.  0.
         12    1    1    2    0    0 -0.19437541198E+02 -0.24165546724E+02  0.26294000119E+02  0.40659145325E+02  0.00000000000E+00 0. -1.
         11    1    3    3    0    0  0.60743660718E+01 -0.32413889736E+01  0.90482687802E+00  0.69442953274E+01  0.51100000000E-03 0. -1.
        -11    1    3    3    0    0  0.53919966614E+01  0.19886940983E+02 -0.93204939028E+01  0.22614943212E+02  0.51100000000E-03 0.  1.
        -12    1    3    3    0    0  0.79711784652E+01  0.75199947148E+01 -0.17878333094E+02  0.20969616135E+02  0.00000000000E+00 0.  1.
</event>
<event>
 7    1  0.2639126E-011  0.5052893E+02  0.7816164E-02  0.1300439E+00
        -11   -1    0    0    0    0  0.00000000000E+00  0.00000000000E+00  0.45593999997E+02  0.45594000000E+02  0.51100000000E-03 0. -1.
         11   -1    0    0    0    0 -0.00000000000E+00 -0.00000000000E+00 -0.45593999997E+02  0.45594000000E+02  0.51100000000E-03 0.  1.
    9900012    2    1    2    0    0  0.14382425997E+02 -0.60925356804E+01 -0.37539138437E+02  0.50528928648E+02  0.30000209118E+02 0.  0.
         12    1    1    2    0    0 -0.14382425997E+02  0.60925356804E+01  0.37539138437E+02  0.40659071352E+02  0.00000000000E+00 0. -1.
         11    1    3    3    0    0  0.80766081118E+01 -0.68038275352E+01 -0.20471816411E+02  0.23035167356E+02  0.51100000000E-03 0. -1.
        -11    1    3    3    0    0  0.11946478418E+02 -0.39507335914E+01 -0.53367041528E+01  0.13667737705E+02  0.51100000000E-03 0.  1.
         12    1    3    3    0    0 -0.56406605330E+01  0.46620254463E+01 -0.11730617874E+02  0.13826023587E+02  0.00000000000E+00 0. -1.
</event>
<event>
 7    1  0.2639126E-011  0.5052886E+02  0.7816164E-02  0.1300439E+00
        -11   -1    0    0    0    0  0.00000000000E+00  0.00000000000E+00  0.45593999997E+02  0.45594000000E+02  0.51100000000E-03 0.  1.
         11   -1    0    0    0    0 -0.00000000000E+00 -0.00000000000E+00 -0.45593999997E+02  0.45594000000E+02  0.51100000000E-03 0. -1.
    9900012    2    1    2    0    0 -0.28637140506E+01  0.19663375815E+02  0.35472754851E+02  0.50528861503E+02  0.30000005024E+02 0.  0.
         12    1    1    2    0    0  0.28637140506E+01 -0.19663375815E+02 -0.35472754851E+02  0.40659138497E+02  0.00000000000E+00 0. -1.
         11    1    3    3    0    0 -0.61486054612E+01  0.62009943044E+01  0.33345204391E+01  0.93475508183E+01  0.51100000000E-03 0. -1.
        -11    1    3    3    0    0 -0.90204072140E+01  0.33169237261E+01  0.14564344966E+02  0.17449638216E+02  0.51100000000E-03 0.  1.
        -12    1    3    3    0    0  0.12305298625E+02  0.10145457784E+02  0.17573889446E+02  0.23731672469E+02  0.00000000000E+00 0.  1.
</event>
<event>
 7    1  0.2639126E-011  0.5052886E+02  0.7816164E-02  0.1300439E+00
        -11   -1    0    0    0    0  0.00000000000E+00  0.00000000000E+00  0.45593999997E+02  0.45594000000E+02  0.51100000000E-03 0.  1.
         11   -1    0    0    0    0 -0.00000000000E+00 -0.00000000000E+00 -0.45593999997E+02  0.45594000000E+02  0.51100000000E-03 0. -1.
    9900012    2    1    2    0    0 -0.11106829979E+02  0.76155412154E+01  0.38364142835E+02  0.50528860859E+02  0.30000003067E+02 0.  0.
         12    1    1    2    0    0  0.11106829979E+02 -0.76155412154E+01 -0.38364142835E+02  0.40659139141E+02  0.00000000000E+00 0. -1.
         11    1    3    3    0    0  0.51466083174E+01  0.15104010904E+01  0.26883045749E+01  0.59996558547E+01  0.51100000000E-03 0. -1.
        -11    1    3    3    0    0  0.20289203878E+01 -0.45269290129E+01  0.36858543321E+01  0.61802205985E+01  0.51100000000E-03 0.  1.
        -12    1    3    3    0    0 -0.18282358684E+02  0.10632069138E+02  0.31989983928E+02  0.38348984406E+02  0.00000000000E+00 0.  1.
</event>
<event>
 7    1  0.2639126E-011  0.5052885E+02  0.7816164E-02  0.1300439E+00
        -11   -1    0    0    0    0  0.00000000000E+00  0.00000000000E+00  0.45593999997E+02  0.45594000000E+02  0.51100000000E-03 0. -1.
         11   -1    0    0    0    0 -0.00000000000E+00 -0.00000000000E+00 -0.45593999997E+02  0.45594000000E+02  0.51100000000E-03 0.  1.
    9900012    2    1    2    0    0 -0.92886198131E+01 -0.33548697874E+02 -0.21008869970E+02  0.50528853372E+02  0.29999980311E+02 0.  0.
         12    1    1    2    0    0  0.92886198131E+01  0.33548697874E+02  0.21008869970E+02  0.40659146628E+02  0.00000000000E+00 0. -1.
         11    1    3    3    0    0 -0.45773364221E+01 -0.17641266975E+02 -0.70899906415E+00  0.18239215694E+02  0.51100000000E-03 0. -1.
        -11    1    3    3    0    0 -0.77384227048E+01 -0.62040407514E+01 -0.37923464352E+00  0.99255794178E+01  0.51100000000E-03 0.  1.
        -12    1    3    3    0    0  0.30271393138E+01 -0.97033901478E+01 -0.19920636262E+02  0.22364058261E+02  0.00000000000E+00 0.  1.
</event>
<event>
 7    1  0.2639126E-011  0.5052886E+02  0.7816164E-02  0.1300439E+00
        -11   -1    0    0    0    0  0.00000000000E+00  0.00000000000E+00  0.45593999997E+02  0.45594000000E+02  0.51100000000E-03 0.  1.
         11   -1    0    0    0    0 -0.00000000000E+00 -0.00000000000E+00 -0.45593999997E+02  0.45594000000E+02  0.51100000000E-03 0. -1.
    9900012    2    1    2    0    0  0.27326536290E+02  0.17356582597E+02  0.24600312071E+02  0.50528857129E+02  0.29999991729E+02 0.  0.
         12    1    1    2    0    0 -0.27326536290E+02 -0.17356582597E+02 -0.24600312071E+02  0.40659142871E+02  0.00000000000E+00 0. -1.
         11    1    3    3    0    0  0.97621454751E+01  0.28675981749E+01 -0.25981649183E+01  0.10501098265E+02  0.51100000000E-03 0. -1.
        -11    1    3    3    0    0  0.11200288035E+02  0.17258430387E+02  0.13317395656E+02  0.24508221045E+02  0.51100000000E-03 0.  1.
         12    1    3    3    0    0  0.63641027793E+01 -0.27694459641E+01  0.13881081333E+02  0.15519537818E+02  0.00000000000E+00 0. -1.
</event>
<event>
 7    1  0.2639126E-011  0.5052885E+02  0.7816164E-02  0.1300439E+00
        -11   -1    0    0    0    0  0.00000000000E+00  0.00000000000E+00  0.45593999997E+02  0.45594000000E+02  0.51100000000E-03 0.  1.
         11   -1    0    0    0    0 -0.00000000000E+00 -0.00000000000E+00 -0.45593999997E+02  0.45594000000E+02  0.51100000000E-03 0. -1.
    9900012    2    1    2    0    0  0.35643089808E+01 -0.29047330330E+01  0.40398320717E+02  0.50528854789E+02  0.29999984616E+02 0.  0.
         12    1    1    2    0    0 -0.35643089808E+01  0.29047330330E+01 -0.40398320717E+02  0.40659145211E+02  0.00000000000E+00 0. -1.
         11    1    3    3    0    0 -0.45745485924E+01 -0.35274784272E+00 -0.12606627635E+01  0.47581715741E+01  0.51100000000E-03 0. -1.
        -11    1    3    3    0    0 -0.13274932411E+01 -0.55887151688E+00  0.32228765067E+02  0.32260934172E+02  0.51100000000E-03 0.  1.
        -12    1    3    3    0    0  0.94663508143E+01 -0.19931136734E+01  0.94302184145E+01  0.13509749043E+02  0.00000000000E+00 0.  1.
</event>
<event>
 7    1  0.2639126E-011  0.5052886E+02  0.7816164E-02  0.1300439E+00
        -11   -1    0    0    0    0  0.00000000000E+00  0.00000000000E+00  0.45593999997E+02  0.45594000000E+02  0.51100000000E-03 0. -1.
         11   -1    0    0    0    0 -0.00000000000E+00 -0.00000000000E+00 -0.45593999997E+02  0.45594000000E+02  0.51100000000E-03 0.  1.
    9900012    2    1    2    0    0  0.36289899333E+01  0.37258306947E+02  0.15868664597E+02  0.50528861782E+02  0.30000005873E+02 0.  0.
         12    1    1    2    0    0 -0.36289899333E+01 -0.37258306947E+02 -0.15868664597E+02  0.40659138218E+02  0.00000000000E+00 0. -1.
         11    1    3    3    0    0 -0.76711197890E+00 -0.16296193052E+01  0.20502908416E+01  0.27290680944E+01  0.51100000000E-03 0. -1.
        -11    1    3    3    0    0  0.91778751074E+00 -0.14172422746E+00  0.81557020599E+01  0.82084039875E+01  0.51100000000E-03 0.  1.
        -12    1    3    3    0    0  0.34783144014E+01  0.39029650480E+02  0.56626716954E+01  0.39591389700E+02  0.00000000000E+00 0.  1.
</event>
<event>
 7    1  0.2639126E-011  0.5052886E+02  0.7816164E-02  0.1300439E+00
        -11   -1    0    0    0    0  0.00000000000E+00  0.00000000000E+00  0.45593999997E+02  0.45594000000E+02  0.51100000000E-03 0.  1.
         11   -1    0    0    0    0 -0.00000000000E+00 -0.00000000000E+00 -0.45593999997E+02  0.45594000000E+02  0.51100000000E-03 0. -1.
    9900012    2    1    2    0    0  0.24934160982E+02 -0.40694556273E+00  0.32113668061E+02  0.50528860008E+02  0.30000000479E+02 0.  0.
         12    1    1    2    0    0 -0.24934160982E+02  0.40694556273E+00 -0.32113668061E+02  0.40659139992E+02  0.00000000000E+00 0. -1.
         11    1    3    3    0    0  0.13946444845E+01  0.92322969346E+01  0.34199607120E+01  0.99436648907E+01  0.51100000000E-03 0. -1.
        -11    1    3    3    0    0  0.64107545170E+01  0.24999784082E+01  0.32839127411E+01  0.76244179234E+01  0.51100000000E-03 0.  1.
        -12    1    3    3    0    0  0.17128761980E+02 -0.12139220905E+02  0.25409794608E+02  0.32960777194E+02  0.00000000000E+00 0.  1.
</event>
<event>
 7    1  0.2639126E-011  0.5052886E+02  0.7816164E-02  0.1300439E+00
        -11   -1    0    0    0    0  0.00000000000E+00  0.00000000000E+00  0.45593999997E+02  0.45594000000E+02  0.51100000000E-03 0.  1.
         11   -1    0    0    0    0 -0.00000000000E+00 -0.00000000000E+00 -0.45593999997E+02  0.45594000000E+02  0.51100000000E-03 0. -1.
    9900012    2    1    2    0    0  0.13611139817E+02  0.37606873195E+02  0.73229740877E+01  0.50528856033E+02  0.29999988399E+02 0.  0.
         12    1    1    2    0    0 -0.13611139817E+02 -0.37606873195E+02 -0.73229740877E+01  0.40659143967E+02  0.00000000000E+00 0. -1.
         11    1    3    3    0    0  0.12758703498E+02  0.23993481311E+01 -0.35484507856E+00  0.12987197608E+02  0.51100000000E-03 0. -1.
        -11    1    3    3    0    0  0.16928359916E+01  0.17231137561E+00  0.42174051802E+00  0.17530688036E+01  0.51100000000E-03 0.  1.
        -12    1    3    3    0    0 -0.84039967265E+00  0.35035213688E+02  0.72560786482E+01  0.35788589622E+02  0.00000000000E+00 0.  1.
</event>
<event>
 7    1  0.2639126E-011  0.5052886E+02  0.7816164E-02  0.1300439E+00
        -11   -1    0    0    0    0  0.00000000000E+00  0.00000000000E+00  0.45593999997E+02  0.45594000000E+02  0.51100000000E-03 0.  1.
         11   -1    0    0    0    0 -0.00000000000E+00 -0.00000000000E+00 -0.45593999997E+02  0.45594000000E+02  0.51100000000E-03 0. -1.
    9900012    2    1    2    0    0 -0.21382176270E+02  0.27634701730E+02  0.20791613433E+02  0.50528863378E+02  0.30000010723E+02 0.  0.
         12    1    1    2    0    0  0.21382176270E+02 -0.27634701730E+02 -0.20791613433E+02  0.40659136622E+02  0.00000000000E+00 0. -1.
         11    1    3    3    0    0 -0.10797882137E+02  0.96065387144E+01  0.80851057997E+01  0.16560458351E+02  0.51100000000E-03 0. -1.
        -11    1    3    3    0    0 -0.11754203486E+02  0.22493380027E+02  0.14243748224E+02  0.29103226769E+02  0.51100000000E-03 0.  1.
        -12    1    3    3    0    0  0.11699093536E+01 -0.44652170115E+01 -0.15372405907E+01  0.48651782588E+01  0.00000000000E+00 0.  1.
</event>
<event>
 7    1  0.2639126E-011  0.5052885E+02  0.7816164E-02  0.1300439E+00
        -11   -1    0    0    0    0  0.00000000000E+00  0.00000000000E+00  0.45593999997E+02  0.45594000000E+02  0.51100000000E-03 0. -1.
         11   -1    0    0    0    0 -0.00000000000E+00 -0.00000000000E+00 -0.45593999997E+02  0.45594000000E+02  0.51100000000E-03 0.  1.
    9900012    2    1    2    0    0 -0.35277897797E+02 -0.73916151742E+01  0.18814909839E+02  0.50528845065E+02  0.29999955058E+02 0.  0.
         12    1    1    2    0    0  0.35277897797E+02  0.73916151742E+01 -0.18814909839E+02  0.40659154935E+02  0.00000000000E+00 0. -1.
         11    1    3    3    0    0 -0.90245032442E+01 -0.62319829120E+01  0.21929946150E+01  0.11184296825E+02  0.51100000000E-03 0. -1.
        -11    1    3    3    0    0 -0.19452693197E+02  0.17626717521E+01 -0.16779925954E+01  0.19604334820E+02  0.51100000000E-03 0.  1.
         12    1    3    3    0    0 -0.68007013552E+01 -0.29223040143E+01  0.18299907819E+02  0.19740213420E+02  0.00000000000E+00 0. -1.
</event>
<event>
 7    1  0.2639126E-011  0.5052886E+02  0.7816164E-02  0.1300439E+00
        -11   -1    0    0    0    0  0.00000000000E+00  0.00000000000E+00  0.45593999997E+02  0.45594000000E+02  0.51100000000E-03 0.  1.
         11   -1    0    0    0    0 -0.00000000000E+00 -0.00000000000E+00 -0.45593999997E+02  0.45594000000E+02  0.51100000000E-03 0. -1.
    9900012    2    1    2    0    0 -0.71694170929E+01  0.31520332909E+02  0.24662401087E+02  0.50528856434E+02  0.29999989617E+02 0.  0.
         12    1    1    2    0    0  0.71694170929E+01 -0.31520332909E+02 -0.24662401087E+02  0.40659143566E+02  0.00000000000E+00 0. -1.
         11    1    3    3    0    0 -0.97444506333E+01  0.23947621936E+02  0.42312434484E+01  0.26198212456E+02  0.51100000000E-03 0. -1.
        -11    1    3    3    0    0  0.11483790057E+01  0.71088929827E+01  0.48605284928E+01  0.86879152430E+01  0.51100000000E-03 0.  1.
         12    1    3    3    0    0  0.14266545346E+01  0.46381799095E+00  0.15570629146E+02  0.15642728735E+02  0.00000000000E+00 0. -1.
</event>
<event>
 7    1  0.2639126E-011  0.5052886E+02  0.7816164E-02  0.1300439E+00
        -11   -1    0    0    0    0  0.00000000000E+00  0.00000000000E+00  0.45593999997E+02  0.45594000000E+02  0.51100000000E-03 0.  1.
         11   -1    0    0    0    0 -0.00000000000E+00 -0.00000000000E+00 -0.45593999997E+02  0.45594000000E+02  0.51100000000E-03 0. -1.
    9900012    2    1    2    0    0 -0.11421674404E+02 -0.29757619135E+02  0.25242716700E+02  0.50528864629E+02  0.30000014526E+02 0.  0.
         12    1    1    2    0    0  0.11421674404E+02  0.29757619135E+02 -0.25242716700E+02  0.40659135371E+02  0.00000000000E+00 0. -1.
         11    1    3    3    0    0 -0.63832902747E+01 -0.83884045406E+00  0.86126462844E+01  0.10753033261E+02  0.51100000000E-03 0. -1.
        -11    1    3    3    0    0 -0.99719653468E+01 -0.29479463470E+02  0.15024117818E+02  0.34557242017E+02  0.51100000000E-03 0.  1.
         12    1    3    3    0    0  0.49335812179E+01  0.56068478919E+00  0.16059525978E+01  0.52185893508E+01  0.00000000000E+00 0. -1.
</event>
<event>
 7    1  0.2639126E-011  0.5052886E+02  0.7816164E-02  0.1300439E+00
        -11   -1    0    0    0    0  0.00000000000E+00  0.00000000000E+00  0.45593999997E+02  0.45594000000E+02  0.51100000000E-03 0.  1.
         11   -1    0    0    0    0 -0.00000000000E+00 -0.00000000000E+00 -0.45593999997E+02  0.45594000000E+02  0.51100000000E-03 0. -1.
    9900012    2    1    2    0    0 -0.15211040984E+02 -0.23470920287E+01  0.37633509306E+02  0.50528860419E+02  0.30000001728E+02 0.  0.
         12    1    1    2    0    0  0.15211040984E+02  0.23470920287E+01 -0.37633509306E+02  0.40659139581E+02  0.00000000000E+00 0. -1.
         11    1    3    3    0    0 -0.17462343042E+02  0.34171438675E+00  0.11067031821E+02  0.20676783765E+02  0.51100000000E-03 0. -1.
        -11    1    3    3    0    0 -0.38653543250E+01  0.17824422241E+01  0.33085574358E+01  0.53911609981E+01  0.51100000000E-03 0.  1.
        -12    1    3    3    0    0  0.61166563836E+01 -0.44712486396E+01  0.23257920049E+02  0.24460915656E+02  0.00000000000E+00 0.  1.
</event>
<event>
 7    1  0.2639126E-011  0.5052885E+02  0.7816164E-02  0.1300439E+00
        -11   -1    0    0    0    0  0.00000000000E+00  0.00000000000E+00  0.45593999997E+02  0.45594000000E+02  0.51100000000E-03 0.  1.
         11   -1    0    0    0    0 -0.00000000000E+00 -0.00000000000E+00 -0.45593999997E+02  0.45594000000E+02  0.51100000000E-03 0. -1.
    9900012    2    1    2    0    0 -0.22883263590E+02 -0.33546032420E+02  0.20460405623E+01  0.50528851882E+02  0.29999975782E+02 0.  0.
         12    1    1    2    0    0  0.22883263590E+02  0.33546032420E+02 -0.20460405623E+01  0.40659148118E+02  0.00000000000E+00 0. -1.
         11    1    3    3    0    0 -0.75163819672E+01 -0.24481989287E+01  0.36961937381E+00  0.79136776921E+01  0.51100000000E-03 0. -1.
        -11    1    3    3    0    0 -0.13793312157E+00  0.36796800872E+01 -0.24545501295E+01  0.44253686502E+01  0.51100000000E-03 0.  1.
        -12    1    3    3    0    0 -0.15228948501E+02 -0.34777513579E+02  0.41309713180E+01  0.38189805540E+02  0.00000000000E+00 0.  1.
</event>
<event>
 7    1  0.2639126E-011  0.5052883E+02  0.7816164E-02  0.1300439E+00
        -11   -1    0    0    0    0  0.00000000000E+00  0.00000000000E+00  0.45593999997E+02  0.45594000000E+02  0.51100000000E-03 0. -1.
         11   -1    0    0    0    0 -0.00000000000E+00 -0.00000000000E+00 -0.45593999997E+02  0.45594000000E+02  0.51100000000E-03 0.  1.
    9900012    2    1    2    0    0  0.24954652549E+02  0.28108896239E+02 -0.15502354926E+02  0.50528834491E+02  0.29999922919E+02 0.  0.
         12    1    1    2    0    0 -0.24954652549E+02 -0.28108896239E+02  0.15502354926E+02  0.40659165509E+02  0.00000000000E+00 0. -1.
         11    1    3    3    0    0 -0.52268556103E+01  0.51306948352E+01 -0.14534468698E+00  0.73256518074E+01  0.51100000000E-03 0. -1.
        -11    1    3    3    0    0  0.10495154440E+01  0.70482986934E+01 -0.35688828322E+01  0.79697504396E+01  0.51100000000E-03 0.  1.
         12    1    3    3    0    0  0.29131992715E+02  0.15929902711E+02 -0.11788127407E+02  0.35233432244E+02  0.00000000000E+00 0. -1.
</event>
<event>
 7    1  0.2639126E-011  0.5052886E+02  0.7816164E-02  0.1300439E+00
        -11   -1    0    0    0    0  0.00000000000E+00  0.00000000000E+00  0.45593999997E+02  0.45594000000E+02  0.51100000000E-03 0. -1.
         11   -1    0    0    0    0 -0.00000000000E+00 -0.00000000000E+00 -0.45593999997E+02  0.45594000000E+02  0.51100000000E-03 0.  1.
    9900012    2    1    2    0    0  0.26494820829E+02  0.25540253679E+02 -0.17288299903E+02  0.50528863237E+02  0.30000010296E+02 0.  0.
         12    1    1    2    0    0 -0.26494820829E+02 -0.25540253679E+02  0.17288299903E+02  0.40659136763E+02  0.00000000000E+00 0. -1.
         11    1    3    3    0    0  0.10581421595E+02 -0.51723180275E+00 -0.69517029890E+00  0.10616839158E+02  0.51100000000E-03 0. -1.
        -11    1    3    3    0    0  0.19942488861E+01 -0.25957098979E+01 -0.50738602745E+01  0.60381120261E+01  0.51100000000E-03 0.  1.
         12    1    3    3    0    0  0.13919150348E+02  0.28653195380E+02 -0.11519269329E+02  0.33873912053E+02  0.00000000000E+00 0. -1.
</event>
<event>
 7    1  0.2639126E-011  0.5052885E+02  0.7816164E-02  0.1300439E+00
        -11   -1    0    0    0    0  0.00000000000E+00  0.00000000000E+00  0.45593999997E+02  0.45594000000E+02  0.51100000000E-03 0.  1.
         11   -1    0    0    0    0 -0.00000000000E+00 -0.00000000000E+00 -0.45593999997E+02  0.45594000000E+02  0.51100000000E-03 0. -1.
    9900012    2    1    2    0    0  0.11710013855E+02  0.23251314677E+02 -0.31231691139E+02  0.50528848630E+02  0.29999965897E+02 0.  0.
         12    1    1    2    0    0 -0.11710013855E+02 -0.23251314677E+02  0.31231691139E+02  0.40659151370E+02  0.00000000000E+00 0. -1.
         11    1    3    3    0    0 -0.20264472951E+00  0.78518295505E+01 -0.15772419395E+02  0.17619917877E+02  0.51100000000E-03 0. -1.
        -11    1    3    3    0    0  0.14773408855E+01  0.16607713104E+02 -0.35841985654E+01  0.17054182779E+02  0.51100000000E-03 0.  1.
         12    1    3    3    0    0  0.10435317699E+02 -0.12082279777E+01 -0.11875073179E+02  0.15854747975E+02  0.00000000000E+00 0. -1.
</event>
<event>
 7    1  0.2639126E-011  0.5052886E+02  0.7816164E-02  0.1300439E+00
        -11   -1    0    0    0    0  0.00000000000E+00  0.00000000000E+00  0.45593999997E+02  0.45594000000E+02  0.51100000000E-03 0.  1.
         11   -1    0    0    0    0 -0.00000000000E+00 -0.00000000000E+00 -0.45593999997E+02  0.45594000000E+02  0.51100000000E-03 0. -1.
    9900012    2    1    2    0    0 -0.83993513184E+01 -0.85816172694E+01  0.38845498085E+02  0.50528856146E+02  0.29999988740E+02 0.  0.
         12    1    1    2    0    0  0.83993513184E+01  0.85816172694E+01 -0.38845498085E+02  0.40659143854E+02  0.00000000000E+00 0. -1.
         11    1    3    3    0    0 -0.11447133404E+02 -0.11263167168E+02  0.15019091087E+02  0.21987926123E+02  0.51100000000E-03 0. -1.
        -11    1    3    3    0    0 -0.10359970335E+01 -0.58113098814E+01  0.12373184541E+02  0.13709132297E+02  0.51100000000E-03 0.  1.
        -12    1    3    3    0    0  0.40837791192E+01  0.84928597803E+01  0.11453222457E+02  0.14831797726E+02  0.00000000000E+00 0.  1.
</event>
<event>
 7    1  0.2639126E-011  0.5052886E+02  0.7816164E-02  0.1300439E+00
        -11   -1    0    0    0    0  0.00000000000E+00  0.00000000000E+00  0.45593999997E+02  0.45594000000E+02  0.51100000000E-03 0.  1.
         11   -1    0    0    0    0 -0.00000000000E+00 -0.00000000000E+00 -0.45593999997E+02  0.45594000000E+02  0.51100000000E-03 0. -1.
    9900012    2    1    2    0    0  0.10467341712E+02 -0.29324055100E+02  0.26147659243E+02  0.50528861619E+02  0.30000005376E+02 0.  0.
         12    1    1    2    0    0 -0.10467341712E+02  0.29324055100E+02 -0.26147659243E+02  0.40659138381E+02  0.00000000000E+00 0. -1.
         11    1    3    3    0    0 -0.71900114003E+01 -0.17387572915E+01  0.59214728850E+00  0.74209284815E+01  0.51100000000E-03 0. -1.
        -11    1    3    3    0    0  0.10734699519E+01 -0.20551756985E+01  0.71878732288E+01  0.75525894039E+01  0.51100000000E-03 0.  1.
        -12    1    3    3    0    0  0.16583883160E+02 -0.25530122110E+02  0.18367638725E+02  0.35555343733E+02  0.00000000000E+00 0.  1.
</event>
<event>
 7    1  0.2639126E-011  0.5052886E+02  0.7816164E-02  0.1300439E+00
        -11   -1    0    0    0    0  0.00000000000E+00  0.00000000000E+00  0.45593999997E+02  0.45594000000E+02  0.51100000000E-03 0.  1.
         11   -1    0    0    0    0 -0.00000000000E+00 -0.00000000000E+00 -0.45593999997E+02  0.45594000000E+02  0.51100000000E-03 0. -1.
    9900012    2    1    2    0    0  0.14561596254E+02  0.24080846697E+02  0.29346863034E+02  0.50528860400E+02  0.30000001672E+02 0.  0.
         12    1    1    2    0    0 -0.14561596254E+02 -0.24080846697E+02 -0.29346863034E+02  0.40659139600E+02  0.00000000000E+00 0. -1.
         11    1    3    3    0    0  0.35368092388E+01  0.53388221730E+00 -0.47586604990E+00  0.36083927963E+01  0.51100000000E-03 0. -1.
        -11    1    3    3    0    0 -0.16858762819E+01 -0.30607478775E+01 -0.15871159393E+01  0.38378761930E+01  0.51100000000E-03 0.  1.
        -12    1    3    3    0    0  0.12710663297E+02  0.26607712357E+02  0.31409845023E+02  0.43082591411E+02  0.00000000000E+00 0.  1.
</event>
<event>
 7    1  0.2639126E-011  0.5052885E+02  0.7816164E-02  0.1300439E+00
        -11   -1    0    0    0    0  0.00000000000E+00  0.00000000000E+00  0.45593999997E+02  0.45594000000E+02  0.51100000000E-03 0. -1.
         11   -1    0    0    0    0 -0.00000000000E+00 -0.00000000000E+00 -0.45593999997E+02  0.45594000000E+02  0.51100000000E-03 0.  1.
    9900012    2    1    2    0    0 -0.29004230086E+02  0.28436057957E+02 -0.18197711771E+01  0.50528851925E+02  0.29999975912E+02 0.  0.
         12    1    1    2    0    0  0.29004230086E+02 -0.28436057957E+02  0.18197711771E+01  0.40659148075E+02  0.00000000000E+00 0. -1.
         11    1    3    3    0    0 -0.20866207798E+02  0.23544892053E+02 -0.47535300096E+01  0.31817552034E+02  0.51100000000E-03 0. -1.
        -11    1    3    3    0    0 -0.45541092182E+01  0.73385467455E+01 -0.47720508995E+01  0.98674540362E+01  0.51100000000E-03 0.  1.
         12    1    3    3    0    0 -0.35839130701E+01 -0.24473808414E+01  0.77058097320E+01  0.88438458547E+01  0.00000000000E+00 0. -1.
</event>
<event>
 7    1  0.2639126E-011  0.5052888E+02  0.7816164E-02  0.1300439E+00
        -11   -1    0    0    0    0  0.00000000000E+00  0.00000000000E+00  0.45593999997E+02  0.45594000000E+02  0.51100000000E-03 0.  1.
         11   -1    0    0    0    0 -0.00000000000E+00 -0.00000000000E+00 -0.45593999997E+02  0.45594000000E+02  0.51100000000E-03 0. -1.
    9900012    2    1    2    0    0 -0.25492333505E+02  0.17465263457E+02  0.26424790826E+02  0.50528879678E+02  0.30000060268E+02 0.  0.
         12    1    1    2    0    0  0.25492333505E+02 -0.17465263457E+02 -0.26424790826E+02  0.40659120322E+02  0.00000000000E+00 0. -1.
         11    1    3    3    0    0 -0.87499664579E+01  0.89596813084E+01  0.63648292303E+01  0.14048090744E+02  0.51100000000E-03 0. -1.
        -11    1    3    3    0    0 -0.12366157492E+02  0.77615632138E+01 -0.13061412787E+01  0.14658435112E+02  0.51100000000E-03 0.  1.
         12    1    3    3    0    0 -0.43762095554E+01  0.74401893439E+00  0.21366102875E+02  0.21822353821E+02  0.00000000000E+00 0. -1.
</event>
<event>
 7    1  0.2639126E-011  0.5052886E+02  0.7816164E-02  0.1300439E+00
        -11   -1    0    0    0    0  0.00000000000E+00  0.00000000000E+00  0.45593999997E+02  0.45594000000E+02  0.51100000000E-03 0.  1.
         11   -1    0    0    0    0 -0.00000000000E+00 -0.00000000000E+00 -0.45593999997E+02  0.45594000000E+02  0.51100000000E-03 0. -1.
    9900012    2    1    2    0    0  0.28699308303E+02  0.18259532742E+02  0.22273413878E+02  0.50528858362E+02  0.29999995476E+02 0.  0.
         12    1    1    2    0    0 -0.28699308303E+02 -0.18259532742E+02 -0.22273413878E+02  0.40659141638E+02  0.00000000000E+00 0. -1.
         11    1    3    3    0    0  0.68841010328E+01 -0.31102837430E+01  0.14434381142E+02  0.16291595109E+02  0.51100000000E-03 0. -1.
        -11    1    3    3    0    0  0.93575018164E+01  0.15280236277E+01  0.47542364854E+01  0.10606623462E+02  0.51100000000E-03 0.  1.
         12    1    3    3    0    0  0.12457705453E+02  0.19841792858E+02  0.30847962501E+01  0.23630639790E+02  0.00000000000E+00 0. -1.
</event>
<event>
 7    1  0.2639126E-011  0.5052886E+02  0.7816164E-02  0.1300439E+00
        -11   -1    0    0    0    0  0.00000000000E+00  0.00000000000E+00  0.45593999997E+02  0.45594000000E+02  0.51100000000E-03 0.  1.
         11   -1    0    0    0    0 -0.00000000000E+00 -0.00000000000E+00 -0.45593999997E+02  0.45594000000E+02  0.51100000000E-03 0. -1.
    9900012    2    1    2    0    0 -0.20627719432E+01  0.23695427792E+02  0.32976313898E+02  0.50528860749E+02  0.30000002733E+02 0.  0.
         12    1    1    2    0    0  0.20627719432E+01 -0.23695427792E+02 -0.32976313898E+02  0.40659139251E+02  0.00000000000E+00 0. -1.
         11    1    3    3    0    0 -0.61099707747E+01  0.11236293554E+02  0.51493374688E+01  0.13787737752E+02  0.51100000000E-03 0. -1.
        -11    1    3    3    0    0  0.18919148755E+01  0.69222494781E+01 -0.10559443459E+01  0.72534059900E+01  0.51100000000E-03 0.  1.
        -12    1    3    3    0    0  0.21552839559E+01  0.55368847599E+01  0.28882920775E+02  0.29487717007E+02  0.00000000000E+00 0.  1.
</event>
<event>
 7    1  0.2639126E-011  0.5052886E+02  0.7816164E-02  0.1300439E+00
        -11   -1    0    0    0    0  0.00000000000E+00  0.00000000000E+00  0.45593999997E+02  0.45594000000E+02  0.51100000000E-03 0. -1.
         11   -1    0    0    0    0 -0.00000000000E+00 -0.00000000000E+00 -0.45593999997E+02  0.45594000000E+02  0.51100000000E-03 0.  1.
    9900012    2    1    2    0    0 -0.22077494354E+02  0.19142549531E+02 -0.28272118035E+02  0.50528860589E+02  0.30000002245E+02 0.  0.
         12    1    1    2    0    0  0.22077494354E+02 -0.19142549531E+02  0.28272118035E+02  0.40659139411E+02  0.00000000000E+00 0. -1.
         11    1    3    3    0    0 -0.17836580275E+02  0.13628068252E+02 -0.13643587605E+02  0.26268142743E+02  0.51100000000E-03 0. -1.
        -11    1    3    3    0    0  0.61246042002E+01  0.61991715214E+01 -0.47469443801E+01  0.99234059359E+01  0.51100000000E-03 0.  1.
         12    1    3    3    0    0 -0.10365518279E+02 -0.68469024257E+00 -0.98815860499E+01  0.14337311909E+02  0.00000000000E+00 0. -1.
</event>
<event>
 7    1  0.2639126E-011  0.5052901E+02  0.7816164E-02  0.1300438E+00
        -11   -1    0    0    0    0  0.00000000000E+00  0.00000000000E+00  0.45593999997E+02  0.45594000000E+02  0.51100000000E-03 0.  1.
         11   -1    0    0    0    0 -0.00000000000E+00 -0.00000000000E+00 -0.45593999997E+02  0.45594000000E+02  0.51100000000E-03 0. -1.
    9900012    2    1    2    0    0  0.25104551388E+02 -0.59297451037E+01  0.31428543273E+02  0.50529007027E+02  0.30000447355E+02 0.  0.
         12    1    1    2    0    0 -0.25104551388E+02  0.59297451037E+01 -0.31428543273E+02  0.40658992973E+02  0.00000000000E+00 0. -1.
         11    1    3    3    0    0  0.83047790456E+01  0.45386457132E+01 -0.12985569664E+01  0.95527436039E+01  0.51100000000E-03 0. -1.
        -11    1    3    3    0    0  0.61768898131E+01 -0.49241522725E+01  0.22279107257E+01  0.82076080455E+01  0.51100000000E-03 0.  1.
        -12    1    3    3    0    0  0.10622882529E+02 -0.55442385444E+01  0.30499189513E+02  0.32768655377E+02  0.00000000000E+00 0.  1.
</event>
<event>
 7    1  0.2639126E-011  0.5052886E+02  0.7816164E-02  0.1300439E+00
        -11   -1    0    0    0    0  0.00000000000E+00  0.00000000000E+00  0.45593999997E+02  0.45594000000E+02  0.51100000000E-03 0.  1.
         11   -1    0    0    0    0 -0.00000000000E+00 -0.00000000000E+00 -0.45593999997E+02  0.45594000000E+02  0.51100000000E-03 0. -1.
    9900012    2    1    2    0    0  0.40343091941E+01  0.16135137091E+02  0.37101845772E+02  0.50528864996E+02  0.30000015642E+02 0.  0.
         12    1    1    2    0    0 -0.40343091941E+01 -0.16135137091E+02 -0.37101845772E+02  0.40659135004E+02  0.00000000000E+00 0. -1.
         11    1    3    3    0    0  0.89028226242E+00 -0.55224120595E+01  0.17043109832E+02  0.17937592661E+02  0.51100000000E-03 0. -1.
        -11    1    3    3    0    0 -0.13770256745E+01  0.15832240418E+01  0.89787728394E+01  0.92206919500E+01  0.51100000000E-03 0.  1.
         12    1    3    3    0    0  0.45210526062E+01  0.20074325108E+02  0.11079963100E+02  0.23370580385E+02  0.00000000000E+00 0. -1.
</event>
<event>
 7    1  0.2639126E-011  0.5052886E+02  0.7816164E-02  0.1300439E+00
        -11   -1    0    0    0    0  0.00000000000E+00  0.00000000000E+00  0.45593999997E+02  0.45594000000E+02  0.51100000000E-03 0. -1.
         11   -1    0    0    0    0 -0.00000000000E+00 -0.00000000000E+00 -0.45593999997E+02  0.45594000000E+02  0.51100000000E-03 0.  1.
    9900012    2    1    2    0    0 -0.16689699458E+02  0.16244066261E+02 -0.33327910243E+02  0.50528863783E+02  0.30000011956E+02 0.  0.
         12    1    1    2    0    0  0.16689699458E+02 -0.16244066261E+02  0.33327910243E+02  0.40659136217E+02  0.00000000000E+00 0. -1.
         11    1    3    3    0    0 -0.54686536890E+01  0.21803482136E+01 -0.69675515139E+01  0.91217797530E+01  0.51100000000E-03 0. -1.
        -11    1    3    3    0    0 -0.12498120648E+01 -0.13506041416E+01 -0.22591001457E+02  0.22665822483E+02  0.51100000000E-03 0.  1.
        -12    1    3    3    0    0 -0.99712337045E+01  0.15414322189E+02 -0.37693572727E+01  0.18741261548E+02  0.00000000000E+00 0.  1.
</event>
<event>
 7    1  0.2639126E-011  0.5052887E+02  0.7816164E-02  0.1300439E+00
        -11   -1    0    0    0    0  0.00000000000E+00  0.00000000000E+00  0.45593999997E+02  0.45594000000E+02  0.51100000000E-03 0. -1.
         11   -1    0    0    0    0 -0.00000000000E+00 -0.00000000000E+00 -0.45593999997E+02  0.45594000000E+02  0.51100000000E-03 0.  1.
    9900012    2    1    2    0    0 -0.39981489520E+01 -0.26400839653E+02 -0.30662275447E+02  0.50528872303E+02  0.30000037853E+02 0.  0.
         12    1    1    2    0    0  0.39981489520E+01  0.26400839653E+02  0.30662275447E+02  0.40659127697E+02  0.00000000000E+00 0. -1.
         11    1    3    3    0    0 -0.16614121642E+01 -0.34973585976E+01 -0.12448502008E+02  0.13036756117E+02  0.51100000000E-03 0. -1.
        -11    1    3    3    0    0  0.14826131860E+01 -0.10883692757E+02 -0.21773597816E+02  0.24387342454E+02  0.51100000000E-03 0.  1.
         12    1    3    3    0    0 -0.38193499739E+01 -0.12019788299E+02  0.35598243770E+01  0.13104773732E+02  0.00000000000E+00 0. -1.
</event>
<event>
 7    1  0.2639126E-011  0.5052886E+02  0.7816164E-02  0.1300439E+00
        -11   -1    0    0    0    0  0.00000000000E+00  0.00000000000E+00  0.45593999997E+02  0.45594000000E+02  0.51100000000E-03 0.  1.
         11   -1    0    0    0    0 -0.00000000000E+00 -0.00000000000E+00 -0.45593999997E+02  0.45594000000E+02  0.51100000000E-03 0. -1.
    9900012    2    1    2    0    0 -0.22056379002E+01 -0.40354290863E+02  0.44533493462E+01  0.50528856502E+02  0.29999989824E+02 0.  0.
         12    1    1    2    0    0  0.22056379002E+01  0.40354290863E+02 -0.44533493462E+01  0.40659143498E+02  0.00000000000E+00 0. -1.
         11    1    3    3    0    0  0.68379679590E+01 -0.11885075626E+02  0.24163171581E+01  0.13923053448E+02  0.51100000000E-03 0. -1.
        -11    1    3    3    0    0  0.17466907086E+01 -0.73993431729E+01  0.91421797386E+01  0.11890359896E+02  0.51100000000E-03 0.  1.
        -12    1    3    3    0    0 -0.10790296568E+02 -0.21069872064E+02 -0.71051475504E+01  0.24715443158E+02  0.00000000000E+00 0.  1.
</event>
<event>
 7    1  0.2639126E-011  0.5052890E+02  0.7816164E-02  0.1300439E+00
        -11   -1    0    0    0    0  0.00000000000E+00  0.00000000000E+00  0.45593999997E+02  0.45594000000E+02  0.51100000000E-03 0. -1.
         11   -1    0    0    0    0 -0.00000000000E+00 -0.00000000000E+00 -0.45593999997E+02  0.45594000000E+02  0.51100000000E-03 0.  1.
    9900012    2    1    2    0    0  0.34878041167E+02  0.13136904880E+02 -0.16251349696E+02  0.50528900251E+02  0.30000122802E+02 0.  0.
         12    1    1    2    0    0 -0.34878041167E+02 -0.13136904880E+02  0.16251349696E+02  0.40659099749E+02  0.00000000000E+00 0. -1.
         11    1    3    3    0    0  0.16210215730E+02  0.13923291649E+02 -0.12311728215E+02  0.24661869277E+02  0.51100000000E-03 0. -1.
        -11    1    3    3    0    0  0.20858087942E+02  0.25076703232E+01 -0.53302657909E+01  0.21673946957E+02  0.51100000000E-03 0.  1.
         12    1    3    3    0    0 -0.21902625049E+01 -0.32940570926E+01  0.13906443099E+01  0.41930840161E+01  0.00000000000E+00 0. -1.
</event>
<event>
 7    1  0.2639126E-011  0.5052886E+02  0.7816164E-02  0.1300439E+00
        -11   -1    0    0    0    0  0.00000000000E+00  0.00000000000E+00  0.45593999997E+02  0.45594000000E+02  0.51100000000E-03 0. -1.
         11   -1    0    0    0    0 -0.00000000000E+00 -0.00000000000E+00 -0.45593999997E+02  0.45594000000E+02  0.51100000000E-03 0.  1.
    9900012    2    1    2    0    0 -0.19753378579E+02  0.27801774909E+02 -0.22136643553E+02  0.50528860300E+02  0.30000001367E+02 0.  0.
         12    1    1    2    0    0  0.19753378579E+02 -0.27801774909E+02  0.22136643553E+02  0.40659139700E+02  0.00000000000E+00 0. -1.
         11    1    3    3    0    0  0.43666637228E+01  0.97597380524E+01 -0.86298999552E+00  0.10726835084E+02  0.51100000000E-03 0. -1.
        -11    1    3    3    0    0 -0.78032500893E+01 -0.15938253375E+01 -0.35326453396E+01  0.87126674744E+01  0.51100000000E-03 0.  1.
        -12    1    3    3    0    0 -0.16316792213E+02  0.19635862194E+02 -0.17741008218E+02  0.31089357742E+02  0.00000000000E+00 0.  1.
</event>
<event>
 7    1  0.2639126E-011  0.5052886E+02  0.7816164E-02  0.1300439E+00
        -11   -1    0    0    0    0  0.00000000000E+00  0.00000000000E+00  0.45593999997E+02  0.45594000000E+02  0.51100000000E-03 0. -1.
         11   -1    0    0    0    0 -0.00000000000E+00 -0.00000000000E+00 -0.45593999997E+02  0.45594000000E+02  0.51100000000E-03 0.  1.
    9900012    2    1    2    0    0  0.90848217115E+01  0.38703635656E+02 -0.85241058649E+01  0.50528858601E+02  0.29999996204E+02 0.  0.
         12    1    1    2    0    0 -0.90848217115E+01 -0.38703635656E+02  0.85241058649E+01  0.40659141399E+02  0.00000000000E+00 0. -1.
         11    1    3    3    0    0  0.37984688811E+01  0.30825470232E+02  0.34127233767E+00  0.31060496582E+02  0.51100000000E-03 0. -1.
        -11    1    3    3    0    0  0.26669980802E+01  0.84127990493E+01  0.13329018950E+01  0.89255080710E+01  0.51100000000E-03 0.  1.
        -12    1    3    3    0    0  0.26193547501E+01 -0.53463362557E+00 -0.10198280098E+02  0.10542853948E+02  0.00000000000E+00 0.  1.
</event>
<event>
 7    1  0.2639126E-011  0.5052886E+02  0.7816164E-02  0.1300439E+00
        -11   -1    0    0    0    0  0.00000000000E+00  0.00000000000E+00  0.45593999997E+02  0.45594000000E+02  0.51100000000E-03 0.  1.
         11   -1    0    0    0    0 -0.00000000000E+00 -0.00000000000E+00 -0.45593999997E+02  0.45594000000E+02  0.51100000000E-03 0. -1.
    9900012    2    1    2    0    0  0.89168499373E+01  0.38882771845E+02  0.78603879502E+01  0.50528857635E+02  0.29999993267E+02 0.  0.
         12    1    1    2    0    0 -0.89168499373E+01 -0.38882771845E+02 -0.78603879502E+01  0.40659142365E+02  0.00000000000E+00 0. -1.
         11    1    3    3    0    0  0.51504920652E+00  0.21556463023E+02  0.12375092557E+02  0.24861401606E+02  0.51100000000E-03 0.  1.
        -11    1    3    3    0    0  0.50186490183E+00  0.17298300032E+02 -0.39276436105E+01  0.17745687842E+02  0.51100000000E-03 0. -1.
        -12    1    3    3    0    0  0.78999358290E+01  0.28008789115E-01 -0.58706099670E+00  0.79217681870E+01  0.00000000000E+00 0.  1.
</event>
<event>
 7    1  0.2639126E-011  0.5052888E+02  0.7816164E-02  0.1300439E+00
        -11   -1    0    0    0    0  0.00000000000E+00  0.00000000000E+00  0.45593999997E+02  0.45594000000E+02  0.51100000000E-03 0.  1.
         11   -1    0    0    0    0 -0.00000000000E+00 -0.00000000000E+00 -0.45593999997E+02  0.45594000000E+02  0.51100000000E-03 0. -1.
    9900012    2    1    2    0    0  0.28515641459E+02 -0.86993174450E+01  0.27646767146E+02  0.50528884596E+02  0.30000075218E+02 0.  0.
         12    1    1    2    0    0 -0.28515641459E+02  0.86993174450E+01 -0.27646767146E+02  0.40659115404E+02  0.00000000000E+00 0. -1.
         11    1    3    3    0    0  0.84939086184E+01  0.83070767962E+00  0.79004919137E+01  0.11629889578E+02  0.51100000000E-03 0. -1.
        -11    1    3    3    0    0  0.11075375501E+02 -0.83390891543E+01  0.24904760603E+02  0.28503534015E+02  0.51100000000E-03 0.  1.
         12    1    3    3    0    0  0.89463573394E+01 -0.11909359702E+01 -0.51584853706E+01  0.10395461002E+02  0.00000000000E+00 0. -1.
</event>
<event>
 7    1  0.2639126E-011  0.5052885E+02  0.7816164E-02  0.1300439E+00
        -11   -1    0    0    0    0  0.00000000000E+00  0.00000000000E+00  0.45593999997E+02  0.45594000000E+02  0.51100000000E-03 0.  1.
         11   -1    0    0    0    0 -0.00000000000E+00 -0.00000000000E+00 -0.45593999997E+02  0.45594000000E+02  0.51100000000E-03 0. -1.
    9900012    2    1    2    0    0 -0.23526703898E+02 -0.85563737269E+01  0.32038240707E+02  0.50528853486E+02  0.29999980656E+02 0.  0.
         12    1    1    2    0    0  0.23526703898E+02  0.85563737269E+01 -0.32038240707E+02  0.40659146514E+02  0.00000000000E+00 0. -1.
         11    1    3    3    0    0 -0.64755487153E+01 -0.11339731860E+02  0.13276142569E+02  0.18621981946E+02  0.51100000000E-03 0. -1.
        -11    1    3    3    0    0 -0.52578771730E+01 -0.24727063760E+01 -0.30481950631E+01  0.65613293311E+01  0.51100000000E-03 0.  1.
        -12    1    3    3    0    0 -0.11793278010E+02  0.52560645094E+01  0.21810293201E+02  0.25345542208E+02  0.00000000000E+00 0.  1.
</event>
<event>
 7    1  0.2639126E-011  0.5052889E+02  0.7816164E-02  0.1300439E+00
        -11   -1    0    0    0    0  0.00000000000E+00  0.00000000000E+00  0.45593999997E+02  0.45594000000E+02  0.51100000000E-03 0. -1.
         11   -1    0    0    0    0 -0.00000000000E+00 -0.00000000000E+00 -0.45593999997E+02  0.45594000000E+02  0.51100000000E-03 0.  1.
    9900012    2    1    2    0    0  0.13130484184E+02 -0.30524324576E+02 -0.23431156627E+02  0.50528891468E+02  0.30000096107E+02 0.  0.
         12    1    1    2    0    0 -0.13130484184E+02  0.30524324576E+02  0.23431156627E+02  0.40659108532E+02  0.00000000000E+00 0. -1.
         11    1    3    3    0    0  0.38540075042E+01 -0.14696780326E+02 -0.24226891563E+02  0.28597045317E+02  0.51100000000E-03 0. -1.
        -11    1    3    3    0    0  0.59240465612E+01 -0.60839763903E+01 -0.52514021663E+01  0.99843037489E+01  0.51100000000E-03 0.  1.
        -12    1    3    3    0    0  0.33524301188E+01 -0.97435678593E+01  0.60471371019E+01  0.11947542402E+02  0.00000000000E+00 0.  1.
</event>
<event>
 7    1  0.2639126E-011  0.5052885E+02  0.7816164E-02  0.1300439E+00
        -11   -1    0    0    0    0  0.00000000000E+00  0.00000000000E+00  0.45593999997E+02  0.45594000000E+02  0.51100000000E-03 0.  1.
         11   -1    0    0    0    0 -0.00000000000E+00 -0.00000000000E+00 -0.45593999997E+02  0.45594000000E+02  0.51100000000E-03 0. -1.
    9900012    2    1    2    0    0 -0.13803345931E+02  0.32173081342E+01  0.38108827751E+02  0.50528853636E+02  0.29999981111E+02 0.  0.
         12    1    1    2    0    0  0.13803345931E+02 -0.32173081342E+01 -0.38108827751E+02  0.40659146364E+02  0.00000000000E+00 0. -1.
         11    1    3    3    0    0 -0.59771359958E+01 -0.18993615082E+01 -0.25478006542E+01  0.67694177952E+01  0.51100000000E-03 0. -1.
        -11    1    3    3    0    0 -0.53943512683E+01  0.37742073236E+01  0.57458890429E+01  0.87383584088E+01  0.51100000000E-03 0.  1.
        -12    1    3    3    0    0 -0.24318586671E+01  0.13424623189E+01  0.34910739362E+02  0.35021077432E+02  0.00000000000E+00 0.  1.
</event>
<event>
 7    1  0.2639126E-011  0.5052887E+02  0.7816164E-02  0.1300439E+00
        -11   -1    0    0    0    0  0.00000000000E+00  0.00000000000E+00  0.45593999997E+02  0.45594000000E+02  0.51100000000E-03 0.  1.
         11   -1    0    0    0    0 -0.00000000000E+00 -0.00000000000E+00 -0.45593999997E+02  0.45594000000E+02  0.51100000000E-03 0. -1.
    9900012    2    1    2    0    0 -0.12706555985E+02  0.39462913833E+01  0.38420503061E+02  0.50528870200E+02  0.30000031459E+02 0.  0.
         12    1    1    2    0    0  0.12706555985E+02 -0.39462913833E+01 -0.38420503061E+02  0.40659129800E+02  0.00000000000E+00 0. -1.
         11    1    3    3    0    0 -0.22455620681E+01 -0.13137811403E+01  0.30442647781E+02  0.30553614747E+02  0.51100000000E-03 0. -1.
        -11    1    3    3    0    0 -0.33367455787E+01  0.63421116653E+00  0.10563508221E+02  0.11096116485E+02  0.51100000000E-03 0.  1.
         12    1    3    3    0    0 -0.71242483378E+01  0.46258613571E+01 -0.25856529418E+01  0.88791389678E+01  0.00000000000E+00 0. -1.
</event>
<event>
 7    1  0.2639126E-011  0.5052886E+02  0.7816164E-02  0.1300439E+00
        -11   -1    0    0    0    0  0.00000000000E+00  0.00000000000E+00  0.45593999997E+02  0.45594000000E+02  0.51100000000E-03 0. -1.
         11   -1    0    0    0    0 -0.00000000000E+00 -0.00000000000E+00 -0.45593999997E+02  0.45594000000E+02  0.51100000000E-03 0.  1.
    9900012    2    1    2    0    0 -0.37193870385E+02 -0.11619972776E+02 -0.11608520167E+02  0.50528862011E+02  0.30000006569E+02 0.  0.
         12    1    1    2    0    0  0.37193870385E+02  0.11619972776E+02  0.11608520167E+02  0.40659137989E+02  0.00000000000E+00 0. -1.
         11    1    3    3    0    0 -0.17813320165E+02 -0.53772872972E+01  0.46788732103E+01  0.19186491309E+02  0.51100000000E-03 0. -1.
        -11    1    3    3    0    0  0.10591443176E+01  0.18107527970E+01 -0.73182385738E+01  0.76129644989E+01  0.51100000000E-03 0.  1.
         12    1    3    3    0    0 -0.20439694538E+02 -0.80534382760E+01 -0.89691548036E+01  0.23729406203E+02  0.00000000000E+00 0. -1.
</event>
<event>
 7    1  0.2639126E-011  0.5052885E+02  0.7816164E-02  0.1300439E+00
        -11   -1    0    0    0    0  0.00000000000E+00  0.00000000000E+00  0.45593999997E+02  0.45594000000E+02  0.51100000000E-03 0.  1.
         11   -1    0    0    0    0 -0.00000000000E+00 -0.00000000000E+00 -0.45593999997E+02  0.45594000000E+02  0.51100000000E-03 0. -1.
    9900012    2    1    2    0    0 -0.19183110832E+02  0.24445047375E+02  0.26222400008E+02  0.50528851650E+02  0.29999975075E+02 0.  0.
         12    1    1    2    0    0  0.19183110832E+02 -0.24445047375E+02 -0.26222400008E+02  0.40659148350E+02  0.00000000000E+00 0. -1.
         11    1    3    3    0    0  0.37684739143E+01  0.74563148531E+01  0.79661256997E+01  0.11543707626E+02  0.51100000000E-03 0. -1.
        -11    1    3    3    0    0 -0.11768536834E+01  0.81242690998E+01 -0.14160775928E+01  0.83303066575E+01  0.51100000000E-03 0.  1.
        -12    1    3    3    0    0 -0.21774731063E+02  0.88644634223E+01  0.19672351901E+02  0.30654837366E+02  0.00000000000E+00 0.  1.
</event>
<event>
 7    1  0.2639126E-011  0.5052886E+02  0.7816164E-02  0.1300439E+00
        -11   -1    0    0    0    0  0.00000000000E+00  0.00000000000E+00  0.45593999997E+02  0.45594000000E+02  0.51100000000E-03 0.  1.
         11   -1    0    0    0    0 -0.00000000000E+00 -0.00000000000E+00 -0.45593999997E+02  0.45594000000E+02  0.51100000000E-03 0. -1.
    9900012    2    1    2    0    0  0.86101725501E+01  0.33751355567E+02  0.20973239413E+02  0.50528857788E+02  0.29999993732E+02 0.  0.
         12    1    1    2    0    0 -0.86101725501E+01 -0.33751355567E+02 -0.20973239413E+02  0.40659142212E+02  0.00000000000E+00 0. -1.
         11    1    3    3    0    0  0.39971810915E+01  0.17079145317E+02 -0.35263217880E+01  0.17891607168E+02  0.51100000000E-03 0. -1.
        -11    1    3    3    0    0 -0.40424009062E+01  0.26283879788E+01  0.36326826612E+01  0.60370366929E+01  0.51100000000E-03 0.  1.
         12    1    3    3    0    0  0.86553923647E+01  0.14043822271E+02  0.20866878540E+02  0.26600213927E+02  0.00000000000E+00 0. -1.
</event>
<event>
 7    1  0.2639126E-011  0.5052887E+02  0.7816164E-02  0.1300439E+00
        -11   -1    0    0    0    0  0.00000000000E+00  0.00000000000E+00  0.45593999997E+02  0.45594000000E+02  0.51100000000E-03 0. -1.
         11   -1    0    0    0    0 -0.00000000000E+00 -0.00000000000E+00 -0.45593999997E+02  0.45594000000E+02  0.51100000000E-03 0.  1.
    9900012    2    1    2    0    0  0.17666156257E+02  0.54203884728E+01 -0.36217272740E+02  0.50528873930E+02  0.30000042797E+02 0.  0.
         12    1    1    2    0    0 -0.17666156257E+02 -0.54203884728E+01  0.36217272740E+02  0.40659126070E+02  0.00000000000E+00 0. -1.
         11    1    3    3    0    0  0.14155967721E+02  0.97525118289E+01 -0.17894617342E+02  0.24813710709E+02  0.51100000000E-03 0. -1.
        -11    1    3    3    0    0  0.10355644230E+02 -0.10244569284E+01 -0.98014095874E+01  0.14295331741E+02  0.51100000000E-03 0.  1.
         12    1    3    3    0    0 -0.68454556945E+01 -0.33076664277E+01 -0.85212458107E+01  0.11419831480E+02  0.00000000000E+00 0. -1.
</event>
<event>
 7    1  0.2639126E-011  0.5052886E+02  0.7816164E-02  0.1300439E+00
        -11   -1    0    0    0    0  0.00000000000E+00  0.00000000000E+00  0.45593999997E+02  0.45594000000E+02  0.51100000000E-03 0.  1.
         11   -1    0    0    0    0 -0.00000000000E+00 -0.00000000000E+00 -0.45593999997E+02  0.45594000000E+02  0.51100000000E-03 0. -1.
    9900012    2    1    2    0    0 -0.39680603103E+02 -0.42629693735E+01  0.77744657968E+01  0.50528862172E+02  0.30000007059E+02 0.  0.
         12    1    1    2    0    0  0.39680603103E+02  0.42629693735E+01 -0.77744657968E+01  0.40659137828E+02  0.00000000000E+00 0. -1.
         11    1    3    3    0    0 -0.16599841276E+02  0.44831564235E+01  0.90117917502E+01  0.19413032033E+02  0.51100000000E-03 0. -1.
        -11    1    3    3    0    0 -0.21498332707E+02  0.11710451173E+00  0.18976911082E+01  0.21582243962E+02  0.51100000000E-03 0.  1.
         12    1    3    3    0    0 -0.15824291201E+01 -0.88632303087E+01 -0.31350170617E+01  0.95335861774E+01  0.00000000000E+00 0. -1.
</event>
<event>
 7    1  0.2639126E-011  0.5052884E+02  0.7816164E-02  0.1300439E+00
        -11   -1    0    0    0    0  0.00000000000E+00  0.00000000000E+00  0.45593999997E+02  0.45594000000E+02  0.51100000000E-03 0. -1.
         11   -1    0    0    0    0 -0.00000000000E+00 -0.00000000000E+00 -0.45593999997E+02  0.45594000000E+02  0.51100000000E-03 0.  1.
    9900012    2    1    2    0    0 -0.29722884168E+02 -0.21354797524E+02 -0.17711301951E+02  0.50528838211E+02  0.29999934226E+02 0.  0.
         12    1    1    2    0    0  0.29722884168E+02  0.21354797524E+02  0.17711301951E+02  0.40659161789E+02  0.00000000000E+00 0. -1.
         11    1    3    3    0    0  0.12521058949E+01  0.60643333494E+00 -0.53122774040E+00  0.14892057396E+01  0.51100000000E-03 0. -1.
        -11    1    3    3    0    0 -0.15000447009E+02 -0.50693160917E+01 -0.20122308971E+02  0.25605052132E+02  0.51100000000E-03 0.  1.
        -12    1    3    3    0    0 -0.15974543054E+02 -0.16891914768E+02  0.29422347606E+01  0.23434580339E+02  0.00000000000E+00 0.  1.
</event>
<event>
 7    1  0.2639126E-011  0.5052888E+02  0.7816164E-02  0.1300439E+00
        -11   -1    0    0    0    0  0.00000000000E+00  0.00000000000E+00  0.45593999997E+02  0.45594000000E+02  0.51100000000E-03 0.  1.
         11   -1    0    0    0    0 -0.00000000000E+00 -0.00000000000E+00 -0.45593999997E+02  0.45594000000E+02  0.51100000000E-03 0. -1.
    9900012    2    1    2    0    0  0.19833062567E+02  0.35155798836E+02  0.48870724492E+01  0.50528879993E+02  0.30000061227E+02 0.  0.
         12    1    1    2    0    0 -0.19833062567E+02 -0.35155798836E+02 -0.48870724492E+01  0.40659120007E+02  0.00000000000E+00 0. -1.
         11    1    3    3    0    0  0.11776960551E+02  0.27119465068E+02  0.23440449241E+00  0.29567163055E+02  0.51100000000E-03 0.  1.
        -11    1    3    3    0    0  0.11452939619E+02  0.70414789729E+01  0.83634905166E+01  0.15833515905E+02  0.51100000000E-03 0. -1.
         12    1    3    3    0    0 -0.33968376029E+01  0.99485479597E+00 -0.37108225598E+01  0.51282010331E+01  0.00000000000E+00 0. -1.
</event>
<event>
 7    1  0.2639126E-011  0.5052886E+02  0.7816164E-02  0.1300439E+00
        -11   -1    0    0    0    0  0.00000000000E+00  0.00000000000E+00  0.45593999997E+02  0.45594000000E+02  0.51100000000E-03 0.  1.
         11   -1    0    0    0    0 -0.00000000000E+00 -0.00000000000E+00 -0.45593999997E+02  0.45594000000E+02  0.51100000000E-03 0. -1.
    9900012    2    1    2    0    0 -0.25672578579E+02  0.67605134006E+01  0.30795774265E+02  0.50528861483E+02  0.30000004965E+02 0.  0.
         12    1    1    2    0    0  0.25672578579E+02 -0.67605134006E+01 -0.30795774265E+02  0.40659138517E+02  0.00000000000E+00 0. -1.
         11    1    3    3    0    0 -0.69094853474E+00 -0.27170645290E+01  0.14664297886E+01  0.31639004597E+01  0.51100000000E-03 0.  1.
        -11    1    3    3    0    0 -0.16214673799E+02 -0.75887144027E+01  0.15918081834E+02  0.23955992199E+02  0.51100000000E-03 0. -1.
         12    1    3    3    0    0 -0.87669562447E+01  0.17066292332E+02  0.13411262642E+02  0.23408968825E+02  0.00000000000E+00 0. -1.
</event>
<event>
 7    1  0.2639126E-011  0.5052884E+02  0.7816164E-02  0.1300439E+00
        -11   -1    0    0    0    0  0.00000000000E+00  0.00000000000E+00  0.45593999997E+02  0.45594000000E+02  0.51100000000E-03 0.  1.
         11   -1    0    0    0    0 -0.00000000000E+00 -0.00000000000E+00 -0.45593999997E+02  0.45594000000E+02  0.51100000000E-03 0. -1.
    9900012    2    1    2    0    0  0.22298070727E+02  0.20926201549E+02  0.26796590280E+02  0.50528842113E+02  0.29999946088E+02 0.  0.
         12    1    1    2    0    0 -0.22298070727E+02 -0.20926201549E+02 -0.26796590280E+02  0.40659157887E+02  0.00000000000E+00 0. -1.
         11    1    3    3    0    0  0.11846778168E+02  0.71280402337E+01  0.14493981968E+02  0.20030741976E+02  0.51100000000E-03 0. -1.
        -11    1    3    3    0    0  0.13450322542E+02  0.34061165870E+01  0.13811420471E+02  0.19577235309E+02  0.51100000000E-03 0.  1.
         12    1    3    3    0    0 -0.29990299830E+01  0.10392044728E+02 -0.15088121587E+01  0.10920864828E+02  0.00000000000E+00 0. -1.
</event>
<event>
 7    1  0.2639126E-011  0.5052886E+02  0.7816164E-02  0.1300439E+00
        -11   -1    0    0    0    0  0.00000000000E+00  0.00000000000E+00  0.45593999997E+02  0.45594000000E+02  0.51100000000E-03 0.  1.
         11   -1    0    0    0    0 -0.00000000000E+00 -0.00000000000E+00 -0.45593999997E+02  0.45594000000E+02  0.51100000000E-03 0. -1.
    9900012    2    1    2    0    0 -0.18338421063E+02 -0.20063547664E+02  0.30237754694E+02  0.50528862762E+02  0.30000008852E+02 0.  0.
         12    1    1    2    0    0  0.18338421063E+02  0.20063547664E+02 -0.30237754694E+02  0.40659137238E+02  0.00000000000E+00 0. -1.
         11    1    3    3    0    0  0.46846137389E+01 -0.59415985777E+01  0.13159955818E+02  0.15180007804E+02  0.51100000000E-03 0. -1.
        -11    1    3    3    0    0  0.89065195958E+00 -0.42677392710E+01  0.54813183946E+01  0.70036926690E+01  0.51100000000E-03 0.  1.
        -12    1    3    3    0    0 -0.23913686762E+02 -0.98542098157E+01  0.11596480481E+02  0.28345162289E+02  0.00000000000E+00 0.  1.
</event>
<event>
 7    1  0.2639126E-011  0.5052886E+02  0.7816164E-02  0.1300439E+00
        -11   -1    0    0    0    0  0.00000000000E+00  0.00000000000E+00  0.45593999997E+02  0.45594000000E+02  0.51100000000E-03 0.  1.
         11   -1    0    0    0    0 -0.00000000000E+00 -0.00000000000E+00 -0.45593999997E+02  0.45594000000E+02  0.51100000000E-03 0. -1.
    9900012    2    1    2    0    0  0.22247523317E+02 -0.34025872496E+02 -0.67346144401E+00  0.50528857815E+02  0.29999993816E+02 0.  0.
         12    1    1    2    0    0 -0.22247523317E+02  0.34025872496E+02  0.67346144401E+00  0.40659142185E+02  0.00000000000E+00 0. -1.
         11    1    3    3    0    0  0.94703666575E+01 -0.16416674513E+02 -0.76004829428E+01  0.20419656900E+02  0.51100000000E-03 0. -1.
        -11    1    3    3    0    0  0.78412006008E+01 -0.21569486419E+02  0.49389545280E+01  0.23475954577E+02  0.51100000000E-03 0.  1.
         12    1    3    3    0    0  0.49359560585E+01  0.39602884351E+01  0.19880669708E+01  0.66332463381E+01  0.00000000000E+00 0. -1.
</event>
<event>
 7    1  0.2639126E-011  0.5052886E+02  0.7816164E-02  0.1300439E+00
        -11   -1    0    0    0    0  0.00000000000E+00  0.00000000000E+00  0.45593999997E+02  0.45594000000E+02  0.51100000000E-03 0. -1.
         11   -1    0    0    0    0 -0.00000000000E+00 -0.00000000000E+00 -0.45593999997E+02  0.45594000000E+02  0.51100000000E-03 0.  1.
    9900012    2    1    2    0    0  0.28885896944E+02  0.21709384651E+02  0.18640630430E+02  0.50528861703E+02  0.30000005633E+02 0.  0.
         12    1    1    2    0    0 -0.28885896944E+02 -0.21709384651E+02 -0.18640630430E+02  0.40659138297E+02  0.00000000000E+00 0. -1.
         11    1    3    3    0    0  0.48141946359E+01  0.77350560375E+01 -0.50994968183E+01  0.10440901779E+02  0.51100000000E-03 0. -1.
        -11    1    3    3    0    0  0.15623679004E+01  0.84936793339E+01  0.34775292683E+01  0.93100371727E+01  0.51100000000E-03 0.  1.
         12    1    3    3    0    0  0.22509334408E+02  0.54806492796E+01  0.20262597980E+02  0.30777922752E+02  0.00000000000E+00 0. -1.
</event>
<event>
 7    1  0.2639126E-011  0.5052886E+02  0.7816164E-02  0.1300439E+00
        -11   -1    0    0    0    0  0.00000000000E+00  0.00000000000E+00  0.45593999997E+02  0.45594000000E+02  0.51100000000E-03 0.  1.
         11   -1    0    0    0    0 -0.00000000000E+00 -0.00000000000E+00 -0.45593999997E+02  0.45594000000E+02  0.51100000000E-03 0. -1.
    9900012    2    1    2    0    0 -0.23647550882E+02  0.31913949438E+02  0.86866874463E+01  0.50528863631E+02  0.30000011493E+02 0.  0.
         12    1    1    2    0    0  0.23647550882E+02 -0.31913949438E+02 -0.86866874463E+01  0.40659136369E+02  0.00000000000E+00 0. -1.
         11    1    3    3    0    0 -0.13105368685E+02  0.19878664192E+02 -0.34421657886E+00  0.23812401470E+02  0.51100000000E-03 0. -1.
        -11    1    3    3    0    0 -0.14834219631E+02  0.13710458914E+02  0.55688863149E+01  0.20953358937E+02  0.51100000000E-03 0.  1.
         12    1    3    3    0    0  0.42920374342E+01 -0.16751736674E+01  0.34620177103E+01  0.57631032247E+01  0.00000000000E+00 0. -1.
</event>
<event>
 7    1  0.2639126E-011  0.5052887E+02  0.7816164E-02  0.1300439E+00
        -11   -1    0    0    0    0  0.00000000000E+00  0.00000000000E+00  0.45593999997E+02  0.45594000000E+02  0.51100000000E-03 0.  1.
         11   -1    0    0    0    0 -0.00000000000E+00 -0.00000000000E+00 -0.45593999997E+02  0.45594000000E+02  0.51100000000E-03 0. -1.
    9900012    2    1    2    0    0  0.30899818413E+02  0.13955224620E+02  0.22441437601E+02  0.50528865802E+02  0.30000018092E+02 0.  0.
         12    1    1    2    0    0 -0.30899818413E+02 -0.13955224620E+02 -0.22441437601E+02  0.40659134198E+02  0.00000000000E+00 0. -1.
         11    1    3    3    0    0  0.89495750388E+01  0.45401932631E+01  0.23666144320E+02  0.25705926077E+02  0.51100000000E-03 0. -1.
        -11    1    3    3    0    0  0.10796224726E+02  0.11733334083E+01  0.34864468668E+00  0.10865391525E+02  0.51100000000E-03 0.  1.
        -12    1    3    3    0    0  0.11154018648E+02  0.82416979489E+01 -0.15733514067E+01  0.13957548199E+02  0.00000000000E+00 0.  1.
</event>
<event>
 7    1  0.2639126E-011  0.5052886E+02  0.7816164E-02  0.1300439E+00
        -11   -1    0    0    0    0  0.00000000000E+00  0.00000000000E+00  0.45593999997E+02  0.45594000000E+02  0.51100000000E-03 0. -1.
         11   -1    0    0    0    0 -0.00000000000E+00 -0.00000000000E+00 -0.45593999997E+02  0.45594000000E+02  0.51100000000E-03 0.  1.
    9900012    2    1    2    0    0 -0.25614393869E+01 -0.13539314803E+02 -0.38252995749E+02  0.50528859566E+02  0.29999999137E+02 0.  0.
         12    1    1    2    0    0  0.25614393869E+01  0.13539314803E+02  0.38252995749E+02  0.40659140434E+02  0.00000000000E+00 0. -1.
         11    1    3    3    0    0 -0.42558446028E+00 -0.57196013198E+01 -0.12202836733E+02  0.13483478260E+02  0.51100000000E-03 0. -1.
        -11    1    3    3    0    0 -0.41698705822E+01 -0.12451847141E+01 -0.29167446949E+02  0.29490308025E+02  0.51100000000E-03 0.  1.
         12    1    3    3    0    0  0.20340156556E+01 -0.65745287694E+01  0.31172879330E+01  0.75550732812E+01  0.00000000000E+00 0. -1.
</event>
<event>
 7    1  0.2639126E-011  0.5052885E+02  0.7816164E-02  0.1300439E+00
        -11   -1    0    0    0    0  0.00000000000E+00  0.00000000000E+00  0.45593999997E+02  0.45594000000E+02  0.51100000000E-03 0.  1.
         11   -1    0    0    0    0 -0.00000000000E+00 -0.00000000000E+00 -0.45593999997E+02  0.45594000000E+02  0.51100000000E-03 0. -1.
    9900012    2    1    2    0    0 -0.29628017160E+02 -0.21632410076E+01  0.27760897057E+02  0.50528850748E+02  0.29999972332E+02 0.  0.
         12    1    1    2    0    0  0.29628017160E+02  0.21632410076E+01 -0.27760897057E+02  0.40659149252E+02  0.00000000000E+00 0. -1.
         11    1    3    3    0    0 -0.19694850624E+02 -0.71621770574E+01  0.14739478579E+02  0.25621009941E+02  0.51100000000E-03 0. -1.
        -11    1    3    3    0    0 -0.55613451767E+01 -0.64395461228E+01  0.79800173041E+01  0.11665204279E+02  0.51100000000E-03 0.  1.
         12    1    3    3    0    0 -0.43718213591E+01  0.11438482173E+02  0.50414011738E+01  0.13242636528E+02  0.00000000000E+00 0. -1.
</event>
<event>
 7    1  0.2639126E-011  0.5052886E+02  0.7816164E-02  0.1300439E+00
        -11   -1    0    0    0    0  0.00000000000E+00  0.00000000000E+00  0.45593999997E+02  0.45594000000E+02  0.51100000000E-03 0.  1.
         11   -1    0    0    0    0 -0.00000000000E+00 -0.00000000000E+00 -0.45593999997E+02  0.45594000000E+02  0.51100000000E-03 0. -1.
    9900012    2    1    2    0    0  0.33494266577E+02  0.45882776580E+01  0.22588650264E+02  0.50528864420E+02  0.30000013891E+02 0.  0.
         12    1    1    2    0    0 -0.33494266577E+02 -0.45882776580E+01 -0.22588650264E+02  0.40659135580E+02  0.00000000000E+00 0. -1.
         11    1    3    3    0    0  0.63412967368E+01 -0.37969869352E+01 -0.39142254667E+01  0.83636305129E+01  0.51100000000E-03 0. -1.
        -11    1    3    3    0    0  0.10645850731E+01  0.60619628305E+01  0.25149786544E+01  0.66487482002E+01  0.51100000000E-03 0.  1.
        -12    1    3    3    0    0  0.26088384767E+02  0.23233017626E+01  0.23987897076E+02  0.35516485707E+02  0.00000000000E+00 0.  1.
</event>
<event>
 7    1  0.2639126E-011  0.5052886E+02  0.7816164E-02  0.1300439E+00
        -11   -1    0    0    0    0  0.00000000000E+00  0.00000000000E+00  0.45593999997E+02  0.45594000000E+02  0.51100000000E-03 0. -1.
         11   -1    0    0    0    0 -0.00000000000E+00 -0.00000000000E+00 -0.45593999997E+02  0.45594000000E+02  0.51100000000E-03 0.  1.
    9900012    2    1    2    0    0 -0.18406729416E+02  0.13608613631E+01 -0.36228524129E+02  0.50528860904E+02  0.30000003205E+02 0.  0.
         12    1    1    2    0    0  0.18406729416E+02 -0.13608613631E+01  0.36228524129E+02  0.40659139096E+02  0.00000000000E+00 0. -1.
         11    1    3    3    0    0 -0.67937765231E+01  0.40153751318E+01 -0.17214171504E+01  0.80772466943E+01  0.51100000000E-03 0. -1.
        -11    1    3    3    0    0 -0.65296588033E+01  0.69117138737E+01 -0.44426508610E+01  0.10495016898E+02  0.51100000000E-03 0.  1.
        -12    1    3    3    0    0 -0.50832940895E+01 -0.95662276424E+01 -0.30064456118E+02  0.31956597312E+02  0.00000000000E+00 0.  1.
</event>
<event>
 7    1  0.2639126E-011  0.5052888E+02  0.7816164E-02  0.1300439E+00
        -11   -1    0    0    0    0  0.00000000000E+00  0.00000000000E+00  0.45593999997E+02  0.45594000000E+02  0.51100000000E-03 0. -1.
         11   -1    0    0    0    0 -0.00000000000E+00 -0.00000000000E+00 -0.45593999997E+02  0.45594000000E+02  0.51100000000E-03 0.  1.
    9900012    2    1    2    0    0 -0.20922650410E+02 -0.18999469075E+02 -0.29230578736E+02  0.50528882221E+02  0.30000068000E+02 0.  0.
         12    1    1    2    0    0  0.20922650410E+02  0.18999469075E+02  0.29230578736E+02  0.40659117779E+02  0.00000000000E+00 0. -1.
         11    1    3    3    0    0 -0.20163081447E+02 -0.12277313173E+02 -0.24437370587E+02  0.33977453608E+02  0.51100000000E-03 0. -1.
        -11    1    3    3    0    0 -0.46699603807E+01 -0.71372926907E+01 -0.78335794118E+01  0.11580779057E+02  0.51100000000E-03 0.  1.
        -12    1    3    3    0    0  0.39103914180E+01  0.41513678869E+00  0.30403712632E+01  0.49706495564E+01  0.00000000000E+00 0.  1.
</event>
<event>
 7    1  0.2639126E-011  0.5052886E+02  0.7816164E-02  0.1300439E+00
        -11   -1    0    0    0    0  0.00000000000E+00  0.00000000000E+00  0.45593999997E+02  0.45594000000E+02  0.51100000000E-03 0.  1.
         11   -1    0    0    0    0 -0.00000000000E+00 -0.00000000000E+00 -0.45593999997E+02  0.45594000000E+02  0.51100000000E-03 0. -1.
    9900012    2    1    2    0    0 -0.68633710427E+01  0.17378989799E+02  0.36111367529E+02  0.50528855723E+02  0.29999987456E+02 0.  0.
         12    1    1    2    0    0  0.68633710427E+01 -0.17378989799E+02 -0.36111367529E+02  0.40659144277E+02  0.00000000000E+00 0. -1.
         11    1    3    3    0    0 -0.35775438020E+01 -0.21024212541E+01 -0.31779582158E+00  0.41617291154E+01  0.51100000000E-03 0. -1.
        -11    1    3    3    0    0 -0.99289937950E+01  0.38364785187E+01  0.82848614521E+01  0.13488603143E+02  0.51100000000E-03 0.  1.
         12    1    3    3    0    0  0.66431665543E+01  0.15644932534E+02  0.28144301899E+02  0.32878523465E+02  0.00000000000E+00 0. -1.
</event>
<event>
 7    1  0.2639126E-011  0.5052887E+02  0.7816164E-02  0.1300439E+00
        -11   -1    0    0    0    0  0.00000000000E+00  0.00000000000E+00  0.45593999997E+02  0.45594000000E+02  0.51100000000E-03 0. -1.
         11   -1    0    0    0    0 -0.00000000000E+00 -0.00000000000E+00 -0.45593999997E+02  0.45594000000E+02  0.51100000000E-03 0.  1.
    9900012    2    1    2    0    0  0.52305689380E+01  0.30177936546E+02 -0.26741318905E+02  0.50528870123E+02  0.30000031225E+02 0.  0.
         12    1    1    2    0    0 -0.52305689380E+01 -0.30177936546E+02  0.26741318905E+02  0.40659129877E+02  0.00000000000E+00 0. -1.
         11    1    3    3    0    0 -0.57449287339E+01  0.25790756844E+01  0.89297387114E+00  0.63602861680E+01  0.51100000000E-03 0. -1.
        -11    1    3    3    0    0 -0.14892449872E+01 -0.10581156079E+01 -0.57081298810E+01  0.59933468338E+01  0.51100000000E-03 0.  1.
        -12    1    3    3    0    0  0.12464742659E+02  0.28656976470E+02 -0.21926162895E+02  0.38175237121E+02  0.00000000000E+00 0.  1.
</event>
<event>
 7    1  0.2639126E-011  0.5052889E+02  0.7816164E-02  0.1300439E+00
        -11   -1    0    0    0    0  0.00000000000E+00  0.00000000000E+00  0.45593999997E+02  0.45594000000E+02  0.51100000000E-03 0. -1.
         11   -1    0    0    0    0 -0.00000000000E+00 -0.00000000000E+00 -0.45593999997E+02  0.45594000000E+02  0.51100000000E-03 0.  1.
    9900012    2    1    2    0    0 -0.88834984289E+01  0.39675780553E+02  0.28108558497E+00  0.50528891353E+02  0.30000095757E+02 0.  0.
         12    1    1    2    0    0  0.88834984289E+01 -0.39675780553E+02 -0.28108558497E+00  0.40659108647E+02  0.00000000000E+00 0. -1.
         11    1    3    3    0    0 -0.14091085630E+01  0.79250887748E+01  0.68261646983E+01  0.10554105541E+02  0.51100000000E-03 0. -1.
        -11    1    3    3    0    0  0.73599668677E+01  0.16567708885E+02 -0.42806146179E+01  0.18627446196E+02  0.51100000000E-03 0.  1.
         12    1    3    3    0    0 -0.14834356734E+02  0.15182982893E+02 -0.22644644954E+01  0.21347339616E+02  0.00000000000E+00 0. -1.
</event>
<event>
 7    1  0.2639126E-011  0.5052888E+02  0.7816164E-02  0.1300439E+00
        -11   -1    0    0    0    0  0.00000000000E+00  0.00000000000E+00  0.45593999997E+02  0.45594000000E+02  0.51100000000E-03 0.  1.
         11   -1    0    0    0    0 -0.00000000000E+00 -0.00000000000E+00 -0.45593999997E+02  0.45594000000E+02  0.51100000000E-03 0. -1.
    9900012    2    1    2    0    0  0.18187380104E+02  0.21858867940E+02  0.29061543567E+02  0.50528877811E+02  0.30000054596E+02 0.  0.
         12    1    1    2    0    0 -0.18187380104E+02 -0.21858867940E+02 -0.29061543567E+02  0.40659122189E+02  0.00000000000E+00 0. -1.
         11    1    3    3    0    0  0.43417406095E+00 -0.14562274917E+01  0.48072774133E+00  0.15938020721E+01  0.51100000000E-03 0. -1.
        -11    1    3    3    0    0 -0.49871112841E+01  0.14129993849E+02  0.84269954901E+01  0.17191342541E+02  0.51100000000E-03 0.  1.
        -12    1    3    3    0    0  0.22740317327E+02  0.91851015826E+01  0.20153820336E+02  0.31743733198E+02  0.00000000000E+00 0.  1.
</event>
<event>
 7    1  0.2639126E-011  0.5052886E+02  0.7816164E-02  0.1300439E+00
        -11   -1    0    0    0    0  0.00000000000E+00  0.00000000000E+00  0.45593999997E+02  0.45594000000E+02  0.51100000000E-03 0.  1.
         11   -1    0    0    0    0 -0.00000000000E+00 -0.00000000000E+00 -0.45593999997E+02  0.45594000000E+02  0.51100000000E-03 0. -1.
    9900012    2    1    2    0    0  0.23991650195E+02  0.23898242341E+02  0.22504226938E+02  0.50528862083E+02  0.30000006788E+02 0.  0.
         12    1    1    2    0    0 -0.23991650195E+02 -0.23898242341E+02 -0.22504226938E+02  0.40659137917E+02  0.00000000000E+00 0. -1.
         11    1    3    3    0    0 -0.23835856465E+01 -0.55188589201E-01  0.16734300741E+01  0.29128842732E+01  0.51100000000E-03 0. -1.
        -11    1    3    3    0    0  0.49276722440E+01 -0.44731699936E+01  0.65429654353E+00  0.66872496412E+01  0.51100000000E-03 0.  1.
        -12    1    3    3    0    0  0.21447563597E+02  0.28426600924E+02  0.20176500321E+02  0.40928728169E+02  0.00000000000E+00 0.  1.
</event>
<event>
 7    1  0.2639126E-011  0.5052883E+02  0.7816164E-02  0.1300439E+00
        -11   -1    0    0    0    0  0.00000000000E+00  0.00000000000E+00  0.45593999997E+02  0.45594000000E+02  0.51100000000E-03 0.  1.
         11   -1    0    0    0    0 -0.00000000000E+00 -0.00000000000E+00 -0.45593999997E+02  0.45594000000E+02  0.51100000000E-03 0. -1.
    9900012    2    1    2    0    0  0.18407094424E+02  0.24866910524E+02  0.26381499029E+02  0.50528833074E+02  0.29999918611E+02 0.  0.
         12    1    1    2    0    0 -0.18407094424E+02 -0.24866910524E+02 -0.26381499029E+02  0.40659166926E+02  0.00000000000E+00 0. -1.
         11    1    3    3    0    0 -0.34392731727E+01 -0.11102613469E+01 -0.35864574349E+01  0.50915574639E+01  0.51100000000E-03 0. -1.
        -11    1    3    3    0    0  0.51301222380E+01  0.84008966638E+01  0.75124668233E+01  0.12382664373E+02  0.51100000000E-03 0.  1.
        -12    1    3    3    0    0  0.16716245359E+02  0.17576275207E+02  0.22455489641E+02  0.33054611237E+02  0.00000000000E+00 0.  1.
</event>
<event>
 7    1  0.2639126E-011  0.5052886E+02  0.7816164E-02  0.1300439E+00
        -11   -1    0    0    0    0  0.00000000000E+00  0.00000000000E+00  0.45593999997E+02  0.45594000000E+02  0.51100000000E-03 0.  1.
         11   -1    0    0    0    0 -0.00000000000E+00 -0.00000000000E+00 -0.45593999997E+02  0.45594000000E+02  0.51100000000E-03 0. -1.
    9900012    2    1    2    0    0  0.40715084331E+01 -0.26463588002E+01  0.40368119741E+02  0.50528862193E+02  0.30000007121E+02 0.  0.
         12    1    1    2    0    0 -0.40715084331E+01  0.26463588002E+01 -0.40368119741E+02  0.40659137807E+02  0.00000000000E+00 0. -1.
         11    1    3    3    0    0 -0.78100720060E+01 -0.35581380476E+01  0.12623583046E+02  0.15264744357E+02  0.51100000000E-03 0. -1.
        -11    1    3    3    0    0 -0.46267624947E+01 -0.16780468965E+01  0.80541402964E+01  0.94388531477E+01  0.51100000000E-03 0.  1.
        -12    1    3    3    0    0  0.16508342934E+02  0.25898261439E+01  0.19690396398E+02  0.25825264688E+02  0.00000000000E+00 0.  1.
</event>
<event>
 7    1  0.2639126E-011  0.5052885E+02  0.7816164E-02  0.1300439E+00
        -11   -1    0    0    0    0  0.00000000000E+00  0.00000000000E+00  0.45593999997E+02  0.45594000000E+02  0.51100000000E-03 0.  1.
         11   -1    0    0    0    0 -0.00000000000E+00 -0.00000000000E+00 -0.45593999997E+02  0.45594000000E+02  0.51100000000E-03 0. -1.
    9900012    2    1    2    0    0  0.91658308479E+01  0.19083800981E+02  0.34712568796E+02  0.50528851615E+02  0.29999974968E+02 0.  0.
         12    1    1    2    0    0 -0.91658308479E+01 -0.19083800981E+02 -0.34712568796E+02  0.40659148385E+02  0.00000000000E+00 0. -1.
         11    1    3    3    0    0  0.11074979914E+02 -0.24568976166E+01  0.13069188849E+02  0.17305930296E+02  0.51100000000E-03 0. -1.
        -11    1    3    3    0    0  0.50254619615E+01  0.46418022661E+01  0.72407047295E+01  0.99613955571E+01  0.51100000000E-03 0.  1.
         12    1    3    3    0    0 -0.69346110271E+01  0.16898896332E+02  0.14402675217E+02  0.23261525761E+02  0.00000000000E+00 0. -1.
</event>
<event>
 7    1  0.2639126E-011  0.5052886E+02  0.7816164E-02  0.1300439E+00
        -11   -1    0    0    0    0  0.00000000000E+00  0.00000000000E+00  0.45593999997E+02  0.45594000000E+02  0.51100000000E-03 0.  1.
         11   -1    0    0    0    0 -0.00000000000E+00 -0.00000000000E+00 -0.45593999997E+02  0.45594000000E+02  0.51100000000E-03 0. -1.
    9900012    2    1    2    0    0  0.36287013598E+02 -0.49915265754E+01  0.17649444314E+02  0.50528861076E+02  0.30000003728E+02 0.  0.
         12    1    1    2    0    0 -0.36287013598E+02  0.49915265754E+01 -0.17649444314E+02  0.40659138924E+02  0.00000000000E+00 0. -1.
         11    1    3    3    0    0  0.28472809938E+01 -0.10474270366E+02  0.28850076649E+01  0.11231234048E+02  0.51100000000E-03 0. -1.
        -11    1    3    3    0    0  0.16813615797E+02 -0.34412230228E+01  0.98926216451E+01  0.19809181087E+02  0.51100000000E-03 0.  1.
        -12    1    3    3    0    0  0.16626116808E+02  0.89239668133E+01  0.48718150043E+01  0.19488445942E+02  0.00000000000E+00 0.  1.
</event>
<event>
 7    1  0.2639126E-011  0.5052887E+02  0.7816164E-02  0.1300439E+00
        -11   -1    0    0    0    0  0.00000000000E+00  0.00000000000E+00  0.45593999997E+02  0.45594000000E+02  0.51100000000E-03 0. -1.
         11   -1    0    0    0    0 -0.00000000000E+00 -0.00000000000E+00 -0.45593999997E+02  0.45594000000E+02  0.51100000000E-03 0.  1.
    9900012    2    1    2    0    0  0.84871498078E+01 -0.26341872556E+02 -0.29786558711E+02  0.50528867675E+02  0.30000023784E+02 0.  0.
         12    1    1    2    0    0 -0.84871498078E+01  0.26341872556E+02  0.29786558711E+02  0.40659132325E+02  0.00000000000E+00 0. -1.
         11    1    3    3    0    0  0.37807022224E+01 -0.11670675390E+02 -0.29797938229E+00  0.12271396226E+02  0.51100000000E-03 0. -1.
        -11    1    3    3    0    0 -0.29637295503E+01 -0.34768668787E+01  0.11819579980E+01  0.47190381551E+01  0.51100000000E-03 0.  1.
        -12    1    3    3    0    0  0.76701771358E+01 -0.11194330287E+02 -0.30670537327E+02  0.33538433294E+02  0.00000000000E+00 0.  1.
</event>
<event>
 7    1  0.2639126E-011  0.5052886E+02  0.7816164E-02  0.1300439E+00
        -11   -1    0    0    0    0  0.00000000000E+00  0.00000000000E+00  0.45593999997E+02  0.45594000000E+02  0.51100000000E-03 0.  1.
         11   -1    0    0    0    0 -0.00000000000E+00 -0.00000000000E+00 -0.45593999997E+02  0.45594000000E+02  0.51100000000E-03 0. -1.
    9900012    2    1    2    0    0 -0.10861957954E+02 -0.17899110669E+01  0.39140517925E+02  0.50528855203E+02  0.29999985875E+02 0.  0.
         12    1    1    2    0    0  0.10861957954E+02  0.17899110669E+01 -0.39140517925E+02  0.40659144797E+02  0.00000000000E+00 0. -1.
         11    1    3    3    0    0 -0.15167330732E+01 -0.37042552334E+01  0.83542277759E+01  0.92636444255E+01  0.51100000000E-03 0. -1.
        -11    1    3    3    0    0 -0.12849912957E+02  0.32331841993E+01  0.33898461817E+02  0.36396146182E+02  0.51100000000E-03 0.  1.
         12    1    3    3    0    0  0.35046880761E+01 -0.13188400327E+01 -0.31121716684E+01  0.48690645956E+01  0.00000000000E+00 0. -1.
</event>
<event>
 7    1  0.2639126E-011  0.5052887E+02  0.7816164E-02  0.1300439E+00
        -11   -1    0    0    0    0  0.00000000000E+00  0.00000000000E+00  0.45593999997E+02  0.45594000000E+02  0.51100000000E-03 0.  1.
         11   -1    0    0    0    0 -0.00000000000E+00 -0.00000000000E+00 -0.45593999997E+02  0.45594000000E+02  0.51100000000E-03 0. -1.
    9900012    2    1    2    0    0 -0.39421622502E+02 -0.99296362459E+01  0.70909598094E+00  0.50528870474E+02  0.30000032293E+02 0.  0.
         12    1    1    2    0    0  0.39421622502E+02  0.99296362459E+01 -0.70909598094E+00  0.40659129526E+02  0.00000000000E+00 0. -1.
         11    1    3    3    0    0 -0.11453050162E+02 -0.78990508161E+01  0.27520750626E+01  0.14182428538E+02  0.51100000000E-03 0. -1.
        -11    1    3    3    0    0 -0.19720486420E+02 -0.98604417607E+01 -0.80659528953E+01  0.23477339984E+02  0.51100000000E-03 0.  1.
         12    1    3    3    0    0 -0.82480859204E+01  0.78298563308E+01  0.60229738136E+01  0.12869101953E+02  0.00000000000E+00 0. -1.
</event>
<event>
 7    1  0.2639126E-011  0.5052887E+02  0.7816164E-02  0.1300439E+00
        -11   -1    0    0    0    0  0.00000000000E+00  0.00000000000E+00  0.45593999997E+02  0.45594000000E+02  0.51100000000E-03 0. -1.
         11   -1    0    0    0    0 -0.00000000000E+00 -0.00000000000E+00 -0.45593999997E+02  0.45594000000E+02  0.51100000000E-03 0.  1.
    9900012    2    1    2    0    0 -0.19332285625E+02 -0.32287265643E+02 -0.15393507906E+02  0.50528869711E+02  0.30000029975E+02 0.  0.
         12    1    1    2    0    0  0.19332285625E+02  0.32287265643E+02  0.15393507906E+02  0.40659130289E+02  0.00000000000E+00 0. -1.
         11    1    3    3    0    0 -0.57378718684E+01 -0.15602667080E+02 -0.10944327624E+02  0.19903384159E+02  0.51100000000E-03 0. -1.
        -11    1    3    3    0    0 -0.11515240941E+02 -0.21605552807E+02 -0.57030812893E+01  0.25138134825E+02  0.51100000000E-03 0.  1.
         12    1    3    3    0    0 -0.20791728155E+01  0.49209542441E+01  0.12539010073E+01  0.54873507274E+01  0.00000000000E+00 0. -1.
</event>
<event>
 7    1  0.2712768E-011  0.5052887E+02  0.7816164E-02  0.1300439E+00
        -11   -1    0    0    0    0  0.00000000000E+00  0.00000000000E+00  0.45593999997E+02  0.45594000000E+02  0.51100000000E-03 0. -1.
         11   -1    0    0    0    0 -0.00000000000E+00 -0.00000000000E+00 -0.45593999997E+02  0.45594000000E+02  0.51100000000E-03 0.  1.
    9900012    2    1    2    0    0 -0.10156167192E+02  0.31279738547E+02 -0.23908060411E+02  0.50528866608E+02  0.30000020541E+02 0.  0.
         12    1    1    2    0    0  0.10156167192E+02 -0.31279738547E+02  0.23908060411E+02  0.40659133392E+02  0.00000000000E+00 0. -1.
         11    1    3    3    0    0 -0.53789678615E+01  0.10438434226E+02 -0.52029495719E+00  0.11754357127E+02  0.51100000000E-03 0. -1.
        -11    1    3    3    0    0 -0.48656445944E+01  0.25201995963E+02 -0.22877700392E+02  0.34383197544E+02  0.51100000000E-03 0.  1.
         12    1    3    3    0    0  0.88445264239E-01 -0.43606916423E+01 -0.51006506113E+00  0.43913119373E+01  0.00000000000E+00 0. -1.
</event>
<event>
 7    1  0.2639126E-011  0.5052887E+02  0.7816164E-02  0.1300439E+00
        -11   -1    0    0    0    0  0.00000000000E+00  0.00000000000E+00  0.45593999997E+02  0.45594000000E+02  0.51100000000E-03 0.  1.
         11   -1    0    0    0    0 -0.00000000000E+00 -0.00000000000E+00 -0.45593999997E+02  0.45594000000E+02  0.51100000000E-03 0. -1.
    9900012    2    1    2    0    0 -0.14460608084E+02 -0.37988154895E+02 -0.97742398374E+00  0.50528874872E+02  0.30000045662E+02 0.  0.
         12    1    1    2    0    0  0.14460608084E+02  0.37988154895E+02  0.97742398374E+00  0.40659125128E+02  0.00000000000E+00 0. -1.
         11    1    3    3    0    0 -0.55942635645E+01 -0.21167237467E+02  0.31056425781E+01  0.22113180298E+02  0.51100000000E-03 0. -1.
        -11    1    3    3    0    0 -0.12329601315E+02 -0.12366808002E+02  0.46016888914E+01  0.18059140336E+02  0.51100000000E-03 0.  1.
         12    1    3    3    0    0  0.34632567959E+01 -0.44541094266E+01 -0.86847554532E+01  0.10356554239E+02  0.00000000000E+00 0. -1.
</event>
<event>
 7    1  0.2639126E-011  0.5052886E+02  0.7816164E-02  0.1300439E+00
        -11   -1    0    0    0    0  0.00000000000E+00  0.00000000000E+00  0.45593999997E+02  0.45594000000E+02  0.51100000000E-03 0. -1.
         11   -1    0    0    0    0 -0.00000000000E+00 -0.00000000000E+00 -0.45593999997E+02  0.45594000000E+02  0.51100000000E-03 0.  1.
    9900012    2    1    2    0    0 -0.40108942022E+02  0.66034935347E+01 -0.91235107045E+00  0.50528859066E+02  0.29999997618E+02 0.  0.
         12    1    1    2    0    0  0.40108942022E+02 -0.66034935347E+01  0.91235107045E+00  0.40659140934E+02  0.00000000000E+00 0. -1.
         11    1    3    3    0    0 -0.40786948595E+01 -0.23818175297E+01 -0.11014359139E+01  0.48499451373E+01  0.51100000000E-03 0.  1.
        -11    1    3    3    0    0 -0.17914084047E+02  0.17266987568E+02  0.45351691478E+01  0.25290927748E+02  0.51100000000E-03 0. -1.
         12    1    3    3    0    0 -0.18116163115E+02 -0.82816765034E+01 -0.43460843043E+01  0.20387986181E+02  0.00000000000E+00 0. -1.
</event>
<event>
 7    1  0.2639126E-011  0.5052886E+02  0.7816164E-02  0.1300439E+00
        -11   -1    0    0    0    0  0.00000000000E+00  0.00000000000E+00  0.45593999997E+02  0.45594000000E+02  0.51100000000E-03 0. -1.
         11   -1    0    0    0    0 -0.00000000000E+00 -0.00000000000E+00 -0.45593999997E+02  0.45594000000E+02  0.51100000000E-03 0.  1.
    9900012    2    1    2    0    0 -0.25955552186E+02  0.31226763065E+02  0.20891112971E+01  0.50528858263E+02  0.29999995176E+02 0.  0.
         12    1    1    2    0    0  0.25955552186E+02 -0.31226763065E+02 -0.20891112971E+01  0.40659141737E+02  0.00000000000E+00 0. -1.
         11    1    3    3    0    0  0.41314708177E+01  0.66618066383E+01 -0.48070797014E+01  0.91954735778E+01  0.51100000000E-03 0. -1.
        -11    1    3    3    0    0 -0.99197977187E+01  0.73860871738E+01 -0.35331127987E+01  0.12862330925E+02  0.51100000000E-03 0.  1.
        -12    1    3    3    0    0 -0.20167225285E+02  0.17178869253E+02  0.10429303797E+02  0.28471053760E+02  0.00000000000E+00 0.  1.
</event>
<event>
 7    1  0.2639126E-011  0.5052886E+02  0.7816164E-02  0.1300439E+00
        -11   -1    0    0    0    0  0.00000000000E+00  0.00000000000E+00  0.45593999997E+02  0.45594000000E+02  0.51100000000E-03 0.  1.
         11   -1    0    0    0    0 -0.00000000000E+00 -0.00000000000E+00 -0.45593999997E+02  0.45594000000E+02  0.51100000000E-03 0. -1.
    9900012    2    1    2    0    0  0.23574499073E+02  0.29278006767E+02  0.15498609751E+02  0.50528860917E+02  0.30000003243E+02 0.  0.
         12    1    1    2    0    0 -0.23574499073E+02 -0.29278006767E+02 -0.15498609751E+02  0.40659139083E+02  0.00000000000E+00 0. -1.
         11    1    3    3    0    0  0.16852457603E+02  0.13415887406E+02  0.15452238343E+02  0.26509678086E+02  0.51100000000E-03 0. -1.
        -11    1    3    3    0    0  0.11050611833E+02  0.98203975543E+01  0.43760609344E+01  0.15417721608E+02  0.51100000000E-03 0.  1.
        -12    1    3    3    0    0 -0.43285703641E+01  0.60417218061E+01 -0.43296895256E+01  0.86014612228E+01  0.00000000000E+00 0.  1.
</event>
<event>
 7    1  0.2639126E-011  0.5052887E+02  0.7816164E-02  0.1300439E+00
        -11   -1    0    0    0    0  0.00000000000E+00  0.00000000000E+00  0.45593999997E+02  0.45594000000E+02  0.51100000000E-03 0. -1.
         11   -1    0    0    0    0 -0.00000000000E+00 -0.00000000000E+00 -0.45593999997E+02  0.45594000000E+02  0.51100000000E-03 0.  1.
    9900012    2    1    2    0    0  0.19907176388E+02  0.16507515253E+02 -0.31374686401E+02  0.50528872140E+02  0.30000037357E+02 0.  0.
         12    1    1    2    0    0 -0.19907176388E+02 -0.16507515253E+02  0.31374686401E+02  0.40659127860E+02  0.00000000000E+00 0. -1.
         11    1    3    3    0    0  0.63708954923E+01 -0.99946217263E+00 -0.60172127006E+00  0.64768281401E+01  0.51100000000E-03 0. -1.
        -11    1    3    3    0    0  0.69483788042E+01  0.76219694179E+01 -0.30470881553E+02  0.32169069130E+02  0.51100000000E-03 0.  1.
         12    1    3    3    0    0  0.65879020912E+01  0.98850080075E+01 -0.30208357813E+00  0.11882974870E+02  0.00000000000E+00 0. -1.
</event>
<event>
 7    1  0.2639126E-011  0.5052886E+02  0.7816164E-02  0.1300439E+00
        -11   -1    0    0    0    0  0.00000000000E+00  0.00000000000E+00  0.45593999997E+02  0.45594000000E+02  0.51100000000E-03 0.  1.
         11   -1    0    0    0    0 -0.00000000000E+00 -0.00000000000E+00 -0.45593999997E+02  0.45594000000E+02  0.51100000000E-03 0. -1.
    9900012    2    1    2    0    0  0.23798750037E+02 -0.19149893716E+02  0.26834058776E+02  0.50528860276E+02  0.30000001295E+02 0.  0.
         12    1    1    2    0    0 -0.23798750037E+02  0.19149893716E+02 -0.26834058776E+02  0.40659139724E+02  0.00000000000E+00 0. -1.
         11    1    3    3    0    0  0.10613079166E+02 -0.62168570426E+01  0.66238269779E+01  0.13970033821E+02  0.51100000000E-03 0. -1.
        -11    1    3    3    0    0  0.40136323202E+01 -0.18528748092E+02  0.16673811400E+02  0.25247568935E+02  0.51100000000E-03 0.  1.
         12    1    3    3    0    0  0.91720385508E+01  0.55957114180E+01  0.35364203982E+01  0.11311257520E+02  0.00000000000E+00 0. -1.
</event>
<event>
 7    1  0.2639126E-011  0.5052889E+02  0.7816164E-02  0.1300439E+00
        -11   -1    0    0    0    0  0.00000000000E+00  0.00000000000E+00  0.45593999997E+02  0.45594000000E+02  0.51100000000E-03 0.  1.
         11   -1    0    0    0    0 -0.00000000000E+00 -0.00000000000E+00 -0.45593999997E+02  0.45594000000E+02  0.51100000000E-03 0. -1.
    9900012    2    1    2    0    0 -0.31352162809E+02 -0.20064314062E+02  0.16359343743E+02  0.50528893526E+02  0.30000102362E+02 0.  0.
         12    1    1    2    0    0  0.31352162809E+02  0.20064314062E+02 -0.16359343743E+02  0.40659106474E+02  0.00000000000E+00 0. -1.
         11    1    3    3    0    0 -0.52635554927E+01 -0.12250848357E+02  0.61572231495E+01  0.14686718458E+02  0.51100000000E-03 0. -1.
        -11    1    3    3    0    0 -0.99363941058E+01 -0.13553717459E+02  0.78180386684E+01  0.18535288335E+02  0.51100000000E-03 0.  1.
        -12    1    3    3    0    0 -0.16152213210E+02  0.57402517539E+01  0.23840819249E+01  0.17306886734E+02  0.00000000000E+00 0.  1.
</event>
<event>
 7    1  0.2639126E-011  0.5052888E+02  0.7816164E-02  0.1300439E+00
        -11   -1    0    0    0    0  0.00000000000E+00  0.00000000000E+00  0.45593999997E+02  0.45594000000E+02  0.51100000000E-03 0. -1.
         11   -1    0    0    0    0 -0.00000000000E+00 -0.00000000000E+00 -0.45593999997E+02  0.45594000000E+02  0.51100000000E-03 0.  1.
    9900012    2    1    2    0    0 -0.72276884521E+01  0.29352660199E+02 -0.27190911469E+02  0.50528882847E+02  0.30000069901E+02 0.  0.
         12    1    1    2    0    0  0.72276884521E+01 -0.29352660199E+02  0.27190911469E+02  0.40659117153E+02  0.00000000000E+00 0. -1.
         11    1    3    3    0    0 -0.47329725835E+01  0.27928328594E+01 -0.31630002931E+01  0.63407819685E+01  0.51100000000E-03 0. -1.
        -11    1    3    3    0    0 -0.22923946269E+01  0.55583309844E+01 -0.22320754684E+02  0.23116362309E+02  0.51100000000E-03 0.  1.
        -12    1    3    3    0    0 -0.20232124175E+00  0.21001496356E+02 -0.17071564919E+01  0.21071738570E+02  0.00000000000E+00 0.  1.
</event>
<event>
 7    1  0.2639126E-011  0.5052887E+02  0.7816164E-02  0.1300439E+00
        -11   -1    0    0    0    0  0.00000000000E+00  0.00000000000E+00  0.45593999997E+02  0.45594000000E+02  0.51100000000E-03 0.  1.
         11   -1    0    0    0    0 -0.00000000000E+00 -0.00000000000E+00 -0.45593999997E+02  0.45594000000E+02  0.51100000000E-03 0. -1.
    9900012    2    1    2    0    0  0.10473555196E+02  0.20917654576E+01  0.39231287354E+02  0.50528871276E+02  0.30000034729E+02 0.  0.
         12    1    1    2    0    0 -0.10473555196E+02 -0.20917654576E+01 -0.39231287354E+02  0.40659128724E+02  0.00000000000E+00 0. -1.
         11    1    3    3    0    0  0.12992087509E+02 -0.28584318374E+01  0.10217565336E+02  0.16773896747E+02  0.51100000000E-03 0. -1.
        -11    1    3    3    0    0  0.19491257241E+01  0.50244553517E+01  0.28780373595E+02  0.29280610430E+02  0.51100000000E-03 0.  1.
        -12    1    3    3    0    0 -0.44676580376E+01 -0.74258056671E-01  0.23334842397E+00  0.44743640986E+01  0.00000000000E+00 0.  1.
</event>
<event>
 7    1  0.2639126E-011  0.5052886E+02  0.7816164E-02  0.1300439E+00
        -11   -1    0    0    0    0  0.00000000000E+00  0.00000000000E+00  0.45593999997E+02  0.45594000000E+02  0.51100000000E-03 0. -1.
         11   -1    0    0    0    0 -0.00000000000E+00 -0.00000000000E+00 -0.45593999997E+02  0.45594000000E+02  0.51100000000E-03 0.  1.
    9900012    2    1    2    0    0 -0.64458957693E+01 -0.29132700432E+02 -0.27620676357E+02  0.50528861185E+02  0.30000004059E+02 0.  0.
         12    1    1    2    0    0  0.64458957693E+01  0.29132700432E+02  0.27620676357E+02  0.40659138815E+02  0.00000000000E+00 0. -1.
         11    1    3    3    0    0 -0.60286192564E+01 -0.18771613984E+02 -0.81348005418E+01  0.21328214220E+02  0.51100000000E-03 0.  1.
        -11    1    3    3    0    0  0.10570074769E+01 -0.70474774372E+01  0.20073118615E+01  0.74036142664E+01  0.51100000000E-03 0. -1.
        -12    1    3    3    0    0 -0.14742839898E+01 -0.33136090108E+01 -0.21493187677E+02  0.21797032699E+02  0.00000000000E+00 0.  1.
</event>
<event>
 7    1  0.2639126E-011  0.5052889E+02  0.7816164E-02  0.1300439E+00
        -11   -1    0    0    0    0  0.00000000000E+00  0.00000000000E+00  0.45593999997E+02  0.45594000000E+02  0.51100000000E-03 0.  1.
         11   -1    0    0    0    0 -0.00000000000E+00 -0.00000000000E+00 -0.45593999997E+02  0.45594000000E+02  0.51100000000E-03 0. -1.
    9900012    2    1    2    0    0  0.53322454489E+01 -0.30500783899E+01  0.40192382095E+02  0.50528887883E+02  0.30000085208E+02 0.  0.
         12    1    1    2    0    0 -0.53322454489E+01  0.30500783899E+01 -0.40192382095E+02  0.40659112117E+02  0.00000000000E+00 0. -1.
         11    1    3    3    0    0  0.34383193532E+01  0.40571673607E+01  0.17371002337E+01  0.55946549894E+01  0.51100000000E-03 0. -1.
        -11    1    3    3    0    0 -0.19452640856E+01  0.42146990894E+01 -0.22471496971E-01  0.46420088330E+01  0.51100000000E-03 0.  1.
        -12    1    3    3    0    0  0.38391901813E+01 -0.11321944840E+02  0.38477753358E+02  0.40292224060E+02  0.00000000000E+00 0.  1.
</event>
<event>
 7    1  0.2639126E-011  0.5052883E+02  0.7816164E-02  0.1300439E+00
        -11   -1    0    0    0    0  0.00000000000E+00  0.00000000000E+00  0.45593999997E+02  0.45594000000E+02  0.51100000000E-03 0.  1.
         11   -1    0    0    0    0 -0.00000000000E+00 -0.00000000000E+00 -0.45593999997E+02  0.45594000000E+02  0.51100000000E-03 0. -1.
    9900012    2    1    2    0    0  0.20505644562E+02  0.22531610582E+02  0.26926068674E+02  0.50528829957E+02  0.29999909139E+02 0.  0.
         12    1    1    2    0    0 -0.20505644562E+02 -0.22531610582E+02 -0.26926068674E+02  0.40659170043E+02  0.00000000000E+00 0. -1.
         11    1    3    3    0    0 -0.14318675260E+00 -0.44282272756E+01  0.54897140233E+01  0.70545488566E+01  0.51100000000E-03 0. -1.
        -11    1    3    3    0    0 -0.70189221569E+00  0.11231497877E+02  0.53764174204E+01  0.12471770595E+02  0.51100000000E-03 0.  1.
         12    1    3    3    0    0  0.21350723531E+02  0.15728339980E+02  0.16059937230E+02  0.31002510506E+02  0.00000000000E+00 0. -1.
</event>
<event>
 7    1  0.2639126E-011  0.5052886E+02  0.7816164E-02  0.1300439E+00
        -11   -1    0    0    0    0  0.00000000000E+00  0.00000000000E+00  0.45593999997E+02  0.45594000000E+02  0.51100000000E-03 0.  1.
         11   -1    0    0    0    0 -0.00000000000E+00 -0.00000000000E+00 -0.45593999997E+02  0.45594000000E+02  0.51100000000E-03 0. -1.
    9900012    2    1    2    0    0 -0.63650688860E+01  0.40061131817E+02 -0.27851691252E+01  0.50528861403E+02  0.30000004721E+02 0.  0.
         12    1    1    2    0    0  0.63650688860E+01 -0.40061131817E+02  0.27851691252E+01  0.40659138597E+02  0.00000000000E+00 0. -1.
         11    1    3    3    0    0  0.55068094281E+00  0.19906951499E+01  0.55196141984E+01  0.58934079988E+01  0.51100000000E-03 0. -1.
        -11    1    3    3    0    0  0.69165107537E+01  0.17507854871E+02 -0.12365714783E+01  0.18865105684E+02  0.51100000000E-03 0.  1.
         12    1    3    3    0    0 -0.13832260583E+02  0.20562581796E+02 -0.70682118453E+01  0.25770347721E+02  0.00000000000E+00 0. -1.
</event>
<event>
 7    1  0.2639126E-011  0.5052886E+02  0.7816164E-02  0.1300439E+00
        -11   -1    0    0    0    0  0.00000000000E+00  0.00000000000E+00  0.45593999997E+02  0.45594000000E+02  0.51100000000E-03 0. -1.
         11   -1    0    0    0    0 -0.00000000000E+00 -0.00000000000E+00 -0.45593999997E+02  0.45594000000E+02  0.51100000000E-03 0.  1.
    9900012    2    1    2    0    0 -0.33193506972E+02 -0.22673747805E+02  0.61039333044E+01  0.50528859005E+02  0.29999997433E+02 0.  0.
         12    1    1    2    0    0  0.33193506972E+02  0.22673747805E+02 -0.61039333044E+01  0.40659140995E+02  0.00000000000E+00 0. -1.
         11    1    3    3    0    0 -0.44916905012E+01 -0.11946415974E+02  0.71446663615E+01  0.14626633100E+02  0.51100000000E-03 0. -1.
        -11    1    3    3    0    0 -0.14935806175E+02  0.41136254792E+01  0.11881090242E+01  0.15537432992E+02  0.51100000000E-03 0.  1.
         12    1    3    3    0    0 -0.13766010297E+02 -0.14840957310E+02 -0.22288420813E+01  0.20364792913E+02  0.00000000000E+00 0. -1.
</event>
<event>
 7    1  0.2639126E-011  0.5052886E+02  0.7816164E-02  0.1300439E+00
        -11   -1    0    0    0    0  0.00000000000E+00  0.00000000000E+00  0.45593999997E+02  0.45594000000E+02  0.51100000000E-03 0.  1.
         11   -1    0    0    0    0 -0.00000000000E+00 -0.00000000000E+00 -0.45593999997E+02  0.45594000000E+02  0.51100000000E-03 0. -1.
    9900012    2    1    2    0    0 -0.16972050349E+01 -0.37436015872E+02  0.15774351531E+02  0.50528856434E+02  0.29999989616E+02 0.  0.
         12    1    1    2    0    0  0.16972050349E+01  0.37436015872E+02 -0.15774351531E+02  0.40659143566E+02  0.00000000000E+00 0. -1.
         11    1    3    3    0    0 -0.58505834599E+01 -0.10901696168E+02  0.55868822944E+01  0.13575329100E+02  0.51100000000E-03 0.  1.
        -11    1    3    3    0    0  0.30381505228E+01 -0.47023643552E+01 -0.71297581363E+01  0.90651001358E+01  0.51100000000E-03 0. -1.
         12    1    3    3    0    0  0.11152279023E+01 -0.21831955350E+02  0.17317227373E+02  0.27888427197E+02  0.00000000000E+00 0. -1.
</event>
<event>
 7    1  0.2639126E-011  0.5052885E+02  0.7816164E-02  0.1300439E+00
        -11   -1    0    0    0    0  0.00000000000E+00  0.00000000000E+00  0.45593999997E+02  0.45594000000E+02  0.51100000000E-03 0. -1.
         11   -1    0    0    0    0 -0.00000000000E+00 -0.00000000000E+00 -0.45593999997E+02  0.45594000000E+02  0.51100000000E-03 0.  1.
    9900012    2    1    2    0    0 -0.20525044947E+02  0.34313815835E+02  0.73790701999E+01  0.50528854605E+02  0.29999984058E+02 0.  0.
         12    1    1    2    0    0  0.20525044947E+02 -0.34313815835E+02 -0.73790701999E+01  0.40659145395E+02  0.00000000000E+00 0. -1.
         11    1    3    3    0    0 -0.52105616992E+01 -0.37854395313E+00  0.60831567625E+01  0.80186061883E+01  0.51100000000E-03 0. -1.
        -11    1    3    3    0    0  0.11022643404E+01 -0.10307956170E+01 -0.25965114024E+01  0.30032312605E+01  0.51100000000E-03 0.  1.
        -12    1    3    3    0    0 -0.16416747588E+02  0.35723155405E+02  0.38924248398E+01  0.39507017156E+02  0.00000000000E+00 0.  1.
</event>
<event>
 7    1  0.2639126E-011  0.5052886E+02  0.7816164E-02  0.1300439E+00
        -11   -1    0    0    0    0  0.00000000000E+00  0.00000000000E+00  0.45593999997E+02  0.45594000000E+02  0.51100000000E-03 0. -1.
         11   -1    0    0    0    0 -0.00000000000E+00 -0.00000000000E+00 -0.45593999997E+02  0.45594000000E+02  0.51100000000E-03 0.  1.
    9900012    2    1    2    0    0 -0.36215077351E+02  0.13280684920E+02 -0.12855247044E+02  0.50528858395E+02  0.29999995577E+02 0.  0.
         12    1    1    2    0    0  0.36215077351E+02 -0.13280684920E+02  0.12855247044E+02  0.40659141605E+02  0.00000000000E+00 0. -1.
         11    1    3    3    0    0 -0.23806241264E+02  0.21195446808E+01 -0.13715083645E+02  0.27555999572E+02  0.51100000000E-03 0. -1.
        -11    1    3    3    0    0 -0.79937880709E+01 -0.26775350460E+01  0.39417404454E+00  0.84395032486E+01  0.51100000000E-03 0.  1.
         12    1    3    3    0    0 -0.44150480163E+01  0.13838675285E+02  0.46566255603E+00  0.14533355574E+02  0.00000000000E+00 0. -1.
</event>
<event>
 7    1  0.2639126E-011  0.5052886E+02  0.7816164E-02  0.1300439E+00
        -11   -1    0    0    0    0  0.00000000000E+00  0.00000000000E+00  0.45593999997E+02  0.45594000000E+02  0.51100000000E-03 0.  1.
         11   -1    0    0    0    0 -0.00000000000E+00 -0.00000000000E+00 -0.45593999997E+02  0.45594000000E+02  0.51100000000E-03 0. -1.
    9900012    2    1    2    0    0 -0.82667088438E+01  0.39809868862E+02 -0.37310774727E-01  0.50528861716E+02  0.30000005672E+02 0.  0.
         12    1    1    2    0    0  0.82667088438E+01 -0.39809868862E+02  0.37310774727E-01  0.40659138284E+02  0.00000000000E+00 0. -1.
         11    1    3    3    0    0 -0.71701204222E+01  0.86206314138E+01 -0.90896026631E+01  0.14434222864E+02  0.51100000000E-03 0. -1.
        -11    1    3    3    0    0 -0.43109831606E+01  0.18952443238E+02 -0.16729657788E+01  0.19508421137E+02  0.51100000000E-03 0.  1.
        -12    1    3    3    0    0  0.32143947390E+01  0.12236794209E+02  0.10725257667E+02  0.16586217715E+02  0.00000000000E+00 0.  1.
</event>
<event>
 7    1  0.2639126E-011  0.5052886E+02  0.7816164E-02  0.1300439E+00
        -11   -1    0    0    0    0  0.00000000000E+00  0.00000000000E+00  0.45593999997E+02  0.45594000000E+02  0.51100000000E-03 0. -1.
         11   -1    0    0    0    0 -0.00000000000E+00 -0.00000000000E+00 -0.45593999997E+02  0.45594000000E+02  0.51100000000E-03 0.  1.
    9900012    2    1    2    0    0 -0.24015250416E+01  0.14412327442E+02 -0.37943155711E+02  0.50528861173E+02  0.30000004023E+02 0.  0.
         12    1    1    2    0    0  0.24015250416E+01 -0.14412327442E+02  0.37943155711E+02  0.40659138827E+02  0.00000000000E+00 0. -1.
         11    1    3    3    0    0  0.11927189241E+01  0.68414336422E+01 -0.18247641557E+02  0.19524451730E+02  0.51100000000E-03 0. -1.
        -11    1    3    3    0    0 -0.94239945857E+01 -0.19058260125E+01 -0.17040317350E+02  0.19565690951E+02  0.51100000000E-03 0.  1.
         12    1    3    3    0    0  0.58297506200E+01  0.94767198118E+01 -0.26551968047E+01  0.11438718493E+02  0.00000000000E+00 0. -1.
</event>
<event>
 7    1  0.2639126E-011  0.5052885E+02  0.7816164E-02  0.1300439E+00
        -11   -1    0    0    0    0  0.00000000000E+00  0.00000000000E+00  0.45593999997E+02  0.45594000000E+02  0.51100000000E-03 0.  1.
         11   -1    0    0    0    0 -0.00000000000E+00 -0.00000000000E+00 -0.45593999997E+02  0.45594000000E+02  0.51100000000E-03 0. -1.
    9900012    2    1    2    0    0  0.35723473331E+02 -0.40073824989E+01 -0.18998432205E+02  0.50528854810E+02  0.29999984681E+02 0.  0.
         12    1    1    2    0    0 -0.35723473331E+02  0.40073824989E+01  0.18998432205E+02  0.40659145190E+02  0.00000000000E+00 0. -1.
         11    1    3    3    0    0  0.50383625020E-01 -0.43140341546E+01 -0.12353422256E+02  0.13085124030E+02  0.51100000000E-03 0. -1.
        -11    1    3    3    0    0 -0.49146363065E+00 -0.20591624438E+00  0.30481678983E+00  0.61388234739E+00  0.51100000000E-03 0.  1.
        -12    1    3    3    0    0  0.36164553336E+02  0.51256790007E+00 -0.69498267391E+01  0.36829848433E+02  0.00000000000E+00 0.  1.
</event>
<event>
 7    1  0.2639126E-011  0.5052887E+02  0.7816164E-02  0.1300439E+00
        -11   -1    0    0    0    0  0.00000000000E+00  0.00000000000E+00  0.45593999997E+02  0.45594000000E+02  0.51100000000E-03 0. -1.
         11   -1    0    0    0    0 -0.00000000000E+00 -0.00000000000E+00 -0.45593999997E+02  0.45594000000E+02  0.51100000000E-03 0.  1.
    9900012    2    1    2    0    0  0.14713315478E+02  0.16109100095E+02 -0.34310053507E+02  0.50528873966E+02  0.30000042906E+02 0.  0.
         12    1    1    2    0    0 -0.14713315478E+02 -0.16109100095E+02  0.34310053507E+02  0.40659126034E+02  0.00000000000E+00 0. -1.
         11    1    3    3    0    0 -0.28041310153E+01 -0.44333971585E+01 -0.10270754351E+01  0.53453760697E+01  0.51100000000E-03 0. -1.
        -11    1    3    3    0    0  0.16358253545E+01  0.42673625227E+00  0.13043281702E+01  0.21352518952E+01  0.51100000000E-03 0.  1.
        -12    1    3    3    0    0  0.15881621139E+02  0.20115761001E+02 -0.34587306242E+02  0.43048246001E+02  0.00000000000E+00 0.  1.
</event>
<event>
 7    1  0.2639126E-011  0.5052887E+02  0.7816164E-02  0.1300439E+00
        -11   -1    0    0    0    0  0.00000000000E+00  0.00000000000E+00  0.45593999997E+02  0.45594000000E+02  0.51100000000E-03 0.  1.
         11   -1    0    0    0    0 -0.00000000000E+00 -0.00000000000E+00 -0.45593999997E+02  0.45594000000E+02  0.51100000000E-03 0. -1.
    9900012    2    1    2    0    0  0.35325599184E+02 -0.43865282299E+01  0.19647531585E+02  0.50528867139E+02  0.30000022157E+02 0.  0.
         12    1    1    2    0    0 -0.35325599184E+02  0.43865282299E+01 -0.19647531585E+02  0.40659132861E+02  0.00000000000E+00 0. -1.
         11    1    3    3    0    0  0.10634190912E+02 -0.10274862922E+02  0.24820564939E+01  0.14993979762E+02  0.51100000000E-03 0. -1.
        -11    1    3    3    0    0  0.16050101115E+02 -0.39172836970E+01  0.14944657274E+02  0.22277648859E+02  0.51100000000E-03 0.  1.
         12    1    3    3    0    0  0.86413071568E+01  0.98056183887E+01  0.22208178168E+01  0.13257238519E+02  0.00000000000E+00 0. -1.
</event>
<event>
 7    1  0.2639126E-011  0.5052891E+02  0.7816164E-02  0.1300439E+00
        -11   -1    0    0    0    0  0.00000000000E+00  0.00000000000E+00  0.45593999997E+02  0.45594000000E+02  0.51100000000E-03 0.  1.
         11   -1    0    0    0    0 -0.00000000000E+00 -0.00000000000E+00 -0.45593999997E+02  0.45594000000E+02  0.51100000000E-03 0. -1.
    9900012    2    1    2    0    0 -0.61017469259E+01  0.69425191744E+01  0.39594588394E+02  0.50528913462E+02  0.30000162959E+02 0.  0.
         12    1    1    2    0    0  0.61017469259E+01 -0.69425191744E+01 -0.39594588394E+02  0.40659086538E+02  0.00000000000E+00 0. -1.
         11    1    3    3    0    0  0.30210018372E+01  0.78831316549E+01  0.31639488973E+02  0.32746411704E+02  0.51100000000E-03 0. -1.
        -11    1    3    3    0    0  0.21573664974E+01  0.28110479439E+01  0.12086544768E+00  0.35455365553E+01  0.51100000000E-03 0.  1.
        -12    1    3    3    0    0 -0.11280115260E+02 -0.37516604244E+01  0.78342339732E+01  0.14236965202E+02  0.00000000000E+00 0.  1.
</event>
<event>
 7    1  0.2639126E-011  0.5052886E+02  0.7816164E-02  0.1300439E+00
        -11   -1    0    0    0    0  0.00000000000E+00  0.00000000000E+00  0.45593999997E+02  0.45594000000E+02  0.51100000000E-03 0.  1.
         11   -1    0    0    0    0 -0.00000000000E+00 -0.00000000000E+00 -0.45593999997E+02  0.45594000000E+02  0.51100000000E-03 0. -1.
    9900012    2    1    2    0    0  0.66052409781E+01  0.23192789363E+02 -0.32735774806E+02  0.50528860326E+02  0.30000001447E+02 0.  0.
         12    1    1    2    0    0 -0.66052409781E+01 -0.23192789363E+02  0.32735774806E+02  0.40659139674E+02  0.00000000000E+00 0. -1.
         11    1    3    3    0    0  0.10332294323E+02  0.21566293225E+02 -0.33731226944E+02  0.41347998511E+02  0.51100000000E-03 0. -1.
        -11    1    3    3    0    0 -0.15728414960E+01  0.35339160681E+01 -0.25362342562E+01  0.46254597190E+01  0.51100000000E-03 0.  1.
        -12    1    3    3    0    0 -0.21542118492E+01 -0.19074199294E+01  0.35316863936E+01  0.45554020966E+01  0.00000000000E+00 0.  1.
</event>
<event>
 7    1  0.2639126E-011  0.5052885E+02  0.7816164E-02  0.1300439E+00
        -11   -1    0    0    0    0  0.00000000000E+00  0.00000000000E+00  0.45593999997E+02  0.45594000000E+02  0.51100000000E-03 0. -1.
         11   -1    0    0    0    0 -0.00000000000E+00 -0.00000000000E+00 -0.45593999997E+02  0.45594000000E+02  0.51100000000E-03 0.  1.
    9900012    2    1    2    0    0  0.30211023033E+02 -0.26359710996E+02 -0.67546872648E+01  0.50528854946E+02  0.29999985093E+02 0.  0.
         12    1    1    2    0    0 -0.30211023033E+02  0.26359710996E+02  0.67546872648E+01  0.40659145054E+02  0.00000000000E+00 0. -1.
         11    1    3    3    0    0 -0.33243150324E+01 -0.62229509759E+01 -0.47056741748E+01  0.84805400172E+01  0.51100000000E-03 0.  1.
        -11    1    3    3    0    0  0.27212378759E+01 -0.63879296987E+01  0.36243915018E+01  0.78324322807E+01  0.51100000000E-03 0. -1.
         12    1    3    3    0    0  0.30814100190E+02 -0.13748830321E+02 -0.56734045918E+01  0.34215882648E+02  0.00000000000E+00 0. -1.
</event>
<event>
 7    1  0.2639126E-011  0.5052886E+02  0.7816164E-02  0.1300439E+00
        -11   -1    0    0    0    0  0.00000000000E+00  0.00000000000E+00  0.45593999997E+02  0.45594000000E+02  0.51100000000E-03 0. -1.
         11   -1    0    0    0    0 -0.00000000000E+00 -0.00000000000E+00 -0.45593999997E+02  0.45594000000E+02  0.51100000000E-03 0.  1.
    9900012    2    1    2    0    0 -0.18206252517E+02 -0.29878657648E+02 -0.20711435720E+02  0.50528863473E+02  0.30000011011E+02 0.  0.
         12    1    1    2    0    0  0.18206252517E+02  0.29878657648E+02  0.20711435720E+02  0.40659136527E+02  0.00000000000E+00 0. -1.
         11    1    3    3    0    0 -0.28044755511E+01 -0.92994146517E+01 -0.96518941574E+00  0.97609316590E+01  0.51100000000E-03 0. -1.
        -11    1    3    3    0    0 -0.12438410011E+02 -0.26355769192E+02 -0.16793343498E+02  0.33635650721E+02  0.51100000000E-03 0.  1.
         12    1    3    3    0    0 -0.29633669552E+01  0.57765261960E+01 -0.29529028066E+01  0.71322810930E+01  0.00000000000E+00 0. -1.
</event>
<event>
 7    1  0.2639126E-011  0.5052886E+02  0.7816164E-02  0.1300439E+00
        -11   -1    0    0    0    0  0.00000000000E+00  0.00000000000E+00  0.45593999997E+02  0.45594000000E+02  0.51100000000E-03 0.  1.
         11   -1    0    0    0    0 -0.00000000000E+00 -0.00000000000E+00 -0.45593999997E+02  0.45594000000E+02  0.51100000000E-03 0. -1.
    9900012    2    1    2    0    0  0.32878624100E+02 -0.15440414299E+02  0.18268980573E+02  0.50528856286E+02  0.29999989166E+02 0.  0.
         12    1    1    2    0    0 -0.32878624100E+02  0.15440414299E+02 -0.18268980573E+02  0.40659143714E+02  0.00000000000E+00 0. -1.
         11    1    3    3    0    0  0.25110084032E+02 -0.67050759553E+01  0.21659568048E+01  0.26079987208E+02  0.51100000000E-03 0. -1.
        -11    1    3    3    0    0  0.14702214551E+01  0.16425465680E+01  0.11103313356E+02  0.11320029951E+02  0.51100000000E-03 0.  1.
        -12    1    3    3    0    0  0.62983186130E+01 -0.10377884912E+02  0.49997104120E+01  0.13128839126E+02  0.00000000000E+00 0.  1.
</event>
<event>
 7    1  0.2639126E-011  0.5052887E+02  0.7816164E-02  0.1300439E+00
        -11   -1    0    0    0    0  0.00000000000E+00  0.00000000000E+00  0.45593999997E+02  0.45594000000E+02  0.51100000000E-03 0.  1.
         11   -1    0    0    0    0 -0.00000000000E+00 -0.00000000000E+00 -0.45593999997E+02  0.45594000000E+02  0.51100000000E-03 0. -1.
    9900012    2    1    2    0    0  0.16442125891E+02  0.26095427003E+02  0.26492455142E+02  0.50528868262E+02  0.30000025569E+02 0.  0.
         12    1    1    2    0    0 -0.16442125891E+02 -0.26095427003E+02 -0.26492455142E+02  0.40659131738E+02  0.00000000000E+00 0. -1.
         11    1    3    3    0    0  0.95316368999E+01  0.13836237951E+02  0.91537035798E+01  0.19133318377E+02  0.51100000000E-03 0.  1.
        -11    1    3    3    0    0 -0.73185634884E+01  0.85902605894E+01  0.56577135148E+01  0.12623932470E+02  0.51100000000E-03 0. -1.
         12    1    3    3    0    0  0.14229052479E+02  0.36689284622E+01  0.11681038047E+02  0.18771617415E+02  0.00000000000E+00 0. -1.
</event>
<event>
 7    1  0.2639126E-011  0.5052888E+02  0.7816164E-02  0.1300439E+00
        -11   -1    0    0    0    0  0.00000000000E+00  0.00000000000E+00  0.45593999997E+02  0.45594000000E+02  0.51100000000E-03 0.  1.
         11   -1    0    0    0    0 -0.00000000000E+00 -0.00000000000E+00 -0.45593999997E+02  0.45594000000E+02  0.51100000000E-03 0. -1.
    9900012    2    1    2    0    0 -0.27768241071E+02 -0.28905439745E+02 -0.68238138658E+01  0.50528879317E+02  0.30000059171E+02 0.  0.
         12    1    1    2    0    0  0.27768241071E+02  0.28905439745E+02  0.68238138658E+01  0.40659120683E+02  0.00000000000E+00 0. -1.
         11    1    3    3    0    0  0.37427346525E+00  0.69956776234E+00  0.56681839020E+00  0.97506873065E+00  0.51100000000E-03 0.  1.
        -11    1    3    3    0    0 -0.20137828106E+02 -0.31778137331E+01 -0.80863471433E+01  0.21932159751E+02  0.51100000000E-03 0. -1.
         12    1    3    3    0    0 -0.80046864301E+01 -0.26427193775E+02  0.69571488726E+00  0.27621650835E+02  0.00000000000E+00 0. -1.
</event>
<event>
 7    1  0.2639126E-011  0.5052888E+02  0.7816164E-02  0.1300439E+00
        -11   -1    0    0    0    0  0.00000000000E+00  0.00000000000E+00  0.45593999997E+02  0.45594000000E+02  0.51100000000E-03 0. -1.
         11   -1    0    0    0    0 -0.00000000000E+00 -0.00000000000E+00 -0.45593999997E+02  0.45594000000E+02  0.51100000000E-03 0.  1.
    9900012    2    1    2    0    0  0.68719608273E+01  0.39901366638E+02  0.37176499071E+01  0.50528882621E+02  0.30000069214E+02 0.  0.
         12    1    1    2    0    0 -0.68719608273E+01 -0.39901366638E+02 -0.37176499071E+01  0.40659117379E+02  0.00000000000E+00 0. -1.
         11    1    3    3    0    0  0.11725833000E+01 -0.77631883565E+00 -0.48320810718E+01  0.50325570315E+01  0.51100000000E-03 0. -1.
        -11    1    3    3    0    0  0.14471597367E+01  0.24883310532E+02 -0.35142485524E+01  0.25171876320E+02  0.51100000000E-03 0.  1.
         12    1    3    3    0    0  0.42522177906E+01  0.15794374942E+02  0.12063979531E+02  0.20324449269E+02  0.00000000000E+00 0. -1.
</event>
<event>
 7    1  0.2639126E-011  0.5052884E+02  0.7816164E-02  0.1300439E+00
        -11   -1    0    0    0    0  0.00000000000E+00  0.00000000000E+00  0.45593999997E+02  0.45594000000E+02  0.51100000000E-03 0.  1.
         11   -1    0    0    0    0 -0.00000000000E+00 -0.00000000000E+00 -0.45593999997E+02  0.45594000000E+02  0.51100000000E-03 0. -1.
    9900012    2    1    2    0    0 -0.13408771682E+02  0.34751825568E+01  0.38226890057E+02  0.50528841434E+02  0.29999944024E+02 0.  0.
         12    1    1    2    0    0  0.13408771682E+02 -0.34751825568E+01 -0.38226890057E+02  0.40659158566E+02  0.00000000000E+00 0. -1.
         11    1    3    3    0    0 -0.94784208210E+01 -0.39223306154E+01  0.16850901049E+01  0.10395415703E+02  0.51100000000E-03 0. -1.
        -11    1    3    3    0    0 -0.88030574253E+01  0.23035074654E+01  0.15881252160E+02  0.18303391410E+02  0.51100000000E-03 0.  1.
         12    1    3    3    0    0  0.48727065642E+01  0.50940057067E+01  0.20660547792E+02  0.21830034322E+02  0.00000000000E+00 0. -1.
</event>
<event>
 7    1  0.2639126E-011  0.5052888E+02  0.7816164E-02  0.1300439E+00
        -11   -1    0    0    0    0  0.00000000000E+00  0.00000000000E+00  0.45593999997E+02  0.45594000000E+02  0.51100000000E-03 0. -1.
         11   -1    0    0    0    0 -0.00000000000E+00 -0.00000000000E+00 -0.45593999997E+02  0.45594000000E+02  0.51100000000E-03 0.  1.
    9900012    2    1    2    0    0 -0.25271017944E+02  0.72914671528E+01 -0.31006033945E+02  0.50528880701E+02  0.30000063378E+02 0.  0.
         12    1    1    2    0    0  0.25271017944E+02 -0.72914671528E+01  0.31006033945E+02  0.40659119299E+02  0.00000000000E+00 0. -1.
         11    1    3    3    0    0 -0.13745252259E+02  0.46304008427E+01 -0.54945833581E+01  0.15510094074E+02  0.51100000000E-03 0. -1.
        -11    1    3    3    0    0 -0.47637034222E+01  0.60636074822E+01  0.69370551206E+00  0.77421853240E+01  0.51100000000E-03 0.  1.
         12    1    3    3    0    0 -0.67620622627E+01 -0.34025411721E+01 -0.26205156099E+02  0.27276601303E+02  0.00000000000E+00 0. -1.
</event>
<event>
 7    1  0.2639126E-011  0.5052887E+02  0.7816164E-02  0.1300439E+00
        -11   -1    0    0    0    0  0.00000000000E+00  0.00000000000E+00  0.45593999997E+02  0.45594000000E+02  0.51100000000E-03 0.  1.
         11   -1    0    0    0    0 -0.00000000000E+00 -0.00000000000E+00 -0.45593999997E+02  0.45594000000E+02  0.51100000000E-03 0. -1.
    9900012    2    1    2    0    0  0.85464570563E+01  0.10810593501E+02  0.38252505434E+02  0.50528867790E+02  0.30000024135E+02 0.  0.
         12    1    1    2    0    0 -0.85464570563E+01 -0.10810593501E+02 -0.38252505434E+02  0.40659132210E+02  0.00000000000E+00 0. -1.
         11    1    3    3    0    0  0.16847223857E+01  0.64997631175E+01  0.46458227394E+01  0.81651013029E+01  0.51100000000E-03 0. -1.
        -11    1    3    3    0    0  0.14490355291E+02 -0.26195583275E+01  0.24629382317E+02  0.28695626075E+02  0.51100000000E-03 0.  1.
         12    1    3    3    0    0 -0.76286206200E+01  0.69303887108E+01  0.89773003783E+01  0.13668140412E+02  0.00000000000E+00 0. -1.
</event>
<event>
 7    1  0.2639126E-011  0.5052885E+02  0.7816164E-02  0.1300439E+00
        -11   -1    0    0    0    0  0.00000000000E+00  0.00000000000E+00  0.45593999997E+02  0.45594000000E+02  0.51100000000E-03 0.  1.
         11   -1    0    0    0    0 -0.00000000000E+00 -0.00000000000E+00 -0.45593999997E+02  0.45594000000E+02  0.51100000000E-03 0. -1.
    9900012    2    1    2    0    0  0.19389431899E+02  0.35092837518E+02  0.67608302234E+01  0.50528854168E+02  0.29999982730E+02 0.  0.
         12    1    1    2    0    0 -0.19389431899E+02 -0.35092837518E+02 -0.67608302234E+01  0.40659145832E+02  0.00000000000E+00 0. -1.
         11    1    3    3    0    0  0.11210281432E+02  0.89998780126E+01  0.21748532594E+01  0.14539539228E+02  0.51100000000E-03 0. -1.
        -11    1    3    3    0    0  0.14076543259E+02  0.19206873566E+02  0.95459292237E+01  0.25654976658E+02  0.51100000000E-03 0.  1.
        -12    1    3    3    0    0 -0.58973927919E+01  0.68860859394E+01 -0.49599522597E+01  0.10334338282E+02  0.00000000000E+00 0.  1.
</event>
<event>
 7    1  0.2639126E-011  0.5052886E+02  0.7816164E-02  0.1300439E+00
        -11   -1    0    0    0    0  0.00000000000E+00  0.00000000000E+00  0.45593999997E+02  0.45594000000E+02  0.51100000000E-03 0. -1.
         11   -1    0    0    0    0 -0.00000000000E+00 -0.00000000000E+00 -0.45593999997E+02  0.45594000000E+02  0.51100000000E-03 0.  1.
    9900012    2    1    2    0    0 -0.13892715608E+01 -0.33812365192E+02 -0.22537958379E+02  0.50528859782E+02  0.29999999793E+02 0.  0.
         12    1    1    2    0    0  0.13892715608E+01  0.33812365192E+02  0.22537958379E+02  0.40659140218E+02  0.00000000000E+00 0. -1.
         11    1    3    3    0    0  0.25006340500E+01 -0.10020943232E+01 -0.12060049304E+02  0.12357271266E+02  0.51100000000E-03 0. -1.
        -11    1    3    3    0    0  0.25610631884E-01  0.11211433712E+01  0.15901078135E+01  0.19457804302E+01  0.51100000000E-03 0.  1.
        -12    1    3    3    0    0 -0.39155162427E+01 -0.33931414240E+02 -0.12068016889E+02  0.36225808085E+02  0.00000000000E+00 0.  1.
</event>
<event>
 7    1  0.2639126E-011  0.5052886E+02  0.7816164E-02  0.1300439E+00
        -11   -1    0    0    0    0  0.00000000000E+00  0.00000000000E+00  0.45593999997E+02  0.45594000000E+02  0.51100000000E-03 0. -1.
         11   -1    0    0    0    0 -0.00000000000E+00 -0.00000000000E+00 -0.45593999997E+02  0.45594000000E+02  0.51100000000E-03 0.  1.
    9900012    2    1    2    0    0 -0.38428881385E+02  0.10470052731E+02 -0.81709717790E+01  0.50528859472E+02  0.29999998851E+02 0.  0.
         12    1    1    2    0    0  0.38428881385E+02 -0.10470052731E+02  0.81709717790E+01  0.40659140528E+02  0.00000000000E+00 0. -1.
         11    1    3    3    0    0  0.27724520771E+00 -0.13834811135E+01 -0.31830138108E+01  0.34817326257E+01  0.51100000000E-03 0. -1.
        -11    1    3    3    0    0 -0.34219379881E+02  0.12446909024E+00 -0.39352906003E+01  0.34445144278E+02  0.51100000000E-03 0.  1.
         12    1    3    3    0    0 -0.44867467114E+01  0.11729064754E+02 -0.10526673679E+01  0.12601982568E+02  0.00000000000E+00 0. -1.
</event>
<event>
 7    1  0.2639126E-011  0.5052886E+02  0.7816164E-02  0.1300439E+00
        -11   -1    0    0    0    0  0.00000000000E+00  0.00000000000E+00  0.45593999997E+02  0.45594000000E+02  0.51100000000E-03 0.  1.
         11   -1    0    0    0    0 -0.00000000000E+00 -0.00000000000E+00 -0.45593999997E+02  0.45594000000E+02  0.51100000000E-03 0. -1.
    9900012    2    1    2    0    0  0.29112256484E+02  0.33449056090E+01  0.28186054358E+02  0.50528861649E+02  0.30000005470E+02 0.  0.
         12    1    1    2    0    0 -0.29112256484E+02 -0.33449056090E+01 -0.28186054358E+02  0.40659138351E+02  0.00000000000E+00 0. -1.
         11    1    3    3    0    0 -0.27484739911E+01  0.13078997700E+01  0.17813361197E+01  0.35267364122E+01  0.51100000000E-03 0. -1.
        -11    1    3    3    0    0  0.83451981551E+01  0.79352854079E+01  0.17949724485E+02  0.21326127077E+02  0.51100000000E-03 0.  1.
        -12    1    3    3    0    0  0.23515532320E+02 -0.58982795689E+01  0.84549937538E+01  0.25675998161E+02  0.00000000000E+00 0.  1.
</event>
<event>
 7    1  0.2639126E-011  0.5052884E+02  0.7816164E-02  0.1300439E+00
        -11   -1    0    0    0    0  0.00000000000E+00  0.00000000000E+00  0.45593999997E+02  0.45594000000E+02  0.51100000000E-03 0. -1.
         11   -1    0    0    0    0 -0.00000000000E+00 -0.00000000000E+00 -0.45593999997E+02  0.45594000000E+02  0.51100000000E-03 0.  1.
    9900012    2    1    2    0    0 -0.52855733302E+01 -0.40234938207E+02 -0.25257400976E+01  0.50528844807E+02  0.29999954275E+02 0.  0.
         12    1    1    2    0    0  0.52855733302E+01  0.40234938207E+02  0.25257400976E+01  0.40659155193E+02  0.00000000000E+00 0. -1.
         11    1    3    3    0    0  0.18109325802E+01  0.58669221527E+00  0.45150266658E+01  0.48999133278E+01  0.51100000000E-03 0. -1.
        -11    1    3    3    0    0 -0.19360504327E+01 -0.55288682244E+01  0.52865042829E+01  0.78907415947E+01  0.51100000000E-03 0.  1.
         12    1    3    3    0    0 -0.51604554777E+01 -0.35292762198E+02 -0.12327271046E+02  0.37738189884E+02  0.00000000000E+00 0. -1.
</event>
<event>
 7    1  0.2639126E-011  0.5052886E+02  0.7816164E-02  0.1300439E+00
        -11   -1    0    0    0    0  0.00000000000E+00  0.00000000000E+00  0.45593999997E+02  0.45594000000E+02  0.51100000000E-03 0. -1.
         11   -1    0    0    0    0 -0.00000000000E+00 -0.00000000000E+00 -0.45593999997E+02  0.45594000000E+02  0.51100000000E-03 0.  1.
    9900012    2    1    2    0    0 -0.20615131090E+02 -0.30355850091E+02  0.17512970391E+02  0.50528863308E+02  0.30000010511E+02 0.  0.
         12    1    1    2    0    0  0.20615131090E+02  0.30355850091E+02 -0.17512970391E+02  0.40659136692E+02  0.00000000000E+00 0. -1.
         11    1    3    3    0    0 -0.52198515217E+00 -0.98996040097E+01 -0.40569168001E+01  0.10711358562E+02  0.51100000000E-03 0. -1.
        -11    1    3    3    0    0 -0.56618481467E+01 -0.57380147384E+01 -0.21989909589E+01  0.83556507271E+01  0.51100000000E-03 0.  1.
         12    1    3    3    0    0 -0.14431297791E+02 -0.14718231343E+02  0.23768878150E+02  0.31461854019E+02  0.00000000000E+00 0. -1.
</event>
<event>
 7    1  0.2639126E-011  0.5052885E+02  0.7816164E-02  0.1300439E+00
        -11   -1    0    0    0    0  0.00000000000E+00  0.00000000000E+00  0.45593999997E+02  0.45594000000E+02  0.51100000000E-03 0. -1.
         11   -1    0    0    0    0 -0.00000000000E+00 -0.00000000000E+00 -0.45593999997E+02  0.45594000000E+02  0.51100000000E-03 0.  1.
    9900012    2    1    2    0    0  0.84748818942E+01  0.32982891733E+02 -0.22214214064E+02  0.50528854944E+02  0.29999985088E+02 0.  0.
         12    1    1    2    0    0 -0.84748818942E+01 -0.32982891733E+02  0.22214214064E+02  0.40659145056E+02  0.00000000000E+00 0. -1.
         11    1    3    3    0    0  0.44296739458E+01  0.22382243491E+02 -0.14271594935E+02  0.26912176746E+02  0.51100000000E-03 0. -1.
        -11    1    3    3    0    0 -0.15568882360E+01  0.15834310279E+01 -0.12035967629E+02  0.12239104208E+02  0.51100000000E-03 0.  1.
        -12    1    3    3    0    0  0.56020961845E+01  0.90172172147E+01  0.40933484998E+01  0.11377573990E+02  0.00000000000E+00 0.  1.
</event>
<event>
 7    1  0.2639126E-011  0.5052886E+02  0.7816164E-02  0.1300439E+00
        -11   -1    0    0    0    0  0.00000000000E+00  0.00000000000E+00  0.45593999997E+02  0.45594000000E+02  0.51100000000E-03 0.  1.
         11   -1    0    0    0    0 -0.00000000000E+00 -0.00000000000E+00 -0.45593999997E+02  0.45594000000E+02  0.51100000000E-03 0. -1.
    9900012    2    1    2    0    0 -0.30947546741E+02  0.16413974079E+02  0.20639673583E+02  0.50528864250E+02  0.30000013373E+02 0.  0.
         12    1    1    2    0    0  0.30947546741E+02 -0.16413974079E+02 -0.20639673583E+02  0.40659135750E+02  0.00000000000E+00 0. -1.
         11    1    3    3    0    0 -0.15953690847E+02  0.14733077880E+02  0.28399946928E+01  0.21900899652E+02  0.51100000000E-03 0. -1.
        -11    1    3    3    0    0  0.29087455183E+01 -0.10059677233E+01 -0.21947483882E+00  0.30856022130E+01  0.51100000000E-03 0.  1.
        -12    1    3    3    0    0 -0.17902601412E+02  0.26868639220E+01  0.18019153729E+02  0.25542362384E+02  0.00000000000E+00 0.  1.
</event>
<event>
 7    1  0.2639126E-011  0.5052894E+02  0.7816164E-02  0.1300438E+00
        -11   -1    0    0    0    0  0.00000000000E+00  0.00000000000E+00  0.45593999997E+02  0.45594000000E+02  0.51100000000E-03 0. -1.
         11   -1    0    0    0    0 -0.00000000000E+00 -0.00000000000E+00 -0.45593999997E+02  0.45594000000E+02  0.51100000000E-03 0.  1.
    9900012    2    1    2    0    0  0.30148597278E+02  0.86561855184E+01 -0.25870664934E+02  0.50528944801E+02  0.30000258216E+02 0.  0.
         12    1    1    2    0    0 -0.30148597278E+02 -0.86561855184E+01  0.25870664934E+02  0.40659055199E+02  0.00000000000E+00 0. -1.
         11    1    3    3    0    0  0.27419305999E+00  0.87417993490E+01 -0.20247797022E+00  0.87484418774E+01  0.51100000000E-03 0. -1.
        -11    1    3    3    0    0  0.11518744993E+02 -0.23200129086E+01 -0.22861517418E+01  0.11970398329E+02  0.51100000000E-03 0.  1.
         12    1    3    3    0    0  0.18355659225E+02  0.22343990781E+01 -0.23382035222E+02  0.29810104595E+02  0.00000000000E+00 0. -1.
</event>
<event>
 7    1  0.2639126E-011  0.5052886E+02  0.7816164E-02  0.1300439E+00
        -11   -1    0    0    0    0  0.00000000000E+00  0.00000000000E+00  0.45593999997E+02  0.45594000000E+02  0.51100000000E-03 0.  1.
         11   -1    0    0    0    0 -0.00000000000E+00 -0.00000000000E+00 -0.45593999997E+02  0.45594000000E+02  0.51100000000E-03 0. -1.
    9900012    2    1    2    0    0 -0.58195315954E+01 -0.57277189851E+01  0.39830793416E+02  0.50528858139E+02  0.29999994799E+02 0.  0.
         12    1    1    2    0    0  0.58195315954E+01  0.57277189851E+01 -0.39830793416E+02  0.40659141861E+02  0.00000000000E+00 0. -1.
         11    1    3    3    0    0  0.92648686721E+01  0.15423244339E+00  0.12979623693E+02  0.15947796419E+02  0.51100000000E-03 0. -1.
        -11    1    3    3    0    0 -0.18355437617E+01 -0.62211700772E+01  0.16611606093E+02  0.17833048962E+02  0.51100000000E-03 0.  1.
         12    1    3    3    0    0 -0.13248856506E+02  0.33921864869E+00  0.10239563630E+02  0.16748012758E+02  0.00000000000E+00 0. -1.
</event>
<event>
 7    1  0.2639126E-011  0.5052886E+02  0.7816164E-02  0.1300439E+00
        -11   -1    0    0    0    0  0.00000000000E+00  0.00000000000E+00  0.45593999997E+02  0.45594000000E+02  0.51100000000E-03 0.  1.
         11   -1    0    0    0    0 -0.00000000000E+00 -0.00000000000E+00 -0.45593999997E+02  0.45594000000E+02  0.51100000000E-03 0. -1.
    9900012    2    1    2    0    0 -0.12484638156E+02 -0.19412082632E+02  0.33473431054E+02  0.50528859225E+02  0.29999998101E+02 0.  0.
         12    1    1    2    0    0  0.12484638156E+02  0.19412082632E+02 -0.33473431054E+02  0.40659140775E+02  0.00000000000E+00 0. -1.
         11    1    3    3    0    0 -0.83723295776E+00  0.26630685364E+01 -0.32194127884E+00  0.28100782023E+01  0.51100000000E-03 0. -1.
        -11    1    3    3    0    0 -0.16826361197E+02 -0.91664145818E+01  0.14986431602E+02  0.24325762472E+02  0.51100000000E-03 0.  1.
         12    1    3    3    0    0  0.51789559984E+01 -0.12908736587E+02  0.18808940731E+02  0.23393018551E+02  0.00000000000E+00 0. -1.
</event>
<event>
 7    1  0.2639126E-011  0.5052885E+02  0.7816164E-02  0.1300439E+00
        -11   -1    0    0    0    0  0.00000000000E+00  0.00000000000E+00  0.45593999997E+02  0.45594000000E+02  0.51100000000E-03 0.  1.
         11   -1    0    0    0    0 -0.00000000000E+00 -0.00000000000E+00 -0.45593999997E+02  0.45594000000E+02  0.51100000000E-03 0. -1.
    9900012    2    1    2    0    0 -0.34049282506E+02  0.17252194736E+02  0.14006232992E+02  0.50528850661E+02  0.29999972068E+02 0.  0.
         12    1    1    2    0    0  0.34049282506E+02 -0.17252194736E+02 -0.14006232992E+02  0.40659149339E+02  0.00000000000E+00 0. -1.
         11    1    3    3    0    0 -0.94070883513E+00  0.35237739754E+01 -0.29973539906E+00  0.36594750597E+01  0.51100000000E-03 0. -1.
        -11    1    3    3    0    0 -0.21525133617E+02  0.18543968606E+02  0.18192120549E+02  0.33736677359E+02  0.51100000000E-03 0.  1.
        -12    1    3    3    0    0 -0.11583440054E+02 -0.48155478453E+01 -0.38861521576E+01  0.13132698242E+02  0.00000000000E+00 0.  1.
</event>
<event>
 7    1  0.2639126E-011  0.5052883E+02  0.7816164E-02  0.1300439E+00
        -11   -1    0    0    0    0  0.00000000000E+00  0.00000000000E+00  0.45593999997E+02  0.45594000000E+02  0.51100000000E-03 0.  1.
         11   -1    0    0    0    0 -0.00000000000E+00 -0.00000000000E+00 -0.45593999997E+02  0.45594000000E+02  0.51100000000E-03 0. -1.
    9900012    2    1    2    0    0 -0.37299586390E+02  0.35816470649E+01  0.15782281977E+02  0.50528834183E+02  0.29999921982E+02 0.  0.
         12    1    1    2    0    0  0.37299586390E+02 -0.35816470649E+01 -0.15782281977E+02  0.40659165817E+02  0.00000000000E+00 0. -1.
         11    1    3    3    0    0 -0.13108278025E+02 -0.71093016619E+01  0.39228374219E+01  0.15419396116E+02  0.51100000000E-03 0. -1.
        -11    1    3    3    0    0 -0.19193375493E+02  0.36316903491E+01  0.16250066207E+02  0.25409437019E+02  0.51100000000E-03 0.  1.
        -12    1    3    3    0    0 -0.49979328716E+01  0.70592583778E+01 -0.43906216516E+01  0.97000010475E+01  0.00000000000E+00 0.  1.
</event>
<event>
 7    1  0.2639126E-011  0.5052887E+02  0.7816164E-02  0.1300439E+00
        -11   -1    0    0    0    0  0.00000000000E+00  0.00000000000E+00  0.45593999997E+02  0.45594000000E+02  0.51100000000E-03 0. -1.
         11   -1    0    0    0    0 -0.00000000000E+00 -0.00000000000E+00 -0.45593999997E+02  0.45594000000E+02  0.51100000000E-03 0.  1.
    9900012    2    1    2    0    0 -0.26283976027E+02 -0.14996041473E+02 -0.27155774665E+02  0.50528871218E+02  0.30000034555E+02 0.  0.
         12    1    1    2    0    0  0.26283976027E+02  0.14996041473E+02  0.27155774665E+02  0.40659128782E+02  0.00000000000E+00 0. -1.
         11    1    3    3    0    0 -0.59701927835E+01 -0.53022371492E+01  0.10400127056E+01  0.80522386544E+01  0.51100000000E-03 0. -1.
        -11    1    3    3    0    0  0.50753174891E+00  0.35960988430E+01  0.14309051081E+01  0.39034606510E+01  0.51100000000E-03 0.  1.
        -12    1    3    3    0    0 -0.20821314993E+02 -0.13289903167E+02 -0.29626692478E+02  0.38573171913E+02  0.00000000000E+00 0.  1.
</event>
<event>
 7    1  0.2639126E-011  0.5052888E+02  0.7816164E-02  0.1300439E+00
        -11   -1    0    0    0    0  0.00000000000E+00  0.00000000000E+00  0.45593999997E+02  0.45594000000E+02  0.51100000000E-03 0.  1.
         11   -1    0    0    0    0 -0.00000000000E+00 -0.00000000000E+00 -0.45593999997E+02  0.45594000000E+02  0.51100000000E-03 0. -1.
    9900012    2    1    2    0    0  0.12111371351E+02  0.38291099766E+02  0.63459022413E+01  0.50528879098E+02  0.30000058506E+02 0.  0.
         12    1    1    2    0    0 -0.12111371351E+02 -0.38291099766E+02 -0.63459022413E+01  0.40659120902E+02  0.00000000000E+00 0. -1.
         11    1    3    3    0    0  0.19451612608E+02  0.17298503253E+02 -0.73447700407E+00  0.26041177096E+02  0.51100000000E-03 0. -1.
        -11    1    3    3    0    0  0.88755128933E+00  0.77292345521E+01  0.15806231932E+01  0.79389661791E+01  0.51100000000E-03 0.  1.
         12    1    3    3    0    0 -0.82277925463E+01  0.13263361961E+02  0.54997560521E+01  0.16548735823E+02  0.00000000000E+00 0. -1.
</event>
<event>
 7    1  0.2639126E-011  0.5052886E+02  0.7816164E-02  0.1300439E+00
        -11   -1    0    0    0    0  0.00000000000E+00  0.00000000000E+00  0.45593999997E+02  0.45594000000E+02  0.51100000000E-03 0. -1.
         11   -1    0    0    0    0 -0.00000000000E+00 -0.00000000000E+00 -0.45593999997E+02  0.45594000000E+02  0.51100000000E-03 0.  1.
    9900012    2    1    2    0    0  0.11177188849E+02  0.30969791280E+01 -0.38969795432E+02  0.50528858515E+02  0.29999995943E+02 0.  0.
         12    1    1    2    0    0 -0.11177188849E+02 -0.30969791280E+01  0.38969795432E+02  0.40659141485E+02  0.00000000000E+00 0. -1.
         11    1    3    3    0    0  0.39612825357E+01  0.10652728045E+01 -0.16469335544E+02  0.16972494778E+02  0.51100000000E-03 0.  1.
        -11    1    3    3    0    0  0.35685143614E+01  0.36531137248E+01  0.41674143542E+01  0.65914245270E+01  0.51100000000E-03 0. -1.
         12    1    3    3    0    0  0.36473919524E+01 -0.16214074013E+01 -0.26667874242E+02  0.26964939210E+02  0.00000000000E+00 0. -1.
</event>
<event>
 7    1  0.2639126E-011  0.5052884E+02  0.7816164E-02  0.1300439E+00
        -11   -1    0    0    0    0  0.00000000000E+00  0.00000000000E+00  0.45593999997E+02  0.45594000000E+02  0.51100000000E-03 0. -1.
         11   -1    0    0    0    0 -0.00000000000E+00 -0.00000000000E+00 -0.45593999997E+02  0.45594000000E+02  0.51100000000E-03 0.  1.
    9900012    2    1    2    0    0 -0.25527589459E+02  0.14790292892E+02 -0.27977791553E+02  0.50528838577E+02  0.29999935339E+02 0.  0.
         12    1    1    2    0    0  0.25527589459E+02 -0.14790292892E+02  0.27977791553E+02  0.40659161423E+02  0.00000000000E+00 0. -1.
         11    1    3    3    0    0 -0.13598967813E+02  0.10924863373E+02 -0.87873879504E+01  0.19532095447E+02  0.51100000000E-03 0. -1.
        -11    1    3    3    0    0 -0.15218310902E+02  0.89122808760E+01 -0.10843321663E+02  0.20702738033E+02  0.51100000000E-03 0.  1.
         12    1    3    3    0    0  0.32896892559E+01 -0.50468513575E+01 -0.83470819397E+01  0.10294005097E+02  0.00000000000E+00 0. -1.
</event>
<event>
 7    1  0.2639126E-011  0.5052889E+02  0.7816164E-02  0.1300439E+00
        -11   -1    0    0    0    0  0.00000000000E+00  0.00000000000E+00  0.45593999997E+02  0.45594000000E+02  0.51100000000E-03 0.  1.
         11   -1    0    0    0    0 -0.00000000000E+00 -0.00000000000E+00 -0.45593999997E+02  0.45594000000E+02  0.51100000000E-03 0. -1.
    9900012    2    1    2    0    0 -0.35319807210E+02  0.11274511725E+01  0.20109789417E+02  0.50528885919E+02  0.30000079239E+02 0.  0.
         12    1    1    2    0    0  0.35319807210E+02 -0.11274511725E+01 -0.20109789417E+02  0.40659114081E+02  0.00000000000E+00 0. -1.
         11    1    3    3    0    0 -0.15829539916E+02  0.55336076385E+00 -0.42753040383E+00  0.15844977898E+02  0.51100000000E-03 0. -1.
        -11    1    3    3    0    0 -0.30834641396E+01  0.58176694524E+01 -0.14611632541E+01  0.67444812457E+01  0.51100000000E-03 0.  1.
        -12    1    3    3    0    0 -0.16406803155E+02 -0.52435790437E+01  0.21998483075E+02  0.27939426775E+02  0.00000000000E+00 0.  1.
</event>
<event>
 7    1  0.2639126E-011  0.5052879E+02  0.7816164E-02  0.1300439E+00
        -11   -1    0    0    0    0  0.00000000000E+00  0.00000000000E+00  0.45593999997E+02  0.45594000000E+02  0.51100000000E-03 0.  1.
         11   -1    0    0    0    0 -0.00000000000E+00 -0.00000000000E+00 -0.45593999997E+02  0.45594000000E+02  0.51100000000E-03 0. -1.
    9900012    2    1    2    0    0 -0.40634913115E+02  0.45022748104E+00  0.13314274110E+01  0.50528787421E+02  0.29999779843E+02 0.  0.
         12    1    1    2    0    0  0.40634913115E+02 -0.45022748104E+00 -0.13314274110E+01  0.40659212579E+02  0.00000000000E+00 0. -1.
         11    1    3    3    0    0 -0.25465757047E+02 -0.18197860797E+01 -0.36143933551E+01  0.25785271822E+02  0.51100000000E-03 0. -1.
        -11    1    3    3    0    0 -0.17440041234E+02 -0.37136986884E+01  0.32811259667E+01  0.18130427024E+02  0.51100000000E-03 0.  1.
         12    1    3    3    0    0  0.22708851664E+01  0.59837122491E+01  0.16646947995E+01  0.66130885745E+01  0.00000000000E+00 0. -1.
</event>
<event>
 7    1  0.2639126E-011  0.5052886E+02  0.7816164E-02  0.1300439E+00
        -11   -1    0    0    0    0  0.00000000000E+00  0.00000000000E+00  0.45593999997E+02  0.45594000000E+02  0.51100000000E-03 0.  1.
         11   -1    0    0    0    0 -0.00000000000E+00 -0.00000000000E+00 -0.45593999997E+02  0.45594000000E+02  0.51100000000E-03 0. -1.
    9900012    2    1    2    0    0  0.71933545824E+01  0.15394092744E+02  0.36938369311E+02  0.50528861188E+02  0.30000004067E+02 0.  0.
         12    1    1    2    0    0 -0.71933545824E+01 -0.15394092744E+02 -0.36938369311E+02  0.40659138812E+02  0.00000000000E+00 0. -1.
         11    1    3    3    0    0 -0.51135553737E+01  0.82212865716E-01 -0.79498473477E+00  0.51756360483E+01  0.51100000000E-03 0. -1.
        -11    1    3    3    0    0  0.11322521391E+02  0.13416194012E+02  0.16759424725E+02  0.24270806946E+02  0.51100000000E-03 0.  1.
         12    1    3    3    0    0  0.98438856551E+00  0.18956858657E+01  0.20973929321E+02  0.21082418194E+02  0.00000000000E+00 0. -1.
</event>
<event>
 7    1  0.2639126E-011  0.5052885E+02  0.7816164E-02  0.1300439E+00
        -11   -1    0    0    0    0  0.00000000000E+00  0.00000000000E+00  0.45593999997E+02  0.45594000000E+02  0.51100000000E-03 0.  1.
         11   -1    0    0    0    0 -0.00000000000E+00 -0.00000000000E+00 -0.45593999997E+02  0.45594000000E+02  0.51100000000E-03 0. -1.
    9900012    2    1    2    0    0  0.20755241369E+02 -0.34950254279E+02  0.93053815877E+00  0.50528853185E+02  0.29999979741E+02 0.  0.
         12    1    1    2    0    0 -0.20755241369E+02  0.34950254279E+02 -0.93053815877E+00  0.40659146815E+02  0.00000000000E+00 0. -1.
         11    1    3    3    0    0  0.90801260022E+00 -0.11013011765E+02  0.94183491105E+00  0.11090444909E+02  0.51100000000E-03 0. -1.
        -11    1    3    3    0    0  0.11352776025E+02 -0.16976018014E+02  0.11574750089E+02  0.23474359437E+02  0.51100000000E-03 0.  1.
        -12    1    3    3    0    0  0.84944527433E+01 -0.69612245003E+01 -0.11586046841E+02  0.15964048840E+02  0.00000000000E+00 0.  1.
</event>
<event>
 7    1  0.2639126E-011  0.5052886E+02  0.7816164E-02  0.1300439E+00
        -11   -1    0    0    0    0  0.00000000000E+00  0.00000000000E+00  0.45593999997E+02  0.45594000000E+02  0.51100000000E-03 0.  1.
         11   -1    0    0    0    0 -0.00000000000E+00 -0.00000000000E+00 -0.45593999997E+02  0.45594000000E+02  0.51100000000E-03 0. -1.
    9900012    2    1    2    0    0 -0.55756612593E+01 -0.22077530392E+02  0.33684722174E+02  0.50528857675E+02  0.29999993388E+02 0.  0.
         12    1    1    2    0    0  0.55756612593E+01  0.22077530392E+02 -0.33684722174E+02  0.40659142325E+02  0.00000000000E+00 0. -1.
         11    1    3    3    0    0 -0.46069310833E+01 -0.17574857463E+02  0.17115357568E+02  0.24960666934E+02  0.51100000000E-03 0. -1.
        -11    1    3    3    0    0  0.75964789783E+01 -0.62348053499E+01  0.12575884101E+02  0.15960330567E+02  0.51100000000E-03 0.  1.
         12    1    3    3    0    0 -0.85652091542E+01  0.17321324206E+01  0.39934805048E+01  0.96078601738E+01  0.00000000000E+00 0. -1.
</event>
<event>
 7    1  0.2639126E-011  0.5052885E+02  0.7816164E-02  0.1300439E+00
        -11   -1    0    0    0    0  0.00000000000E+00  0.00000000000E+00  0.45593999997E+02  0.45594000000E+02  0.51100000000E-03 0.  1.
         11   -1    0    0    0    0 -0.00000000000E+00 -0.00000000000E+00 -0.45593999997E+02  0.45594000000E+02  0.51100000000E-03 0. -1.
    9900012    2    1    2    0    0  0.20048488743E+02 -0.19868754241E+02  0.29265284605E+02  0.50528853686E+02  0.29999981265E+02 0.  0.
         12    1    1    2    0    0 -0.20048488743E+02  0.19868754241E+02 -0.29265284605E+02  0.40659146314E+02  0.00000000000E+00 0. -1.
         11    1    3    3    0    0 -0.15114339795E+01 -0.59662313167E+00  0.82751210656E+01  0.84331501082E+01  0.51100000000E-03 0. -1.
        -11    1    3    3    0    0  0.92345397580E+00 -0.52317302200E+01  0.15709259270E+02  0.16583262508E+02  0.51100000000E-03 0.  1.
        -12    1    3    3    0    0  0.20636468746E+02 -0.14040400889E+02  0.52809042690E+01  0.25512441070E+02  0.00000000000E+00 0.  1.
</event>
<event>
 7    1  0.2639126E-011  0.5052886E+02  0.7816164E-02  0.1300439E+00
        -11   -1    0    0    0    0  0.00000000000E+00  0.00000000000E+00  0.45593999997E+02  0.45594000000E+02  0.51100000000E-03 0.  1.
         11   -1    0    0    0    0 -0.00000000000E+00 -0.00000000000E+00 -0.45593999997E+02  0.45594000000E+02  0.51100000000E-03 0. -1.
    9900012    2    1    2    0    0 -0.20583435597E+02 -0.29712518536E+02  0.18618659379E+02  0.50528855201E+02  0.29999985868E+02 0.  0.
         12    1    1    2    0    0  0.20583435597E+02  0.29712518536E+02 -0.18618659379E+02  0.40659144799E+02  0.00000000000E+00 0. -1.
         11    1    3    3    0    0 -0.26425663439E+01 -0.49363038565E-01 -0.21984121238E+01  0.34378204896E+01  0.51100000000E-03 0. -1.
        -11    1    3    3    0    0 -0.51200494105E+00  0.15289196182E+01  0.94629669033E+01  0.95993482661E+01  0.51100000000E-03 0.  1.
         12    1    3    3    0    0 -0.17428864312E+02 -0.31192075116E+02  0.11354104600E+02  0.37491686445E+02  0.00000000000E+00 0. -1.
</event>
<event>
 7    1  0.2639126E-011  0.5052885E+02  0.7816164E-02  0.1300439E+00
        -11   -1    0    0    0    0  0.00000000000E+00  0.00000000000E+00  0.45593999997E+02  0.45594000000E+02  0.51100000000E-03 0.  1.
         11   -1    0    0    0    0 -0.00000000000E+00 -0.00000000000E+00 -0.45593999997E+02  0.45594000000E+02  0.51100000000E-03 0. -1.
    9900012    2    1    2    0    0 -0.21047238888E+01 -0.37900138587E+02  0.14571059395E+02  0.50528854172E+02  0.29999982742E+02 0.  0.
         12    1    1    2    0    0  0.21047238888E+01  0.37900138587E+02 -0.14571059395E+02  0.40659145828E+02  0.00000000000E+00 0. -1.
         11    1    3    3    0    0  0.30889386673E+01 -0.78480885674E+01 -0.18366338524E+01  0.86317588255E+01  0.51100000000E-03 0.  1.
        -11    1    3    3    0    0 -0.14468649506E+02 -0.16540171982E+02  0.73514214651E+01  0.23172451436E+02  0.51100000000E-03 0. -1.
         12    1    3    3    0    0  0.92749869496E+01 -0.13511878037E+02  0.90562717827E+01  0.18724643911E+02  0.00000000000E+00 0. -1.
</event>
<event>
 7    1  0.2639126E-011  0.5052884E+02  0.7816164E-02  0.1300439E+00
        -11   -1    0    0    0    0  0.00000000000E+00  0.00000000000E+00  0.45593999997E+02  0.45594000000E+02  0.51100000000E-03 0.  1.
         11   -1    0    0    0    0 -0.00000000000E+00 -0.00000000000E+00 -0.45593999997E+02  0.45594000000E+02  0.51100000000E-03 0. -1.
    9900012    2    1    2    0    0 -0.12316971609E+02  0.17121126087E+02  0.34760994492E+02  0.50528837611E+02  0.29999932402E+02 0.  0.
         12    1    1    2    0    0  0.12316971609E+02 -0.17121126087E+02 -0.34760994492E+02  0.40659162389E+02  0.00000000000E+00 0. -1.
         11    1    3    3    0    0  0.21115314421E+01  0.20152548139E+01  0.98043973926E+01  0.10229663997E+02  0.51100000000E-03 0. -1.
        -11    1    3    3    0    0 -0.34692426666E+01  0.18527492759E+02  0.20846174671E+02  0.28104566022E+02  0.51100000000E-03 0.  1.
         12    1    3    3    0    0 -0.10959260384E+02 -0.34216214868E+01  0.41104224288E+01  0.12194607592E+02  0.00000000000E+00 0. -1.
</event>
<event>
 7    1 -0.7680103E-011  0.5052887E+02  0.7816164E-02  0.1300439E+00
        -11   -1    0    0    0    0  0.00000000000E+00  0.00000000000E+00  0.45593999997E+02  0.45594000000E+02  0.51100000000E-03 0. -1.
         11   -1    0    0    0    0 -0.00000000000E+00 -0.00000000000E+00 -0.45593999997E+02  0.45594000000E+02  0.51100000000E-03 0.  1.
    9900012    2    1    2    0    0  0.34567287192E+02  0.69823550960E+01 -0.20236466660E+02  0.50528865609E+02  0.30000017506E+02 0.  0.
         12    1    1    2    0    0 -0.34567287192E+02 -0.69823550960E+01  0.20236466660E+02  0.40659134391E+02  0.00000000000E+00 0. -1.
         11    1    3    3    0    0  0.17577562498E+02  0.69633853694E+01 -0.18747781620E+02  0.26625903836E+02  0.51100000000E-03 0. -1.
        -11    1    3    3    0    0  0.12181195046E+02 -0.25899981917E+01 -0.84496845022E+01  0.15049477460E+02  0.51100000000E-03 0.  1.
         12    1    3    3    0    0  0.48085296485E+01  0.26089679183E+01  0.69609994616E+01  0.88534843132E+01  0.00000000000E+00 0. -1.
</event>
<event>
 7    1  0.2639126E-011  0.5052886E+02  0.7816164E-02  0.1300439E+00
        -11   -1    0    0    0    0  0.00000000000E+00  0.00000000000E+00  0.45593999997E+02  0.45594000000E+02  0.51100000000E-03 0. -1.
         11   -1    0    0    0    0 -0.00000000000E+00 -0.00000000000E+00 -0.45593999997E+02  0.45594000000E+02  0.51100000000E-03 0.  1.
    9900012    2    1    2    0    0  0.28441038907E+02  0.30385239755E+00 -0.29054792092E+02  0.50528856331E+02  0.29999989302E+02 0.  0.
         12    1    1    2    0    0 -0.28441038907E+02 -0.30385239755E+00  0.29054792092E+02  0.40659143669E+02  0.00000000000E+00 0. -1.
         11    1    3    3    0    0  0.20575569016E+01  0.23060234801E+01  0.17145487088E+00  0.30952676343E+01  0.51100000000E-03 0. -1.
        -11    1    3    3    0    0  0.66290983664E+01 -0.91444197523E+00 -0.26655852270E+02  0.27483005836E+02  0.51100000000E-03 0.  1.
         12    1    3    3    0    0  0.19754383639E+02 -0.10877291073E+01 -0.25703946929E+01  0.19950582860E+02  0.00000000000E+00 0. -1.
</event>
<event>
 7    1  0.2639126E-011  0.5052886E+02  0.7816164E-02  0.1300439E+00
        -11   -1    0    0    0    0  0.00000000000E+00  0.00000000000E+00  0.45593999997E+02  0.45594000000E+02  0.51100000000E-03 0.  1.
         11   -1    0    0    0    0 -0.00000000000E+00 -0.00000000000E+00 -0.45593999997E+02  0.45594000000E+02  0.51100000000E-03 0. -1.
    9900012    2    1    2    0    0  0.46516077610E+01 -0.28802924113E+02  0.28318186625E+02  0.50528860979E+02  0.30000003430E+02 0.  0.
         12    1    1    2    0    0 -0.46516077610E+01  0.28802924113E+02 -0.28318186625E+02  0.40659139021E+02  0.00000000000E+00 0. -1.
         11    1    3    3    0    0  0.68933350284E+01 -0.22438967821E+02  0.17354158007E+02  0.29192330244E+02  0.51100000000E-03 0. -1.
        -11    1    3    3    0    0 -0.80011371662E+00 -0.20379784202E+01 -0.46127914885E+01  0.51060144514E+01  0.51100000000E-03 0.  1.
        -12    1    3    3    0    0 -0.14416135508E+01 -0.43259778716E+01  0.15576820107E+02  0.16230516283E+02  0.00000000000E+00 0.  1.
</event>
<event>
 7    1  0.2639126E-011  0.5052887E+02  0.7816164E-02  0.1300439E+00
        -11   -1    0    0    0    0  0.00000000000E+00  0.00000000000E+00  0.45593999997E+02  0.45594000000E+02  0.51100000000E-03 0. -1.
         11   -1    0    0    0    0 -0.00000000000E+00 -0.00000000000E+00 -0.45593999997E+02  0.45594000000E+02  0.51100000000E-03 0.  1.
    9900012    2    1    2    0    0 -0.30982057162E+02 -0.25448844268E+02 -0.67552655507E+01  0.50528866300E+02  0.30000019607E+02 0.  0.
         12    1    1    2    0    0  0.30982057162E+02  0.25448844268E+02  0.67552655507E+01  0.40659133700E+02  0.00000000000E+00 0. -1.
         11    1    3    3    0    0 -0.17257887147E+02 -0.12918516672E+02 -0.77175666830E+01  0.22897239518E+02  0.51100000000E-03 0.  1.
        -11    1    3    3    0    0  0.41255799393E+01 -0.12468343470E+01 -0.40649127198E+01  0.59244005102E+01  0.51100000000E-03 0. -1.
         12    1    3    3    0    0 -0.17849749954E+02 -0.11283493249E+02  0.50272138520E+01  0.21707226272E+02  0.00000000000E+00 0. -1.
</event>
<event>
 7    1  0.2639126E-011  0.5052886E+02  0.7816164E-02  0.1300439E+00
        -11   -1    0    0    0    0  0.00000000000E+00  0.00000000000E+00  0.45593999997E+02  0.45594000000E+02  0.51100000000E-03 0.  1.
         11   -1    0    0    0    0 -0.00000000000E+00 -0.00000000000E+00 -0.45593999997E+02  0.45594000000E+02  0.51100000000E-03 0. -1.
    9900012    2    1    2    0    0 -0.29730585899E+02 -0.27683626271E+02  0.16954969650E+01  0.50528860666E+02  0.30000002482E+02 0.  0.
         12    1    1    2    0    0  0.29730585899E+02  0.27683626271E+02 -0.16954969650E+01  0.40659139334E+02  0.00000000000E+00 0. -1.
         11    1    3    3    0    0 -0.35161256668E+01 -0.15039515538E+02 -0.88337338931E+01  0.17792836257E+02  0.51100000000E-03 0. -1.
        -11    1    3    3    0    0 -0.19362484826E+01 -0.38799963369E+01  0.44597858809E+01  0.62203794198E+01  0.51100000000E-03 0.  1.
        -12    1    3    3    0    0 -0.24278211749E+02 -0.87641143963E+01  0.60694449772E+01  0.26515644990E+02  0.00000000000E+00 0.  1.
</event>
<event>
 7    1  0.2639126E-011  0.5052886E+02  0.7816164E-02  0.1300439E+00
        -11   -1    0    0    0    0  0.00000000000E+00  0.00000000000E+00  0.45593999997E+02  0.45594000000E+02  0.51100000000E-03 0.  1.
         11   -1    0    0    0    0 -0.00000000000E+00 -0.00000000000E+00 -0.45593999997E+02  0.45594000000E+02  0.51100000000E-03 0. -1.
    9900012    2    1    2    0    0 -0.94550775647E+01 -0.35383980665E+02  0.17656185923E+02  0.50528862272E+02  0.30000007362E+02 0.  0.
         12    1    1    2    0    0  0.94550775647E+01  0.35383980665E+02 -0.17656185923E+02  0.40659137728E+02  0.00000000000E+00 0. -1.
         11    1    3    3    0    0  0.13651859094E+01 -0.52031961800E-01 -0.73823185475E+00  0.15528768221E+01  0.51100000000E-03 0. -1.
        -11    1    3    3    0    0  0.48197430955E+01 -0.24664910980E+02  0.16241087549E+02  0.29922578134E+02  0.51100000000E-03 0.  1.
        -12    1    3    3    0    0 -0.15640006570E+02 -0.10667037723E+02  0.21533302288E+01  0.19053407316E+02  0.00000000000E+00 0.  1.
</event>
<event>
 7    1  0.2639126E-011  0.5052886E+02  0.7816164E-02  0.1300439E+00
        -11   -1    0    0    0    0  0.00000000000E+00  0.00000000000E+00  0.45593999997E+02  0.45594000000E+02  0.51100000000E-03 0. -1.
         11   -1    0    0    0    0 -0.00000000000E+00 -0.00000000000E+00 -0.45593999997E+02  0.45594000000E+02  0.51100000000E-03 0.  1.
    9900012    2    1    2    0    0 -0.24613438886E+02  0.22093725103E+02 -0.23647650028E+02  0.50528863087E+02  0.30000009839E+02 0.  0.
         12    1    1    2    0    0  0.24613438886E+02 -0.22093725103E+02  0.23647650028E+02  0.40659136913E+02  0.00000000000E+00 0. -1.
         11    1    3    3    0    0 -0.61950330447E+01 -0.11581173690E+01  0.12977382083E+01  0.64345780735E+01  0.51100000000E-03 0. -1.
        -11    1    3    3    0    0 -0.50974885563E+01 -0.18754258259E+01  0.10866994046E+01  0.55391811188E+01  0.51100000000E-03 0.  1.
        -12    1    3    3    0    0 -0.13320917285E+02  0.25127268297E+02 -0.26032087641E+02  0.38555103895E+02  0.00000000000E+00 0.  1.
</event>
<event>
 7    1  0.2639126E-011  0.5052886E+02  0.7816164E-02  0.1300439E+00
        -11   -1    0    0    0    0  0.00000000000E+00  0.00000000000E+00  0.45593999997E+02  0.45594000000E+02  0.51100000000E-03 0. -1.
         11   -1    0    0    0    0 -0.00000000000E+00 -0.00000000000E+00 -0.45593999997E+02  0.45594000000E+02  0.51100000000E-03 0.  1.
    9900012    2    1    2    0    0  0.38139217822E+02 -0.13392595771E+02  0.43822137450E+01  0.50528863820E+02  0.30000012068E+02 0.  0.
         12    1    1    2    0    0 -0.38139217822E+02  0.13392595771E+02 -0.43822137450E+01  0.40659136180E+02  0.00000000000E+00 0. -1.
         11    1    3    3    0    0  0.41192532389E+01  0.54716220343E+01  0.28873923526E+01  0.74326260360E+01  0.51100000000E-03 0. -1.
        -11    1    3    3    0    0  0.60113316842E+01  0.31715235313E+01 -0.24852982393E+01  0.72368071500E+01  0.51100000000E-03 0.  1.
        -12    1    3    3    0    0  0.28008632899E+02 -0.22035741336E+02  0.39801196316E+01  0.35859430634E+02  0.00000000000E+00 0.  1.
</event>
<event>
 7    1  0.2639126E-011  0.5052887E+02  0.7816164E-02  0.1300439E+00
        -11   -1    0    0    0    0  0.00000000000E+00  0.00000000000E+00  0.45593999997E+02  0.45594000000E+02  0.51100000000E-03 0.  1.
         11   -1    0    0    0    0 -0.00000000000E+00 -0.00000000000E+00 -0.45593999997E+02  0.45594000000E+02  0.51100000000E-03 0. -1.
    9900012    2    1    2    0    0 -0.20629224407E+02 -0.18077229201E+02  0.30013565052E+02  0.50528865696E+02  0.30000017769E+02 0.  0.
         12    1    1    2    0    0  0.20629224407E+02  0.18077229201E+02 -0.30013565052E+02  0.40659134304E+02  0.00000000000E+00 0. -1.
         11    1    3    3    0    0 -0.10915838851E+02 -0.55352901374E+01  0.29590880469E+01  0.12591710648E+02  0.51100000000E-03 0. -1.
        -11    1    3    3    0    0 -0.91673756595E+01 -0.45889664256E+01  0.28086429171E+02  0.29898944683E+02  0.51100000000E-03 0.  1.
         12    1    3    3    0    0 -0.54600989675E+00 -0.79529726379E+01 -0.10319521658E+01  0.80382103642E+01  0.00000000000E+00 0. -1.
</event>
<event>
 7    1  0.2639126E-011  0.5052885E+02  0.7816164E-02  0.1300439E+00
        -11   -1    0    0    0    0  0.00000000000E+00  0.00000000000E+00  0.45593999997E+02  0.45594000000E+02  0.51100000000E-03 0.  1.
         11   -1    0    0    0    0 -0.00000000000E+00 -0.00000000000E+00 -0.45593999997E+02  0.45594000000E+02  0.51100000000E-03 0. -1.
    9900012    2    1    2    0    0  0.37240497996E+02 -0.82096169324E+01  0.14103677409E+02  0.50528853211E+02  0.29999979821E+02 0.  0.
         12    1    1    2    0    0 -0.37240497996E+02  0.82096169324E+01 -0.14103677409E+02  0.40659146789E+02  0.00000000000E+00 0. -1.
         11    1    3    3    0    0  0.23301065063E+02 -0.24780720763E+01  0.26322602180E+01  0.23579848778E+02  0.51100000000E-03 0. -1.
        -11    1    3    3    0    0  0.12519198737E+02  0.11014415135E+01 -0.10527640645E+01  0.12611574956E+02  0.51100000000E-03 0.  1.
         12    1    3    3    0    0  0.14202341951E+01 -0.68329863696E+01  0.12524181255E+02  0.14337429477E+02  0.00000000000E+00 0. -1.
</event>
<event>
 7    1  0.2639126E-011  0.5052886E+02  0.7816164E-02  0.1300439E+00
        -11   -1    0    0    0    0  0.00000000000E+00  0.00000000000E+00  0.45593999997E+02  0.45594000000E+02  0.51100000000E-03 0.  1.
         11   -1    0    0    0    0 -0.00000000000E+00 -0.00000000000E+00 -0.45593999997E+02  0.45594000000E+02  0.51100000000E-03 0. -1.
    9900012    2    1    2    0    0  0.12264929645E+02  0.14565627700E+02  0.35924639954E+02  0.50528858773E+02  0.29999996727E+02 0.  0.
         12    1    1    2    0    0 -0.12264929645E+02 -0.14565627700E+02 -0.35924639954E+02  0.40659141227E+02  0.00000000000E+00 0. -1.
         11    1    3    3    0    0 -0.43698832241E+01  0.41891136575E+00  0.19969223119E+02  0.20446056792E+02  0.51100000000E-03 0. -1.
        -11    1    3    3    0    0 -0.14194733836E+01  0.28266381742E+01  0.55040460285E+01  0.63481738318E+01  0.51100000000E-03 0.  1.
         12    1    3    3    0    0  0.18054286253E+02  0.11320078160E+02  0.10451370807E+02  0.23734628149E+02  0.00000000000E+00 0. -1.
</event>
<event>
 7    1  0.2639126E-011  0.5052873E+02  0.7816164E-02  0.1300439E+00
        -11   -1    0    0    0    0  0.00000000000E+00  0.00000000000E+00  0.45593999997E+02  0.45594000000E+02  0.51100000000E-03 0.  1.
         11   -1    0    0    0    0 -0.00000000000E+00 -0.00000000000E+00 -0.45593999997E+02  0.45594000000E+02  0.51100000000E-03 0. -1.
    9900012    2    1    2    0    0  0.28485159526E+02  0.53326598031E+01  0.28519018612E+02  0.50528732958E+02  0.29999614296E+02 0.  0.
         12    1    1    2    0    0 -0.28485159526E+02 -0.53326598031E+01 -0.28519018612E+02  0.40659267042E+02  0.00000000000E+00 0. -1.
         11    1    3    3    0    0  0.10481458875E+02 -0.17041739144E+01  0.47873511827E+01  0.11648344109E+02  0.51100000000E-03 0. -1.
        -11    1    3    3    0    0  0.15955297463E+02 -0.60591955953E+01  0.16687704178E+02  0.23869747368E+02  0.51100000000E-03 0.  1.
        -12    1    3    3    0    0  0.20484031881E+01  0.13096029313E+02  0.70439632518E+01  0.15010641481E+02  0.00000000000E+00 0.  1.
</event>
<event>
 7    1  0.2639126E-011  0.5052886E+02  0.7816164E-02  0.1300439E+00
        -11   -1    0    0    0    0  0.00000000000E+00  0.00000000000E+00  0.45593999997E+02  0.45594000000E+02  0.51100000000E-03 0.  1.
         11   -1    0    0    0    0 -0.00000000000E+00 -0.00000000000E+00 -0.45593999997E+02  0.45594000000E+02  0.51100000000E-03 0. -1.
    9900012    2    1    2    0    0 -0.35802261509E+02 -0.17850994624E+02  0.72598850033E+01  0.50528857505E+02  0.29999992871E+02 0.  0.
         12    1    1    2    0    0  0.35802261509E+02  0.17850994624E+02 -0.72598850033E+01  0.40659142495E+02  0.00000000000E+00 0. -1.
         11    1    3    3    0    0 -0.10809684393E+02  0.22886372785E+00 -0.66783206118E+01  0.12708328833E+02  0.51100000000E-03 0. -1.
        -11    1    3    3    0    0 -0.39279846951E+01  0.25731606762E+01 -0.92736669847E+00  0.47864630871E+01  0.51100000000E-03 0.  1.
        -12    1    3    3    0    0 -0.21064592421E+02 -0.20653019028E+02  0.14865572314E+02  0.33034065584E+02  0.00000000000E+00 0.  1.
</event>
<event>
 7    1  0.2639126E-011  0.5052886E+02  0.7816164E-02  0.1300439E+00
        -11   -1    0    0    0    0  0.00000000000E+00  0.00000000000E+00  0.45593999997E+02  0.45594000000E+02  0.51100000000E-03 0. -1.
         11   -1    0    0    0    0 -0.00000000000E+00 -0.00000000000E+00 -0.45593999997E+02  0.45594000000E+02  0.51100000000E-03 0.  1.
    9900012    2    1    2    0    0 -0.93023491735E+01  0.37301212596E+02 -0.13238247262E+02  0.50528863858E+02  0.30000012182E+02 0.  0.
         12    1    1    2    0    0  0.93023491735E+01 -0.37301212596E+02  0.13238247262E+02  0.40659136142E+02  0.00000000000E+00 0. -1.
         11    1    3    3    0    0 -0.10053082955E+02  0.81129693356E+01 -0.41750904292E+01  0.13576307623E+02  0.51100000000E-03 0. -1.
        -11    1    3    3    0    0 -0.84766482495E+01  0.49322620933E+01 -0.15008438502E+01  0.99213561284E+01  0.51100000000E-03 0.  1.
        -12    1    3    3    0    0  0.92273820307E+01  0.24255981167E+02 -0.75623129825E+01  0.27031200106E+02  0.00000000000E+00 0.  1.
</event>
<event>
 7    1  0.2639126E-011  0.5052878E+02  0.7816164E-02  0.1300439E+00
        -11   -1    0    0    0    0  0.00000000000E+00  0.00000000000E+00  0.45593999997E+02  0.45594000000E+02  0.51100000000E-03 0. -1.
         11   -1    0    0    0    0 -0.00000000000E+00 -0.00000000000E+00 -0.45593999997E+02  0.45594000000E+02  0.51100000000E-03 0.  1.
    9900012    2    1    2    0    0 -0.36389390145E+02 -0.91450874062E+01 -0.15663700586E+02  0.50528783888E+02  0.29999769106E+02 0.  0.
         12    1    1    2    0    0  0.36389390145E+02  0.91450874062E+01  0.15663700586E+02  0.40659216112E+02  0.00000000000E+00 0. -1.
         11    1    3    3    0    0 -0.96259474115E+01 -0.92450681886E+01 -0.64094946397E+01  0.14805801943E+02  0.51100000000E-03 0. -1.
        -11    1    3    3    0    0 -0.17958541793E+02 -0.95759279900E+01 -0.98843895617E+01  0.22625401156E+02  0.51100000000E-03 0.  1.
         12    1    3    3    0    0 -0.88049009406E+01  0.96759087724E+01  0.63018361527E+00  0.13097580789E+02  0.00000000000E+00 0. -1.
</event>
<event>
 7    1  0.2639126E-011  0.5052886E+02  0.7816164E-02  0.1300439E+00
        -11   -1    0    0    0    0  0.00000000000E+00  0.00000000000E+00  0.45593999997E+02  0.45594000000E+02  0.51100000000E-03 0.  1.
         11   -1    0    0    0    0 -0.00000000000E+00 -0.00000000000E+00 -0.45593999997E+02  0.45594000000E+02  0.51100000000E-03 0. -1.
    9900012    2    1    2    0    0  0.16760384380E+02 -0.34344870703E+02  0.13881116817E+02  0.50528855491E+02  0.29999986750E+02 0.  0.
         12    1    1    2    0    0 -0.16760384380E+02  0.34344870703E+02 -0.13881116817E+02  0.40659144509E+02  0.00000000000E+00 0. -1.
         11    1    3    3    0    0  0.85592917352E+00  0.63955683574E+00 -0.68179172380E+00  0.12674730419E+01  0.51100000000E-03 0. -1.
        -11    1    3    3    0    0 -0.65520658544E+01 -0.28835362074E+01 -0.75268629581E+00  0.71979778369E+01  0.51100000000E-03 0.  1.
         12    1    3    3    0    0  0.22456521061E+02 -0.32100891331E+02  0.15315594836E+02  0.42063404612E+02  0.00000000000E+00 0. -1.
</event>
<event>
 7    1  0.2639126E-011  0.5052887E+02  0.7816164E-02  0.1300439E+00
        -11   -1    0    0    0    0  0.00000000000E+00  0.00000000000E+00  0.45593999997E+02  0.45594000000E+02  0.51100000000E-03 0.  1.
         11   -1    0    0    0    0 -0.00000000000E+00 -0.00000000000E+00 -0.45593999997E+02  0.45594000000E+02  0.51100000000E-03 0. -1.
    9900012    2    1    2    0    0  0.28587000271E+02 -0.24048983322E+02  0.16049746344E+02  0.50528873829E+02  0.30000042490E+02 0.  0.
         12    1    1    2    0    0 -0.28587000271E+02  0.24048983322E+02 -0.16049746344E+02  0.40659126171E+02  0.00000000000E+00 0. -1.
         11    1    3    3    0    0  0.42684656829E+01 -0.11441887739E+02  0.28030582720E+01  0.12529713894E+02  0.51100000000E-03 0. -1.
        -11    1    3    3    0    0  0.11707456656E+02 -0.17764651149E+02  0.11717019386E+02  0.24288596405E+02  0.51100000000E-03 0.  1.
        -12    1    3    3    0    0  0.12611077932E+02  0.51575555658E+01  0.15296686859E+01  0.13710563530E+02  0.00000000000E+00 0.  1.
</event>
<event>
 7    1  0.2639126E-011  0.5052887E+02  0.7816164E-02  0.1300439E+00
        -11   -1    0    0    0    0  0.00000000000E+00  0.00000000000E+00  0.45593999997E+02  0.45594000000E+02  0.51100000000E-03 0. -1.
         11   -1    0    0    0    0 -0.00000000000E+00 -0.00000000000E+00 -0.45593999997E+02  0.45594000000E+02  0.51100000000E-03 0.  1.
    9900012    2    1    2    0    0  0.16825370432E+02 -0.35840579766E+02 -0.92479659453E+01  0.50528866681E+02  0.30000020763E+02 0.  0.
         12    1    1    2    0    0 -0.16825370432E+02  0.35840579766E+02  0.92479659453E+01  0.40659133319E+02  0.00000000000E+00 0. -1.
         11    1    3    3    0    0  0.15333174859E+01 -0.28554348257E+01  0.59477557991E+01  0.67735049910E+01  0.51100000000E-03 0. -1.
        -11    1    3    3    0    0  0.14471081730E+01 -0.10255158551E+02  0.38272794857E+01  0.11041307327E+02  0.51100000000E-03 0.  1.
        -12    1    3    3    0    0  0.13844944774E+02 -0.22729986389E+02 -0.19023001230E+02  0.32714054363E+02  0.00000000000E+00 0.  1.
</event>
<event>
 7    1  0.2639126E-011  0.5052886E+02  0.7816164E-02  0.1300439E+00
        -11   -1    0    0    0    0  0.00000000000E+00  0.00000000000E+00  0.45593999997E+02  0.45594000000E+02  0.51100000000E-03 0. -1.
         11   -1    0    0    0    0 -0.00000000000E+00 -0.00000000000E+00 -0.45593999997E+02  0.45594000000E+02  0.51100000000E-03 0.  1.
    9900012    2    1    2    0    0 -0.34527666723E+02 -0.81136002164E+01 -0.19879024819E+02  0.50528857048E+02  0.29999991483E+02 0.  0.
         12    1    1    2    0    0  0.34527666723E+02  0.81136002164E+01  0.19879024819E+02  0.40659142952E+02  0.00000000000E+00 0. -1.
         11    1    3    3    0    0 -0.61504312799E-03 -0.82747870614E+01 -0.24409974051E+01  0.86273153346E+01  0.51100000000E-03 0. -1.
        -11    1    3    3    0    0 -0.16704149133E+02 -0.75941626341E+01 -0.11155639170E+02  0.21474361222E+02  0.51100000000E-03 0.  1.
         12    1    3    3    0    0 -0.17822902547E+02  0.77553494791E+01 -0.62823882447E+01  0.20427180491E+02  0.00000000000E+00 0. -1.
</event>
<event>
 7    1  0.2639126E-011  0.5052886E+02  0.7816164E-02  0.1300439E+00
        -11   -1    0    0    0    0  0.00000000000E+00  0.00000000000E+00  0.45593999997E+02  0.45594000000E+02  0.51100000000E-03 0.  1.
         11   -1    0    0    0    0 -0.00000000000E+00 -0.00000000000E+00 -0.45593999997E+02  0.45594000000E+02  0.51100000000E-03 0. -1.
    9900012    2    1    2    0    0  0.98783104565E+01  0.20925352023E+02  0.33432233401E+02  0.50528860745E+02  0.30000002721E+02 0.  0.
         12    1    1    2    0    0 -0.98783104565E+01 -0.20925352023E+02 -0.33432233401E+02  0.40659139255E+02  0.00000000000E+00 0. -1.
         11    1    3    3    0    0 -0.60833015470E+01  0.45067055254E+01  0.31941977714E+01  0.82170464321E+01  0.51100000000E-03 0. -1.
        -11    1    3    3    0    0 -0.43133970822E+01  0.33782042023E+01  0.51583988851E+01  0.75250739093E+01  0.51100000000E-03 0.  1.
         12    1    3    3    0    0  0.20275009086E+02  0.13040442296E+02  0.25079636744E+02  0.34786740404E+02  0.00000000000E+00 0. -1.
</event>
<event>
 7    1  0.2639126E-011  0.5052886E+02  0.7816164E-02  0.1300439E+00
        -11   -1    0    0    0    0  0.00000000000E+00  0.00000000000E+00  0.45593999997E+02  0.45594000000E+02  0.51100000000E-03 0.  1.
         11   -1    0    0    0    0 -0.00000000000E+00 -0.00000000000E+00 -0.45593999997E+02  0.45594000000E+02  0.51100000000E-03 0. -1.
    9900012    2    1    2    0    0 -0.22523260102E+02  0.33014786766E+02  0.74760991104E+01  0.50528862666E+02  0.30000008559E+02 0.  0.
         12    1    1    2    0    0  0.22523260102E+02 -0.33014786766E+02 -0.74760991104E+01  0.40659137334E+02  0.00000000000E+00 0. -1.
         11    1    3    3    0    0  0.16023179885E+00  0.25446293639E+01 -0.55601052305E+01  0.61168278760E+01  0.51100000000E-03 0. -1.
        -11    1    3    3    0    0 -0.89749808518E+01  0.66377096618E-01  0.42039228353E+01  0.99109865642E+01  0.51100000000E-03 0.  1.
        -12    1    3    3    0    0 -0.13708511049E+02  0.30403780306E+02  0.88322815057E+01  0.34501048226E+02  0.00000000000E+00 0.  1.
</event>
<event>
 7    1  0.2639126E-011  0.5052885E+02  0.7816164E-02  0.1300439E+00
        -11   -1    0    0    0    0  0.00000000000E+00  0.00000000000E+00  0.45593999997E+02  0.45594000000E+02  0.51100000000E-03 0. -1.
         11   -1    0    0    0    0 -0.00000000000E+00 -0.00000000000E+00 -0.45593999997E+02  0.45594000000E+02  0.51100000000E-03 0.  1.
    9900012    2    1    2    0    0  0.17875737996E+01 -0.37352990110E+02  0.15960116129E+02  0.50528848545E+02  0.29999965636E+02 0.  0.
         12    1    1    2    0    0 -0.17875737996E+01  0.37352990110E+02 -0.15960116129E+02  0.40659151455E+02  0.00000000000E+00 0. -1.
         11    1    3    3    0    0 -0.66841873870E+01 -0.19943236815E+02  0.11765503394E+01  0.21066450263E+02  0.51100000000E-03 0. -1.
        -11    1    3    3    0    0  0.61004063394E+01 -0.11930351503E+02 -0.12777192161E+00  0.13400170537E+02  0.51100000000E-03 0.  1.
         12    1    3    3    0    0  0.23713548472E+01 -0.54794017914E+01  0.14911337711E+02  0.16062227745E+02  0.00000000000E+00 0. -1.
</event>
<event>
 7    1  0.2639126E-011  0.5052886E+02  0.7816164E-02  0.1300439E+00
        -11   -1    0    0    0    0  0.00000000000E+00  0.00000000000E+00  0.45593999997E+02  0.45594000000E+02  0.51100000000E-03 0. -1.
         11   -1    0    0    0    0 -0.00000000000E+00 -0.00000000000E+00 -0.45593999997E+02  0.45594000000E+02  0.51100000000E-03 0.  1.
    9900012    2    1    2    0    0 -0.11398855590E+02 -0.34654337173E+02 -0.17952958383E+02  0.50528859473E+02  0.29999998855E+02 0.  0.
         12    1    1    2    0    0  0.11398855590E+02  0.34654337173E+02  0.17952958383E+02  0.40659140527E+02  0.00000000000E+00 0. -1.
         11    1    3    3    0    0 -0.14126047958E+01 -0.23360603871E+02 -0.13235102433E+02  0.26886450160E+02  0.51100000000E-03 0. -1.
        -11    1    3    3    0    0  0.15112103369E+01 -0.32494297476E+01 -0.84022567869E+01  0.91345755096E+01  0.51100000000E-03 0.  1.
        -12    1    3    3    0    0 -0.11497461131E+02 -0.80443035542E+01  0.36844008374E+01  0.14507833803E+02  0.00000000000E+00 0.  1.
</event>
<event>
 7    1  0.2639126E-011  0.5052886E+02  0.7816164E-02  0.1300439E+00
        -11   -1    0    0    0    0  0.00000000000E+00  0.00000000000E+00  0.45593999997E+02  0.45594000000E+02  0.51100000000E-03 0.  1.
         11   -1    0    0    0    0 -0.00000000000E+00 -0.00000000000E+00 -0.45593999997E+02  0.45594000000E+02  0.51100000000E-03 0. -1.
    9900012    2    1    2    0    0 -0.23814050639E+01  0.87215194693E+01  0.39641265666E+02  0.50528856680E+02  0.29999990363E+02 0.  0.
         12    1    1    2    0    0  0.23814050639E+01 -0.87215194693E+01 -0.39641265666E+02  0.40659143320E+02  0.00000000000E+00 0. -1.
         11    1    3    3    0    0  0.26406844326E+01  0.71074441437E+01  0.68559097673E+01  0.10222156109E+02  0.51100000000E-03 0. -1.
        -11    1    3    3    0    0 -0.81355327904E+01  0.38247150590E+01  0.34832682320E+02  0.35974033649E+02  0.51100000000E-03 0.  1.
         12    1    3    3    0    0  0.31134432939E+01 -0.22106397333E+01 -0.20473264215E+01  0.43326669213E+01  0.00000000000E+00 0. -1.
</event>
<event>
 7    1  0.2639126E-011  0.5052884E+02  0.7816164E-02  0.1300439E+00
        -11   -1    0    0    0    0  0.00000000000E+00  0.00000000000E+00  0.45593999997E+02  0.45594000000E+02  0.51100000000E-03 0. -1.
         11   -1    0    0    0    0 -0.00000000000E+00 -0.00000000000E+00 -0.45593999997E+02  0.45594000000E+02  0.51100000000E-03 0.  1.
    9900012    2    1    2    0    0 -0.13065808684E+02 -0.32033867277E+02 -0.21360796135E+02  0.50528835956E+02  0.29999927371E+02 0.  0.
         12    1    1    2    0    0  0.13065808684E+02  0.32033867277E+02  0.21360796135E+02  0.40659164044E+02  0.00000000000E+00 0. -1.
         11    1    3    3    0    0 -0.12672323717E+02 -0.14119029314E+02 -0.72961085518E+01  0.20326533827E+02  0.51100000000E-03 0. -1.
        -11    1    3    3    0    0 -0.93118822743E+01 -0.46619568370E+01 -0.32406249146E+01  0.10906266233E+02  0.51100000000E-03 0.  1.
        -12    1    3    3    0    0  0.89183973072E+01 -0.13252881126E+02 -0.10824062669E+02  0.19296035897E+02  0.00000000000E+00 0.  1.
</event>
<event>
 7    1  0.2639126E-011  0.5052886E+02  0.7816164E-02  0.1300439E+00
        -11   -1    0    0    0    0  0.00000000000E+00  0.00000000000E+00  0.45593999997E+02  0.45594000000E+02  0.51100000000E-03 0.  1.
         11   -1    0    0    0    0 -0.00000000000E+00 -0.00000000000E+00 -0.45593999997E+02  0.45594000000E+02  0.51100000000E-03 0. -1.
    9900012    2    1    2    0    0  0.17057050371E+02  0.36572353675E+02  0.49684537624E+01  0.50528861379E+02  0.30000004646E+02 0.  0.
         12    1    1    2    0    0 -0.17057050371E+02 -0.36572353675E+02 -0.49684537624E+01  0.40659138621E+02  0.00000000000E+00 0. -1.
         11    1    3    3    0    0 -0.37663937221E+01  0.24826824192E+01  0.27258769960E+01  0.52706583387E+01  0.51100000000E-03 0. -1.
        -11    1    3    3    0    0  0.85271808926E+00  0.61575456021E+01  0.83217006808E+01  0.10387165083E+02  0.51100000000E-03 0.  1.
         12    1    3    3    0    0  0.19970726004E+02  0.27932125653E+02 -0.60791239144E+01  0.34871037957E+02  0.00000000000E+00 0. -1.
</event>
<event>
 7    1  0.2639126E-011  0.5052888E+02  0.7816164E-02  0.1300439E+00
        -11   -1    0    0    0    0  0.00000000000E+00  0.00000000000E+00  0.45593999997E+02  0.45594000000E+02  0.51100000000E-03 0. -1.
         11   -1    0    0    0    0 -0.00000000000E+00 -0.00000000000E+00 -0.45593999997E+02  0.45594000000E+02  0.51100000000E-03 0.  1.
    9900012    2    1    2    0    0 -0.36783838672E+02  0.17206490557E+02 -0.20123772814E+01  0.50528883346E+02  0.30000071419E+02 0.  0.
         12    1    1    2    0    0  0.36783838672E+02 -0.17206490557E+02  0.20123772814E+01  0.40659116654E+02  0.00000000000E+00 0. -1.
         11    1    3    3    0    0 -0.42523749115E+01  0.21957091285E+01  0.40139685805E+01  0.62462608808E+01  0.51100000000E-03 0. -1.
        -11    1    3    3    0    0 -0.22639511472E+02  0.10473464042E+02  0.83018744710E+01  0.26289960988E+02  0.51100000000E-03 0.  1.
         12    1    3    3    0    0 -0.98919522885E+01  0.45373173861E+01 -0.14328220333E+02  0.17992661478E+02  0.00000000000E+00 0. -1.
</event>
<event>
 7    1  0.2639126E-011  0.5052884E+02  0.7816164E-02  0.1300439E+00
        -11   -1    0    0    0    0  0.00000000000E+00  0.00000000000E+00  0.45593999997E+02  0.45594000000E+02  0.51100000000E-03 0.  1.
         11   -1    0    0    0    0 -0.00000000000E+00 -0.00000000000E+00 -0.45593999997E+02  0.45594000000E+02  0.51100000000E-03 0. -1.
    9900012    2    1    2    0    0  0.35454014394E+02  0.14893726908E+02 -0.13204426284E+02  0.50528842220E+02  0.29999946412E+02 0.  0.
         12    1    1    2    0    0 -0.35454014394E+02 -0.14893726908E+02  0.13204426284E+02  0.40659157780E+02  0.00000000000E+00 0. -1.
         11    1    3    3    0    0  0.14845021858E+02  0.42278576829E+01 -0.45371307997E+01  0.16088350155E+02  0.51100000000E-03 0. -1.
        -11    1    3    3    0    0  0.22282359767E+02  0.12917072459E+02 -0.45211261267E+00  0.25759633611E+02  0.51100000000E-03 0.  1.
         12    1    3    3    0    0 -0.16733672309E+01 -0.22512032337E+01 -0.82151828715E+01  0.86808584542E+01  0.00000000000E+00 0. -1.
</event>
<event>
 7    1  0.2639126E-011  0.5052886E+02  0.7816164E-02  0.1300439E+00
        -11   -1    0    0    0    0  0.00000000000E+00  0.00000000000E+00  0.45593999997E+02  0.45594000000E+02  0.51100000000E-03 0. -1.
         11   -1    0    0    0    0 -0.00000000000E+00 -0.00000000000E+00 -0.45593999997E+02  0.45594000000E+02  0.51100000000E-03 0.  1.
    9900012    2    1    2    0    0 -0.32160032179E+02 -0.24763751796E+02 -0.23779375822E+01  0.50528860070E+02  0.30000000667E+02 0.  0.
         12    1    1    2    0    0  0.32160032179E+02  0.24763751796E+02  0.23779375822E+01  0.40659139930E+02  0.00000000000E+00 0. -1.
         11    1    3    3    0    0  0.16988160449E+00 -0.34658218023E+00 -0.55392735730E+00  0.67514053757E+00  0.51100000000E-03 0. -1.
        -11    1    3    3    0    0  0.53036815106E+01 -0.10636690074E+01 -0.12842300685E+01  0.55596471519E+01  0.51100000000E-03 0.  1.
        -12    1    3    3    0    0 -0.37633595294E+02 -0.23353500608E+02 -0.53978015644E+00  0.44294072380E+02  0.00000000000E+00 0.  1.
</event>
<event>
 7    1  0.2639126E-011  0.5052886E+02  0.7816164E-02  0.1300439E+00
        -11   -1    0    0    0    0  0.00000000000E+00  0.00000000000E+00  0.45593999997E+02  0.45594000000E+02  0.51100000000E-03 0.  1.
         11   -1    0    0    0    0 -0.00000000000E+00 -0.00000000000E+00 -0.45593999997E+02  0.45594000000E+02  0.51100000000E-03 0. -1.
    9900012    2    1    2    0    0 -0.34256814174E+01  0.38556494554E+02  0.12442964538E+02  0.50528856724E+02  0.29999990498E+02 0.  0.
         12    1    1    2    0    0  0.34256814174E+01 -0.38556494554E+02 -0.12442964538E+02  0.40659143276E+02  0.00000000000E+00 0. -1.
         11    1    3    3    0    0 -0.91089297417E+01  0.23708700069E+01  0.33742979095E+01  0.99989755611E+01  0.51100000000E-03 0. -1.
        -11    1    3    3    0    0 -0.32945688452E+00 -0.11904463236E+01  0.14667142795E+01  0.19175388723E+01  0.51100000000E-03 0.  1.
        -12    1    3    3    0    0  0.60127052088E+01  0.37376070870E+02  0.76019523494E+01  0.38612342290E+02  0.00000000000E+00 0.  1.
</event>
<event>
 7    1  0.2639126E-011  0.5052886E+02  0.7816164E-02  0.1300439E+00
        -11   -1    0    0    0    0  0.00000000000E+00  0.00000000000E+00  0.45593999997E+02  0.45594000000E+02  0.51100000000E-03 0.  1.
         11   -1    0    0    0    0 -0.00000000000E+00 -0.00000000000E+00 -0.45593999997E+02  0.45594000000E+02  0.51100000000E-03 0. -1.
    9900012    2    1    2    0    0  0.30928102922E+02 -0.24557534766E+02  0.96718871440E+01  0.50528862466E+02  0.30000007951E+02 0.  0.
         12    1    1    2    0    0 -0.30928102922E+02  0.24557534766E+02 -0.96718871440E+01  0.40659137534E+02  0.00000000000E+00 0. -1.
         11    1    3    3    0    0 -0.68981024131E+00  0.94883843614E+00 -0.32339536892E+01  0.34401437865E+01  0.51100000000E-03 0. -1.
        -11    1    3    3    0    0  0.27860157561E+01 -0.51677371803E+00 -0.43677183275E+01  0.52063329243E+01  0.51100000000E-03 0.  1.
        -12    1    3    3    0    0  0.28831897407E+02 -0.24989599484E+02  0.17273559161E+02  0.41882385755E+02  0.00000000000E+00 0.  1.
</event>
<event>
 7    1  0.2639126E-011  0.5052886E+02  0.7816164E-02  0.1300439E+00
        -11   -1    0    0    0    0  0.00000000000E+00  0.00000000000E+00  0.45593999997E+02  0.45594000000E+02  0.51100000000E-03 0.  1.
         11   -1    0    0    0    0 -0.00000000000E+00 -0.00000000000E+00 -0.45593999997E+02  0.45594000000E+02  0.51100000000E-03 0. -1.
    9900012    2    1    2    0    0  0.39829580086E+02 -0.40561787169E+00  0.81612518442E+01  0.50528855796E+02  0.29999987678E+02 0.  0.
         12    1    1    2    0    0 -0.39829580086E+02  0.40561787169E+00 -0.81612518442E+01  0.40659144204E+02  0.00000000000E+00 0. -1.
         11    1    3    3    0    0  0.59979886266E+01  0.37249820907E+01  0.50957670875E+01  0.87073647915E+01  0.51100000000E-03 0. -1.
        -11    1    3    3    0    0  0.13128744955E+02 -0.12125128061E+02  0.71634525466E+01  0.19253512075E+02  0.51100000000E-03 0.  1.
         12    1    3    3    0    0  0.20702846505E+02  0.79945280990E+01 -0.40979677900E+01  0.22567978929E+02  0.00000000000E+00 0. -1.
</event>
<event>
 7    1  0.2639126E-011  0.5052886E+02  0.7816164E-02  0.1300439E+00
        -11   -1    0    0    0    0  0.00000000000E+00  0.00000000000E+00  0.45593999997E+02  0.45594000000E+02  0.51100000000E-03 0. -1.
         11   -1    0    0    0    0 -0.00000000000E+00 -0.00000000000E+00 -0.45593999997E+02  0.45594000000E+02  0.51100000000E-03 0.  1.
    9900012    2    1    2    0    0 -0.20157439854E+02  0.13439166039E+02 -0.32653204936E+02  0.50528863783E+02  0.30000011955E+02 0.  0.
         12    1    1    2    0    0  0.20157439854E+02 -0.13439166039E+02  0.32653204936E+02  0.40659136217E+02  0.00000000000E+00 0. -1.
         11    1    3    3    0    0 -0.13417435710E+01 -0.22706805142E+01  0.18591574879E+01  0.32268766066E+01  0.51100000000E-03 0. -1.
        -11    1    3    3    0    0 -0.18181186740E+01  0.79841554653E+01 -0.14438721184E+00  0.81898194080E+01  0.51100000000E-03 0.  1.
        -12    1    3    3    0    0 -0.16997577609E+02  0.77256910876E+01 -0.34367975213E+02  0.39112167769E+02  0.00000000000E+00 0.  1.
</event>
<event>
 7    1  0.2639126E-011  0.5052881E+02  0.7816164E-02  0.1300439E+00
        -11   -1    0    0    0    0  0.00000000000E+00  0.00000000000E+00  0.45593999997E+02  0.45594000000E+02  0.51100000000E-03 0. -1.
         11   -1    0    0    0    0 -0.00000000000E+00 -0.00000000000E+00 -0.45593999997E+02  0.45594000000E+02  0.51100000000E-03 0.  1.
    9900012    2    1    2    0    0  0.10484292199E+02  0.36723831073E+02  0.13950240762E+02  0.50528814458E+02  0.29999862027E+02 0.  0.
         12    1    1    2    0    0 -0.10484292199E+02 -0.36723831073E+02 -0.13950240762E+02  0.40659185542E+02  0.00000000000E+00 0. -1.
         11    1    3    3    0    0  0.10572117861E+02  0.95036156686E+01  0.82435522111E+01  0.16433031984E+02  0.51100000000E-03 0. -1.
        -11    1    3    3    0    0  0.20032301377E+01  0.25048087636E+02  0.11446427661E+02  0.27612322098E+02  0.51100000000E-03 0.  1.
         12    1    3    3    0    0 -0.20910557999E+01  0.21721277689E+01 -0.57397391102E+01  0.64834603767E+01  0.00000000000E+00 0. -1.
</event>
<event>
 7    1  0.2639126E-011  0.5052887E+02  0.7816164E-02  0.1300439E+00
        -11   -1    0    0    0    0  0.00000000000E+00  0.00000000000E+00  0.45593999997E+02  0.45594000000E+02  0.51100000000E-03 0.  1.
         11   -1    0    0    0    0 -0.00000000000E+00 -0.00000000000E+00 -0.45593999997E+02  0.45594000000E+02  0.51100000000E-03 0. -1.
    9900012    2    1    2    0    0  0.30881501460E+02  0.38213708149E+01  0.26170495124E+02  0.50528870369E+02  0.30000031972E+02 0.  0.
         12    1    1    2    0    0 -0.30881501460E+02 -0.38213708149E+01 -0.26170495124E+02  0.40659129631E+02  0.00000000000E+00 0. -1.
         11    1    3    3    0    0  0.17047962233E+02  0.44903153022E+01  0.53175368496E+01  0.18413911758E+02  0.51100000000E-03 0. -1.
        -11    1    3    3    0    0  0.18122058324E+02 -0.43992843251E+01  0.17117405282E+02  0.25313400884E+02  0.51100000000E-03 0.  1.
        -12    1    3    3    0    0 -0.42885190969E+01  0.37303398377E+01  0.37355529922E+01  0.68015577265E+01  0.00000000000E+00 0.  1.
</event>
<event>
 7    1  0.2639126E-011  0.5052886E+02  0.7816164E-02  0.1300439E+00
        -11   -1    0    0    0    0  0.00000000000E+00  0.00000000000E+00  0.45593999997E+02  0.45594000000E+02  0.51100000000E-03 0. -1.
         11   -1    0    0    0    0 -0.00000000000E+00 -0.00000000000E+00 -0.45593999997E+02  0.45594000000E+02  0.51100000000E-03 0.  1.
    9900012    2    1    2    0    0 -0.23282714395E+02  0.20191122191E+02 -0.26521674183E+02  0.50528863187E+02  0.30000010143E+02 0.  0.
         12    1    1    2    0    0  0.23282714395E+02 -0.20191122191E+02  0.26521674183E+02  0.40659136813E+02  0.00000000000E+00 0. -1.
         11    1    3    3    0    0  0.19573152224E+01  0.75658167077E+01 -0.11349664081E+02  0.13779968808E+02  0.51100000000E-03 0.  1.
        -11    1    3    3    0    0  0.19628950414E+01  0.11549289474E+01  0.16108942235E+01  0.27895874744E+01  0.51100000000E-03 0. -1.
        -12    1    3    3    0    0 -0.27202924659E+02  0.11470376536E+02 -0.16782904326E+02  0.33959306905E+02  0.00000000000E+00 0.  1.
</event>
<event>
 7    1  0.2639126E-011  0.5052888E+02  0.7816164E-02  0.1300439E+00
        -11   -1    0    0    0    0  0.00000000000E+00  0.00000000000E+00  0.45593999997E+02  0.45594000000E+02  0.51100000000E-03 0.  1.
         11   -1    0    0    0    0 -0.00000000000E+00 -0.00000000000E+00 -0.45593999997E+02  0.45594000000E+02  0.51100000000E-03 0. -1.
    9900012    2    1    2    0    0  0.20420726951E+02 -0.34581369024E+02  0.63472225352E+01  0.50528875480E+02  0.30000047510E+02 0.  0.
         12    1    1    2    0    0 -0.20420726951E+02  0.34581369024E+02 -0.63472225352E+01  0.40659124520E+02  0.00000000000E+00 0. -1.
         11    1    3    3    0    0  0.51327463445E+01 -0.72753962347E+01 -0.45086318082E+01  0.99801922052E+01  0.51100000000E-03 0. -1.
        -11    1    3    3    0    0 -0.44647911823E+00 -0.21946047624E+02  0.29699439198E+01  0.22150596314E+02  0.51100000000E-03 0.  1.
         12    1    3    3    0    0  0.15734459725E+02 -0.53599251653E+01  0.78859104236E+01  0.18398086961E+02  0.00000000000E+00 0. -1.
</event>
<event>
 7    1  0.2639126E-011  0.5052886E+02  0.7816164E-02  0.1300439E+00
        -11   -1    0    0    0    0  0.00000000000E+00  0.00000000000E+00  0.45593999997E+02  0.45594000000E+02  0.51100000000E-03 0. -1.
         11   -1    0    0    0    0 -0.00000000000E+00 -0.00000000000E+00 -0.45593999997E+02  0.45594000000E+02  0.51100000000E-03 0.  1.
    9900012    2    1    2    0    0 -0.25797973227E+02 -0.28099259963E+02 -0.14073442455E+02  0.50528860614E+02  0.30000002321E+02 0.  0.
         12    1    1    2    0    0  0.25797973227E+02  0.28099259963E+02  0.14073442455E+02  0.40659139386E+02  0.00000000000E+00 0. -1.
         11    1    3    3    0    0 -0.77271166133E+01 -0.86278778676E+01 -0.86212138321E+01  0.14438626522E+02  0.51100000000E-03 0. -1.
        -11    1    3    3    0    0 -0.77754464514E+01 -0.97904050349E+01 -0.14626229571E+02  0.19241522548E+02  0.51100000000E-03 0.  1.
         12    1    3    3    0    0 -0.10295410163E+02 -0.96809770604E+01  0.91740009476E+01  0.16848711543E+02  0.00000000000E+00 0. -1.
</event>
<event>
 7    1  0.2639126E-011  0.5052885E+02  0.7816164E-02  0.1300439E+00
        -11   -1    0    0    0    0  0.00000000000E+00  0.00000000000E+00  0.45593999997E+02  0.45594000000E+02  0.51100000000E-03 0.  1.
         11   -1    0    0    0    0 -0.00000000000E+00 -0.00000000000E+00 -0.45593999997E+02  0.45594000000E+02  0.51100000000E-03 0. -1.
    9900012    2    1    2    0    0  0.28791124514E+01 -0.21432445365E+02  0.34431488410E+02  0.50528851005E+02  0.29999973116E+02 0.  0.
         12    1    1    2    0    0 -0.28791124514E+01  0.21432445365E+02 -0.34431488410E+02  0.40659148995E+02  0.00000000000E+00 0. -1.
         11    1    3    3    0    0  0.29040769746E+01 -0.54365807865E+01  0.17183249308E+01  0.63986494318E+01  0.51100000000E-03 0.  1.
        -11    1    3    3    0    0  0.90293502152E+01 -0.17358017861E+02  0.16884537879E+02  0.25844101242E+02  0.51100000000E-03 0. -1.
        -12    1    3    3    0    0 -0.90543147384E+01  0.13621532819E+01  0.15828625600E+02  0.18286100332E+02  0.00000000000E+00 0.  1.
</event>
<event>
 7    1  0.2639126E-011  0.5052886E+02  0.7816164E-02  0.1300439E+00
        -11   -1    0    0    0    0  0.00000000000E+00  0.00000000000E+00  0.45593999997E+02  0.45594000000E+02  0.51100000000E-03 0.  1.
         11   -1    0    0    0    0 -0.00000000000E+00 -0.00000000000E+00 -0.45593999997E+02  0.45594000000E+02  0.51100000000E-03 0. -1.
    9900012    2    1    2    0    0 -0.37440420592E+02 -0.11296384771E+02  0.11125312518E+02  0.50528856113E+02  0.29999988642E+02 0.  0.
         12    1    1    2    0    0  0.37440420592E+02  0.11296384771E+02 -0.11125312518E+02  0.40659143887E+02  0.00000000000E+00 0. -1.
         11    1    3    3    0    0 -0.16319514263E+02 -0.10039385903E+02  0.76991103378E+01  0.20649264281E+02  0.51100000000E-03 0. -1.
        -11    1    3    3    0    0 -0.83333057674E+01 -0.44617843626E+01  0.11136523424E+02  0.14607315255E+02  0.51100000000E-03 0.  1.
         12    1    3    3    0    0 -0.12787600561E+02  0.32047854944E+01 -0.77103212443E+01  0.15272276578E+02  0.00000000000E+00 0. -1.
</event>
<event>
 7    1  0.2639126E-011  0.5052886E+02  0.7816164E-02  0.1300439E+00
        -11   -1    0    0    0    0  0.00000000000E+00  0.00000000000E+00  0.45593999997E+02  0.45594000000E+02  0.51100000000E-03 0.  1.
         11   -1    0    0    0    0 -0.00000000000E+00 -0.00000000000E+00 -0.45593999997E+02  0.45594000000E+02  0.51100000000E-03 0. -1.
    9900012    2    1    2    0    0  0.26072846283E+02 -0.57567152394E-01  0.31198862504E+02  0.50528860205E+02  0.30000001080E+02 0.  0.
         12    1    1    2    0    0 -0.26072846283E+02  0.57567152394E-01 -0.31198862504E+02  0.40659139795E+02  0.00000000000E+00 0. -1.
         11    1    3    3    0    0  0.11745679585E+02  0.77152768321E+01  0.15097796906E+02  0.20625953486E+02  0.51100000000E-03 0. -1.
        -11    1    3    3    0    0  0.71095089830E+01  0.45609913168E+01  0.12634497401E+02  0.15197969753E+02  0.51100000000E-03 0.  1.
         12    1    3    3    0    0  0.72176577150E+01 -0.12333835301E+02  0.34665681973E+01  0.14704936967E+02  0.00000000000E+00 0. -1.
</event>
<event>
 7    1  0.2639126E-011  0.5052886E+02  0.7816164E-02  0.1300439E+00
        -11   -1    0    0    0    0  0.00000000000E+00  0.00000000000E+00  0.45593999997E+02  0.45594000000E+02  0.51100000000E-03 0.  1.
         11   -1    0    0    0    0 -0.00000000000E+00 -0.00000000000E+00 -0.45593999997E+02  0.45594000000E+02  0.51100000000E-03 0. -1.
    9900012    2    1    2    0    0 -0.38259282363E+02  0.80540491531E+01  0.11159102175E+02  0.50528856428E+02  0.29999989598E+02 0.  0.
         12    1    1    2    0    0  0.38259282363E+02 -0.80540491531E+01 -0.11159102175E+02  0.40659143572E+02  0.00000000000E+00 0. -1.
         11    1    3    3    0    0 -0.10799117937E+02  0.44471074525E+01  0.70229230426E+00  0.11700039643E+02  0.51100000000E-03 0. -1.
        -11    1    3    3    0    0 -0.23902212636E+02  0.10742457829E+02  0.14435147610E+02  0.29918048999E+02  0.51100000000E-03 0.  1.
         12    1    3    3    0    0 -0.35579517894E+01 -0.71355161284E+01 -0.39783377397E+01  0.89107677854E+01  0.00000000000E+00 0. -1.
</event>
<event>
 7    1  0.2639126E-011  0.5052881E+02  0.7816164E-02  0.1300439E+00
        -11   -1    0    0    0    0  0.00000000000E+00  0.00000000000E+00  0.45593999997E+02  0.45594000000E+02  0.51100000000E-03 0.  1.
         11   -1    0    0    0    0 -0.00000000000E+00 -0.00000000000E+00 -0.45593999997E+02  0.45594000000E+02  0.51100000000E-03 0. -1.
    9900012    2    1    2    0    0 -0.70852105027E+01 -0.81016846964E+00  0.40028900316E+02  0.50528813568E+02  0.29999859321E+02 0.  0.
         12    1    1    2    0    0  0.70852105027E+01  0.81016846964E+00 -0.40028900316E+02  0.40659186432E+02  0.00000000000E+00 0. -1.
         11    1    3    3    0    0 -0.27433159333E+01 -0.27479370805E+01  0.11611805381E+02  0.12243813335E+02  0.51100000000E-03 0. -1.
        -11    1    3    3    0    0 -0.76650482633E+01  0.83080427115E+01  0.28951694243E+02  0.31080172753E+02  0.51100000000E-03 0.  1.
         12    1    3    3    0    0  0.33231536939E+01 -0.63702741006E+01 -0.53459930830E+00  0.72048274796E+01  0.00000000000E+00 0. -1.
</event>
<event>
 7    1  0.2639126E-011  0.5052885E+02  0.7816164E-02  0.1300439E+00
        -11   -1    0    0    0    0  0.00000000000E+00  0.00000000000E+00  0.45593999997E+02  0.45594000000E+02  0.51100000000E-03 0. -1.
         11   -1    0    0    0    0 -0.00000000000E+00 -0.00000000000E+00 -0.45593999997E+02  0.45594000000E+02  0.51100000000E-03 0.  1.
    9900012    2    1    2    0    0  0.28328999185E+02 -0.29154621300E+02 -0.80149905247E+00  0.50528849263E+02  0.29999967819E+02 0.  0.
         12    1    1    2    0    0 -0.28328999185E+02  0.29154621300E+02  0.80149905247E+00  0.40659150737E+02  0.00000000000E+00 0. -1.
         11    1    3    3    0    0  0.12771649777E+02 -0.41580283051E+01  0.41442623019E+01  0.14056284989E+02  0.51100000000E-03 0. -1.
        -11    1    3    3    0    0  0.14540449614E+02 -0.39706753989E+01 -0.15941248517E+01  0.15156918302E+02  0.51100000000E-03 0.  1.
         12    1    3    3    0    0  0.10168997938E+01 -0.21025917596E+02 -0.33516365027E+01  0.21315645972E+02  0.00000000000E+00 0. -1.
</event>
<event>
 7    1  0.2639126E-011  0.5052887E+02  0.7816164E-02  0.1300439E+00
        -11   -1    0    0    0    0  0.00000000000E+00  0.00000000000E+00  0.45593999997E+02  0.45594000000E+02  0.51100000000E-03 0. -1.
         11   -1    0    0    0    0 -0.00000000000E+00 -0.00000000000E+00 -0.45593999997E+02  0.45594000000E+02  0.51100000000E-03 0.  1.
    9900012    2    1    2    0    0 -0.17282367941E+02 -0.31547976372E+02 -0.18952834613E+02  0.50528868250E+02  0.30000025534E+02 0.  0.
         12    1    1    2    0    0  0.17282367941E+02  0.31547976372E+02  0.18952834613E+02  0.40659131750E+02  0.00000000000E+00 0. -1.
         11    1    3    3    0    0  0.84012228623E+00  0.39083366804E+01 -0.78307376741E+00  0.40735863621E+01  0.51100000000E-03 0. -1.
        -11    1    3    3    0    0 -0.11964544349E+02 -0.12313434647E+02 -0.13985856864E+02  0.22144416604E+02  0.51100000000E-03 0.  1.
         12    1    3    3    0    0 -0.61579458786E+01 -0.23142878405E+02 -0.41839039812E+01  0.24310865284E+02  0.00000000000E+00 0. -1.
</event>
<event>
 7    1  0.2639126E-011  0.5052886E+02  0.7816164E-02  0.1300439E+00
        -11   -1    0    0    0    0  0.00000000000E+00  0.00000000000E+00  0.45593999997E+02  0.45594000000E+02  0.51100000000E-03 0.  1.
         11   -1    0    0    0    0 -0.00000000000E+00 -0.00000000000E+00 -0.45593999997E+02  0.45594000000E+02  0.51100000000E-03 0. -1.
    9900012    2    1    2    0    0  0.82402323583E+01  0.35740702413E+02 -0.17546113491E+02  0.50528864041E+02  0.30000012740E+02 0.  0.
         12    1    1    2    0    0 -0.82402323583E+01 -0.35740702413E+02  0.17546113491E+02  0.40659135959E+02  0.00000000000E+00 0. -1.
         11    1    3    3    0    0  0.51487286837E+01  0.78035313104E+01 -0.10803975106E+02  0.14287420562E+02  0.51100000000E-03 0. -1.
        -11    1    3    3    0    0  0.92794115718E+01  0.27017882312E+02 -0.83874960762E+01  0.29772865741E+02  0.51100000000E-03 0.  1.
         12    1    3    3    0    0 -0.61879078972E+01  0.91928879055E+00  0.16453576912E+01  0.64685777383E+01  0.00000000000E+00 0. -1.
</event>
<event>
 7    1  0.2639126E-011  0.5052881E+02  0.7816164E-02  0.1300439E+00
        -11   -1    0    0    0    0  0.00000000000E+00  0.00000000000E+00  0.45593999997E+02  0.45594000000E+02  0.51100000000E-03 0.  1.
         11   -1    0    0    0    0 -0.00000000000E+00 -0.00000000000E+00 -0.45593999997E+02  0.45594000000E+02  0.51100000000E-03 0. -1.
    9900012    2    1    2    0    0 -0.11211484545E+02  0.46858263210E+01  0.38800969155E+02  0.50528812091E+02  0.29999854832E+02 0.  0.
         12    1    1    2    0    0  0.11211484545E+02 -0.46858263210E+01 -0.38800969155E+02  0.40659187909E+02  0.00000000000E+00 0. -1.
         11    1    3    3    0    0 -0.91613674851E-01  0.40393118591E+01 -0.15075189473E+00  0.40431620986E+01  0.51100000000E-03 0. -1.
        -11    1    3    3    0    0 -0.63098447306E+01  0.97518731990E+00 -0.80710894967E+00  0.64355695903E+01  0.51100000000E-03 0.  1.
        -12    1    3    3    0    0 -0.48100261398E+01 -0.32867285798E+00  0.39758830000E+02  0.40050080402E+02  0.00000000000E+00 0.  1.
</event>
<event>
 7    1  0.2639126E-011  0.5052885E+02  0.7816164E-02  0.1300439E+00
        -11   -1    0    0    0    0  0.00000000000E+00  0.00000000000E+00  0.45593999997E+02  0.45594000000E+02  0.51100000000E-03 0.  1.
         11   -1    0    0    0    0 -0.00000000000E+00 -0.00000000000E+00 -0.45593999997E+02  0.45594000000E+02  0.51100000000E-03 0. -1.
    9900012    2    1    2    0    0  0.36373609877E+02  0.11604492305E+02  0.13980788763E+02  0.50528853531E+02  0.29999980794E+02 0.  0.
         12    1    1    2    0    0 -0.36373609877E+02 -0.11604492305E+02 -0.13980788763E+02  0.40659146469E+02  0.00000000000E+00 0. -1.
         11    1    3    3    0    0  0.17810387194E+00 -0.13524210931E+01 -0.59532724550E+01  0.61075540920E+01  0.51100000000E-03 0. -1.
        -11    1    3    3    0    0  0.73096065123E+01  0.43491820991E+00  0.77512747484E+01  0.10663102818E+02  0.51100000000E-03 0.  1.
        -12    1    3    3    0    0  0.28885899492E+02  0.12521995189E+02  0.12182786469E+02  0.33758196622E+02  0.00000000000E+00 0.  1.
</event>
<event>
 7    1  0.2639126E-011  0.5052887E+02  0.7816164E-02  0.1300439E+00
        -11   -1    0    0    0    0  0.00000000000E+00  0.00000000000E+00  0.45593999997E+02  0.45594000000E+02  0.51100000000E-03 0.  1.
         11   -1    0    0    0    0 -0.00000000000E+00 -0.00000000000E+00 -0.45593999997E+02  0.45594000000E+02  0.51100000000E-03 0. -1.
    9900012    2    1    2    0    0 -0.39333338113E+02 -0.29842331433E+01  0.98563505850E+01  0.50528870873E+02  0.30000033505E+02 0.  0.
         12    1    1    2    0    0  0.39333338113E+02  0.29842331433E+01 -0.98563505850E+01  0.40659129127E+02  0.00000000000E+00 0. -1.
         11    1    3    3    0    0 -0.69878699139E+01  0.41388625729E+01  0.90275693303E+00  0.81716265010E+01  0.51100000000E-03 0. -1.
        -11    1    3    3    0    0 -0.70543848273E+01  0.27174733797E+01  0.12881939738E+02  0.14936310741E+02  0.51100000000E-03 0.  1.
        -12    1    3    3    0    0 -0.25291083371E+02 -0.98405690959E+01 -0.39283460862E+01  0.27420933631E+02  0.00000000000E+00 0.  1.
</event>
<event>
 7    1  0.2639126E-011  0.5052886E+02  0.7816164E-02  0.1300439E+00
        -11   -1    0    0    0    0  0.00000000000E+00  0.00000000000E+00  0.45593999997E+02  0.45594000000E+02  0.51100000000E-03 0.  1.
         11   -1    0    0    0    0 -0.00000000000E+00 -0.00000000000E+00 -0.45593999997E+02  0.45594000000E+02  0.51100000000E-03 0. -1.
    9900012    2    1    2    0    0  0.23125860951E+02 -0.12213921833E+02  0.31131661587E+02  0.50528859768E+02  0.29999999749E+02 0.  0.
         12    1    1    2    0    0 -0.23125860951E+02  0.12213921833E+02 -0.31131661587E+02  0.40659140232E+02  0.00000000000E+00 0. -1.
         11    1    3    3    0    0 -0.35804355057E+01 -0.23387104888E+01  0.92026965218E+01  0.10147842564E+02  0.51100000000E-03 0. -1.
        -11    1    3    3    0    0  0.17810685218E+02 -0.14447433860E+02  0.19464154144E+02  0.30079929353E+02  0.51100000000E-03 0.  1.
        -12    1    3    3    0    0  0.88956112384E+01  0.45722225158E+01  0.24648109218E+01  0.10301087851E+02  0.00000000000E+00 0.  1.
</event>
<event>
 7    1  0.2639126E-011  0.5052886E+02  0.7816164E-02  0.1300439E+00
        -11   -1    0    0    0    0  0.00000000000E+00  0.00000000000E+00  0.45593999997E+02  0.45594000000E+02  0.51100000000E-03 0.  1.
         11   -1    0    0    0    0 -0.00000000000E+00 -0.00000000000E+00 -0.45593999997E+02  0.45594000000E+02  0.51100000000E-03 0. -1.
    9900012    2    1    2    0    0 -0.23476252728E+02 -0.14154655718E+02  0.30027935851E+02  0.50528860165E+02  0.30000000958E+02 0.  0.
         12    1    1    2    0    0  0.23476252728E+02  0.14154655718E+02 -0.30027935851E+02  0.40659139835E+02  0.00000000000E+00 0. -1.
         11    1    3    3    0    0 -0.18144247173E+02 -0.36683194590E+01  0.62106388643E+01  0.19525427230E+02  0.51100000000E-03 0. -1.
        -11    1    3    3    0    0 -0.10636896720E+02 -0.87647923747E+01  0.13599680327E+02  0.19362759681E+02  0.51100000000E-03 0.  1.
         12    1    3    3    0    0  0.53048911652E+01 -0.17215438842E+01  0.10217616660E+02  0.11640673255E+02  0.00000000000E+00 0. -1.
</event>
<event>
 7    1  0.2639126E-011  0.5052887E+02  0.7816164E-02  0.1300439E+00
        -11   -1    0    0    0    0  0.00000000000E+00  0.00000000000E+00  0.45593999997E+02  0.45594000000E+02  0.51100000000E-03 0.  1.
         11   -1    0    0    0    0 -0.00000000000E+00 -0.00000000000E+00 -0.45593999997E+02  0.45594000000E+02  0.51100000000E-03 0. -1.
    9900012    2    1    2    0    0 -0.17473180942E+02  0.13647138317E+02  0.34082377500E+02  0.50528869506E+02  0.30000029350E+02 0.  0.
         12    1    1    2    0    0  0.17473180942E+02 -0.13647138317E+02 -0.34082377500E+02  0.40659130494E+02  0.00000000000E+00 0. -1.
         11    1    3    3    0    0 -0.10378310880E+02 -0.21462125099E+01  0.71833141100E+01  0.12802951485E+02  0.51100000000E-03 0. -1.
        -11    1    3    3    0    0 -0.63524083276E+01 -0.96781214878E+00  0.17166621194E+02  0.18329829115E+02  0.51100000000E-03 0.  1.
         12    1    3    3    0    0 -0.74246173433E+00  0.16761162976E+02  0.97324421958E+01  0.19396088906E+02  0.00000000000E+00 0. -1.
</event>
<event>
 7    1  0.2639126E-011  0.5052886E+02  0.7816164E-02  0.1300439E+00
        -11   -1    0    0    0    0  0.00000000000E+00  0.00000000000E+00  0.45593999997E+02  0.45594000000E+02  0.51100000000E-03 0.  1.
         11   -1    0    0    0    0 -0.00000000000E+00 -0.00000000000E+00 -0.45593999997E+02  0.45594000000E+02  0.51100000000E-03 0. -1.
    9900012    2    1    2    0    0  0.25889795889E+02  0.25732658012E+02  0.17908505209E+02  0.50528858613E+02  0.29999996239E+02 0.  0.
         12    1    1    2    0    0 -0.25889795889E+02 -0.25732658012E+02 -0.17908505209E+02  0.40659141387E+02  0.00000000000E+00 0. -1.
         11    1    3    3    0    0  0.42651511067E+01 -0.49703716951E+01 -0.25657829912E+01  0.70341560524E+01  0.51100000000E-03 0. -1.
        -11    1    3    3    0    0  0.27747822768E+00  0.18132506812E+01 -0.49640828740E+00  0.19003404034E+01  0.51100000000E-03 0.  1.
        -12    1    3    3    0    0  0.21347166555E+02  0.28889779026E+02  0.20970696487E+02  0.41594362157E+02  0.00000000000E+00 0.  1.
</event>
<event>
 7    1  0.2639126E-011  0.5052887E+02  0.7816164E-02  0.1300439E+00
        -11   -1    0    0    0    0  0.00000000000E+00  0.00000000000E+00  0.45593999997E+02  0.45594000000E+02  0.51100000000E-03 0.  1.
         11   -1    0    0    0    0 -0.00000000000E+00 -0.00000000000E+00 -0.45593999997E+02  0.45594000000E+02  0.51100000000E-03 0. -1.
    9900012    2    1    2    0    0  0.32236315200E+02  0.24022552871E+02  0.60746813596E+01  0.50528870426E+02  0.30000032147E+02 0.  0.
         12    1    1    2    0    0 -0.32236315200E+02 -0.24022552871E+02 -0.60746813596E+01  0.40659129574E+02  0.00000000000E+00 0. -1.
         11    1    3    3    0    0  0.52224310840E+01 -0.25237947186E+01  0.48420823204E+00  0.58204625316E+01  0.51100000000E-03 0. -1.
        -11    1    3    3    0    0  0.14985998551E+02  0.26019491371E+01 -0.48288713889E+01  0.15958329832E+02  0.51100000000E-03 0.  1.
        -12    1    3    3    0    0  0.12027885564E+02  0.23944398453E+02  0.10419344516E+02  0.28750078062E+02  0.00000000000E+00 0.  1.
</event>
<event>
 7    1  0.2639126E-011  0.5052886E+02  0.7816164E-02  0.1300439E+00
        -11   -1    0    0    0    0  0.00000000000E+00  0.00000000000E+00  0.45593999997E+02  0.45594000000E+02  0.51100000000E-03 0.  1.
         11   -1    0    0    0    0 -0.00000000000E+00 -0.00000000000E+00 -0.45593999997E+02  0.45594000000E+02  0.51100000000E-03 0. -1.
    9900012    2    1    2    0    0 -0.38106473769E+02  0.12450169834E+02  0.67864456589E+01  0.50528856911E+02  0.29999991068E+02 0.  0.
         12    1    1    2    0    0  0.38106473769E+02 -0.12450169834E+02 -0.67864456589E+01  0.40659143089E+02  0.00000000000E+00 0. -1.
         11    1    3    3    0    0 -0.16067355241E+02  0.89437453053E+01 -0.39854011250E+01  0.18815788767E+02  0.51100000000E-03 0. -1.
        -11    1    3    3    0    0 -0.21210503088E+02  0.19119610013E+01  0.51783221169E+00  0.21302797623E+02  0.51100000000E-03 0.  1.
        -12    1    3    3    0    0 -0.82861544055E+00  0.15944635269E+01  0.10254014572E+02  0.10410270522E+02  0.00000000000E+00 0.  1.
</event>
<event>
 7    1  0.2639126E-011  0.5052890E+02  0.7816164E-02  0.1300439E+00
        -11   -1    0    0    0    0  0.00000000000E+00  0.00000000000E+00  0.45593999997E+02  0.45594000000E+02  0.51100000000E-03 0. -1.
         11   -1    0    0    0    0 -0.00000000000E+00 -0.00000000000E+00 -0.45593999997E+02  0.45594000000E+02  0.51100000000E-03 0.  1.
    9900012    2    1    2    0    0  0.34210963639E+02  0.11814397609E+02 -0.18525456173E+02  0.50528898308E+02  0.30000116896E+02 0.  0.
         12    1    1    2    0    0 -0.34210963639E+02 -0.11814397609E+02  0.18525456173E+02  0.40659101692E+02  0.00000000000E+00 0. -1.
         11    1    3    3    0    0  0.29033158995E+01 -0.46622201296E+01 -0.71258612539E+01  0.89968571524E+01  0.51100000000E-03 0. -1.
        -11    1    3    3    0    0  0.15861596758E+02  0.12959042890E+01  0.20384760806E+01  0.16044469597E+02  0.51100000000E-03 0.  1.
        -12    1    3    3    0    0  0.15446050981E+02  0.15180713450E+02 -0.13438071000E+02  0.25487571559E+02  0.00000000000E+00 0.  1.
</event>
<event>
 7    1  0.2639126E-011  0.5052886E+02  0.7816164E-02  0.1300439E+00
        -11   -1    0    0    0    0  0.00000000000E+00  0.00000000000E+00  0.45593999997E+02  0.45594000000E+02  0.51100000000E-03 0.  1.
         11   -1    0    0    0    0 -0.00000000000E+00 -0.00000000000E+00 -0.45593999997E+02  0.45594000000E+02  0.51100000000E-03 0. -1.
    9900012    2    1    2    0    0 -0.28308657706E+01  0.87720010624E+01  0.39600553396E+02  0.50528860401E+02  0.30000001676E+02 0.  0.
         12    1    1    2    0    0  0.28308657706E+01 -0.87720010624E+01 -0.39600553396E+02  0.40659139599E+02  0.00000000000E+00 0. -1.
         11    1    3    3    0    0  0.10496170533E+02  0.13665995333E+01  0.65977323336E+01  0.12472660596E+02  0.51100000000E-03 0. -1.
        -11    1    3    3    0    0 -0.31418623782E+01  0.81523137621E+01  0.15108521361E+02  0.17452763015E+02  0.51100000000E-03 0.  1.
        -12    1    3    3    0    0 -0.10185173925E+02 -0.74691223308E+00  0.17894299701E+02  0.20603436790E+02  0.00000000000E+00 0.  1.
</event>
<event>
 7    1  0.2639126E-011  0.5052886E+02  0.7816164E-02  0.1300439E+00
        -11   -1    0    0    0    0  0.00000000000E+00  0.00000000000E+00  0.45593999997E+02  0.45594000000E+02  0.51100000000E-03 0.  1.
         11   -1    0    0    0    0 -0.00000000000E+00 -0.00000000000E+00 -0.45593999997E+02  0.45594000000E+02  0.51100000000E-03 0. -1.
    9900012    2    1    2    0    0  0.11221733080E+02 -0.11921669569E+02  0.37217097789E+02  0.50528857529E+02  0.29999992945E+02 0.  0.
         12    1    1    2    0    0 -0.11221733080E+02  0.11921669569E+02 -0.37217097789E+02  0.40659142471E+02  0.00000000000E+00 0. -1.
         11    1    3    3    0    0  0.21959579164E+01 -0.66244513380E+01  0.68008154497E+01  0.97445717065E+01  0.51100000000E-03 0. -1.
        -11    1    3    3    0    0 -0.32613717891E+01 -0.12469279352E+02  0.15744776549E+02  0.20347419058E+02  0.51100000000E-03 0.  1.
         12    1    3    3    0    0  0.12287146952E+02  0.71720611212E+01  0.14671505791E+02  0.20436866764E+02  0.00000000000E+00 0. -1.
</event>
<event>
 7    1  0.2639126E-011  0.5052886E+02  0.7816164E-02  0.1300439E+00
        -11   -1    0    0    0    0  0.00000000000E+00  0.00000000000E+00  0.45593999997E+02  0.45594000000E+02  0.51100000000E-03 0.  1.
         11   -1    0    0    0    0 -0.00000000000E+00 -0.00000000000E+00 -0.45593999997E+02  0.45594000000E+02  0.51100000000E-03 0. -1.
    9900012    2    1    2    0    0 -0.25658968904E+01  0.75484956563E+01  0.39869815774E+02  0.50528858059E+02  0.29999994557E+02 0.  0.
         12    1    1    2    0    0  0.25658968904E+01 -0.75484956563E+01 -0.39869815774E+02  0.40659141941E+02  0.00000000000E+00 0. -1.
         11    1    3    3    0    0  0.40264529081E+01 -0.84273201147E-01  0.16308321028E+01  0.43450015653E+01  0.51100000000E-03 0. -1.
        -11    1    3    3    0    0  0.36284658308E+01  0.34450444648E+01 -0.12682340234E+01  0.51616386400E+01  0.51100000000E-03 0.  1.
         12    1    3    3    0    0 -0.10220815629E+02  0.41877243926E+01  0.39507217694E+02  0.41022217854E+02  0.00000000000E+00 0. -1.
</event>
<event>
 7    1  0.2639126E-011  0.5052885E+02  0.7816164E-02  0.1300439E+00
        -11   -1    0    0    0    0  0.00000000000E+00  0.00000000000E+00  0.45593999997E+02  0.45594000000E+02  0.51100000000E-03 0. -1.
         11   -1    0    0    0    0 -0.00000000000E+00 -0.00000000000E+00 -0.45593999997E+02  0.45594000000E+02  0.51100000000E-03 0.  1.
    9900012    2    1    2    0    0 -0.31864517769E+02  0.24648321701E+02 -0.55026521886E+01  0.50528850520E+02  0.29999971641E+02 0.  0.
         12    1    1    2    0    0  0.31864517769E+02 -0.24648321701E+02  0.55026521886E+01  0.40659149480E+02  0.00000000000E+00 0. -1.
         11    1    3    3    0    0 -0.63616585115E+01  0.13411013384E+02 -0.40842457182E+01  0.15395033041E+02  0.51100000000E-03 0. -1.
        -11    1    3    3    0    0 -0.66239978013E+01  0.75188759582E+01 -0.99177558523E+01  0.14098678092E+02  0.51100000000E-03 0.  1.
         12    1    3    3    0    0 -0.18878861456E+02  0.37184323593E+01  0.84993493820E+01  0.21035139386E+02  0.00000000000E+00 0. -1.
</event>
<event>
 7    1  0.2639126E-011  0.5052886E+02  0.7816164E-02  0.1300439E+00
        -11   -1    0    0    0    0  0.00000000000E+00  0.00000000000E+00  0.45593999997E+02  0.45594000000E+02  0.51100000000E-03 0.  1.
         11   -1    0    0    0    0 -0.00000000000E+00 -0.00000000000E+00 -0.45593999997E+02  0.45594000000E+02  0.51100000000E-03 0. -1.
    9900012    2    1    2    0    0  0.15961387782E+02 -0.37124750802E+02  0.44891835488E+01  0.50528858458E+02  0.29999995768E+02 0.  0.
         12    1    1    2    0    0 -0.15961387782E+02  0.37124750802E+02 -0.44891835488E+01  0.40659141542E+02  0.00000000000E+00 0. -1.
         11    1    3    3    0    0  0.46856474055E+01 -0.22101536330E+02  0.29357227970E+01  0.22782705466E+02  0.51100000000E-03 0. -1.
        -11    1    3    3    0    0  0.82385407663E+00 -0.16584332808E+02 -0.16930913364E+01  0.16690877411E+02  0.51100000000E-03 0.  1.
         12    1    3    3    0    0  0.10451886300E+02  0.15611183365E+01  0.32465520883E+01  0.11055275580E+02  0.00000000000E+00 0. -1.
</event>
<event>
 7    1  0.2639126E-011  0.5052885E+02  0.7816164E-02  0.1300439E+00
        -11   -1    0    0    0    0  0.00000000000E+00  0.00000000000E+00  0.45593999997E+02  0.45594000000E+02  0.51100000000E-03 0. -1.
         11   -1    0    0    0    0 -0.00000000000E+00 -0.00000000000E+00 -0.45593999997E+02  0.45594000000E+02  0.51100000000E-03 0.  1.
    9900012    2    1    2    0    0 -0.34830602241E+02 -0.20727214568E+02 -0.32215783366E+01  0.50528845517E+02  0.29999956435E+02 0.  0.
         12    1    1    2    0    0  0.34830602241E+02  0.20727214568E+02  0.32215783366E+01  0.40659154483E+02  0.00000000000E+00 0. -1.
         11    1    3    3    0    0 -0.15405765179E+01 -0.23066916837E+01  0.46968989568E+01  0.54548201256E+01  0.51100000000E-03 0. -1.
        -11    1    3    3    0    0 -0.21736726129E+01 -0.71428413891E-01 -0.86739988576E+01  0.89424946793E+01  0.51100000000E-03 0.  1.
        -12    1    3    3    0    0 -0.31116353111E+02 -0.18349094471E+02  0.75552156413E+00  0.36131530713E+02  0.00000000000E+00 0.  1.
</event>
<event>
 7    1  0.2639126E-011  0.5052886E+02  0.7816164E-02  0.1300439E+00
        -11   -1    0    0    0    0  0.00000000000E+00  0.00000000000E+00  0.45593999997E+02  0.45594000000E+02  0.51100000000E-03 0. -1.
         11   -1    0    0    0    0 -0.00000000000E+00 -0.00000000000E+00 -0.45593999997E+02  0.45594000000E+02  0.51100000000E-03 0.  1.
    9900012    2    1    2    0    0 -0.23361815459E+02 -0.29366720346E+02  0.15652055668E+02  0.50528861642E+02  0.30000005447E+02 0.  0.
         12    1    1    2    0    0  0.23361815459E+02  0.29366720346E+02 -0.15652055668E+02  0.40659138358E+02  0.00000000000E+00 0. -1.
         11    1    3    3    0    0 -0.59559218245E+01  0.24436951808E+01  0.56754720251E+00  0.64627208670E+01  0.51100000000E-03 0. -1.
        -11    1    3    3    0    0  0.30871803728E+01 -0.49158663663E+01  0.73757556991E+01  0.93860639876E+01  0.51100000000E-03 0.  1.
        -12    1    3    3    0    0 -0.20493074007E+02 -0.26894549160E+02  0.77087527662E+01  0.34680076788E+02  0.00000000000E+00 0.  1.
</event>
<event>
 7    1  0.2639126E-011  0.5052886E+02  0.7816164E-02  0.1300439E+00
        -11   -1    0    0    0    0  0.00000000000E+00  0.00000000000E+00  0.45593999997E+02  0.45594000000E+02  0.51100000000E-03 0. -1.
         11   -1    0    0    0    0 -0.00000000000E+00 -0.00000000000E+00 -0.45593999997E+02  0.45594000000E+02  0.51100000000E-03 0.  1.
    9900012    2    1    2    0    0 -0.74234220394E+01  0.32923569717E+02 -0.22673708447E+02  0.50528859669E+02  0.29999999450E+02 0.  0.
         12    1    1    2    0    0  0.74234220394E+01 -0.32923569717E+02  0.22673708447E+02  0.40659140331E+02  0.00000000000E+00 0. -1.
         11    1    3    3    0    0  0.11971540873E+01  0.55227265246E+01  0.89302658247E+00  0.57211172783E+01  0.51100000000E-03 0.  1.
        -11    1    3    3    0    0  0.49840472931E+01  0.58007085681E+01  0.27659895940E+01  0.81326284808E+01  0.51100000000E-03 0. -1.
        -12    1    3    3    0    0 -0.13604623420E+02  0.21600134625E+02 -0.26332724624E+02  0.36675113910E+02  0.00000000000E+00 0.  1.
</event>
<event>
 7    1  0.2639126E-011  0.5052886E+02  0.7816164E-02  0.1300439E+00
        -11   -1    0    0    0    0  0.00000000000E+00  0.00000000000E+00  0.45593999997E+02  0.45594000000E+02  0.51100000000E-03 0.  1.
         11   -1    0    0    0    0 -0.00000000000E+00 -0.00000000000E+00 -0.45593999997E+02  0.45594000000E+02  0.51100000000E-03 0. -1.
    9900012    2    1    2    0    0 -0.20954336891E+02 -0.23236349546E+02  0.25964471594E+02  0.50528856379E+02  0.29999989451E+02 0.  0.
         12    1    1    2    0    0  0.20954336891E+02  0.23236349546E+02 -0.25964471594E+02  0.40659143621E+02  0.00000000000E+00 0. -1.
         11    1    3    3    0    0 -0.20099378273E+02 -0.19778441839E+00  0.10657713019E+02  0.22751065309E+02  0.51100000000E-03 0.  1.
        -11    1    3    3    0    0 -0.13607961598E+01 -0.87094173205E+01  0.51839195378E+01  0.10226374640E+02  0.51100000000E-03 0. -1.
        -12    1    3    3    0    0  0.50583754199E+00 -0.14329147808E+02  0.10122839037E+02  0.17551416430E+02  0.00000000000E+00 0.  1.
</event>
<event>
 7    1  0.2639126E-011  0.5052886E+02  0.7816164E-02  0.1300439E+00
        -11   -1    0    0    0    0  0.00000000000E+00  0.00000000000E+00  0.45593999997E+02  0.45594000000E+02  0.51100000000E-03 0.  1.
         11   -1    0    0    0    0 -0.00000000000E+00 -0.00000000000E+00 -0.45593999997E+02  0.45594000000E+02  0.51100000000E-03 0. -1.
    9900012    2    1    2    0    0  0.18862696130E+02 -0.26031226405E+02  0.24894571961E+02  0.50528858758E+02  0.29999996680E+02 0.  0.
         12    1    1    2    0    0 -0.18862696130E+02  0.26031226405E+02 -0.24894571961E+02  0.40659141242E+02  0.00000000000E+00 0. -1.
         11    1    3    3    0    0 -0.60239048639E+01 -0.37349889361E+01  0.50638502357E+01  0.87109213997E+01  0.51100000000E-03 0. -1.
        -11    1    3    3    0    0  0.18894303053E+01  0.15150886120E+01  0.49761857162E+01  0.55342447474E+01  0.51100000000E-03 0.  1.
         12    1    3    3    0    0  0.22997170689E+02 -0.23811326081E+02  0.14854536009E+02  0.36283692611E+02  0.00000000000E+00 0. -1.
</event>
<event>
 7    1  0.2639126E-011  0.5052886E+02  0.7816164E-02  0.1300439E+00
        -11   -1    0    0    0    0  0.00000000000E+00  0.00000000000E+00  0.45593999997E+02  0.45594000000E+02  0.51100000000E-03 0.  1.
         11   -1    0    0    0    0 -0.00000000000E+00 -0.00000000000E+00 -0.45593999997E+02  0.45594000000E+02  0.51100000000E-03 0. -1.
    9900012    2    1    2    0    0 -0.21006684199E+02  0.23820872431E+02  0.25386035420E+02  0.50528861559E+02  0.30000005195E+02 0.  0.
         12    1    1    2    0    0  0.21006684199E+02 -0.23820872431E+02 -0.25386035420E+02  0.40659138441E+02  0.00000000000E+00 0. -1.
         11    1    3    3    0    0 -0.20968578607E+02  0.21504103971E+02  0.20677021847E+02  0.36464325157E+02  0.51100000000E-03 0. -1.
        -11    1    3    3    0    0  0.18725395855E+01  0.60566047110E+01  0.68645407019E+01  0.93440239958E+01  0.51100000000E-03 0.  1.
         12    1    3    3    0    0 -0.19106451772E+01 -0.37398362514E+01 -0.21555271286E+01  0.47205124068E+01  0.00000000000E+00 0. -1.
</event>
<event>
 7    1  0.2639126E-011  0.5052886E+02  0.7816164E-02  0.1300439E+00
        -11   -1    0    0    0    0  0.00000000000E+00  0.00000000000E+00  0.45593999997E+02  0.45594000000E+02  0.51100000000E-03 0.  1.
         11   -1    0    0    0    0 -0.00000000000E+00 -0.00000000000E+00 -0.45593999997E+02  0.45594000000E+02  0.51100000000E-03 0. -1.
    9900012    2    1    2    0    0  0.67830460442E+01  0.28765505688E+02  0.27923138966E+02  0.50528859320E+02  0.29999998388E+02 0.  0.
         12    1    1    2    0    0 -0.67830460442E+01 -0.28765505688E+02 -0.27923138966E+02  0.40659140680E+02  0.00000000000E+00 0. -1.
         11    1    3    3    0    0  0.26843188094E+01  0.13052052996E+01 -0.36300857470E+01  0.46996437244E+01  0.51100000000E-03 0. -1.
        -11    1    3    3    0    0 -0.31586371406E+01 -0.11831833600E+01  0.15283456547E+01  0.37030733386E+01  0.51100000000E-03 0.  1.
        -12    1    3    3    0    0  0.72573643755E+01  0.28643483749E+02  0.30024879059E+02  0.42126142257E+02  0.00000000000E+00 0.  1.
</event>
<event>
 7    1  0.2639126E-011  0.5052886E+02  0.7816164E-02  0.1300439E+00
        -11   -1    0    0    0    0  0.00000000000E+00  0.00000000000E+00  0.45593999997E+02  0.45594000000E+02  0.51100000000E-03 0. -1.
         11   -1    0    0    0    0 -0.00000000000E+00 -0.00000000000E+00 -0.45593999997E+02  0.45594000000E+02  0.51100000000E-03 0.  1.
    9900012    2    1    2    0    0  0.36576697401E+02  0.15949883236E+02  0.78046238065E+01  0.50528859321E+02  0.29999998391E+02 0.  0.
         12    1    1    2    0    0 -0.36576697401E+02 -0.15949883236E+02 -0.78046238065E+01  0.40659140679E+02  0.00000000000E+00 0. -1.
         11    1    3    3    0    0  0.53764090882E+01 -0.33973232586E+01 -0.28260128715E+01  0.69594489019E+01  0.51100000000E-03 0. -1.
        -11    1    3    3    0    0  0.93409831131E+01  0.26097693126E+00 -0.50107331604E+01  0.10603278811E+02  0.51100000000E-03 0.  1.
         12    1    3    3    0    0  0.21859305200E+02  0.19086229563E+02  0.15641369838E+02  0.32966131608E+02  0.00000000000E+00 0. -1.
</event>
<event>
 7    1  0.2639126E-011  0.5052886E+02  0.7816164E-02  0.1300439E+00
        -11   -1    0    0    0    0  0.00000000000E+00  0.00000000000E+00  0.45593999997E+02  0.45594000000E+02  0.51100000000E-03 0. -1.
         11   -1    0    0    0    0 -0.00000000000E+00 -0.00000000000E+00 -0.45593999997E+02  0.45594000000E+02  0.51100000000E-03 0.  1.
    9900012    2    1    2    0    0  0.25841228097E+02 -0.28450876875E+02 -0.13264398267E+02  0.50528859258E+02  0.29999998201E+02 0.  0.
         12    1    1    2    0    0 -0.25841228097E+02  0.28450876875E+02  0.13264398267E+02  0.40659140742E+02  0.00000000000E+00 0. -1.
         11    1    3    3    0    0  0.40831830815E+01  0.44458061262E+01 -0.25348105981E+01  0.65469719122E+01  0.51100000000E-03 0. -1.
        -11    1    3    3    0    0  0.71138733424E+01 -0.16247001654E+01 -0.53183468824E+01  0.90294882680E+01  0.51100000000E-03 0.  1.
        -12    1    3    3    0    0  0.14644171673E+02 -0.31271982836E+02 -0.54112407863E+01  0.34952399078E+02  0.00000000000E+00 0.  1.
</event>
<event>
 7    1  0.2639126E-011  0.5052886E+02  0.7816164E-02  0.1300439E+00
        -11   -1    0    0    0    0  0.00000000000E+00  0.00000000000E+00  0.45593999997E+02  0.45594000000E+02  0.51100000000E-03 0.  1.
         11   -1    0    0    0    0 -0.00000000000E+00 -0.00000000000E+00 -0.45593999997E+02  0.45594000000E+02  0.51100000000E-03 0. -1.
    9900012    2    1    2    0    0  0.28134349211E+02 -0.21975692742E+02  0.19460039638E+02  0.50528858104E+02  0.29999994693E+02 0.  0.
         12    1    1    2    0    0 -0.28134349211E+02  0.21975692742E+02 -0.19460039638E+02  0.40659141896E+02  0.00000000000E+00 0. -1.
         11    1    3    3    0    0  0.13970570066E+02 -0.33017961154E+01  0.46945554027E+00  0.14363115064E+02  0.51100000000E-03 0. -1.
        -11    1    3    3    0    0  0.97848949464E+01  0.51553619765E+00  0.16549104889E+01  0.99372368227E+01  0.51100000000E-03 0.  1.
         12    1    3    3    0    0  0.43788841978E+01 -0.19189432825E+02  0.17335673608E+02  0.26228506218E+02  0.00000000000E+00 0. -1.
</event>
<event>
 7    1  0.2639126E-011  0.5052885E+02  0.7816164E-02  0.1300439E+00
        -11   -1    0    0    0    0  0.00000000000E+00  0.00000000000E+00  0.45593999997E+02  0.45594000000E+02  0.51100000000E-03 0.  1.
         11   -1    0    0    0    0 -0.00000000000E+00 -0.00000000000E+00 -0.45593999997E+02  0.45594000000E+02  0.51100000000E-03 0. -1.
    9900012    2    1    2    0    0  0.32659360275E+02 -0.24039353811E+02 -0.29397088178E+01  0.50528853020E+02  0.29999979239E+02 0.  0.
         12    1    1    2    0    0 -0.32659360275E+02  0.24039353811E+02  0.29397088178E+01  0.40659146980E+02  0.00000000000E+00 0. -1.
         11    1    3    3    0    0  0.10355550163E+01 -0.92796318050E+00  0.69174253436E+01  0.70557964470E+01  0.51100000000E-03 0. -1.
        -11    1    3    3    0    0  0.11273823826E+02 -0.32358520185E+01  0.32235155120E+01  0.12163917726E+02  0.51100000000E-03 0.  1.
        -12    1    3    3    0    0  0.20349981433E+02 -0.19875538612E+02 -0.13080649673E+02  0.31309138847E+02  0.00000000000E+00 0.  1.
</event>
<event>
 7    1  0.2639126E-011  0.5052887E+02  0.7816164E-02  0.1300439E+00
        -11   -1    0    0    0    0  0.00000000000E+00  0.00000000000E+00  0.45593999997E+02  0.45594000000E+02  0.51100000000E-03 0. -1.
         11   -1    0    0    0    0 -0.00000000000E+00 -0.00000000000E+00 -0.45593999997E+02  0.45594000000E+02  0.51100000000E-03 0.  1.
    9900012    2    1    2    0    0 -0.23745191124E+02  0.46783564177E+01 -0.32671757966E+02  0.50528869551E+02  0.30000029488E+02 0.  0.
         12    1    1    2    0    0  0.23745191124E+02 -0.46783564177E+01  0.32671757966E+02  0.40659130449E+02  0.00000000000E+00 0. -1.
         11    1    3    3    0    0 -0.83551221089E+00 -0.29253060736E+01  0.19270568099E+01  0.36012559598E+01  0.51100000000E-03 0. -1.
        -11    1    3    3    0    0 -0.15692586938E+02 -0.43701167168E+01 -0.25459251432E+02  0.30224637114E+02  0.51100000000E-03 0.  1.
         12    1    3    3    0    0 -0.72170919752E+01  0.11973779208E+02 -0.91395633432E+01  0.16702976477E+02  0.00000000000E+00 0. -1.
</event>
<event>
 7    1  0.2639126E-011  0.5052885E+02  0.7816164E-02  0.1300439E+00
        -11   -1    0    0    0    0  0.00000000000E+00  0.00000000000E+00  0.45593999997E+02  0.45594000000E+02  0.51100000000E-03 0. -1.
         11   -1    0    0    0    0 -0.00000000000E+00 -0.00000000000E+00 -0.45593999997E+02  0.45594000000E+02  0.51100000000E-03 0.  1.
    9900012    2    1    2    0    0  0.35001263632E+01  0.15036357512E+02 -0.37614142089E+02  0.50528848301E+02  0.29999964896E+02 0.  0.
         12    1    1    2    0    0 -0.35001263632E+01 -0.15036357512E+02  0.37614142089E+02  0.40659151699E+02  0.00000000000E+00 0. -1.
         11    1    3    3    0    0  0.59024276439E+00 -0.20131322052E+01  0.17839146892E+01  0.27538045820E+01  0.51100000000E-03 0. -1.
        -11    1    3    3    0    0 -0.75410704836E+01  0.13005908886E+02 -0.16757108918E+02  0.22512709956E+02  0.51100000000E-03 0.  1.
         12    1    3    3    0    0  0.10450954082E+02  0.40435808311E+01 -0.22640947860E+02  0.25262333763E+02  0.00000000000E+00 0. -1.
</event>
<event>
 7    1  0.2639126E-011  0.5052885E+02  0.7816164E-02  0.1300439E+00
        -11   -1    0    0    0    0  0.00000000000E+00  0.00000000000E+00  0.45593999997E+02  0.45594000000E+02  0.51100000000E-03 0. -1.
         11   -1    0    0    0    0 -0.00000000000E+00 -0.00000000000E+00 -0.45593999997E+02  0.45594000000E+02  0.51100000000E-03 0.  1.
    9900012    2    1    2    0    0  0.27850969645E+02 -0.12364563644E+02 -0.26918530904E+02  0.50528852809E+02  0.29999978598E+02 0.  0.
         12    1    1    2    0    0 -0.27850969645E+02  0.12364563644E+02  0.26918530904E+02  0.40659147191E+02  0.00000000000E+00 0. -1.
         11    1    3    3    0    0  0.90006555578E+01  0.13032989552E+01 -0.20235800645E+02  0.22185536203E+02  0.51100000000E-03 0. -1.
        -11    1    3    3    0    0  0.35681154216E+01 -0.44589577490E+01 -0.86792928649E+01  0.10389604264E+02  0.51100000000E-03 0.  1.
         12    1    3    3    0    0  0.15282198666E+02 -0.92089048503E+01  0.19965626060E+01  0.17953712342E+02  0.00000000000E+00 0. -1.
</event>
<event>
 7    1  0.2639126E-011  0.5052886E+02  0.7816164E-02  0.1300439E+00
        -11   -1    0    0    0    0  0.00000000000E+00  0.00000000000E+00  0.45593999997E+02  0.45594000000E+02  0.51100000000E-03 0. -1.
         11   -1    0    0    0    0 -0.00000000000E+00 -0.00000000000E+00 -0.45593999997E+02  0.45594000000E+02  0.51100000000E-03 0.  1.
    9900012    2    1    2    0    0 -0.43803432973E+01 -0.39236196510E+02 -0.97210728740E+01  0.50528858570E+02  0.29999996110E+02 0.  0.
         12    1    1    2    0    0  0.43803432973E+01  0.39236196510E+02  0.97210728740E+01  0.40659141430E+02  0.00000000000E+00 0. -1.
         11    1    3    3    0    0  0.11456814897E+01 -0.72706110225E+00 -0.71475560909E+01  0.72752156158E+01  0.51100000000E-03 0. -1.
        -11    1    3    3    0    0  0.49210395476E+01 -0.99864938886E+01 -0.60649753716E+01  0.12677957917E+02  0.51100000000E-03 0.  1.
        -12    1    3    3    0    0 -0.10447064335E+02 -0.28522641519E+02  0.34914585884E+01  0.30575685038E+02  0.00000000000E+00 0.  1.
</event>
<event>
 7    1  0.2639126E-011  0.5052884E+02  0.7816164E-02  0.1300439E+00
        -11   -1    0    0    0    0  0.00000000000E+00  0.00000000000E+00  0.45593999997E+02  0.45594000000E+02  0.51100000000E-03 0. -1.
         11   -1    0    0    0    0 -0.00000000000E+00 -0.00000000000E+00 -0.45593999997E+02  0.45594000000E+02  0.51100000000E-03 0.  1.
    9900012    2    1    2    0    0  0.29356643712E+02 -0.21607284134E+02 -0.18013335600E+02  0.50528837230E+02  0.29999931245E+02 0.  0.
         12    1    1    2    0    0 -0.29356643712E+02  0.21607284134E+02  0.18013335600E+02  0.40659162770E+02  0.00000000000E+00 0. -1.
         11    1    3    3    0    0  0.69103220250E+01 -0.93418914377E+01 -0.32999556988E+01  0.12079453382E+02  0.51100000000E-03 0. -1.
        -11    1    3    3    0    0 -0.15993525480E+01 -0.11342147480E+02 -0.44416638936E+01  0.12285382226E+02  0.51100000000E-03 0.  1.
        -12    1    3    3    0    0  0.24045674235E+02 -0.92324521582E+00 -0.10271716008E+02  0.26164001623E+02  0.00000000000E+00 0.  1.
</event>
<event>
 7    1  0.2639126E-011  0.5052886E+02  0.7816164E-02  0.1300439E+00
        -11   -1    0    0    0    0  0.00000000000E+00  0.00000000000E+00  0.45593999997E+02  0.45594000000E+02  0.51100000000E-03 0. -1.
         11   -1    0    0    0    0 -0.00000000000E+00 -0.00000000000E+00 -0.45593999997E+02  0.45594000000E+02  0.51100000000E-03 0.  1.
    9900012    2    1    2    0    0  0.51096283844E+01  0.37208228433E+02 -0.15575788626E+02  0.50528858879E+02  0.29999997048E+02 0.  0.
         12    1    1    2    0    0 -0.51096283844E+01 -0.37208228433E+02  0.15575788626E+02  0.40659141121E+02  0.00000000000E+00 0. -1.
         11    1    3    3    0    0 -0.11424102907E+01  0.62046686186E+00  0.24850529085E+01  0.28045621081E+01  0.51100000000E-03 0. -1.
        -11    1    3    3    0    0 -0.86065666338E+01  0.79505060422E+01 -0.68340640918E+01  0.13564216447E+02  0.51100000000E-03 0.  1.
        -12    1    3    3    0    0  0.14858605309E+02  0.28637255529E+02 -0.11226777443E+02  0.34160080324E+02  0.00000000000E+00 0.  1.
</event>
<event>
 7    1  0.2639126E-011  0.5052885E+02  0.7816164E-02  0.1300439E+00
        -11   -1    0    0    0    0  0.00000000000E+00  0.00000000000E+00  0.45593999997E+02  0.45594000000E+02  0.51100000000E-03 0.  1.
         11   -1    0    0    0    0 -0.00000000000E+00 -0.00000000000E+00 -0.45593999997E+02  0.45594000000E+02  0.51100000000E-03 0. -1.
    9900012    2    1    2    0    0  0.13409093272E+02  0.20724007170E+02  0.32309103178E+02  0.50528850922E+02  0.29999972863E+02 0.  0.
         12    1    1    2    0    0 -0.13409093272E+02 -0.20724007170E+02 -0.32309103178E+02  0.40659149078E+02  0.00000000000E+00 0. -1.
         11    1    3    3    0    0  0.80185117438E+01  0.78520404889E+01  0.12539707321E+01  0.11292630928E+02  0.51100000000E-03 0. -1.
        -11    1    3    3    0    0  0.12657311194E+01 -0.30593838137E+01 -0.77785341650E+00  0.34010234908E+01  0.51100000000E-03 0.  1.
        -12    1    3    3    0    0  0.41248504083E+01  0.15931350495E+02  0.31832985862E+02  0.35835196503E+02  0.00000000000E+00 0.  1.
</event>
<event>
 7    1  0.2639126E-011  0.5052885E+02  0.7816164E-02  0.1300439E+00
        -11   -1    0    0    0    0  0.00000000000E+00  0.00000000000E+00  0.45593999997E+02  0.45594000000E+02  0.51100000000E-03 0. -1.
         11   -1    0    0    0    0 -0.00000000000E+00 -0.00000000000E+00 -0.45593999997E+02  0.45594000000E+02  0.51100000000E-03 0.  1.
    9900012    2    1    2    0    0 -0.36547233334E+02  0.11185009649E+02 -0.13869465479E+02  0.50528846321E+02  0.29999958878E+02 0.  0.
         12    1    1    2    0    0  0.36547233334E+02 -0.11185009649E+02  0.13869465479E+02  0.40659153679E+02  0.00000000000E+00 0. -1.
         11    1    3    3    0    0 -0.23429035798E+02  0.10041666400E+01 -0.74898945604E+01  0.24617607314E+02  0.51100000000E-03 0. -1.
        -11    1    3    3    0    0 -0.13839684485E+02  0.12296012606E+02 -0.10456561322E+02  0.21261901787E+02  0.51100000000E-03 0.  1.
         12    1    3    3    0    0  0.72148694930E+00 -0.21151695969E+01  0.40769904037E+01  0.46493372208E+01  0.00000000000E+00 0. -1.
</event>
<event>
 7    1  0.2639126E-011  0.5052885E+02  0.7816164E-02  0.1300439E+00
        -11   -1    0    0    0    0  0.00000000000E+00  0.00000000000E+00  0.45593999997E+02  0.45594000000E+02  0.51100000000E-03 0. -1.
         11   -1    0    0    0    0 -0.00000000000E+00 -0.00000000000E+00 -0.45593999997E+02  0.45594000000E+02  0.51100000000E-03 0.  1.
    9900012    2    1    2    0    0  0.94254692300E+01  0.29638531617E+02 -0.26189393413E+02  0.50528851534E+02  0.29999974723E+02 0.  0.
         12    1    1    2    0    0 -0.94254692300E+01 -0.29638531617E+02  0.26189393413E+02  0.40659148466E+02  0.00000000000E+00 0. -1.
         11    1    3    3    0    0 -0.11314980577E+01  0.42047834814E+01 -0.19160354730E+02  0.19648910545E+02  0.51100000000E-03 0. -1.
        -11    1    3    3    0    0  0.38952895449E+00  0.13155364335E+02 -0.70665779099E+01  0.14938268548E+02  0.51100000000E-03 0.  1.
         12    1    3    3    0    0  0.10167438333E+02  0.12278383801E+02  0.37539227078E-01  0.15941672441E+02  0.00000000000E+00 0. -1.
</event>
<event>
 7    1  0.2639126E-011  0.5052883E+02  0.7816164E-02  0.1300439E+00
        -11   -1    0    0    0    0  0.00000000000E+00  0.00000000000E+00  0.45593999997E+02  0.45594000000E+02  0.51100000000E-03 0. -1.
         11   -1    0    0    0    0 -0.00000000000E+00 -0.00000000000E+00 -0.45593999997E+02  0.45594000000E+02  0.51100000000E-03 0.  1.
    9900012    2    1    2    0    0  0.12444999607E+02  0.20482247116E+02 -0.32844593954E+02  0.50528833578E+02  0.29999920143E+02 0.  0.
         12    1    1    2    0    0 -0.12444999607E+02 -0.20482247116E+02  0.32844593954E+02  0.40659166422E+02  0.00000000000E+00 0. -1.
         11    1    3    3    0    0  0.39033867215E+01  0.19792473375E+02 -0.11713858704E+02  0.23327942819E+02  0.51100000000E-03 0. -1.
        -11    1    3    3    0    0  0.48701864921E+01  0.76239667866E+01 -0.90540255930E+01  0.12799178322E+02  0.51100000000E-03 0.  1.
         12    1    3    3    0    0  0.36714263930E+01 -0.69341930449E+01 -0.12076709658E+02  0.14401712436E+02  0.00000000000E+00 0. -1.
</event>
<event>
 7    1  0.2639126E-011  0.5052882E+02  0.7816164E-02  0.1300439E+00
        -11   -1    0    0    0    0  0.00000000000E+00  0.00000000000E+00  0.45593999997E+02  0.45594000000E+02  0.51100000000E-03 0.  1.
         11   -1    0    0    0    0 -0.00000000000E+00 -0.00000000000E+00 -0.45593999997E+02  0.45594000000E+02  0.51100000000E-03 0. -1.
    9900012    2    1    2    0    0  0.37431674991E+02 -0.14684782912E+02  0.60328601429E+01  0.50528824611E+02  0.29999892887E+02 0.  0.
         12    1    1    2    0    0 -0.37431674991E+02  0.14684782912E+02 -0.60328601429E+01  0.40659175389E+02  0.00000000000E+00 0. -1.
         11    1    3    3    0    0  0.18392146850E+02 -0.12554799073E+02 -0.34016390587E+01  0.22526988127E+02  0.51100000000E-03 0. -1.
        -11    1    3    3    0    0  0.16728347013E+02 -0.76966637690E+01  0.21379186010E+01  0.18537716234E+02  0.51100000000E-03 0.  1.
        -12    1    3    3    0    0  0.23111811282E+01  0.55666799303E+01  0.72965806005E+01  0.94641202504E+01  0.00000000000E+00 0.  1.
</event>
<event>
 7    1  0.2639126E-011  0.5052885E+02  0.7816164E-02  0.1300439E+00
        -11   -1    0    0    0    0  0.00000000000E+00  0.00000000000E+00  0.45593999997E+02  0.45594000000E+02  0.51100000000E-03 0.  1.
         11   -1    0    0    0    0 -0.00000000000E+00 -0.00000000000E+00 -0.45593999997E+02  0.45594000000E+02  0.51100000000E-03 0. -1.
    9900012    2    1    2    0    0  0.28129252869E+02 -0.25091260755E+01  0.29250908806E+02  0.50528852854E+02  0.29999978736E+02 0.  0.
         12    1    1    2    0    0 -0.28129252869E+02  0.25091260755E+01 -0.29250908806E+02  0.40659147146E+02  0.00000000000E+00 0. -1.
         11    1    3    3    0    0 -0.93605958993E+00 -0.25786145362E+00  0.29759905355E+01  0.31303705872E+01  0.51100000000E-03 0. -1.
        -11    1    3    3    0    0 -0.11797776261E+01 -0.26773036861E+01 -0.37650261702E+01  0.47681498086E+01  0.51100000000E-03 0.  1.
        -12    1    3    3    0    0  0.30245090085E+02  0.42603906418E+00  0.30039944441E+02  0.42630332459E+02  0.00000000000E+00 0.  1.
</event>
<event>
 7    1  0.2639126E-011  0.5052887E+02  0.7816164E-02  0.1300439E+00
        -11   -1    0    0    0    0  0.00000000000E+00  0.00000000000E+00  0.45593999997E+02  0.45594000000E+02  0.51100000000E-03 0.  1.
         11   -1    0    0    0    0 -0.00000000000E+00 -0.00000000000E+00 -0.45593999997E+02  0.45594000000E+02  0.51100000000E-03 0. -1.
    9900012    2    1    2    0    0 -0.27343975528E+02  0.21533788292E+02  0.21018279193E+02  0.50528867003E+02  0.30000021742E+02 0.  0.
         12    1    1    2    0    0  0.27343975528E+02 -0.21533788292E+02 -0.21018279193E+02  0.40659132997E+02  0.00000000000E+00 0. -1.
         11    1    3    3    0    0 -0.11502060288E+02  0.78614811919E+01 -0.23100951164E+01  0.14122210065E+02  0.51100000000E-03 0. -1.
        -11    1    3    3    0    0 -0.13398644781E+02  0.30157434891E+01  0.41782178318E+01  0.14355343788E+02  0.51100000000E-03 0.  1.
        -12    1    3    3    0    0 -0.24432704580E+01  0.10656563611E+02  0.19150156477E+02  0.22051313150E+02  0.00000000000E+00 0.  1.
</event>
<event>
 7    1  0.2639126E-011  0.5052886E+02  0.7816164E-02  0.1300439E+00
        -11   -1    0    0    0    0  0.00000000000E+00  0.00000000000E+00  0.45593999997E+02  0.45594000000E+02  0.51100000000E-03 0.  1.
         11   -1    0    0    0    0 -0.00000000000E+00 -0.00000000000E+00 -0.45593999997E+02  0.45594000000E+02  0.51100000000E-03 0. -1.
    9900012    2    1    2    0    0  0.14902765783E+02 -0.31448065041E+02  0.21025995767E+02  0.50528859320E+02  0.29999998390E+02 0.  0.
         12    1    1    2    0    0 -0.14902765783E+02  0.31448065041E+02 -0.21025995767E+02  0.40659140680E+02  0.00000000000E+00 0. -1.
         11    1    3    3    0    0  0.19260828447E+02 -0.13150320781E+02  0.90689530657E+01  0.25023116494E+02  0.51100000000E-03 0. -1.
        -11    1    3    3    0    0  0.29499859814E+01 -0.11751547643E+02  0.36608938821E+01  0.12657149504E+02  0.51100000000E-03 0.  1.
         12    1    3    3    0    0 -0.73080486445E+01 -0.65461966170E+01  0.82961488196E+01  0.12848593323E+02  0.00000000000E+00 0. -1.
</event>
<event>
 7    1  0.2639126E-011  0.5052886E+02  0.7816164E-02  0.1300439E+00
        -11   -1    0    0    0    0  0.00000000000E+00  0.00000000000E+00  0.45593999997E+02  0.45594000000E+02  0.51100000000E-03 0.  1.
         11   -1    0    0    0    0 -0.00000000000E+00 -0.00000000000E+00 -0.45593999997E+02  0.45594000000E+02  0.51100000000E-03 0. -1.
    9900012    2    1    2    0    0  0.28590285544E+02  0.28811523095E+02  0.23785737379E+01  0.50528857073E+02  0.29999991559E+02 0.  0.
         12    1    1    2    0    0 -0.28590285544E+02 -0.28811523095E+02 -0.23785737379E+01  0.40659142927E+02  0.00000000000E+00 0. -1.
         11    1    3    3    0    0  0.41344191503E+01  0.15269385391E+02  0.11556694482E+02  0.19590935137E+02  0.51100000000E-03 0. -1.
        -11    1    3    3    0    0  0.12991838258E+02  0.11926529969E+02 -0.77822745950E+01  0.19276767793E+02  0.51100000000E-03 0.  1.
        -12    1    3    3    0    0  0.11464028136E+02  0.16156077347E+01 -0.13958461496E+01  0.11661154142E+02  0.00000000000E+00 0.  1.
</event>
<event>
 7    1  0.2639126E-011  0.5052885E+02  0.7816164E-02  0.1300439E+00
        -11   -1    0    0    0    0  0.00000000000E+00  0.00000000000E+00  0.45593999997E+02  0.45594000000E+02  0.51100000000E-03 0.  1.
         11   -1    0    0    0    0 -0.00000000000E+00 -0.00000000000E+00 -0.45593999997E+02  0.45594000000E+02  0.51100000000E-03 0. -1.
    9900012    2    1    2    0    0 -0.25989969991E+02  0.21600120505E+02  0.22608023494E+02  0.50528850080E+02  0.29999970303E+02 0.  0.
         12    1    1    2    0    0  0.25989969991E+02 -0.21600120505E+02 -0.22608023494E+02  0.40659149920E+02  0.00000000000E+00 0. -1.
         11    1    3    3    0    0  0.43332532672E+01 -0.11909088610E+01  0.81515994399E-02  0.44939308520E+01  0.51100000000E-03 0. -1.
        -11    1    3    3    0    0  0.64897920325E+00  0.23075374493E+01 -0.28894170106E+00  0.24144131076E+01  0.51100000000E-03 0.  1.
        -12    1    3    3    0    0 -0.30972202461E+02  0.20483491916E+02  0.22888813596E+02  0.43620506120E+02  0.00000000000E+00 0.  1.
</event>
<event>
 7    1  0.2639126E-011  0.5052886E+02  0.7816164E-02  0.1300439E+00
        -11   -1    0    0    0    0  0.00000000000E+00  0.00000000000E+00  0.45593999997E+02  0.45594000000E+02  0.51100000000E-03 0.  1.
         11   -1    0    0    0    0 -0.00000000000E+00 -0.00000000000E+00 -0.45593999997E+02  0.45594000000E+02  0.51100000000E-03 0. -1.
    9900012    2    1    2    0    0  0.14192050058E+02 -0.35063264085E+02  0.14910367495E+02  0.50528857953E+02  0.29999994233E+02 0.  0.
         12    1    1    2    0    0 -0.14192050058E+02  0.35063264085E+02 -0.14910367495E+02  0.40659142047E+02  0.00000000000E+00 0. -1.
         11    1    3    3    0    0  0.57285602985E+01 -0.89271538407E+01  0.15600150664E+02  0.18864654245E+02  0.51100000000E-03 0. -1.
        -11    1    3    3    0    0  0.10661750256E+01  0.12600250365E+01  0.26179275185E+01  0.30948242327E+01  0.51100000000E-03 0.  1.
         12    1    3    3    0    0  0.73973147344E+01 -0.27396135281E+02 -0.33077106871E+01  0.28569379475E+02  0.00000000000E+00 0. -1.
</event>
<event>
 7    1  0.2639126E-011  0.5052886E+02  0.7816164E-02  0.1300439E+00
        -11   -1    0    0    0    0  0.00000000000E+00  0.00000000000E+00  0.45593999997E+02  0.45594000000E+02  0.51100000000E-03 0.  1.
         11   -1    0    0    0    0 -0.00000000000E+00 -0.00000000000E+00 -0.45593999997E+02  0.45594000000E+02  0.51100000000E-03 0. -1.
    9900012    2    1    2    0    0 -0.28772659537E+02 -0.24490854526E+02 -0.15016590221E+02  0.50528857435E+02  0.29999992661E+02 0.  0.
         12    1    1    2    0    0  0.28772659537E+02  0.24490854526E+02  0.15016590221E+02  0.40659142565E+02  0.00000000000E+00 0. -1.
         11    1    3    3    0    0 -0.14575032383E+02 -0.52926016804E+01 -0.59928612756E+01  0.16624006377E+02  0.51100000000E-03 0. -1.
        -11    1    3    3    0    0 -0.85933711139E+01 -0.26023879583E+01 -0.13136599856E+02  0.15911904544E+02  0.51100000000E-03 0.  1.
        -12    1    3    3    0    0 -0.56042560399E+01 -0.16595864887E+02  0.41128709108E+01  0.17992946514E+02  0.00000000000E+00 0.  1.
</event>
<event>
 7    1  0.3052642E-011  0.5052886E+02  0.7816164E-02  0.1300439E+00
        -11   -1    0    0    0    0  0.00000000000E+00  0.00000000000E+00  0.45593999997E+02  0.45594000000E+02  0.51100000000E-03 0.  1.
         11   -1    0    0    0    0 -0.00000000000E+00 -0.00000000000E+00 -0.45593999997E+02  0.45594000000E+02  0.51100000000E-03 0. -1.
    9900012    2    1    2    0    0  0.36373313377E+02  0.93128953935E+01 -0.15601862724E+02  0.50528855062E+02  0.29999985446E+02 0.  0.
         12    1    1    2    0    0 -0.36373313377E+02 -0.93128953935E+01  0.15601862724E+02  0.40659144938E+02  0.00000000000E+00 0. -1.
         11    1    3    3    0    0 -0.17196387229E+01 -0.15423966920E+01  0.23470894169E+01  0.32931707950E+01  0.51100000000E-03 0. -1.
        -11    1    3    3    0    0  0.21892695261E+02 -0.33435746309E+01 -0.87747833561E+01  0.23821553692E+02  0.51100000000E-03 0.  1.
        -12    1    3    3    0    0  0.16200256839E+02  0.14198866716E+02 -0.91741687844E+01  0.23414130575E+02  0.00000000000E+00 0.  1.
</event>
<event>
 7    1  0.2639126E-011  0.5052887E+02  0.7816164E-02  0.1300439E+00
        -11   -1    0    0    0    0  0.00000000000E+00  0.00000000000E+00  0.45593999997E+02  0.45594000000E+02  0.51100000000E-03 0.  1.
         11   -1    0    0    0    0 -0.00000000000E+00 -0.00000000000E+00 -0.45593999997E+02  0.45594000000E+02  0.51100000000E-03 0. -1.
    9900012    2    1    2    0    0  0.30851299214E+02  0.48399547726E+01  0.26037216072E+02  0.50528874994E+02  0.30000046033E+02 0.  0.
         12    1    1    2    0    0 -0.30851299214E+02 -0.48399547726E+01 -0.26037216072E+02  0.40659125006E+02  0.00000000000E+00 0. -1.
         11    1    3    3    0    0  0.24363714582E+02  0.97152173752E+00  0.99747410261E+01  0.26344447261E+02  0.51100000000E-03 0. -1.
        -11    1    3    3    0    0  0.81953644530E+01  0.29896131360E+00  0.59895628233E+00  0.82226592580E+01  0.51100000000E-03 0.  1.
        -12    1    3    3    0    0 -0.17077798204E+01  0.35694717215E+01  0.15463518764E+02  0.15961768475E+02  0.00000000000E+00 0.  1.
</event>
<event>
 7    1  0.2639126E-011  0.5052886E+02  0.7816164E-02  0.1300439E+00
        -11   -1    0    0    0    0  0.00000000000E+00  0.00000000000E+00  0.45593999997E+02  0.45594000000E+02  0.51100000000E-03 0. -1.
         11   -1    0    0    0    0 -0.00000000000E+00 -0.00000000000E+00 -0.45593999997E+02  0.45594000000E+02  0.51100000000E-03 0.  1.
    9900012    2    1    2    0    0  0.98465045065E+00 -0.36197558696E+02 -0.18491421991E+02  0.50528862290E+02  0.30000007417E+02 0.  0.
         12    1    1    2    0    0 -0.98465045065E+00  0.36197558696E+02  0.18491421991E+02  0.40659137710E+02  0.00000000000E+00 0. -1.
         11    1    3    3    0    0 -0.24198920374E+01 -0.42739586657E+01  0.38454859643E+01  0.62378171432E+01  0.51100000000E-03 0. -1.
        -11    1    3    3    0    0 -0.49861551481E+01 -0.15214348060E+02 -0.11770203959E+01  0.16053769256E+02  0.51100000000E-03 0.  1.
         12    1    3    3    0    0  0.83906976361E+01 -0.16709251970E+02 -0.21159887559E+02  0.28237275891E+02  0.00000000000E+00 0. -1.
</event>
<event>
 7    1  0.2639126E-011  0.5052886E+02  0.7816164E-02  0.1300439E+00
        -11   -1    0    0    0    0  0.00000000000E+00  0.00000000000E+00  0.45593999997E+02  0.45594000000E+02  0.51100000000E-03 0.  1.
         11   -1    0    0    0    0 -0.00000000000E+00 -0.00000000000E+00 -0.45593999997E+02  0.45594000000E+02  0.51100000000E-03 0. -1.
    9900012    2    1    2    0    0 -0.61825950177E+00 -0.12242177066E+02  0.38767418143E+02  0.50528857687E+02  0.29999993426E+02 0.  0.
         12    1    1    2    0    0  0.61825950177E+00  0.12242177066E+02 -0.38767418143E+02  0.40659142313E+02  0.00000000000E+00 0. -1.
         11    1    3    3    0    0 -0.29066276531E+01  0.23888187196E+01  0.60579575654E+01  0.71311842855E+01  0.51100000000E-03 0. -1.
        -11    1    3    3    0    0  0.66274095220E+01  0.34098522809E+00  0.25267228430E+02  0.26124158565E+02  0.51100000000E-03 0.  1.
         12    1    3    3    0    0 -0.43390413707E+01 -0.14971981013E+02  0.74422321478E+01  0.17273514837E+02  0.00000000000E+00 0. -1.
</event>
<event>
 7    1  0.2639126E-011  0.5052887E+02  0.7816164E-02  0.1300439E+00
        -11   -1    0    0    0    0  0.00000000000E+00  0.00000000000E+00  0.45593999997E+02  0.45594000000E+02  0.51100000000E-03 0.  1.
         11   -1    0    0    0    0 -0.00000000000E+00 -0.00000000000E+00 -0.45593999997E+02  0.45594000000E+02  0.51100000000E-03 0. -1.
    9900012    2    1    2    0    0  0.80149962330E+00  0.13415982608E+02  0.38373604434E+02  0.50528874232E+02  0.30000043715E+02 0.  0.
         12    1    1    2    0    0 -0.80149962330E+00 -0.13415982608E+02 -0.38373604434E+02  0.40659125768E+02  0.00000000000E+00 0. -1.
         11    1    3    3    0    0 -0.77068582423E+00 -0.65960007921E+01  0.23462485589E+02  0.24384204178E+02  0.51100000000E-03 0. -1.
        -11    1    3    3    0    0  0.23253055387E+01  0.24872759495E+01  0.48415658198E+01  0.59189819518E+01  0.51100000000E-03 0.  1.
         12    1    3    3    0    0 -0.75312009117E+00  0.17524707451E+02  0.10069553025E+02  0.20225688103E+02  0.00000000000E+00 0. -1.
</event>
<event>
 7    1  0.2639126E-011  0.5052887E+02  0.7816164E-02  0.1300439E+00
        -11   -1    0    0    0    0  0.00000000000E+00  0.00000000000E+00  0.45593999997E+02  0.45594000000E+02  0.51100000000E-03 0.  1.
         11   -1    0    0    0    0 -0.00000000000E+00 -0.00000000000E+00 -0.45593999997E+02  0.45594000000E+02  0.51100000000E-03 0. -1.
    9900012    2    1    2    0    0 -0.13948795008E+02 -0.36224333143E+02 -0.12099332156E+02  0.50528867785E+02  0.30000024120E+02 0.  0.
         12    1    1    2    0    0  0.13948795008E+02  0.36224333143E+02  0.12099332156E+02  0.40659132215E+02  0.00000000000E+00 0. -1.
         11    1    3    3    0    0 -0.30981269287E+01 -0.12700526862E+02  0.68001049792E+01  0.14735779621E+02  0.51100000000E-03 0. -1.
        -11    1    3    3    0    0  0.11055497310E+01 -0.20783795704E+01  0.23465481390E+01  0.33238818084E+01  0.51100000000E-03 0.  1.
         12    1    3    3    0    0 -0.11956217811E+02 -0.21445426710E+02 -0.21245985274E+02  0.32469206356E+02  0.00000000000E+00 0. -1.
</event>
<event>
 7    1  0.2639126E-011  0.5052886E+02  0.7816164E-02  0.1300439E+00
        -11   -1    0    0    0    0  0.00000000000E+00  0.00000000000E+00  0.45593999997E+02  0.45594000000E+02  0.51100000000E-03 0.  1.
         11   -1    0    0    0    0 -0.00000000000E+00 -0.00000000000E+00 -0.45593999997E+02  0.45594000000E+02  0.51100000000E-03 0. -1.
    9900012    2    1    2    0    0  0.37654751327E+02  0.14823923030E+02  0.39416144971E+01  0.50528864294E+02  0.30000013508E+02 0.  0.
         12    1    1    2    0    0 -0.37654751327E+02 -0.14823923030E+02 -0.39416144971E+01  0.40659135706E+02  0.00000000000E+00 0. -1.
         11    1    3    3    0    0  0.23041308371E+01  0.20823831396E+01 -0.14072257794E+01  0.34096368003E+01  0.51100000000E-03 0. -1.
        -11    1    3    3    0    0  0.36186356315E+02  0.18734935569E+02  0.42603998219E+01  0.40970735910E+02  0.51100000000E-03 0.  1.
         12    1    3    3    0    0 -0.83573582489E+00 -0.59933956783E+01  0.10884404546E+01  0.61484915832E+01  0.00000000000E+00 0. -1.
</event>
<event>
 7    1  0.2639126E-011  0.5052886E+02  0.7816164E-02  0.1300439E+00
        -11   -1    0    0    0    0  0.00000000000E+00  0.00000000000E+00  0.45593999997E+02  0.45594000000E+02  0.51100000000E-03 0. -1.
         11   -1    0    0    0    0 -0.00000000000E+00 -0.00000000000E+00 -0.45593999997E+02  0.45594000000E+02  0.51100000000E-03 0.  1.
    9900012    2    1    2    0    0 -0.79038788476E+01 -0.39711735614E+02  0.36976006421E+01  0.50528862075E+02  0.30000006763E+02 0.  0.
         12    1    1    2    0    0  0.79038788476E+01  0.39711735614E+02 -0.36976006421E+01  0.40659137925E+02  0.00000000000E+00 0. -1.
         11    1    3    3    0    0 -0.62658927116E+01 -0.90733681752E+01  0.45021920101E+01  0.11910380123E+02  0.51100000000E-03 0. -1.
        -11    1    3    3    0    0  0.51292049785E+01 -0.90306749974E+01  0.91902553201E+01  0.13868043399E+02  0.51100000000E-03 0.  1.
        -12    1    3    3    0    0 -0.67671911145E+01 -0.21607692441E+02 -0.99948466881E+01  0.24750438552E+02  0.00000000000E+00 0.  1.
</event>
<event>
 7    1  0.2639126E-011  0.5052887E+02  0.7816164E-02  0.1300439E+00
        -11   -1    0    0    0    0  0.00000000000E+00  0.00000000000E+00  0.45593999997E+02  0.45594000000E+02  0.51100000000E-03 0.  1.
         11   -1    0    0    0    0 -0.00000000000E+00 -0.00000000000E+00 -0.45593999997E+02  0.45594000000E+02  0.51100000000E-03 0. -1.
    9900012    2    1    2    0    0  0.24052225850E+02 -0.33480191056E+01  0.32610520546E+02  0.50528870022E+02  0.30000030919E+02 0.  0.
         12    1    1    2    0    0 -0.24052225850E+02  0.33480191056E+01 -0.32610520546E+02  0.40659129978E+02  0.00000000000E+00 0. -1.
         11    1    3    3    0    0  0.13960738808E+02 -0.27011757203E+01  0.29176482199E+01  0.14515896449E+02  0.51100000000E-03 0. -1.
        -11    1    3    3    0    0  0.13445040539E+02  0.41240918047E+01  0.17135890439E+02  0.22167904495E+02  0.51100000000E-03 0.  1.
         12    1    3    3    0    0 -0.33535534970E+01 -0.47709351900E+01  0.12556981887E+02  0.13845069078E+02  0.00000000000E+00 0. -1.
</event>
<event>
 7    1  0.2639126E-011  0.5052885E+02  0.7816164E-02  0.1300439E+00
        -11   -1    0    0    0    0  0.00000000000E+00  0.00000000000E+00  0.45593999997E+02  0.45594000000E+02  0.51100000000E-03 0.  1.
         11   -1    0    0    0    0 -0.00000000000E+00 -0.00000000000E+00 -0.45593999997E+02  0.45594000000E+02  0.51100000000E-03 0. -1.
    9900012    2    1    2    0    0 -0.16573842646E+01  0.89707151516E+01  0.39622542152E+02  0.50528849744E+02  0.29999969281E+02 0.  0.
         12    1    1    2    0    0  0.16573842646E+01 -0.89707151516E+01 -0.39622542152E+02  0.40659150256E+02  0.00000000000E+00 0. -1.
         11    1    3    3    0    0 -0.40038617952E+01  0.18414434832E+01 -0.28097041437E+01  0.52264960550E+01  0.51100000000E-03 0. -1.
        -11    1    3    3    0    0  0.58710465338E+01  0.79854587887E+01  0.17535185073E+02  0.20142478876E+02  0.51100000000E-03 0.  1.
        -12    1    3    3    0    0 -0.35245690033E+01 -0.85618712027E+00  0.24897061224E+02  0.25159874813E+02  0.00000000000E+00 0.  1.
</event>
<event>
 7    1  0.2639126E-011  0.5052886E+02  0.7816164E-02  0.1300439E+00
        -11   -1    0    0    0    0  0.00000000000E+00  0.00000000000E+00  0.45593999997E+02  0.45594000000E+02  0.51100000000E-03 0.  1.
         11   -1    0    0    0    0 -0.00000000000E+00 -0.00000000000E+00 -0.45593999997E+02  0.45594000000E+02  0.51100000000E-03 0. -1.
    9900012    2    1    2    0    0 -0.22309913655E+02  0.32513157774E+02 -0.99160578947E+01  0.50528857364E+02  0.29999992444E+02 0.  0.
         12    1    1    2    0    0  0.22309913655E+02 -0.32513157774E+02  0.99160578947E+01  0.40659142636E+02  0.00000000000E+00 0. -1.
         11    1    3    3    0    0 -0.57643491815E+01 -0.28279588482E+01  0.32767595142E+01  0.72084829131E+01  0.51100000000E-03 0. -1.
        -11    1    3    3    0    0  0.55928786007E+00 -0.95535254984E+00 -0.91806011749E-01  0.11108240229E+01  0.51100000000E-03 0.  1.
        -12    1    3    3    0    0 -0.17104852334E+02  0.36296469172E+02 -0.13101011397E+02  0.42209550428E+02  0.00000000000E+00 0.  1.
</event>
<event>
 7    1  0.2639126E-011  0.5052886E+02  0.7816164E-02  0.1300439E+00
        -11   -1    0    0    0    0  0.00000000000E+00  0.00000000000E+00  0.45593999997E+02  0.45594000000E+02  0.51100000000E-03 0.  1.
         11   -1    0    0    0    0 -0.00000000000E+00 -0.00000000000E+00 -0.45593999997E+02  0.45594000000E+02  0.51100000000E-03 0. -1.
    9900012    2    1    2    0    0  0.25963538278E+02 -0.27284022810E+02  0.15318049897E+02  0.50528857445E+02  0.29999992691E+02 0.  0.
         12    1    1    2    0    0 -0.25963538278E+02  0.27284022810E+02 -0.15318049897E+02  0.40659142555E+02  0.00000000000E+00 0. -1.
         11    1    3    3    0    0  0.31354599524E+01 -0.11270051380E+02 -0.35235728631E+01  0.12217230996E+02  0.51100000000E-03 0. -1.
        -11    1    3    3    0    0  0.97952896890E+01 -0.15140706534E+02  0.38712191482E+01  0.18443834536E+02  0.51100000000E-03 0.  1.
         12    1    3    3    0    0  0.13032788636E+02 -0.87326489688E+00  0.14970403612E+02  0.19867791914E+02  0.00000000000E+00 0. -1.
</event>
<event>
 7    1  0.2639126E-011  0.5052885E+02  0.7816164E-02  0.1300439E+00
        -11   -1    0    0    0    0  0.00000000000E+00  0.00000000000E+00  0.45593999997E+02  0.45594000000E+02  0.51100000000E-03 0.  1.
         11   -1    0    0    0    0 -0.00000000000E+00 -0.00000000000E+00 -0.45593999997E+02  0.45594000000E+02  0.51100000000E-03 0. -1.
    9900012    2    1    2    0    0 -0.13498815442E+02  0.27576834496E+02  0.26654575638E+02  0.50528853162E+02  0.29999979671E+02 0.  0.
         12    1    1    2    0    0  0.13498815442E+02 -0.27576834496E+02 -0.26654575638E+02  0.40659146838E+02  0.00000000000E+00 0. -1.
         11    1    3    3    0    0 -0.34496367880E+01  0.60886477006E+01  0.58452716142E+01  0.91180494239E+01  0.51100000000E-03 0. -1.
        -11    1    3    3    0    0 -0.11494197688E+02  0.26712312773E+02  0.21183151527E+02  0.35977633928E+02  0.51100000000E-03 0.  1.
         12    1    3    3    0    0  0.14450190344E+01 -0.52241259770E+01 -0.37384750360E+00  0.54331698104E+01  0.00000000000E+00 0. -1.
</event>
<event>
 7    1  0.2639126E-011  0.5052886E+02  0.7816164E-02  0.1300439E+00
        -11   -1    0    0    0    0  0.00000000000E+00  0.00000000000E+00  0.45593999997E+02  0.45594000000E+02  0.51100000000E-03 0. -1.
         11   -1    0    0    0    0 -0.00000000000E+00 -0.00000000000E+00 -0.45593999997E+02  0.45594000000E+02  0.51100000000E-03 0.  1.
    9900012    2    1    2    0    0  0.36306193473E+02 -0.17884555830E+02 -0.38946701638E+01  0.50528862314E+02  0.30000007489E+02 0.  0.
         12    1    1    2    0    0 -0.36306193473E+02  0.17884555830E+02  0.38946701638E+01  0.40659137686E+02  0.00000000000E+00 0. -1.
         11    1    3    3    0    0  0.22716959459E+02 -0.12496874059E+02 -0.91842623576E+00  0.25943700879E+02  0.51100000000E-03 0. -1.
        -11    1    3    3    0    0  0.18563135058E+02 -0.53931764911E+01 -0.32577505623E+01  0.19603297550E+02  0.51100000000E-03 0.  1.
         12    1    3    3    0    0 -0.49739010437E+01  0.54947199974E-02  0.28150663427E+00  0.49818638851E+01  0.00000000000E+00 0. -1.
</event>
<event>
 7    1  0.2639126E-011  0.5052885E+02  0.7816164E-02  0.1300439E+00
        -11   -1    0    0    0    0  0.00000000000E+00  0.00000000000E+00  0.45593999997E+02  0.45594000000E+02  0.51100000000E-03 0.  1.
         11   -1    0    0    0    0 -0.00000000000E+00 -0.00000000000E+00 -0.45593999997E+02  0.45594000000E+02  0.51100000000E-03 0. -1.
    9900012    2    1    2    0    0 -0.14029937292E+02  0.27738424566E+02  0.26208906661E+02  0.50528854335E+02  0.29999983237E+02 0.  0.
         12    1    1    2    0    0  0.14029937292E+02 -0.27738424566E+02 -0.26208906661E+02  0.40659145665E+02  0.00000000000E+00 0. -1.
         11    1    3    3    0    0 -0.16177998058E+02  0.15161770852E+02  0.25609394093E+02  0.33874001574E+02  0.51100000000E-03 0. -1.
        -11    1    3    3    0    0 -0.34820920606E+01  0.21720012322E+01 -0.19644812759E+01  0.45499166383E+01  0.51100000000E-03 0.  1.
        -12    1    3    3    0    0  0.56301528267E+01  0.10404652481E+02  0.25639938443E+01  0.12104936123E+02  0.00000000000E+00 0.  1.
</event>
<event>
 7    1  0.2639126E-011  0.5052887E+02  0.7816164E-02  0.1300439E+00
        -11   -1    0    0    0    0  0.00000000000E+00  0.00000000000E+00  0.45593999997E+02  0.45594000000E+02  0.51100000000E-03 0.  1.
         11   -1    0    0    0    0 -0.00000000000E+00 -0.00000000000E+00 -0.45593999997E+02  0.45594000000E+02  0.51100000000E-03 0. -1.
    9900012    2    1    2    0    0 -0.34751022660E+02  0.20983791424E+02 -0.22829317459E+01  0.50528869958E+02  0.30000030724E+02 0.  0.
         12    1    1    2    0    0  0.34751022660E+02 -0.20983791424E+02  0.22829317459E+01  0.40659130042E+02  0.00000000000E+00 0. -1.
         11    1    3    3    0    0 -0.24120174983E+02  0.19046452265E+01 -0.59754431946E+00  0.24202635686E+02  0.51100000000E-03 0. -1.
        -11    1    3    3    0    0 -0.83115689370E+01  0.14105881407E+01 -0.10411390455E+01  0.84944633657E+01  0.51100000000E-03 0.  1.
         12    1    3    3    0    0 -0.23192787394E+01  0.17668558057E+02 -0.64424838092E+00  0.17831770906E+02  0.00000000000E+00 0. -1.
</event>
<event>
 7    1  0.2639126E-011  0.5052886E+02  0.7816164E-02  0.1300439E+00
        -11   -1    0    0    0    0  0.00000000000E+00  0.00000000000E+00  0.45593999997E+02  0.45594000000E+02  0.51100000000E-03 0.  1.
         11   -1    0    0    0    0 -0.00000000000E+00 -0.00000000000E+00 -0.45593999997E+02  0.45594000000E+02  0.51100000000E-03 0. -1.
    9900012    2    1    2    0    0 -0.10000796288E+01  0.13521113548E+02  0.38332041324E+02  0.50528855113E+02  0.29999985602E+02 0.  0.
         12    1    1    2    0    0  0.10000796288E+01 -0.13521113548E+02 -0.38332041324E+02  0.40659144887E+02  0.00000000000E+00 0. -1.
         11    1    3    3    0    0 -0.97627831813E+01  0.15656912591E+02  0.17395847454E+02  0.25358753050E+02  0.51100000000E-03 0. -1.
        -11    1    3    3    0    0 -0.16333892732E+01 -0.31148427274E+01  0.57471391593E+01  0.67379384467E+01  0.51100000000E-03 0.  1.
        -12    1    3    3    0    0  0.10396092826E+02  0.97904368422E+00  0.15189054711E+02  0.18432163616E+02  0.00000000000E+00 0.  1.
</event>
<event>
 7    1  0.2639126E-011  0.5052886E+02  0.7816164E-02  0.1300439E+00
        -11   -1    0    0    0    0  0.00000000000E+00  0.00000000000E+00  0.45593999997E+02  0.45594000000E+02  0.51100000000E-03 0. -1.
         11   -1    0    0    0    0 -0.00000000000E+00 -0.00000000000E+00 -0.45593999997E+02  0.45594000000E+02  0.51100000000E-03 0.  1.
    9900012    2    1    2    0    0  0.32975455597E+02 -0.23636260450E+02 -0.26668562693E+01  0.50528860778E+02  0.30000002821E+02 0.  0.
         12    1    1    2    0    0 -0.32975455597E+02  0.23636260450E+02  0.26668562693E+01  0.40659139222E+02  0.00000000000E+00 0. -1.
         11    1    3    3    0    0  0.42391551830E+01  0.38385538082E+00  0.76312921742E+01  0.87381006018E+01  0.51100000000E-03 0. -1.
        -11    1    3    3    0    0  0.22594900965E+02 -0.94593672420E+01 -0.42025659420E+01  0.24852982497E+02  0.51100000000E-03 0.  1.
        -12    1    3    3    0    0  0.61413994489E+01 -0.14560748589E+02 -0.60955825015E+01  0.16937777679E+02  0.00000000000E+00 0.  1.
</event>
<event>
 7    1  0.2639126E-011  0.5052885E+02  0.7816164E-02  0.1300439E+00
        -11   -1    0    0    0    0  0.00000000000E+00  0.00000000000E+00  0.45593999997E+02  0.45594000000E+02  0.51100000000E-03 0.  1.
         11   -1    0    0    0    0 -0.00000000000E+00 -0.00000000000E+00 -0.45593999997E+02  0.45594000000E+02  0.51100000000E-03 0. -1.
    9900012    2    1    2    0    0  0.26545260325E+02 -0.29441594790E+02 -0.90392330095E+01  0.50528854868E+02  0.29999984856E+02 0.  0.
         12    1    1    2    0    0 -0.26545260325E+02  0.29441594790E+02  0.90392330095E+01  0.40659145132E+02  0.00000000000E+00 0. -1.
         11    1    3    3    0    0  0.27833694843E+00  0.14940689005E-01  0.30554303761E+01  0.30681182711E+01  0.51100000000E-03 0. -1.
        -11    1    3    3    0    0  0.62799378569E+01 -0.18750415212E+02  0.33096540476E+01  0.20049177047E+02  0.51100000000E-03 0.  1.
        -12    1    3    3    0    0  0.19986985520E+02 -0.10706120267E+02 -0.15404317433E+02  0.27411559549E+02  0.00000000000E+00 0.  1.
</event>
<event>
 7    1  0.2639126E-011  0.5052886E+02  0.7816164E-02  0.1300439E+00
        -11   -1    0    0    0    0  0.00000000000E+00  0.00000000000E+00  0.45593999997E+02  0.45594000000E+02  0.51100000000E-03 0.  1.
         11   -1    0    0    0    0 -0.00000000000E+00 -0.00000000000E+00 -0.45593999997E+02  0.45594000000E+02  0.51100000000E-03 0. -1.
    9900012    2    1    2    0    0  0.27565962610E+02 -0.64541708724E+01  0.29182652361E+02  0.50528858161E+02  0.29999994867E+02 0.  0.
         12    1    1    2    0    0 -0.27565962610E+02  0.64541708724E+01 -0.29182652361E+02  0.40659141839E+02  0.00000000000E+00 0. -1.
         11    1    3    3    0    0 -0.30792929153E+01 -0.44839727419E+01 -0.88444755524E+00  0.55109258884E+01  0.51100000000E-03 0. -1.
        -11    1    3    3    0    0  0.45250465737E+01 -0.36318665481E+01  0.97241966189E+00  0.58832050259E+01  0.51100000000E-03 0.  1.
        -12    1    3    3    0    0  0.26120208952E+02  0.16616684176E+01  0.29094680254E+02  0.39134727247E+02  0.00000000000E+00 0.  1.
</event>
<event>
 7    1  0.2639126E-011  0.5052886E+02  0.7816164E-02  0.1300439E+00
        -11   -1    0    0    0    0  0.00000000000E+00  0.00000000000E+00  0.45593999997E+02  0.45594000000E+02  0.51100000000E-03 0.  1.
         11   -1    0    0    0    0 -0.00000000000E+00 -0.00000000000E+00 -0.45593999997E+02  0.45594000000E+02  0.51100000000E-03 0. -1.
    9900012    2    1    2    0    0  0.39739513955E+02  0.40865734669E+00 -0.85889051673E+01  0.50528864960E+02  0.30000015533E+02 0.  0.
         12    1    1    2    0    0 -0.39739513955E+02 -0.40865734669E+00  0.85889051673E+01  0.40659135040E+02  0.00000000000E+00 0. -1.
         11    1    3    3    0    0  0.13880384610E+02  0.69758213841E+00 -0.55538640331E+01  0.14966532789E+02  0.51100000000E-03 0. -1.
        -11    1    3    3    0    0  0.19442252338E+02 -0.62131894741E+01 -0.11476460977E+02  0.23416106770E+02  0.51100000000E-03 0.  1.
         12    1    3    3    0    0  0.64168770067E+01  0.59242646824E+01  0.84414198429E+01  0.12146225402E+02  0.00000000000E+00 0. -1.
</event>
<event>
 7    1  0.2639126E-011  0.5052886E+02  0.7816164E-02  0.1300439E+00
        -11   -1    0    0    0    0  0.00000000000E+00  0.00000000000E+00  0.45593999997E+02  0.45594000000E+02  0.51100000000E-03 0.  1.
         11   -1    0    0    0    0 -0.00000000000E+00 -0.00000000000E+00 -0.45593999997E+02  0.45594000000E+02  0.51100000000E-03 0. -1.
    9900012    2    1    2    0    0  0.34248111855E+02 -0.16277714977E+02  0.14672026390E+02  0.50528861681E+02  0.30000005565E+02 0.  0.
         12    1    1    2    0    0 -0.34248111855E+02  0.16277714977E+02 -0.14672026390E+02  0.40659138319E+02  0.00000000000E+00 0. -1.
         11    1    3    3    0    0  0.56605511949E+01  0.52368885242E+01  0.60645571731E+00  0.77352847422E+01  0.51100000000E-03 0. -1.
        -11    1    3    3    0    0  0.15594180404E+02 -0.46753986736E+00  0.41354443668E+01  0.16139980061E+02  0.51100000000E-03 0.  1.
         12    1    3    3    0    0  0.12993380256E+02 -0.21047063634E+02  0.99301263057E+01  0.26653596878E+02  0.00000000000E+00 0. -1.
</event>
<event>
 7    1  0.2639126E-011  0.5052886E+02  0.7816164E-02  0.1300439E+00
        -11   -1    0    0    0    0  0.00000000000E+00  0.00000000000E+00  0.45593999997E+02  0.45594000000E+02  0.51100000000E-03 0.  1.
         11   -1    0    0    0    0 -0.00000000000E+00 -0.00000000000E+00 -0.45593999997E+02  0.45594000000E+02  0.51100000000E-03 0. -1.
    9900012    2    1    2    0    0  0.28627384630E+02  0.14153925923E+02  0.25165549385E+02  0.50528860245E+02  0.30000001200E+02 0.  0.
         12    1    1    2    0    0 -0.28627384630E+02 -0.14153925923E+02 -0.25165549385E+02  0.40659139755E+02  0.00000000000E+00 0. -1.
         11    1    3    3    0    0  0.20337316970E+02  0.42647389518E+01  0.29180284565E+02  0.35822946101E+02  0.51100000000E-03 0.  1.
        -11    1    3    3    0    0  0.29593287693E+01  0.17048317995E+00 -0.15720096779E+01  0.33552803114E+01  0.51100000000E-03 0. -1.
        -12    1    3    3    0    0  0.53307388909E+01  0.97187037916E+01 -0.24427255018E+01  0.11350633832E+02  0.00000000000E+00 0.  1.
</event>
<event>
 7    1  0.2639126E-011  0.5052884E+02  0.7816164E-02  0.1300439E+00
        -11   -1    0    0    0    0  0.00000000000E+00  0.00000000000E+00  0.45593999997E+02  0.45594000000E+02  0.51100000000E-03 0.  1.
         11   -1    0    0    0    0 -0.00000000000E+00 -0.00000000000E+00 -0.45593999997E+02  0.45594000000E+02  0.51100000000E-03 0. -1.
    9900012    2    1    2    0    0  0.38148039675E+02 -0.10748651219E+02 -0.90752688998E+01  0.50528844331E+02  0.29999952830E+02 0.  0.
         12    1    1    2    0    0 -0.38148039675E+02  0.10748651219E+02  0.90752688998E+01  0.40659155669E+02  0.00000000000E+00 0. -1.
         11    1    3    3    0    0  0.60817294192E+01  0.54411889756E+01  0.20980929060E+01  0.84259102950E+01  0.51100000000E-03 0. -1.
        -11    1    3    3    0    0  0.14396554736E+02 -0.13753479561E+01 -0.12345414086E+02  0.19014773717E+02  0.51100000000E-03 0.  1.
         12    1    3    3    0    0  0.17669755520E+02 -0.14814492238E+02  0.11720522806E+01  0.23088160320E+02  0.00000000000E+00 0. -1.
</event>
<event>
 7    1  0.2639126E-011  0.5052887E+02  0.7816164E-02  0.1300439E+00
        -11   -1    0    0    0    0  0.00000000000E+00  0.00000000000E+00  0.45593999997E+02  0.45594000000E+02  0.51100000000E-03 0. -1.
         11   -1    0    0    0    0 -0.00000000000E+00 -0.00000000000E+00 -0.45593999997E+02  0.45594000000E+02  0.51100000000E-03 0.  1.
    9900012    2    1    2    0    0  0.14362537265E+02 -0.11618643061E+02 -0.36220017160E+02  0.50528868352E+02  0.30000025843E+02 0.  0.
         12    1    1    2    0    0 -0.14362537265E+02  0.11618643061E+02  0.36220017160E+02  0.40659131648E+02  0.00000000000E+00 0. -1.
         11    1    3    3    0    0  0.13786866258E+01 -0.32664656105E+01  0.36442693344E+01  0.50844147785E+01  0.51100000000E-03 0. -1.
        -11    1    3    3    0    0 -0.10462368521E+01  0.27439532275E+01 -0.11833958356E+02  0.12192885692E+02  0.51100000000E-03 0.  1.
        -12    1    3    3    0    0  0.14030087491E+02 -0.11096130678E+02 -0.28030328138E+02  0.33251567882E+02  0.00000000000E+00 0.  1.
</event>
<event>
 7    1  0.2639126E-011  0.5052886E+02  0.7816164E-02  0.1300439E+00
        -11   -1    0    0    0    0  0.00000000000E+00  0.00000000000E+00  0.45593999997E+02  0.45594000000E+02  0.51100000000E-03 0.  1.
         11   -1    0    0    0    0 -0.00000000000E+00 -0.00000000000E+00 -0.45593999997E+02  0.45594000000E+02  0.51100000000E-03 0. -1.
    9900012    2    1    2    0    0 -0.19749428870E+02 -0.31564755112E+02  0.16333767441E+02  0.50528860009E+02  0.30000000484E+02 0.  0.
         12    1    1    2    0    0  0.19749428870E+02  0.31564755112E+02 -0.16333767441E+02  0.40659139991E+02  0.00000000000E+00 0. -1.
         11    1    3    3    0    0 -0.94447342785E+01 -0.53966225643E+01  0.12852319300E+02  0.16837715176E+02  0.51100000000E-03 0. -1.
        -11    1    3    3    0    0 -0.26309314866E+01  0.17943172935E+01  0.34496459040E+01  0.46948303656E+01  0.51100000000E-03 0.  1.
         12    1    3    3    0    0 -0.76737631050E+01 -0.27962449841E+02  0.31802236893E-01  0.28996314468E+02  0.00000000000E+00 0. -1.
</event>
<event>
 7    1  0.2639126E-011  0.5052887E+02  0.7816164E-02  0.1300439E+00
        -11   -1    0    0    0    0  0.00000000000E+00  0.00000000000E+00  0.45593999997E+02  0.45594000000E+02  0.51100000000E-03 0.  1.
         11   -1    0    0    0    0 -0.00000000000E+00 -0.00000000000E+00 -0.45593999997E+02  0.45594000000E+02  0.51100000000E-03 0. -1.
    9900012    2    1    2    0    0  0.18646020950E+02 -0.32592360562E+02  0.15595782673E+02  0.50528874315E+02  0.30000043968E+02 0.  0.
         12    1    1    2    0    0 -0.18646020950E+02  0.32592360562E+02 -0.15595782673E+02  0.40659125685E+02  0.00000000000E+00 0. -1.
         11    1    3    3    0    0 -0.48437434978E+00 -0.64963428234E+01  0.20554140132E+01  0.68309454410E+01  0.51100000000E-03 0. -1.
        -11    1    3    3    0    0  0.20093539295E+01 -0.18033470740E+02  0.16521836000E+02  0.24540061842E+02  0.51100000000E-03 0.  1.
        -12    1    3    3    0    0  0.17121041370E+02 -0.80625469985E+01 -0.29814673403E+01  0.19157867032E+02  0.00000000000E+00 0.  1.
</event>
<event>
 7    1  0.2639126E-011  0.5052887E+02  0.7816164E-02  0.1300439E+00
        -11   -1    0    0    0    0  0.00000000000E+00  0.00000000000E+00  0.45593999997E+02  0.45594000000E+02  0.51100000000E-03 0.  1.
         11   -1    0    0    0    0 -0.00000000000E+00 -0.00000000000E+00 -0.45593999997E+02  0.45594000000E+02  0.51100000000E-03 0. -1.
    9900012    2    1    2    0    0  0.20701263995E+02  0.91811513846E+01  0.33768756442E+02  0.50528870848E+02  0.30000033430E+02 0.  0.
         12    1    1    2    0    0 -0.20701263995E+02 -0.91811513846E+01 -0.33768756442E+02  0.40659129152E+02  0.00000000000E+00 0. -1.
         11    1    3    3    0    0  0.11406661633E+02 -0.20770335592E+01  0.67793474894E+01  0.13430768803E+02  0.51100000000E-03 0. -1.
        -11    1    3    3    0    0  0.57861403863E+01  0.68338098047E+01 -0.56395864599E+00  0.89720915417E+01  0.51100000000E-03 0.  1.
        -12    1    3    3    0    0  0.35084619762E+01  0.44243751392E+01  0.27553367598E+02  0.28126010503E+02  0.00000000000E+00 0.  1.
</event>
<event>
 7    1  0.2639126E-011  0.5052884E+02  0.7816164E-02  0.1300439E+00
        -11   -1    0    0    0    0  0.00000000000E+00  0.00000000000E+00  0.45593999997E+02  0.45594000000E+02  0.51100000000E-03 0. -1.
         11   -1    0    0    0    0 -0.00000000000E+00 -0.00000000000E+00 -0.45593999997E+02  0.45594000000E+02  0.51100000000E-03 0.  1.
    9900012    2    1    2    0    0  0.30357335938E+02  0.22850642375E+02 -0.14472314131E+02  0.50528836476E+02  0.29999928952E+02 0.  0.
         12    1    1    2    0    0 -0.30357335938E+02 -0.22850642375E+02  0.14472314131E+02  0.40659163524E+02  0.00000000000E+00 0. -1.
         11    1    3    3    0    0  0.68960444980E+01  0.85387676387E+01  0.13160922922E+00  0.10976488681E+02  0.51100000000E-03 0. -1.
        -11    1    3    3    0    0  0.18481041545E+02  0.18811291946E+02 -0.35336990243E+01  0.26606402055E+02  0.51100000000E-03 0.  1.
         12    1    3    3    0    0  0.49802498951E+01 -0.44994172103E+01 -0.11070224336E+02  0.12945945740E+02  0.00000000000E+00 0. -1.
</event>
<event>
 7    1  0.2639126E-011  0.5052885E+02  0.7816164E-02  0.1300439E+00
        -11   -1    0    0    0    0  0.00000000000E+00  0.00000000000E+00  0.45593999997E+02  0.45594000000E+02  0.51100000000E-03 0. -1.
         11   -1    0    0    0    0 -0.00000000000E+00 -0.00000000000E+00 -0.45593999997E+02  0.45594000000E+02  0.51100000000E-03 0.  1.
    9900012    2    1    2    0    0 -0.12138346280E+02  0.13083959151E+02 -0.36532688420E+02  0.50528846533E+02  0.29999959520E+02 0.  0.
         12    1    1    2    0    0  0.12138346280E+02 -0.13083959151E+02  0.36532688420E+02  0.40659153467E+02  0.00000000000E+00 0. -1.
         11    1    3    3    0    0 -0.11031714484E+02  0.20356175074E+01 -0.30212128167E+01  0.11617667160E+02  0.51100000000E-03 0. -1.
        -11    1    3    3    0    0 -0.57091710813E+01  0.59925205541E+00 -0.33168354572E+01  0.66298669046E+01  0.51100000000E-03 0.  1.
        -12    1    3    3    0    0  0.46025392851E+01  0.10449089589E+02 -0.30194640146E+02  0.32281312468E+02  0.00000000000E+00 0.  1.
</event>
<event>
 7    1  0.2639126E-011  0.5052887E+02  0.7816164E-02  0.1300439E+00
        -11   -1    0    0    0    0  0.00000000000E+00  0.00000000000E+00  0.45593999997E+02  0.45594000000E+02  0.51100000000E-03 0. -1.
         11   -1    0    0    0    0 -0.00000000000E+00 -0.00000000000E+00 -0.45593999997E+02  0.45594000000E+02  0.51100000000E-03 0.  1.
    9900012    2    1    2    0    0  0.29339703342E+01  0.29313939280E+02 -0.28022309837E+02  0.50528867365E+02  0.30000022841E+02 0.  0.
         12    1    1    2    0    0 -0.29339703342E+01 -0.29313939280E+02  0.28022309837E+02  0.40659132635E+02  0.00000000000E+00 0. -1.
         11    1    3    3    0    0 -0.27805152355E+01  0.16956648038E+01 -0.14460728694E+02  0.14822928817E+02  0.51100000000E-03 0. -1.
        -11    1    3    3    0    0 -0.27737979995E+01  0.73227082743E+01  0.27715215070E+01  0.83064639611E+01  0.51100000000E-03 0.  1.
         12    1    3    3    0    0  0.84882835692E+01  0.20295566202E+02 -0.16333102651E+02  0.27399474586E+02  0.00000000000E+00 0. -1.
</event>
<event>
 7    1  0.2639126E-011  0.5052886E+02  0.7816164E-02  0.1300439E+00
        -11   -1    0    0    0    0  0.00000000000E+00  0.00000000000E+00  0.45593999997E+02  0.45594000000E+02  0.51100000000E-03 0.  1.
         11   -1    0    0    0    0 -0.00000000000E+00 -0.00000000000E+00 -0.45593999997E+02  0.45594000000E+02  0.51100000000E-03 0. -1.
    9900012    2    1    2    0    0 -0.33551249394E+02 -0.19276748813E+02  0.12485428944E+02  0.50528864291E+02  0.30000013499E+02 0.  0.
         12    1    1    2    0    0  0.33551249394E+02  0.19276748813E+02 -0.12485428944E+02  0.40659135709E+02  0.00000000000E+00 0. -1.
         11    1    3    3    0    0 -0.13824179834E+02 -0.19698393838E+01 -0.41912744357E+01  0.14579265994E+02  0.51100000000E-03 0. -1.
        -11    1    3    3    0    0 -0.14656178228E+02 -0.14738279103E+01  0.47078324800E+01  0.15464133208E+02  0.51100000000E-03 0.  1.
        -12    1    3    3    0    0 -0.50708913325E+01 -0.15833081519E+02  0.11968870899E+02  0.20485465089E+02  0.00000000000E+00 0.  1.
</event>
<event>
 7    1  0.2639126E-011  0.5052887E+02  0.7816164E-02  0.1300439E+00
        -11   -1    0    0    0    0  0.00000000000E+00  0.00000000000E+00  0.45593999997E+02  0.45594000000E+02  0.51100000000E-03 0. -1.
         11   -1    0    0    0    0 -0.00000000000E+00 -0.00000000000E+00 -0.45593999997E+02  0.45594000000E+02  0.51100000000E-03 0.  1.
    9900012    2    1    2    0    0 -0.99220588102E+01  0.79428834150E+01 -0.38621607219E+02  0.50528865822E+02  0.30000018152E+02 0.  0.
         12    1    1    2    0    0  0.99220588102E+01 -0.79428834150E+01  0.38621607219E+02  0.40659134178E+02  0.00000000000E+00 0. -1.
         11    1    3    3    0    0  0.25229961590E+01 -0.20806931293E+01  0.82497336331E+00  0.33727399585E+01  0.51100000000E-03 0. -1.
        -11    1    3    3    0    0  0.36695944148E+01  0.45291992381E+01 -0.22502412861E+01  0.62484522095E+01  0.51100000000E-03 0.  1.
        -12    1    3    3    0    0 -0.16114649384E+02  0.54943773062E+01 -0.37196339296E+02  0.40907673654E+02  0.00000000000E+00 0.  1.
</event>
<event>
 7    1  0.2639126E-011  0.5052885E+02  0.7816164E-02  0.1300439E+00
        -11   -1    0    0    0    0  0.00000000000E+00  0.00000000000E+00  0.45593999997E+02  0.45594000000E+02  0.51100000000E-03 0.  1.
         11   -1    0    0    0    0 -0.00000000000E+00 -0.00000000000E+00 -0.45593999997E+02  0.45594000000E+02  0.51100000000E-03 0. -1.
    9900012    2    1    2    0    0 -0.34806938615E+02  0.50442389722E+01  0.20400955624E+02  0.50528852039E+02  0.29999976257E+02 0.  0.
         12    1    1    2    0    0  0.34806938615E+02 -0.50442389722E+01 -0.20400955624E+02  0.40659147961E+02  0.00000000000E+00 0. -1.
         11    1    3    3    0    0 -0.41267205577E+01 -0.38914819990E+01 -0.41370974435E+01  0.70206146617E+01  0.51100000000E-03 0. -1.
        -11    1    3    3    0    0 -0.17719131794E+02 -0.11643029116E+00  0.20683717746E+02  0.27235957255E+02  0.51100000000E-03 0.  1.
         12    1    3    3    0    0 -0.12961086263E+02  0.90521512624E+01  0.38543353220E+01  0.16272280122E+02  0.00000000000E+00 0. -1.
</event>
<event>
 7    1  0.2639126E-011  0.5052887E+02  0.7816164E-02  0.1300439E+00
        -11   -1    0    0    0    0  0.00000000000E+00  0.00000000000E+00  0.45593999997E+02  0.45594000000E+02  0.51100000000E-03 0.  1.
         11   -1    0    0    0    0 -0.00000000000E+00 -0.00000000000E+00 -0.45593999997E+02  0.45594000000E+02  0.51100000000E-03 0. -1.
    9900012    2    1    2    0    0 -0.32479160357E+02 -0.24809575893E+01  0.24333395420E+02  0.50528866454E+02  0.30000020074E+02 0.  0.
         12    1    1    2    0    0  0.32479160357E+02  0.24809575893E+01 -0.24333395420E+02  0.40659133546E+02  0.00000000000E+00 0. -1.
         11    1    3    3    0    0 -0.16930782829E+01 -0.16863857797E+01 -0.11799386962E+01  0.26650828614E+01  0.51100000000E-03 0. -1.
        -11    1    3    3    0    0 -0.24554028939E+01 -0.73642339731E+01 -0.17973538269E+01  0.79681507530E+01  0.51100000000E-03 0.  1.
        -12    1    3    3    0    0 -0.28330679180E+02  0.65696621635E+01  0.27310687943E+02  0.39895632840E+02  0.00000000000E+00 0.  1.
</event>
<event>
 7    1  0.2639126E-011  0.5052886E+02  0.7816164E-02  0.1300439E+00
        -11   -1    0    0    0    0  0.00000000000E+00  0.00000000000E+00  0.45593999997E+02  0.45594000000E+02  0.51100000000E-03 0. -1.
         11   -1    0    0    0    0 -0.00000000000E+00 -0.00000000000E+00 -0.45593999997E+02  0.45594000000E+02  0.51100000000E-03 0.  1.
    9900012    2    1    2    0    0 -0.16078078439E+02  0.33781820152E+02 -0.15920101911E+02  0.50528860512E+02  0.30000002013E+02 0.  0.
         12    1    1    2    0    0  0.16078078439E+02 -0.33781820152E+02  0.15920101911E+02  0.40659139488E+02  0.00000000000E+00 0. -1.
         11    1    3    3    0    0 -0.32302524434E+01  0.22636305115E+01 -0.95684030649E+01  0.10349535807E+02  0.51100000000E-03 0. -1.
        -11    1    3    3    0    0  0.55560796613E+01  0.91780998938E+01 -0.16049430322E+01  0.10848197143E+02  0.51100000000E-03 0.  1.
        -12    1    3    3    0    0 -0.18403905657E+02  0.22340089746E+02 -0.47467558138E+01  0.29331127562E+02  0.00000000000E+00 0.  1.
</event>
<event>
 7    1  0.2639126E-011  0.5052886E+02  0.7816164E-02  0.1300439E+00
        -11   -1    0    0    0    0  0.00000000000E+00  0.00000000000E+00  0.45593999997E+02  0.45594000000E+02  0.51100000000E-03 0. -1.
         11   -1    0    0    0    0 -0.00000000000E+00 -0.00000000000E+00 -0.45593999997E+02  0.45594000000E+02  0.51100000000E-03 0.  1.
    9900012    2    1    2    0    0 -0.15673219180E+02 -0.37947112590E+01 -0.37324471825E+02  0.50528857978E+02  0.29999994309E+02 0.  0.
         12    1    1    2    0    0  0.15673219180E+02  0.37947112590E+01  0.37324471825E+02  0.40659142022E+02  0.00000000000E+00 0. -1.
         11    1    3    3    0    0 -0.93085469565E+01 -0.15813770232E+01 -0.25514757859E+02  0.27205746977E+02  0.51100000000E-03 0. -1.
        -11    1    3    3    0    0 -0.80809986277E+01  0.56230185709E+01 -0.11712463735E+02  0.15300414494E+02  0.51100000000E-03 0.  1.
         12    1    3    3    0    0  0.17163264037E+01 -0.78363528066E+01 -0.97250230643E-01  0.80226965069E+01  0.00000000000E+00 0. -1.
</event>
<event>
 7    1  0.2639126E-011  0.5052885E+02  0.7816164E-02  0.1300439E+00
        -11   -1    0    0    0    0  0.00000000000E+00  0.00000000000E+00  0.45593999997E+02  0.45594000000E+02  0.51100000000E-03 0.  1.
         11   -1    0    0    0    0 -0.00000000000E+00 -0.00000000000E+00 -0.45593999997E+02  0.45594000000E+02  0.51100000000E-03 0. -1.
    9900012    2    1    2    0    0  0.10652104369E+02  0.39045733650E+02 -0.38897174728E+01  0.50528849176E+02  0.29999967555E+02 0.  0.
         12    1    1    2    0    0 -0.10652104369E+02 -0.39045733650E+02  0.38897174728E+01  0.40659150824E+02  0.00000000000E+00 0. -1.
         11    1    3    3    0    0 -0.63877432001E+01  0.59329928317E+01  0.12391368880E+01  0.88056304498E+01  0.51100000000E-03 0. -1.
        -11    1    3    3    0    0 -0.31156525986E+01  0.10676455725E+02  0.49016248862E-01  0.11121888366E+02  0.51100000000E-03 0.  1.
        -12    1    3    3    0    0  0.20155500167E+02  0.22436285093E+02 -0.51778706097E+01  0.30601330360E+02  0.00000000000E+00 0.  1.
</event>
<event>
 7    1  0.2639126E-011  0.5052886E+02  0.7816164E-02  0.1300439E+00
        -11   -1    0    0    0    0  0.00000000000E+00  0.00000000000E+00  0.45593999997E+02  0.45594000000E+02  0.51100000000E-03 0.  1.
         11   -1    0    0    0    0 -0.00000000000E+00 -0.00000000000E+00 -0.45593999997E+02  0.45594000000E+02  0.51100000000E-03 0. -1.
    9900012    2    1    2    0    0 -0.50124252762E+01  0.13467376352E+02  0.38035129253E+02  0.50528859696E+02  0.29999999533E+02 0.  0.
         12    1    1    2    0    0  0.50124252762E+01 -0.13467376352E+02 -0.38035129253E+02  0.40659140304E+02  0.00000000000E+00 0. -1.
         11    1    3    3    0    0 -0.80354744097E+01  0.55541626349E+01  0.83241743893E+01  0.12833917994E+02  0.51100000000E-03 0. -1.
        -11    1    3    3    0    0 -0.56543441549E+01  0.12221650275E+02  0.16124830473E+02  0.21008343612E+02  0.51100000000E-03 0.  1.
         12    1    3    3    0    0  0.86773932884E+01 -0.43084365583E+01  0.13586124391E+02  0.16686598090E+02  0.00000000000E+00 0. -1.
</event>
<event>
 7    1  0.2639126E-011  0.5052886E+02  0.7816164E-02  0.1300439E+00
        -11   -1    0    0    0    0  0.00000000000E+00  0.00000000000E+00  0.45593999997E+02  0.45594000000E+02  0.51100000000E-03 0. -1.
         11   -1    0    0    0    0 -0.00000000000E+00 -0.00000000000E+00 -0.45593999997E+02  0.45594000000E+02  0.51100000000E-03 0.  1.
    9900012    2    1    2    0    0  0.22901558005E+01 -0.36724552131E+02 -0.17298205847E+02  0.50528862425E+02  0.30000007827E+02 0.  0.
         12    1    1    2    0    0 -0.22901558005E+01  0.36724552131E+02  0.17298205847E+02  0.40659137575E+02  0.00000000000E+00 0. -1.
         11    1    3    3    0    0 -0.11274649500E+01 -0.10387760593E+02  0.28480257216E+01  0.10829958362E+02  0.51100000000E-03 0. -1.
        -11    1    3    3    0    0  0.11499461268E+02 -0.11477618658E+02 -0.50144100904E+01  0.17003459893E+02  0.51100000000E-03 0.  1.
        -12    1    3    3    0    0 -0.80818405174E+01 -0.14859172880E+02 -0.15131821478E+02  0.22695444170E+02  0.00000000000E+00 0.  1.
</event>
<event>
 7    1  0.2639126E-011  0.5052885E+02  0.7816164E-02  0.1300439E+00
        -11   -1    0    0    0    0  0.00000000000E+00  0.00000000000E+00  0.45593999997E+02  0.45594000000E+02  0.51100000000E-03 0.  1.
         11   -1    0    0    0    0 -0.00000000000E+00 -0.00000000000E+00 -0.45593999997E+02  0.45594000000E+02  0.51100000000E-03 0. -1.
    9900012    2    1    2    0    0  0.42893536851E+01  0.68607984728E+01  0.39845916552E+02  0.50528853716E+02  0.29999981354E+02 0.  0.
         12    1    1    2    0    0 -0.42893536851E+01 -0.68607984728E+01 -0.39845916552E+02  0.40659146284E+02  0.00000000000E+00 0. -1.
         11    1    3    3    0    0  0.11913703297E+01 -0.31598493734E+01 -0.21141031158E+01  0.39841490397E+01  0.51100000000E-03 0. -1.
        -11    1    3    3    0    0  0.71932724301E+01 -0.16905388720E+01  0.20014846803E+02  0.21335303671E+02  0.51100000000E-03 0.  1.
         12    1    3    3    0    0 -0.40952890747E+01  0.11711186718E+02  0.21945172865E+02  0.25209401005E+02  0.00000000000E+00 0. -1.
</event>
<event>
 7    1  0.2639126E-011  0.5052878E+02  0.7816164E-02  0.1300439E+00
        -11   -1    0    0    0    0  0.00000000000E+00  0.00000000000E+00  0.45593999997E+02  0.45594000000E+02  0.51100000000E-03 0.  1.
         11   -1    0    0    0    0 -0.00000000000E+00 -0.00000000000E+00 -0.45593999997E+02  0.45594000000E+02  0.51100000000E-03 0. -1.
    9900012    2    1    2    0    0  0.21235274790E+02  0.26283876395E+02  0.22614005448E+02  0.50528778461E+02  0.29999752608E+02 0.  0.
         12    1    1    2    0    0 -0.21235274790E+02 -0.26283876395E+02 -0.22614005448E+02  0.40659221539E+02  0.00000000000E+00 0. -1.
         11    1    3    3    0    0  0.11270740848E+02  0.42924124352E+01  0.97756509449E+01  0.15524746550E+02  0.51100000000E-03 0. -1.
        -11    1    3    3    0    0  0.13863772294E+02  0.56396212835E+01  0.22451970558E+01  0.15134411800E+02  0.51100000000E-03 0.  1.
         12    1    3    3    0    0 -0.38992383524E+01  0.16351842676E+02  0.10593157448E+02  0.19869620111E+02  0.00000000000E+00 0. -1.
</event>
<event>
 7    1  0.2639126E-011  0.5052886E+02  0.7816164E-02  0.1300439E+00
        -11   -1    0    0    0    0  0.00000000000E+00  0.00000000000E+00  0.45593999997E+02  0.45594000000E+02  0.51100000000E-03 0.  1.
         11   -1    0    0    0    0 -0.00000000000E+00 -0.00000000000E+00 -0.45593999997E+02  0.45594000000E+02  0.51100000000E-03 0. -1.
    9900012    2    1    2    0    0 -0.25434260720E+02  0.22280789206E+02  0.22579425261E+02  0.50528860423E+02  0.30000001741E+02 0.  0.
         12    1    1    2    0    0  0.25434260720E+02 -0.22280789206E+02 -0.22579425261E+02  0.40659139577E+02  0.00000000000E+00 0. -1.
         11    1    3    3    0    0  0.22962428352E+01  0.16173573088E+02  0.64688878382E+01  0.17569966071E+02  0.51100000000E-03 0. -1.
        -11    1    3    3    0    0 -0.28065428597E+01  0.13044113180E+01  0.33095995788E+01  0.45311832167E+01  0.51100000000E-03 0.  1.
         12    1    3    3    0    0 -0.24923960696E+02  0.48028048001E+01  0.12800937844E+02  0.28427711135E+02  0.00000000000E+00 0. -1.
</event>
<event>
 7    1  0.2639126E-011  0.5052886E+02  0.7816164E-02  0.1300439E+00
        -11   -1    0    0    0    0  0.00000000000E+00  0.00000000000E+00  0.45593999997E+02  0.45594000000E+02  0.51100000000E-03 0.  1.
         11   -1    0    0    0    0 -0.00000000000E+00 -0.00000000000E+00 -0.45593999997E+02  0.45594000000E+02  0.51100000000E-03 0. -1.
    9900012    2    1    2    0    0 -0.18177952229E+02  0.36334224183E+02 -0.15974456448E+01  0.50528860477E+02  0.30000001904E+02 0.  0.
         12    1    1    2    0    0  0.18177952229E+02 -0.36334224183E+02  0.15974456448E+01  0.40659139523E+02  0.00000000000E+00 0. -1.
         11    1    3    3    0    0 -0.15464697795E+01 -0.52087756405E+01  0.78586662549E+00  0.54900363447E+01  0.51100000000E-03 0. -1.
        -11    1    3    3    0    0 -0.81373206855E+00  0.42967950709E+01 -0.12852749092E+01  0.45581289598E+01  0.51100000000E-03 0.  1.
        -12    1    3    3    0    0 -0.15817750381E+02  0.37246204752E+02 -0.10980373611E+01  0.40480695172E+02  0.00000000000E+00 0.  1.
</event>
<event>
 7    1  0.2639126E-011  0.5052885E+02  0.7816164E-02  0.1300439E+00
        -11   -1    0    0    0    0  0.00000000000E+00  0.00000000000E+00  0.45593999997E+02  0.45594000000E+02  0.51100000000E-03 0.  1.
         11   -1    0    0    0    0 -0.00000000000E+00 -0.00000000000E+00 -0.45593999997E+02  0.45594000000E+02  0.51100000000E-03 0. -1.
    9900012    2    1    2    0    0  0.86955090239E+01  0.40947638453E+01  0.39506798586E+02  0.50528854625E+02  0.29999984118E+02 0.  0.
         12    1    1    2    0    0 -0.86955090239E+01 -0.40947638453E+01 -0.39506798586E+02  0.40659145375E+02  0.00000000000E+00 0. -1.
         11    1    3    3    0    0  0.90978981972E+00 -0.31119834353E+01  0.13547411281E+02  0.13929986040E+02  0.51100000000E-03 0. -1.
        -11    1    3    3    0    0  0.25396878325E+01  0.56181106783E+01  0.29457927345E+02  0.30096223444E+02  0.51100000000E-03 0.  1.
         12    1    3    3    0    0  0.52460313717E+01  0.15886366023E+01 -0.34985400400E+01  0.65026451401E+01  0.00000000000E+00 0. -1.
</event>
<event>
 7    1  0.2639126E-011  0.5052885E+02  0.7816164E-02  0.1300439E+00
        -11   -1    0    0    0    0  0.00000000000E+00  0.00000000000E+00  0.45593999997E+02  0.45594000000E+02  0.51100000000E-03 0. -1.
         11   -1    0    0    0    0 -0.00000000000E+00 -0.00000000000E+00 -0.45593999997E+02  0.45594000000E+02  0.51100000000E-03 0.  1.
    9900012    2    1    2    0    0 -0.87138588249E+01 -0.32406647231E+02 -0.22957447657E+02  0.50528849451E+02  0.29999968393E+02 0.  0.
         12    1    1    2    0    0  0.87138588249E+01  0.32406647231E+02  0.22957447657E+02  0.40659150549E+02  0.00000000000E+00 0. -1.
         11    1    3    3    0    0 -0.92406968635E+01 -0.41744813505E+01  0.30873174143E+01  0.10599448200E+02  0.51100000000E-03 0. -1.
        -11    1    3    3    0    0 -0.19692926031E+01 -0.14822087047E+02 -0.70156409401E+01  0.16516403841E+02  0.51100000000E-03 0.  1.
        -12    1    3    3    0    0  0.24961306418E+01 -0.13410078834E+02 -0.19029124132E+02  0.23412997410E+02  0.00000000000E+00 0.  1.
</event>
<event>
 7    1  0.2639126E-011  0.5052887E+02  0.7816164E-02  0.1300439E+00
        -11   -1    0    0    0    0  0.00000000000E+00  0.00000000000E+00  0.45593999997E+02  0.45594000000E+02  0.51100000000E-03 0.  1.
         11   -1    0    0    0    0 -0.00000000000E+00 -0.00000000000E+00 -0.45593999997E+02  0.45594000000E+02  0.51100000000E-03 0. -1.
    9900012    2    1    2    0    0  0.39385937862E+02 -0.59615958340E+01  0.81468897713E+01  0.50528873852E+02  0.30000042562E+02 0.  0.
         12    1    1    2    0    0 -0.39385937862E+02  0.59615958340E+01 -0.81468897713E+01  0.40659126148E+02  0.00000000000E+00 0. -1.
         11    1    3    3    0    0  0.13841222891E+02  0.17518739556E+01  0.37912857251E+01  0.14457605652E+02  0.51100000000E-03 0. -1.
        -11    1    3    3    0    0  0.40249246147E+01 -0.95243204803E+01  0.93108799482E+01  0.13914208006E+02  0.51100000000E-03 0.  1.
         12    1    3    3    0    0  0.21519790356E+02  0.18108506907E+01 -0.49552759019E+01  0.22157060194E+02  0.00000000000E+00 0. -1.
</event>
<event>
 7    1  0.2639126E-011  0.5052886E+02  0.7816164E-02  0.1300439E+00
        -11   -1    0    0    0    0  0.00000000000E+00  0.00000000000E+00  0.45593999997E+02  0.45594000000E+02  0.51100000000E-03 0.  1.
         11   -1    0    0    0    0 -0.00000000000E+00 -0.00000000000E+00 -0.45593999997E+02  0.45594000000E+02  0.51100000000E-03 0. -1.
    9900012    2    1    2    0    0 -0.23991861167E+02 -0.21783108793E+02  0.24557122672E+02  0.50528861976E+02  0.30000006462E+02 0.  0.
         12    1    1    2    0    0  0.23991861167E+02  0.21783108793E+02 -0.24557122672E+02  0.40659138024E+02  0.00000000000E+00 0. -1.
         11    1    3    3    0    0 -0.26483431839E+02 -0.73442485488E+01  0.11677127671E+02  0.29860767901E+02  0.51100000000E-03 0. -1.
        -11    1    3    3    0    0 -0.18742194678E+01 -0.12671859396E+01  0.14182561227E+01  0.26701890400E+01  0.51100000000E-03 0.  1.
        -12    1    3    3    0    0  0.43657901397E+01 -0.13171674305E+02  0.11461738879E+02  0.17997905035E+02  0.00000000000E+00 0.  1.
</event>
<event>
 7    1  0.2639126E-011  0.5052886E+02  0.7816164E-02  0.1300439E+00
        -11   -1    0    0    0    0  0.00000000000E+00  0.00000000000E+00  0.45593999997E+02  0.45594000000E+02  0.51100000000E-03 0.  1.
         11   -1    0    0    0    0 -0.00000000000E+00 -0.00000000000E+00 -0.45593999997E+02  0.45594000000E+02  0.51100000000E-03 0. -1.
    9900012    2    1    2    0    0  0.24194601504E+02 -0.25762130382E+02  0.20102232080E+02  0.50528857875E+02  0.29999993997E+02 0.  0.
         12    1    1    2    0    0 -0.24194601504E+02  0.25762130382E+02 -0.20102232080E+02  0.40659142125E+02  0.00000000000E+00 0. -1.
         11    1    3    3    0    0  0.15867161308E+02 -0.41533717953E+01  0.15810224616E+00  0.16402509011E+02  0.51100000000E-03 0. -1.
        -11    1    3    3    0    0  0.11987256464E+02 -0.18933296548E+02  0.19246201145E+02  0.29539470112E+02  0.51100000000E-03 0.  1.
        -12    1    3    3    0    0 -0.36598162683E+01 -0.26754620383E+01  0.69792868854E+00  0.45868787525E+01  0.00000000000E+00 0.  1.
</event>
<event>
 7    1  0.2639126E-011  0.5052886E+02  0.7816164E-02  0.1300439E+00
        -11   -1    0    0    0    0  0.00000000000E+00  0.00000000000E+00  0.45593999997E+02  0.45594000000E+02  0.51100000000E-03 0. -1.
         11   -1    0    0    0    0 -0.00000000000E+00 -0.00000000000E+00 -0.45593999997E+02  0.45594000000E+02  0.51100000000E-03 0.  1.
    9900012    2    1    2    0    0 -0.34475393988E+02  0.12256621853E+02  0.17730994088E+02  0.50528859315E+02  0.29999998375E+02 0.  0.
         12    1    1    2    0    0  0.34475393988E+02 -0.12256621853E+02 -0.17730994088E+02  0.40659140685E+02  0.00000000000E+00 0. -1.
         11    1    3    3    0    0 -0.67080256164E+01  0.21336475484E+00  0.18314168858E+01  0.69568110698E+01  0.51100000000E-03 0. -1.
        -11    1    3    3    0    0 -0.29254221698E+02  0.11817602871E+01  0.90479925606E+01  0.30644285180E+02  0.51100000000E-03 0.  1.
         12    1    3    3    0    0  0.14868533267E+01  0.10861496811E+02  0.68515846412E+01  0.12927763066E+02  0.00000000000E+00 0. -1.
</event>
<event>
 7    1  0.2639126E-011  0.5052883E+02  0.7816164E-02  0.1300439E+00
        -11   -1    0    0    0    0  0.00000000000E+00  0.00000000000E+00  0.45593999997E+02  0.45594000000E+02  0.51100000000E-03 0. -1.
         11   -1    0    0    0    0 -0.00000000000E+00 -0.00000000000E+00 -0.45593999997E+02  0.45594000000E+02  0.51100000000E-03 0.  1.
    9900012    2    1    2    0    0 -0.34466797197E+02 -0.20727811776E+02 -0.59637030720E+01  0.50528830746E+02  0.29999911537E+02 0.  0.
         12    1    1    2    0    0  0.34466797197E+02  0.20727811776E+02  0.59637030720E+01  0.40659169254E+02  0.00000000000E+00 0. -1.
         11    1    3    3    0    0 -0.25514602527E+02 -0.93903199008E+01 -0.59766231335E+01  0.27836901305E+02  0.51100000000E-03 0.  1.
        -11    1    3    3    0    0 -0.12481978227E+02 -0.85982971751E+01  0.50338312189E+01  0.15970909547E+02  0.51100000000E-03 0. -1.
         12    1    3    3    0    0  0.35297835565E+01 -0.27391947003E+01 -0.50209111574E+01  0.67210198938E+01  0.00000000000E+00 0. -1.
</event>
<event>
 7    1  0.2639126E-011  0.5052886E+02  0.7816164E-02  0.1300439E+00
        -11   -1    0    0    0    0  0.00000000000E+00  0.00000000000E+00  0.45593999997E+02  0.45594000000E+02  0.51100000000E-03 0. -1.
         11   -1    0    0    0    0 -0.00000000000E+00 -0.00000000000E+00 -0.45593999997E+02  0.45594000000E+02  0.51100000000E-03 0.  1.
    9900012    2    1    2    0    0 -0.28351800668E+02 -0.16289328436E+02 -0.24166068430E+02  0.50528859756E+02  0.29999999715E+02 0.  0.
         12    1    1    2    0    0  0.28351800668E+02  0.16289328436E+02  0.24166068430E+02  0.40659140244E+02  0.00000000000E+00 0. -1.
         11    1    3    3    0    0 -0.96508331798E+01 -0.90449653479E+01 -0.48685777413E+01  0.14094432542E+02  0.51100000000E-03 0. -1.
        -11    1    3    3    0    0 -0.63568526171E+01 -0.11651992273E+02 -0.19181949127E+02  0.23326501488E+02  0.51100000000E-03 0.  1.
         12    1    3    3    0    0 -0.12344114871E+02  0.44076291843E+01 -0.11554156180E+00  0.13107925726E+02  0.00000000000E+00 0. -1.
</event>
<event>
 7    1  0.2639126E-011  0.5052886E+02  0.7816164E-02  0.1300439E+00
        -11   -1    0    0    0    0  0.00000000000E+00  0.00000000000E+00  0.45593999997E+02  0.45594000000E+02  0.51100000000E-03 0.  1.
         11   -1    0    0    0    0 -0.00000000000E+00 -0.00000000000E+00 -0.45593999997E+02  0.45594000000E+02  0.51100000000E-03 0. -1.
    9900012    2    1    2    0    0  0.29209292457E+02 -0.15482809282E+02  0.23669922804E+02  0.50528863331E+02  0.30000010582E+02 0.  0.
         12    1    1    2    0    0 -0.29209292457E+02  0.15482809282E+02 -0.23669922804E+02  0.40659136669E+02  0.00000000000E+00 0. -1.
         11    1    3    3    0    0  0.14630282357E+02  0.47257748010E+01  0.46796284258E+01  0.16070999713E+02  0.51100000000E-03 0. -1.
        -11    1    3    3    0    0  0.13219165374E+02 -0.83731610292E+01  0.15544006735E+02  0.22056117166E+02  0.51100000000E-03 0.  1.
         12    1    3    3    0    0  0.13598447257E+01 -0.11835423054E+02  0.34462876429E+01  0.12401746452E+02  0.00000000000E+00 0. -1.
</event>
<event>
 7    1  0.2639126E-011  0.5052886E+02  0.7816164E-02  0.1300439E+00
        -11   -1    0    0    0    0  0.00000000000E+00  0.00000000000E+00  0.45593999997E+02  0.45594000000E+02  0.51100000000E-03 0.  1.
         11   -1    0    0    0    0 -0.00000000000E+00 -0.00000000000E+00 -0.45593999997E+02  0.45594000000E+02  0.51100000000E-03 0. -1.
    9900012    2    1    2    0    0  0.14845253026E+02 -0.34202045601E+02 -0.16217402902E+02  0.50528860590E+02  0.30000002250E+02 0.  0.
         12    1    1    2    0    0 -0.14845253026E+02  0.34202045601E+02  0.16217402902E+02  0.40659139410E+02  0.00000000000E+00 0. -1.
         11    1    3    3    0    0  0.27312804305E+01 -0.15391564123E+01  0.45193272580E+01  0.55002922084E+01  0.51100000000E-03 0.  1.
        -11    1    3    3    0    0  0.81811622371E+01 -0.19067717881E+01 -0.14826233848E+01  0.85302618110E+01  0.51100000000E-03 0. -1.
         12    1    3    3    0    0  0.39328103580E+01 -0.30756117400E+02 -0.19254106775E+02  0.36498306571E+02  0.00000000000E+00 0. -1.
</event>
<event>
 7    1  0.2639126E-011  0.5052886E+02  0.7816164E-02  0.1300439E+00
        -11   -1    0    0    0    0  0.00000000000E+00  0.00000000000E+00  0.45593999997E+02  0.45594000000E+02  0.51100000000E-03 0.  1.
         11   -1    0    0    0    0 -0.00000000000E+00 -0.00000000000E+00 -0.45593999997E+02  0.45594000000E+02  0.51100000000E-03 0. -1.
    9900012    2    1    2    0    0  0.39643526734E+02  0.51470228671E+01  0.74205357271E+01  0.50528863182E+02  0.30000010128E+02 0.  0.
         12    1    1    2    0    0 -0.39643526734E+02 -0.51470228671E+01 -0.74205357271E+01  0.40659136818E+02  0.00000000000E+00 0. -1.
         11    1    3    3    0    0  0.11222925594E+02 -0.24818267852E+01  0.63015048384E+01  0.13108107665E+02  0.51100000000E-03 0. -1.
        -11    1    3    3    0    0  0.15226558167E+02  0.45764084168E+00  0.11566582324E+02  0.19127031544E+02  0.51100000000E-03 0.  1.
         12    1    3    3    0    0  0.13194042973E+02  0.71712088106E+01 -0.10447551436E+02  0.18293723973E+02  0.00000000000E+00 0. -1.
</event>
<event>
 7    1  0.2639126E-011  0.5052886E+02  0.7816164E-02  0.1300439E+00
        -11   -1    0    0    0    0  0.00000000000E+00  0.00000000000E+00  0.45593999997E+02  0.45594000000E+02  0.51100000000E-03 0.  1.
         11   -1    0    0    0    0 -0.00000000000E+00 -0.00000000000E+00 -0.45593999997E+02  0.45594000000E+02  0.51100000000E-03 0. -1.
    9900012    2    1    2    0    0 -0.11484756850E+02 -0.14056298358E+02  0.36382504075E+02  0.50528858762E+02  0.29999996694E+02 0.  0.
         12    1    1    2    0    0  0.11484756850E+02  0.14056298358E+02 -0.36382504075E+02  0.40659141238E+02  0.00000000000E+00 0. -1.
         11    1    3    3    0    0 -0.37012337146E+00  0.41521342029E+00  0.42561216214E+00  0.70038522841E+00  0.51100000000E-03 0. -1.
        -11    1    3    3    0    0 -0.14913497682E+02  0.24260200418E+01  0.25373422680E+02  0.29531484303E+02  0.51100000000E-03 0.  1.
        -12    1    3    3    0    0  0.37988642029E+01 -0.16897531820E+02  0.10583469232E+02  0.20296989231E+02  0.00000000000E+00 0.  1.
</event>
<event>
 7    1  0.2639126E-011  0.5052887E+02  0.7816164E-02  0.1300439E+00
        -11   -1    0    0    0    0  0.00000000000E+00  0.00000000000E+00  0.45593999997E+02  0.45594000000E+02  0.51100000000E-03 0.  1.
         11   -1    0    0    0    0 -0.00000000000E+00 -0.00000000000E+00 -0.45593999997E+02  0.45594000000E+02  0.51100000000E-03 0. -1.
    9900012    2    1    2    0    0 -0.24817425212E+02 -0.23754107892E+02  0.21748621391E+02  0.50528871033E+02  0.30000033991E+02 0.  0.
         12    1    1    2    0    0  0.24817425212E+02  0.23754107892E+02 -0.21748621391E+02  0.40659128967E+02  0.00000000000E+00 0. -1.
         11    1    3    3    0    0  0.72267980565E+00 -0.20927711986E+01 -0.28505863684E+01  0.36094044240E+01  0.51100000000E-03 0. -1.
        -11    1    3    3    0    0 -0.88332355343E+01 -0.16018134448E+02  0.22185155403E+01  0.18426298941E+02  0.51100000000E-03 0.  1.
        -12    1    3    3    0    0 -0.16706869484E+02 -0.56432022463E+01  0.22380692220E+02  0.28493167668E+02  0.00000000000E+00 0.  1.
</event>
<event>
 7    1  0.2639126E-011  0.5052886E+02  0.7816164E-02  0.1300439E+00
        -11   -1    0    0    0    0  0.00000000000E+00  0.00000000000E+00  0.45593999997E+02  0.45594000000E+02  0.51100000000E-03 0.  1.
         11   -1    0    0    0    0 -0.00000000000E+00 -0.00000000000E+00 -0.45593999997E+02  0.45594000000E+02  0.51100000000E-03 0. -1.
    9900012    2    1    2    0    0  0.29800275707E+01 -0.12748849065E+02 -0.38493529252E+02  0.50528861900E+02  0.30000006230E+02 0.  0.
         12    1    1    2    0    0 -0.29800275707E+01  0.12748849065E+02  0.38493529252E+02  0.40659138100E+02  0.00000000000E+00 0. -1.
         11    1    3    3    0    0  0.71960032913E+01 -0.51868809593E+01 -0.52290285340E+01  0.10297035356E+02  0.51100000000E-03 0. -1.
        -11    1    3    3    0    0 -0.40393130219E+01  0.69846547609E+01 -0.11225015491E+02  0.13823980065E+02  0.51100000000E-03 0.  1.
         12    1    3    3    0    0 -0.17666269861E+00 -0.14546622867E+02 -0.22039485227E+02  0.26407846478E+02  0.00000000000E+00 0. -1.
</event>
<event>
 7    1  0.2639126E-011  0.5052885E+02  0.7816164E-02  0.1300439E+00
        -11   -1    0    0    0    0  0.00000000000E+00  0.00000000000E+00  0.45593999997E+02  0.45594000000E+02  0.51100000000E-03 0.  1.
         11   -1    0    0    0    0 -0.00000000000E+00 -0.00000000000E+00 -0.45593999997E+02  0.45594000000E+02  0.51100000000E-03 0. -1.
    9900012    2    1    2    0    0  0.38494857000E+02 -0.11375432627E+02  0.64739293011E+01  0.50528852893E+02  0.29999978852E+02 0.  0.
         12    1    1    2    0    0 -0.38494857000E+02  0.11375432627E+02 -0.64739293011E+01  0.40659147107E+02  0.00000000000E+00 0. -1.
         11    1    3    3    0    0  0.18419254498E+02 -0.70616809742E+01 -0.44067065972E+01  0.20212751860E+02  0.51100000000E-03 0. -1.
        -11    1    3    3    0    0  0.21344334151E+02 -0.84476099608E+01  0.11924566396E+02  0.25867701838E+02  0.51100000000E-03 0.  1.
         12    1    3    3    0    0 -0.12687316493E+01  0.41338583082E+01 -0.10439304974E+01  0.44483991945E+01  0.00000000000E+00 0. -1.
</event>
<event>
 7    1  0.2639126E-011  0.5052886E+02  0.7816164E-02  0.1300439E+00
        -11   -1    0    0    0    0  0.00000000000E+00  0.00000000000E+00  0.45593999997E+02  0.45594000000E+02  0.51100000000E-03 0.  1.
         11   -1    0    0    0    0 -0.00000000000E+00 -0.00000000000E+00 -0.45593999997E+02  0.45594000000E+02  0.51100000000E-03 0. -1.
    9900012    2    1    2    0    0 -0.18712029677E+02 -0.73234028825E+01  0.35346760822E+02  0.50528858530E+02  0.29999995988E+02 0.  0.
         12    1    1    2    0    0  0.18712029677E+02  0.73234028825E+01 -0.35346760822E+02  0.40659141470E+02  0.00000000000E+00 0. -1.
         11    1    3    3    0    0  0.14195549218E+00  0.17389802387E+01 -0.20544023773E+01  0.26953242887E+01  0.51100000000E-03 0. -1.
        -11    1    3    3    0    0 -0.20432906303E+01 -0.62562399830E+01 -0.16335155678E+00  0.65834838283E+01  0.51100000000E-03 0.  1.
        -12    1    3    3    0    0 -0.16810694539E+02 -0.28061431382E+01  0.37564514756E+02  0.41250050413E+02  0.00000000000E+00 0.  1.
</event>
<event>
 7    1  0.2639126E-011  0.5052886E+02  0.7816164E-02  0.1300439E+00
        -11   -1    0    0    0    0  0.00000000000E+00  0.00000000000E+00  0.45593999997E+02  0.45594000000E+02  0.51100000000E-03 0.  1.
         11   -1    0    0    0    0 -0.00000000000E+00 -0.00000000000E+00 -0.45593999997E+02  0.45594000000E+02  0.51100000000E-03 0. -1.
    9900012    2    1    2    0    0  0.23639156081E+01  0.29625782152E+01  0.40482101135E+02  0.50528862294E+02  0.30000007428E+02 0.  0.
         12    1    1    2    0    0 -0.23639156081E+01 -0.29625782152E+01 -0.40482101135E+02  0.40659137706E+02  0.00000000000E+00 0. -1.
         11    1    3    3    0    0 -0.15693929233E+01 -0.76633882415E+00 -0.81531378688E+00  0.19274351282E+01  0.51100000000E-03 0. -1.
        -11    1    3    3    0    0  0.71855813466E+01  0.13132390150E+02  0.30133398776E+02  0.33646901378E+02  0.51100000000E-03 0.  1.
         12    1    3    3    0    0 -0.32522728152E+01 -0.94034731103E+01  0.11164016147E+02  0.14954525787E+02  0.00000000000E+00 0. -1.
</event>
<event>
 7    1  0.2639126E-011  0.5052883E+02  0.7816164E-02  0.1300439E+00
        -11   -1    0    0    0    0  0.00000000000E+00  0.00000000000E+00  0.45593999997E+02  0.45594000000E+02  0.51100000000E-03 0.  1.
         11   -1    0    0    0    0 -0.00000000000E+00 -0.00000000000E+00 -0.45593999997E+02  0.45594000000E+02  0.51100000000E-03 0. -1.
    9900012    2    1    2    0    0  0.39673499948E+01  0.37986737260E+02  0.13944042291E+02  0.50528826508E+02  0.29999898654E+02 0.  0.
         12    1    1    2    0    0 -0.39673499948E+01 -0.37986737260E+02 -0.13944042291E+02  0.40659173492E+02  0.00000000000E+00 0. -1.
         11    1    3    3    0    0  0.11633912390E+01  0.53558711707E+01 -0.35841736016E+01  0.65486743574E+01  0.51100000000E-03 0. -1.
        -11    1    3    3    0    0 -0.93162409562E+01  0.62373904570E+01  0.61504986849E+01  0.12787729259E+02  0.51100000000E-03 0.  1.
        -12    1    3    3    0    0  0.12120199712E+02  0.26393475632E+02  0.11377717207E+02  0.31192422892E+02  0.00000000000E+00 0.  1.
</event>
<event>
 7    1  0.2639126E-011  0.5052888E+02  0.7816164E-02  0.1300439E+00
        -11   -1    0    0    0    0  0.00000000000E+00  0.00000000000E+00  0.45593999997E+02  0.45594000000E+02  0.51100000000E-03 0. -1.
         11   -1    0    0    0    0 -0.00000000000E+00 -0.00000000000E+00 -0.45593999997E+02  0.45594000000E+02  0.51100000000E-03 0.  1.
    9900012    2    1    2    0    0  0.23343585464E+02  0.33253356371E+02  0.15670423117E+01  0.50528876622E+02  0.30000050980E+02 0.  0.
         12    1    1    2    0    0 -0.23343585464E+02 -0.33253356371E+02 -0.15670423117E+01  0.40659123378E+02  0.00000000000E+00 0. -1.
         11    1    3    3    0    0 -0.17133588553E+01  0.60095959015E+01 -0.75840586038E+01  0.98269418760E+01  0.51100000000E-03 0. -1.
        -11    1    3    3    0    0 -0.16236356680E+01  0.14663687641E+00  0.45571966817E+00  0.16927421047E+01  0.51100000000E-03 0.  1.
        -12    1    3    3    0    0  0.26680579988E+02  0.27097123593E+02  0.86953812473E+01  0.39009192641E+02  0.00000000000E+00 0.  1.
</event>
<event>
 7    1  0.2639126E-011  0.5052886E+02  0.7816164E-02  0.1300439E+00
        -11   -1    0    0    0    0  0.00000000000E+00  0.00000000000E+00  0.45593999997E+02  0.45594000000E+02  0.51100000000E-03 0. -1.
         11   -1    0    0    0    0 -0.00000000000E+00 -0.00000000000E+00 -0.45593999997E+02  0.45594000000E+02  0.51100000000E-03 0.  1.
    9900012    2    1    2    0    0  0.29627749041E+02  0.17776532091E+01 -0.27788524687E+02  0.50528859965E+02  0.30000000349E+02 0.  0.
         12    1    1    2    0    0 -0.29627749041E+02 -0.17776532091E+01  0.27788524687E+02  0.40659140035E+02  0.00000000000E+00 0. -1.
         11    1    3    3    0    0  0.20822351518E+01  0.24838322079E+01 -0.17918450481E-01  0.32412107301E+01  0.51100000000E-03 0. -1.
        -11    1    3    3    0    0 -0.52252649740E+01 -0.54075640642E+00 -0.20927279836E+01  0.56546726000E+01  0.51100000000E-03 0.  1.
        -12    1    3    3    0    0  0.32770778863E+02 -0.16542259242E+00 -0.25677878253E+02  0.41632976635E+02  0.00000000000E+00 0.  1.
</event>
<event>
 7    1  0.2639126E-011  0.5052888E+02  0.7816164E-02  0.1300439E+00
        -11   -1    0    0    0    0  0.00000000000E+00  0.00000000000E+00  0.45593999997E+02  0.45594000000E+02  0.51100000000E-03 0.  1.
         11   -1    0    0    0    0 -0.00000000000E+00 -0.00000000000E+00 -0.45593999997E+02  0.45594000000E+02  0.51100000000E-03 0. -1.
    9900012    2    1    2    0    0 -0.25248402121E+02 -0.28726799408E+02 -0.13800490308E+02  0.50528876219E+02  0.30000049755E+02 0.  0.
         12    1    1    2    0    0  0.25248402121E+02  0.28726799408E+02  0.13800490308E+02  0.40659123781E+02  0.00000000000E+00 0. -1.
         11    1    3    3    0    0 -0.16987497462E+02 -0.95747861195E+01 -0.15938970107E+02  0.25185360184E+02  0.51100000000E-03 0. -1.
        -11    1    3    3    0    0 -0.83185986109E+01 -0.27112154691E+01 -0.10737935638E+00  0.87499315858E+01  0.51100000000E-03 0.  1.
         12    1    3    3    0    0  0.57693951530E-01 -0.16440797819E+02  0.22458591555E+01  0.16593584449E+02  0.00000000000E+00 0. -1.
</event>
<event>
 7    1  0.2639126E-011  0.5052886E+02  0.7816164E-02  0.1300439E+00
        -11   -1    0    0    0    0  0.00000000000E+00  0.00000000000E+00  0.45593999997E+02  0.45594000000E+02  0.51100000000E-03 0. -1.
         11   -1    0    0    0    0 -0.00000000000E+00 -0.00000000000E+00 -0.45593999997E+02  0.45594000000E+02  0.51100000000E-03 0.  1.
    9900012    2    1    2    0    0  0.22376096885E+02 -0.33871944796E+02 -0.22730848052E+01  0.50528864857E+02  0.30000015219E+02 0.  0.
         12    1    1    2    0    0 -0.22376096885E+02  0.33871944796E+02  0.22730848052E+01  0.40659135143E+02  0.00000000000E+00 0. -1.
         11    1    3    3    0    0  0.32578898922E+01 -0.63820125599E+00 -0.29094319577E+01  0.44142883878E+01  0.51100000000E-03 0. -1.
        -11    1    3    3    0    0  0.10499137269E+02 -0.24838015215E+02 -0.11234091403E+02  0.29212389377E+02  0.51100000000E-03 0.  1.
         12    1    3    3    0    0  0.86190697232E+01 -0.83957283251E+01  0.11870438555E+02  0.16902187092E+02  0.00000000000E+00 0. -1.
</event>
<event>
 7    1  0.2639126E-011  0.5052886E+02  0.7816164E-02  0.1300439E+00
        -11   -1    0    0    0    0  0.00000000000E+00  0.00000000000E+00  0.45593999997E+02  0.45594000000E+02  0.51100000000E-03 0. -1.
         11   -1    0    0    0    0 -0.00000000000E+00 -0.00000000000E+00 -0.45593999997E+02  0.45594000000E+02  0.51100000000E-03 0.  1.
    9900012    2    1    2    0    0  0.20881784471E+02  0.21742184083E+02 -0.27283584576E+02  0.50528862297E+02  0.30000007439E+02 0.  0.
         12    1    1    2    0    0 -0.20881784471E+02 -0.21742184083E+02  0.27283584576E+02  0.40659137703E+02  0.00000000000E+00 0. -1.
         11    1    3    3    0    0  0.10159901319E+02  0.46402186249E+01 -0.21381364046E+02  0.24122975613E+02  0.51100000000E-03 0. -1.
        -11    1    3    3    0    0 -0.80575844079E+00  0.39821823486E+01 -0.78438236745E+01  0.88336058900E+01  0.51100000000E-03 0.  1.
         12    1    3    3    0    0  0.11527641593E+02  0.13119783110E+02  0.19416031443E+01  0.17572280794E+02  0.00000000000E+00 0. -1.
</event>
<event>
 7    1  0.2639126E-011  0.5052885E+02  0.7816164E-02  0.1300439E+00
        -11   -1    0    0    0    0  0.00000000000E+00  0.00000000000E+00  0.45593999997E+02  0.45594000000E+02  0.51100000000E-03 0.  1.
         11   -1    0    0    0    0 -0.00000000000E+00 -0.00000000000E+00 -0.45593999997E+02  0.45594000000E+02  0.51100000000E-03 0. -1.
    9900012    2    1    2    0    0 -0.72000563145E+01 -0.37094956972E+02 -0.15009647888E+02  0.50528853755E+02  0.29999981472E+02 0.  0.
         12    1    1    2    0    0  0.72000563145E+01  0.37094956972E+02  0.15009647888E+02  0.40659146245E+02  0.00000000000E+00 0. -1.
         11    1    3    3    0    0  0.56240845872E+01 -0.66669580940E+00 -0.82666031400E+00  0.57234760664E+01  0.51100000000E-03 0. -1.
        -11    1    3    3    0    0  0.17936197291E+01 -0.75832791685E+01 -0.92482954155E+01  0.12093558741E+02  0.51100000000E-03 0.  1.
        -12    1    3    3    0    0 -0.14617760631E+02 -0.28844981994E+02 -0.49346921583E+01  0.32711818947E+02  0.00000000000E+00 0.  1.
</event>
<event>
 7    1  0.2639126E-011  0.5052886E+02  0.7816164E-02  0.1300439E+00
        -11   -1    0    0    0    0  0.00000000000E+00  0.00000000000E+00  0.45593999997E+02  0.45594000000E+02  0.51100000000E-03 0.  1.
         11   -1    0    0    0    0 -0.00000000000E+00 -0.00000000000E+00 -0.45593999997E+02  0.45594000000E+02  0.51100000000E-03 0. -1.
    9900012    2    1    2    0    0 -0.32970757563E+02 -0.87049710254E+01  0.22143127517E+02  0.50528862391E+02  0.30000007724E+02 0.  0.
         12    1    1    2    0    0  0.32970757563E+02  0.87049710254E+01 -0.22143127517E+02  0.40659137609E+02  0.00000000000E+00 0. -1.
         11    1    3    3    0    0 -0.85725340990E+00  0.37585784508E+01  0.13172363568E+02  0.13724902827E+02  0.51100000000E-03 0.  1.
        -11    1    3    3    0    0 -0.21029912077E+02 -0.32509684173E+01  0.51664115061E+01  0.21897895007E+02  0.51100000000E-03 0. -1.
        -12    1    3    3    0    0 -0.11083592076E+02 -0.92125810589E+01  0.38043524432E+01  0.14906064557E+02  0.00000000000E+00 0.  1.
</event>
<event>
 7    1  0.2639126E-011  0.5052886E+02  0.7816164E-02  0.1300439E+00
        -11   -1    0    0    0    0  0.00000000000E+00  0.00000000000E+00  0.45593999997E+02  0.45594000000E+02  0.51100000000E-03 0. -1.
         11   -1    0    0    0    0 -0.00000000000E+00 -0.00000000000E+00 -0.45593999997E+02  0.45594000000E+02  0.51100000000E-03 0.  1.
    9900012    2    1    2    0    0  0.37309007701E+02 -0.11738347835E+02 -0.11109224362E+02  0.50528859189E+02  0.29999997991E+02 0.  0.
         12    1    1    2    0    0 -0.37309007701E+02  0.11738347835E+02  0.11109224362E+02  0.40659140811E+02  0.00000000000E+00 0. -1.
         11    1    3    3    0    0  0.24413536301E+02  0.37104762721E+01  0.10567767329E+01  0.24716495832E+02  0.51100000000E-03 0. -1.
        -11    1    3    3    0    0  0.76840739871E+01 -0.24394349268E+01 -0.14989014898E+01  0.82001549826E+01  0.51100000000E-03 0.  1.
         12    1    3    3    0    0  0.52113974135E+01 -0.13009389181E+02 -0.10667099605E+02  0.17612208375E+02  0.00000000000E+00 0. -1.
</event>
<event>
 7    1  0.2639126E-011  0.5052886E+02  0.7816164E-02  0.1300439E+00
        -11   -1    0    0    0    0  0.00000000000E+00  0.00000000000E+00  0.45593999997E+02  0.45594000000E+02  0.51100000000E-03 0.  1.
         11   -1    0    0    0    0 -0.00000000000E+00 -0.00000000000E+00 -0.45593999997E+02  0.45594000000E+02  0.51100000000E-03 0. -1.
    9900012    2    1    2    0    0 -0.19104849411E+01  0.22027921074E+01  0.40554448915E+02  0.50528861143E+02  0.30000003931E+02 0.  0.
         12    1    1    2    0    0  0.19104849411E+01 -0.22027921074E+01 -0.40554448915E+02  0.40659138857E+02  0.00000000000E+00 0. -1.
         11    1    3    3    0    0 -0.11714847128E+01 -0.29420001366E+01  0.23058029108E+01  0.39172016237E+01  0.51100000000E-03 0.  1.
        -11    1    3    3    0    0 -0.12786182393E+02  0.57165589421E+01  0.15694445824E+02  0.21035235590E+02  0.51100000000E-03 0. -1.
         12    1    3    3    0    0  0.12047182165E+02 -0.57176669816E+00  0.22554200180E+02  0.25576423930E+02  0.00000000000E+00 0. -1.
</event>
<event>
 7    1  0.2639126E-011  0.5052886E+02  0.7816164E-02  0.1300439E+00
        -11   -1    0    0    0    0  0.00000000000E+00  0.00000000000E+00  0.45593999997E+02  0.45594000000E+02  0.51100000000E-03 0. -1.
         11   -1    0    0    0    0 -0.00000000000E+00 -0.00000000000E+00 -0.45593999997E+02  0.45594000000E+02  0.51100000000E-03 0.  1.
    9900012    2    1    2    0    0 -0.86255585839E+01  0.19509340218E+02 -0.34614319724E+02  0.50528859003E+02  0.29999997425E+02 0.  0.
         12    1    1    2    0    0  0.86255585839E+01 -0.19509340218E+02  0.34614319724E+02  0.40659140997E+02  0.00000000000E+00 0. -1.
         11    1    3    3    0    0 -0.60498225050E+01  0.63127072059E+00 -0.27636480687E+02  0.28297949044E+02  0.51100000000E-03 0.  1.
        -11    1    3    3    0    0  0.31838890984E+01  0.78332659904E+01 -0.13519270731E+01  0.85629967266E+01  0.51100000000E-03 0. -1.
        -12    1    3    3    0    0 -0.57596251773E+01  0.11044803507E+02 -0.56259119640E+01  0.13667913232E+02  0.00000000000E+00 0.  1.
</event>
<event>
 7    1  0.2639126E-011  0.5052885E+02  0.7816164E-02  0.1300439E+00
        -11   -1    0    0    0    0  0.00000000000E+00  0.00000000000E+00  0.45593999997E+02  0.45594000000E+02  0.51100000000E-03 0.  1.
         11   -1    0    0    0    0 -0.00000000000E+00 -0.00000000000E+00 -0.45593999997E+02  0.45594000000E+02  0.51100000000E-03 0. -1.
    9900012    2    1    2    0    0  0.28614095722E+02  0.16146946929E+01  0.28840816020E+02  0.50528851194E+02  0.29999973689E+02 0.  0.
         12    1    1    2    0    0 -0.28614095722E+02 -0.16146946929E+01 -0.28840816020E+02  0.40659148806E+02  0.00000000000E+00 0. -1.
         11    1    3    3    0    0 -0.61403058940E+00 -0.30167075527E+01  0.64602950598E+01  0.71563238149E+01  0.51100000000E-03 0. -1.
        -11    1    3    3    0    0 -0.33562521512E+01  0.28760440729E+01  0.16779682621E+01  0.47277516603E+01  0.51100000000E-03 0.  1.
        -12    1    3    3    0    0  0.32584378463E+02  0.17553581728E+01  0.20702552698E+02  0.38644775719E+02  0.00000000000E+00 0.  1.
</event>
<event>
 7    1  0.2639126E-011  0.5052886E+02  0.7816164E-02  0.1300439E+00
        -11   -1    0    0    0    0  0.00000000000E+00  0.00000000000E+00  0.45593999997E+02  0.45594000000E+02  0.51100000000E-03 0.  1.
         11   -1    0    0    0    0 -0.00000000000E+00 -0.00000000000E+00 -0.45593999997E+02  0.45594000000E+02  0.51100000000E-03 0. -1.
    9900012    2    1    2    0    0 -0.32661807626E+02  0.95000551817E+01  0.22273775475E+02  0.50528858349E+02  0.29999995438E+02 0.  0.
         12    1    1    2    0    0  0.32661807626E+02 -0.95000551817E+01 -0.22273775475E+02  0.40659141651E+02  0.00000000000E+00 0. -1.
         11    1    3    3    0    0 -0.10550785603E+02  0.55175047039E+00  0.11033377535E+02  0.15276089994E+02  0.51100000000E-03 0. -1.
        -11    1    3    3    0    0 -0.24749751819E+02  0.11513165755E+02  0.13976963215E+02  0.30666899123E+02  0.51100000000E-03 0.  1.
         12    1    3    3    0    0  0.26387297957E+01 -0.25648610439E+01 -0.27365652753E+01  0.45858692322E+01  0.00000000000E+00 0. -1.
</event>
<event>
 7    1  0.2639126E-011  0.5052886E+02  0.7816164E-02  0.1300439E+00
        -11   -1    0    0    0    0  0.00000000000E+00  0.00000000000E+00  0.45593999997E+02  0.45594000000E+02  0.51100000000E-03 0. -1.
         11   -1    0    0    0    0 -0.00000000000E+00 -0.00000000000E+00 -0.45593999997E+02  0.45594000000E+02  0.51100000000E-03 0.  1.
    9900012    2    1    2    0    0  0.32188537213E+02  0.20114291906E+02 -0.14576670839E+02  0.50528855893E+02  0.29999987971E+02 0.  0.
         12    1    1    2    0    0 -0.32188537213E+02 -0.20114291906E+02  0.14576670839E+02  0.40659144107E+02  0.00000000000E+00 0. -1.
         11    1    3    3    0    0  0.89130496066E+01 -0.21732982966E+01 -0.69501908063E+01  0.11509597355E+02  0.51100000000E-03 0. -1.
        -11    1    3    3    0    0  0.10755720341E+02  0.13687441650E+01 -0.97052314676E+01  0.14551649348E+02  0.51100000000E-03 0.  1.
         12    1    3    3    0    0  0.12519767266E+02  0.20918846037E+02  0.20787514347E+01  0.24467609189E+02  0.00000000000E+00 0. -1.
</event>
<event>
 7    1  0.2639126E-011  0.5052893E+02  0.7816164E-02  0.1300439E+00
        -11   -1    0    0    0    0  0.00000000000E+00  0.00000000000E+00  0.45593999997E+02  0.45594000000E+02  0.51100000000E-03 0. -1.
         11   -1    0    0    0    0 -0.00000000000E+00 -0.00000000000E+00 -0.45593999997E+02  0.45594000000E+02  0.51100000000E-03 0.  1.
    9900012    2    1    2    0    0 -0.74299828504E+00  0.13296493528E+02 -0.38416286522E+02  0.50528931433E+02  0.30000217583E+02 0.  0.
         12    1    1    2    0    0  0.74299828504E+00 -0.13296493528E+02  0.38416286522E+02  0.40659068567E+02  0.00000000000E+00 0. -1.
         11    1    3    3    0    0  0.50402238325E+01  0.93782839939E+01 -0.27790768493E+00  0.10650507025E+02  0.51100000000E-03 0. -1.
        -11    1    3    3    0    0 -0.48792163401E+01 -0.21909589338E+01 -0.14801055924E+02  0.15737798762E+02  0.51100000000E-03 0.  1.
        -12    1    3    3    0    0 -0.90400577748E+00  0.61091684674E+01 -0.23337322913E+02  0.24140625646E+02  0.00000000000E+00 0.  1.
</event>
<event>
 7    1  0.2639126E-011  0.5052886E+02  0.7816164E-02  0.1300439E+00
        -11   -1    0    0    0    0  0.00000000000E+00  0.00000000000E+00  0.45593999997E+02  0.45594000000E+02  0.51100000000E-03 0. -1.
         11   -1    0    0    0    0 -0.00000000000E+00 -0.00000000000E+00 -0.45593999997E+02  0.45594000000E+02  0.51100000000E-03 0.  1.
    9900012    2    1    2    0    0  0.28522156214E+02 -0.10000587081E+02  0.27196338194E+02  0.50528856524E+02  0.29999989890E+02 0.  0.
         12    1    1    2    0    0 -0.28522156214E+02  0.10000587081E+02 -0.27196338194E+02  0.40659143476E+02  0.00000000000E+00 0. -1.
         11    1    3    3    0    0  0.19634822787E+02 -0.91560538035E+01  0.91750654751E+01  0.23527460846E+02  0.51100000000E-03 0. -1.
        -11    1    3    3    0    0  0.47451690706E+01  0.61570898645E+01  0.62690359414E+00  0.77986789577E+01  0.51100000000E-03 0.  1.
         12    1    3    3    0    0  0.41421643563E+01 -0.70016231420E+01  0.17394369124E+02  0.19202716720E+02  0.00000000000E+00 0. -1.
</event>
<event>
 7    1  0.2639126E-011  0.5052884E+02  0.7816164E-02  0.1300439E+00
        -11   -1    0    0    0    0  0.00000000000E+00  0.00000000000E+00  0.45593999997E+02  0.45594000000E+02  0.51100000000E-03 0.  1.
         11   -1    0    0    0    0 -0.00000000000E+00 -0.00000000000E+00 -0.45593999997E+02  0.45594000000E+02  0.51100000000E-03 0. -1.
    9900012    2    1    2    0    0  0.79513106527E+01  0.80078789770E+00  0.39866062641E+02  0.50528836791E+02  0.29999929911E+02 0.  0.
         12    1    1    2    0    0 -0.79513106527E+01 -0.80078789770E+00 -0.39866062641E+02  0.40659163209E+02  0.00000000000E+00 0. -1.
         11    1    3    3    0    0  0.33196281426E+01 -0.23749027219E+01  0.80614851733E+01  0.90359082224E+01  0.51100000000E-03 0. -1.
        -11    1    3    3    0    0 -0.47425592994E+01 -0.95050556485E+01  0.10044169797E+02  0.14619278326E+02  0.51100000000E-03 0.  1.
        -12    1    3    3    0    0  0.93742418096E+01  0.12680746268E+02  0.21760407670E+02  0.26873650243E+02  0.00000000000E+00 0.  1.
</event>
<event>
 7    1  0.2639126E-011  0.5052888E+02  0.7816164E-02  0.1300439E+00
        -11   -1    0    0    0    0  0.00000000000E+00  0.00000000000E+00  0.45593999997E+02  0.45594000000E+02  0.51100000000E-03 0.  1.
         11   -1    0    0    0    0 -0.00000000000E+00 -0.00000000000E+00 -0.45593999997E+02  0.45594000000E+02  0.51100000000E-03 0. -1.
    9900012    2    1    2    0    0 -0.11494211628E+02  0.27371688663E+01  0.38904434395E+02  0.50528880359E+02  0.30000062340E+02 0.  0.
         12    1    1    2    0    0  0.11494211628E+02 -0.27371688663E+01 -0.38904434395E+02  0.40659119641E+02  0.00000000000E+00 0. -1.
         11    1    3    3    0    0 -0.32161205917E+01  0.29792608058E+01  0.71568456744E+00  0.44420300844E+01  0.51100000000E-03 0. -1.
        -11    1    3    3    0    0 -0.24485780127E+00  0.82162008829E+01  0.25787050982E+01  0.86148495364E+01  0.51100000000E-03 0.  1.
        -12    1    3    3    0    0 -0.80332332349E+01 -0.84582928225E+01  0.35610044730E+02  0.37472000738E+02  0.00000000000E+00 0.  1.
</event>
<event>
 7    1  0.2639126E-011  0.5052886E+02  0.7816164E-02  0.1300439E+00
        -11   -1    0    0    0    0  0.00000000000E+00  0.00000000000E+00  0.45593999997E+02  0.45594000000E+02  0.51100000000E-03 0.  1.
         11   -1    0    0    0    0 -0.00000000000E+00 -0.00000000000E+00 -0.45593999997E+02  0.45594000000E+02  0.51100000000E-03 0. -1.
    9900012    2    1    2    0    0  0.29781871401E+02 -0.27290133262E+02 -0.46318858059E+01  0.50528860760E+02  0.30000002767E+02 0.  0.
         12    1    1    2    0    0 -0.29781871401E+02  0.27290133262E+02  0.46318858059E+01  0.40659139240E+02  0.00000000000E+00 0. -1.
         11    1    3    3    0    0  0.10105986417E+02 -0.29701711107E+01  0.50529167316E+01  0.11682672881E+02  0.51100000000E-03 0. -1.
        -11    1    3    3    0    0  0.13158346136E+02 -0.75751888240E+01  0.46293598056E+01  0.15873138669E+02  0.51100000000E-03 0.  1.
         12    1    3    3    0    0  0.65175388480E+01 -0.16744773327E+02 -0.14314162343E+02  0.22973049210E+02  0.00000000000E+00 0. -1.
</event>
<event>
 7    1  0.2639126E-011  0.5052890E+02  0.7816164E-02  0.1300439E+00
        -11   -1    0    0    0    0  0.00000000000E+00  0.00000000000E+00  0.45593999997E+02  0.45594000000E+02  0.51100000000E-03 0.  1.
         11   -1    0    0    0    0 -0.00000000000E+00 -0.00000000000E+00 -0.45593999997E+02  0.45594000000E+02  0.51100000000E-03 0. -1.
    9900012    2    1    2    0    0  0.28247499584E+02 -0.13802167774E+02  0.25782572899E+02  0.50528903437E+02  0.30000132488E+02 0.  0.
         12    1    1    2    0    0 -0.28247499584E+02  0.13802167774E+02 -0.25782572899E+02  0.40659096563E+02  0.00000000000E+00 0. -1.
         11    1    3    3    0    0  0.12863321083E+02  0.32697919516E+01  0.40763675310E+01  0.13884283964E+02  0.51100000000E-03 0. -1.
        -11    1    3    3    0    0  0.76565414770E+01  0.25073737000E+01  0.89042330155E+01  0.12008118758E+02  0.51100000000E-03 0.  1.
        -12    1    3    3    0    0  0.77276370238E+01 -0.19579333426E+02  0.12801972352E+02  0.24636500715E+02  0.00000000000E+00 0.  1.
</event>
<event>
 7    1  0.2639126E-011  0.5052886E+02  0.7816164E-02  0.1300439E+00
        -11   -1    0    0    0    0  0.00000000000E+00  0.00000000000E+00  0.45593999997E+02  0.45594000000E+02  0.51100000000E-03 0.  1.
         11   -1    0    0    0    0 -0.00000000000E+00 -0.00000000000E+00 -0.45593999997E+02  0.45594000000E+02  0.51100000000E-03 0. -1.
    9900012    2    1    2    0    0  0.11882518773E+02 -0.17961948563E+02  0.34486810492E+02  0.50528856545E+02  0.29999989956E+02 0.  0.
         12    1    1    2    0    0 -0.11882518773E+02  0.17961948563E+02 -0.34486810492E+02  0.40659143455E+02  0.00000000000E+00 0. -1.
         11    1    3    3    0    0  0.23135173486E+01 -0.57340805903E+00  0.14130699697E+02  0.14330311703E+02  0.51100000000E-03 0. -1.
        -11    1    3    3    0    0  0.11617453298E+02 -0.11038747136E+02  0.23798159669E+02  0.28690966582E+02  0.51100000000E-03 0.  1.
         12    1    3    3    0    0 -0.20484518739E+01 -0.63497933678E+01 -0.34420488742E+01  0.75075782611E+01  0.00000000000E+00 0. -1.
</event>
<event>
 7    1  0.2639126E-011  0.5052886E+02  0.7816164E-02  0.1300439E+00
        -11   -1    0    0    0    0  0.00000000000E+00  0.00000000000E+00  0.45593999997E+02  0.45594000000E+02  0.51100000000E-03 0.  1.
         11   -1    0    0    0    0 -0.00000000000E+00 -0.00000000000E+00 -0.45593999997E+02  0.45594000000E+02  0.51100000000E-03 0. -1.
    9900012    2    1    2    0    0  0.40622112050E+02 -0.17347410875E+01 -0.17784711084E-01  0.50528860433E+02  0.30000001772E+02 0.  0.
         12    1    1    2    0    0 -0.40622112050E+02  0.17347410875E+01  0.17784711084E-01  0.40659139567E+02  0.00000000000E+00 0. -1.
         11    1    3    3    0    0  0.16654928682E+01  0.30558433881E+01 -0.60120529308E+01  0.69467133243E+01  0.51100000000E-03 0. -1.
        -11    1    3    3    0    0  0.18482491125E+01  0.35833103046E+01  0.36987866848E+01  0.54714861530E+01  0.51100000000E-03 0.  1.
        -12    1    3    3    0    0  0.37108370069E+02 -0.83738947803E+01  0.22954815349E+01  0.38110660956E+02  0.00000000000E+00 0.  1.
</event>
<event>
 7    1  0.2639126E-011  0.5052886E+02  0.7816164E-02  0.1300439E+00
        -11   -1    0    0    0    0  0.00000000000E+00  0.00000000000E+00  0.45593999997E+02  0.45594000000E+02  0.51100000000E-03 0. -1.
         11   -1    0    0    0    0 -0.00000000000E+00 -0.00000000000E+00 -0.45593999997E+02  0.45594000000E+02  0.51100000000E-03 0.  1.
    9900012    2    1    2    0    0 -0.15415551631E+02 -0.48674566377E+01 -0.37307293835E+02  0.50528861550E+02  0.30000005168E+02 0.  0.
         12    1    1    2    0    0  0.15415551631E+02  0.48674566377E+01  0.37307293835E+02  0.40659138450E+02  0.00000000000E+00 0. -1.
         11    1    3    3    0    0 -0.11727069127E+02 -0.21682981935E+01 -0.34033180869E+02  0.36062211076E+02  0.51100000000E-03 0. -1.
        -11    1    3    3    0    0 -0.46453943926E+01 -0.31386245213E+01 -0.79197039324E+01  0.97032140854E+01  0.51100000000E-03 0.  1.
         12    1    3    3    0    0  0.95691188818E+00  0.43946607708E+00  0.46455909670E+01  0.47634363885E+01  0.00000000000E+00 0. -1.
</event>
<event>
 7    1  0.2639126E-011  0.5052886E+02  0.7816164E-02  0.1300439E+00
        -11   -1    0    0    0    0  0.00000000000E+00  0.00000000000E+00  0.45593999997E+02  0.45594000000E+02  0.51100000000E-03 0. -1.
         11   -1    0    0    0    0 -0.00000000000E+00 -0.00000000000E+00 -0.45593999997E+02  0.45594000000E+02  0.51100000000E-03 0.  1.
    9900012    2    1    2    0    0 -0.12488153207E+02 -0.21215789330E+02 -0.32358959235E+02  0.50528856745E+02  0.29999990563E+02 0.  0.
         12    1    1    2    0    0  0.12488153207E+02  0.21215789330E+02  0.32358959235E+02  0.40659143255E+02  0.00000000000E+00 0. -1.
         11    1    3    3    0    0 -0.10872470203E+01 -0.98121043797E+01 -0.35315962593E+01  0.10484830511E+02  0.51100000000E-03 0. -1.
        -11    1    3    3    0    0 -0.81881198902E+01 -0.14664369245E+02 -0.30782523411E+02  0.35066405298E+02  0.51100000000E-03 0.  1.
         12    1    3    3    0    0 -0.32127862967E+01  0.32606842944E+01  0.19551604360E+01  0.49776209365E+01  0.00000000000E+00 0. -1.
</event>
<event>
 7    1  0.2639126E-011  0.5052886E+02  0.7816164E-02  0.1300439E+00
        -11   -1    0    0    0    0  0.00000000000E+00  0.00000000000E+00  0.45593999997E+02  0.45594000000E+02  0.51100000000E-03 0.  1.
         11   -1    0    0    0    0 -0.00000000000E+00 -0.00000000000E+00 -0.45593999997E+02  0.45594000000E+02  0.51100000000E-03 0. -1.
    9900012    2    1    2    0    0 -0.38187149653E+02 -0.12895567116E+02  0.53490148771E+01  0.50528855764E+02  0.29999987580E+02 0.  0.
         12    1    1    2    0    0  0.38187149653E+02  0.12895567116E+02 -0.53490148771E+01  0.40659144236E+02  0.00000000000E+00 0. -1.
         11    1    3    3    0    0  0.78881709096E+00  0.27738389953E+00  0.54371028441E+00  0.99739428773E+00  0.51100000000E-03 0. -1.
        -11    1    3    3    0    0 -0.18568451879E+02  0.57091902774E+01  0.90070797488E+01  0.21412840649E+02  0.51100000000E-03 0.  1.
         12    1    3    3    0    0 -0.20407514865E+02 -0.18882141293E+02 -0.42017751562E+01  0.28118620827E+02  0.00000000000E+00 0. -1.
</event>
<event>
 7    1  0.2639126E-011  0.5052884E+02  0.7816164E-02  0.1300439E+00
        -11   -1    0    0    0    0  0.00000000000E+00  0.00000000000E+00  0.45593999997E+02  0.45594000000E+02  0.51100000000E-03 0. -1.
         11   -1    0    0    0    0 -0.00000000000E+00 -0.00000000000E+00 -0.45593999997E+02  0.45594000000E+02  0.51100000000E-03 0.  1.
    9900012    2    1    2    0    0 -0.28637297768E+02 -0.23958715691E+01 -0.28763384573E+02  0.50528839703E+02  0.29999938760E+02 0.  0.
         12    1    1    2    0    0  0.28637297768E+02  0.23958715691E+01  0.28763384573E+02  0.40659160297E+02  0.00000000000E+00 0. -1.
         11    1    3    3    0    0  0.42596986064E+01 -0.42744789014E+01 -0.54376543123E+01  0.81230712650E+01  0.51100000000E-03 0. -1.
        -11    1    3    3    0    0 -0.23684867625E+01 -0.78958530267E+00 -0.75226322912E+01  0.79261069475E+01  0.51100000000E-03 0.  1.
        -12    1    3    3    0    0 -0.30528509612E+02  0.26681926349E+01 -0.15803097969E+02  0.34479661490E+02  0.00000000000E+00 0.  1.
</event>
<event>
 7    1  0.2639126E-011  0.5052885E+02  0.7816164E-02  0.1300439E+00
        -11   -1    0    0    0    0  0.00000000000E+00  0.00000000000E+00  0.45593999997E+02  0.45594000000E+02  0.51100000000E-03 0.  1.
         11   -1    0    0    0    0 -0.00000000000E+00 -0.00000000000E+00 -0.45593999997E+02  0.45594000000E+02  0.51100000000E-03 0. -1.
    9900012    2    1    2    0    0 -0.11005221169E+02  0.30044235143E+02  0.25087758784E+02  0.50528848520E+02  0.29999965561E+02 0.  0.
         12    1    1    2    0    0  0.11005221169E+02 -0.30044235143E+02 -0.25087758784E+02  0.40659151480E+02  0.00000000000E+00 0. -1.
         11    1    3    3    0    0  0.30622490802E+00  0.15605745563E+02  0.16093879183E+00  0.15609579425E+02  0.51100000000E-03 0. -1.
        -11    1    3    3    0    0 -0.42440981278E+01  0.16407928905E+02  0.15440081351E+02  0.22926591815E+02  0.51100000000E-03 0.  1.
         12    1    3    3    0    0 -0.70673479491E+01 -0.19694393251E+01  0.94867386409E+01  0.11992677279E+02  0.00000000000E+00 0. -1.
</event>
<event>
 7    1  0.2639126E-011  0.5052887E+02  0.7816164E-02  0.1300439E+00
        -11   -1    0    0    0    0  0.00000000000E+00  0.00000000000E+00  0.45593999997E+02  0.45594000000E+02  0.51100000000E-03 0. -1.
         11   -1    0    0    0    0 -0.00000000000E+00 -0.00000000000E+00 -0.45593999997E+02  0.45594000000E+02  0.51100000000E-03 0.  1.
    9900012    2    1    2    0    0  0.25774085600E+02 -0.14419956388E+02 -0.27945054828E+02  0.50528871627E+02  0.30000035796E+02 0.  0.
         12    1    1    2    0    0 -0.25774085600E+02  0.14419956388E+02  0.27945054828E+02  0.40659128373E+02  0.00000000000E+00 0. -1.
         11    1    3    3    0    0 -0.37796967691E+00  0.13853756365E+01 -0.27285531801E+01  0.30833633339E+01  0.51100000000E-03 0. -1.
        -11    1    3    3    0    0  0.85147744122E+01 -0.13924970668E+02 -0.24817510894E+02  0.29703788287E+02  0.51100000000E-03 0.  1.
         12    1    3    3    0    0  0.17637280865E+02 -0.18803613573E+01 -0.39899075368E+00  0.17741720005E+02  0.00000000000E+00 0. -1.
</event>
<event>
 7    1  0.2639126E-011  0.5052882E+02  0.7816164E-02  0.1300439E+00
        -11   -1    0    0    0    0  0.00000000000E+00  0.00000000000E+00  0.45593999997E+02  0.45594000000E+02  0.51100000000E-03 0. -1.
         11   -1    0    0    0    0 -0.00000000000E+00 -0.00000000000E+00 -0.45593999997E+02  0.45594000000E+02  0.51100000000E-03 0.  1.
    9900012    2    1    2    0    0 -0.12062797873E+02  0.14726585914E+02 -0.35927499569E+02  0.50528823293E+02  0.29999888882E+02 0.  0.
         12    1    1    2    0    0  0.12062797873E+02 -0.14726585914E+02  0.35927499569E+02  0.40659176707E+02  0.00000000000E+00 0. -1.
         11    1    3    3    0    0  0.56130129343E+01  0.13330966880E+02 -0.10120549407E+02  0.17653501429E+02  0.51100000000E-03 0.  1.
        -11    1    3    3    0    0  0.61741978370E+00  0.19688981876E+01 -0.26977333390E+01  0.33963999606E+01  0.51100000000E-03 0. -1.
        -12    1    3    3    0    0 -0.18293230591E+02 -0.57327915315E+00 -0.23109216823E+02  0.29478921903E+02  0.00000000000E+00 0.  1.
</event>
<event>
 7    1  0.2639126E-011  0.5052886E+02  0.7816164E-02  0.1300439E+00
        -11   -1    0    0    0    0  0.00000000000E+00  0.00000000000E+00  0.45593999997E+02  0.45594000000E+02  0.51100000000E-03 0.  1.
         11   -1    0    0    0    0 -0.00000000000E+00 -0.00000000000E+00 -0.45593999997E+02  0.45594000000E+02  0.51100000000E-03 0. -1.
    9900012    2    1    2    0    0  0.14016460650E+01  0.38836583789E+02 -0.11954953849E+02  0.50528858671E+02  0.29999996417E+02 0.  0.
         12    1    1    2    0    0 -0.14016460650E+01 -0.38836583789E+02  0.11954953849E+02  0.40659141329E+02  0.00000000000E+00 0. -1.
         11    1    3    3    0    0  0.60385901952E+01  0.21683243970E+01 -0.13511112427E+01  0.65568059364E+01  0.51100000000E-03 0. -1.
        -11    1    3    3    0    0  0.72642531385E+01  0.94869789310E+01  0.12614205733E+01  0.12015129006E+02  0.51100000000E-03 0.  1.
         12    1    3    3    0    0 -0.11901197269E+02  0.27181280461E+02 -0.11865263179E+02  0.31956923729E+02  0.00000000000E+00 0. -1.
</event>
<event>
 7    1  0.2639126E-011  0.5052887E+02  0.7816164E-02  0.1300439E+00
        -11   -1    0    0    0    0  0.00000000000E+00  0.00000000000E+00  0.45593999997E+02  0.45594000000E+02  0.51100000000E-03 0.  1.
         11   -1    0    0    0    0 -0.00000000000E+00 -0.00000000000E+00 -0.45593999997E+02  0.45594000000E+02  0.51100000000E-03 0. -1.
    9900012    2    1    2    0    0 -0.33568255997E+02 -0.12280056783E+02  0.19378780330E+02  0.50528871476E+02  0.30000035338E+02 0.  0.
         12    1    1    2    0    0  0.33568255997E+02  0.12280056783E+02 -0.19378780330E+02  0.40659128524E+02  0.00000000000E+00 0. -1.
         11    1    3    3    0    0 -0.63699913697E+01 -0.13513065108E+01 -0.10125236633E+01  0.65899942159E+01  0.51100000000E-03 0.  1.
        -11    1    3    3    0    0 -0.12501959819E+02 -0.17238226102E+02  0.52882539244E+01  0.21941309630E+02  0.51100000000E-03 0. -1.
        -12    1    3    3    0    0 -0.14696304808E+02  0.63094758291E+01  0.15103050068E+02  0.21997567630E+02  0.00000000000E+00 0.  1.
</event>
<event>
 7    1  0.2639126E-011  0.5052886E+02  0.7816164E-02  0.1300439E+00
        -11   -1    0    0    0    0  0.00000000000E+00  0.00000000000E+00  0.45593999997E+02  0.45594000000E+02  0.51100000000E-03 0.  1.
         11   -1    0    0    0    0 -0.00000000000E+00 -0.00000000000E+00 -0.45593999997E+02  0.45594000000E+02  0.51100000000E-03 0. -1.
    9900012    2    1    2    0    0  0.24827979604E+02  0.32070436520E+02 -0.28677489569E+01  0.50528862603E+02  0.30000008369E+02 0.  0.
         12    1    1    2    0    0 -0.24827979604E+02 -0.32070436520E+02  0.28677489569E+01  0.40659137397E+02  0.00000000000E+00 0. -1.
         11    1    3    3    0    0  0.45693268389E+01 -0.36735877891E+00 -0.19201781937E+01  0.49699884094E+01  0.51100000000E-03 0. -1.
        -11    1    3    3    0    0  0.37783529357E+01 -0.38912284138E+01  0.13868387563E+01  0.55982971939E+01  0.51100000000E-03 0.  1.
        -12    1    3    3    0    0  0.16480299829E+02  0.36329023712E+02 -0.23344095194E+01  0.39960577000E+02  0.00000000000E+00 0.  1.
</event>
<event>
 7    1  0.2639126E-011  0.5052886E+02  0.7816164E-02  0.1300439E+00
        -11   -1    0    0    0    0  0.00000000000E+00  0.00000000000E+00  0.45593999997E+02  0.45594000000E+02  0.51100000000E-03 0.  1.
         11   -1    0    0    0    0 -0.00000000000E+00 -0.00000000000E+00 -0.45593999997E+02  0.45594000000E+02  0.51100000000E-03 0. -1.
    9900012    2    1    2    0    0 -0.57072449182E+00  0.19202407724E+02  0.35834445417E+02  0.50528859980E+02  0.30000000394E+02 0.  0.
         12    1    1    2    0    0  0.57072449182E+00 -0.19202407724E+02 -0.35834445417E+02  0.40659140020E+02  0.00000000000E+00 0. -1.
         11    1    3    3    0    0 -0.31001057666E+01 -0.22396119661E+01  0.22624762871E+01  0.44435702688E+01  0.51100000000E-03 0. -1.
        -11    1    3    3    0    0 -0.33250545966E+01 -0.28825608105E+01  0.23855704421E+00  0.44070460199E+01  0.51100000000E-03 0.  1.
        -12    1    3    3    0    0  0.58544358714E+01  0.24324580501E+02  0.33333412086E+02  0.41678243691E+02  0.00000000000E+00 0.  1.
</event>
<event>
 7    1  0.2639126E-011  0.5052887E+02  0.7816164E-02  0.1300439E+00
        -11   -1    0    0    0    0  0.00000000000E+00  0.00000000000E+00  0.45593999997E+02  0.45594000000E+02  0.51100000000E-03 0.  1.
         11   -1    0    0    0    0 -0.00000000000E+00 -0.00000000000E+00 -0.45593999997E+02  0.45594000000E+02  0.51100000000E-03 0. -1.
    9900012    2    1    2    0    0 -0.33282793379E+02  0.22395613833E+02  0.66224458462E+01  0.50528872574E+02  0.30000038676E+02 0.  0.
         12    1    1    2    0    0  0.33282793379E+02 -0.22395613833E+02 -0.66224458462E+01  0.40659127426E+02  0.00000000000E+00 0. -1.
         11    1    3    3    0    0 -0.64372882409E+01  0.20013434295E+01 -0.75705833932E+01  0.10136951642E+02  0.51100000000E-03 0. -1.
        -11    1    3    3    0    0 -0.10174619481E+02  0.27281125626E+01 -0.26146370716E+01  0.10853654086E+02  0.51100000000E-03 0.  1.
         12    1    3    3    0    0 -0.16670885657E+02  0.17666157841E+02  0.16807666311E+02  0.29538266846E+02  0.00000000000E+00 0. -1.
</event>
<event>
 7    1  0.2639126E-011  0.5052886E+02  0.7816164E-02  0.1300439E+00
        -11   -1    0    0    0    0  0.00000000000E+00  0.00000000000E+00  0.45593999997E+02  0.45594000000E+02  0.51100000000E-03 0. -1.
         11   -1    0    0    0    0 -0.00000000000E+00 -0.00000000000E+00 -0.45593999997E+02  0.45594000000E+02  0.51100000000E-03 0.  1.
    9900012    2    1    2    0    0  0.17204280777E+02  0.35063009103E+02 -0.11303268674E+02  0.50528858750E+02  0.29999996658E+02 0.  0.
         12    1    1    2    0    0 -0.17204280777E+02 -0.35063009103E+02  0.11303268674E+02  0.40659141250E+02  0.00000000000E+00 0. -1.
         11    1    3    3    0    0  0.11737307121E+02  0.73686588911E+01 -0.11679720859E+01  0.13907755799E+02  0.51100000000E-03 0. -1.
        -11    1    3    3    0    0 -0.18495190921E+01  0.27805630006E+02 -0.77468330671E+01  0.28923817240E+02  0.51100000000E-03 0.  1.
         12    1    3    3    0    0  0.73164927486E+01 -0.11127979404E+00 -0.23884635210E+01  0.76972857114E+01  0.00000000000E+00 0. -1.
</event>
<event>
 7    1  0.2639126E-011  0.5052888E+02  0.7816164E-02  0.1300439E+00
        -11   -1    0    0    0    0  0.00000000000E+00  0.00000000000E+00  0.45593999997E+02  0.45594000000E+02  0.51100000000E-03 0.  1.
         11   -1    0    0    0    0 -0.00000000000E+00 -0.00000000000E+00 -0.45593999997E+02  0.45594000000E+02  0.51100000000E-03 0. -1.
    9900012    2    1    2    0    0  0.10335287301E+02  0.93805750321E+01  0.38188353743E+02  0.50528884010E+02  0.30000073437E+02 0.  0.
         12    1    1    2    0    0 -0.10335287301E+02 -0.93805750321E+01 -0.38188353743E+02  0.40659115990E+02  0.00000000000E+00 0. -1.
         11    1    3    3    0    0 -0.19712670913E+01 -0.73790485675E+01  0.66392129758E+01  0.10120049452E+02  0.51100000000E-03 0. -1.
        -11    1    3    3    0    0 -0.79436231678E+00  0.23326792077E+01  0.13900680847E+02  0.14117412371E+02  0.51100000000E-03 0.  1.
        -12    1    3    3    0    0  0.13100916709E+02  0.14426944392E+02  0.17648459920E+02  0.26291422187E+02  0.00000000000E+00 0.  1.
</event>
<event>
 7    1  0.2639126E-011  0.5052886E+02  0.7816164E-02  0.1300439E+00
        -11   -1    0    0    0    0  0.00000000000E+00  0.00000000000E+00  0.45593999997E+02  0.45594000000E+02  0.51100000000E-03 0.  1.
         11   -1    0    0    0    0 -0.00000000000E+00 -0.00000000000E+00 -0.45593999997E+02  0.45594000000E+02  0.51100000000E-03 0. -1.
    9900012    2    1    2    0    0  0.12849392731E+02 -0.20641173699E+02  0.32588354509E+02  0.50528858410E+02  0.29999995623E+02 0.  0.
         12    1    1    2    0    0 -0.12849392731E+02  0.20641173699E+02 -0.32588354509E+02  0.40659141590E+02  0.00000000000E+00 0. -1.
         11    1    3    3    0    0 -0.26712516615E+01  0.16984480425E+01 -0.65569755651E+00  0.32326847571E+01  0.51100000000E-03 0. -1.
        -11    1    3    3    0    0  0.10695323710E+02 -0.30049803415E+01  0.21406904688E+02  0.24117948186E+02  0.51100000000E-03 0.  1.
        -12    1    3    3    0    0  0.48253206831E+01 -0.19334641400E+02  0.11837147377E+02  0.23178225467E+02  0.00000000000E+00 0.  1.
</event>
<event>
 7    1  0.2639126E-011  0.5052888E+02  0.7816164E-02  0.1300439E+00
        -11   -1    0    0    0    0  0.00000000000E+00  0.00000000000E+00  0.45593999997E+02  0.45594000000E+02  0.51100000000E-03 0. -1.
         11   -1    0    0    0    0 -0.00000000000E+00 -0.00000000000E+00 -0.45593999997E+02  0.45594000000E+02  0.51100000000E-03 0.  1.
    9900012    2    1    2    0    0 -0.13336294513E+02 -0.24769340263E+01 -0.38329783680E+02  0.50528877156E+02  0.30000052603E+02 0.  0.
         12    1    1    2    0    0  0.13336294513E+02  0.24769340263E+01  0.38329783680E+02  0.40659122844E+02  0.00000000000E+00 0. -1.
         11    1    3    3    0    0 -0.15811648086E+02  0.59926043684E+00 -0.90283515162E+01  0.18217531655E+02  0.51100000000E-03 0. -1.
        -11    1    3    3    0    0 -0.29137014940E+01  0.23923285057E+01 -0.27345943667E+01  0.46573488904E+01  0.51100000000E-03 0.  1.
        -12    1    3    3    0    0  0.53890550666E+01 -0.54685229688E+01 -0.26566837797E+02  0.27653996610E+02  0.00000000000E+00 0.  1.
</event>
<event>
 7    1  0.2639126E-011  0.5052890E+02  0.7816164E-02  0.1300439E+00
        -11   -1    0    0    0    0  0.00000000000E+00  0.00000000000E+00  0.45593999997E+02  0.45594000000E+02  0.51100000000E-03 0. -1.
         11   -1    0    0    0    0 -0.00000000000E+00 -0.00000000000E+00 -0.45593999997E+02  0.45594000000E+02  0.51100000000E-03 0.  1.
    9900012    2    1    2    0    0 -0.14232285266E+02  0.33701377053E+02  0.17743215770E+02  0.50528899358E+02  0.30000120089E+02 0.  0.
         12    1    1    2    0    0  0.14232285266E+02 -0.33701377053E+02 -0.17743215770E+02  0.40659100642E+02  0.00000000000E+00 0. -1.
         11    1    3    3    0    0  0.60718278352E+00  0.88839849916E+01  0.57180484603E+01  0.10582529883E+02  0.51100000000E-03 0. -1.
        -11    1    3    3    0    0 -0.10623955300E+02  0.29470700586E+02  0.12315092729E+02  0.33660839688E+02  0.51100000000E-03 0.  1.
         12    1    3    3    0    0 -0.42155127488E+01 -0.46533085249E+01 -0.28992542000E+00  0.62855297877E+01  0.00000000000E+00 0. -1.
</event>
<event>
 7    1  0.2639126E-011  0.5052893E+02  0.7816164E-02  0.1300439E+00
        -11   -1    0    0    0    0  0.00000000000E+00  0.00000000000E+00  0.45593999997E+02  0.45594000000E+02  0.51100000000E-03 0.  1.
         11   -1    0    0    0    0 -0.00000000000E+00 -0.00000000000E+00 -0.45593999997E+02  0.45594000000E+02  0.51100000000E-03 0. -1.
    9900012    2    1    2    0    0 -0.97771966026E-01 -0.36112790707E+02  0.18682000058E+02  0.50528925513E+02  0.30000199589E+02 0.  0.
         12    1    1    2    0    0  0.97771966026E-01  0.36112790707E+02 -0.18682000058E+02  0.40659074487E+02  0.00000000000E+00 0. -1.
         11    1    3    3    0    0 -0.10355877547E+02 -0.19905059192E+02  0.12737473411E+02  0.25801139711E+02  0.51100000000E-03 0.  1.
        -11    1    3    3    0    0  0.26724381560E+01  0.11995533759E+01 -0.25895877569E+01  0.39098361872E+01  0.51100000000E-03 0. -1.
        -12    1    3    3    0    0  0.75856674246E+01 -0.17407284890E+02  0.85341144036E+01  0.20817949615E+02  0.00000000000E+00 0.  1.
</event>
<event>
 7    1  0.2639126E-011  0.5052886E+02  0.7816164E-02  0.1300439E+00
        -11   -1    0    0    0    0  0.00000000000E+00  0.00000000000E+00  0.45593999997E+02  0.45594000000E+02  0.51100000000E-03 0.  1.
         11   -1    0    0    0    0 -0.00000000000E+00 -0.00000000000E+00 -0.45593999997E+02  0.45594000000E+02  0.51100000000E-03 0. -1.
    9900012    2    1    2    0    0  0.20167102551E+02  0.31973511662E+02  0.14971565951E+02  0.50528864983E+02  0.30000015604E+02 0.  0.
         12    1    1    2    0    0 -0.20167102551E+02 -0.31973511662E+02 -0.14971565951E+02  0.40659135017E+02  0.00000000000E+00 0. -1.
         11    1    3    3    0    0  0.15473383847E+02  0.25914253840E+02  0.84080439368E+01  0.31331603260E+02  0.51100000000E-03 0. -1.
        -11    1    3    3    0    0  0.71942042557E+00  0.11098008101E+02  0.62835922574E+01  0.12773679246E+02  0.51100000000E-03 0.  1.
         12    1    3    3    0    0  0.39742982791E+01 -0.50387502788E+01  0.27992975645E+00  0.64235824780E+01  0.00000000000E+00 0. -1.
</event>
<event>
 7    1  0.2639126E-011  0.5052885E+02  0.7816164E-02  0.1300439E+00
        -11   -1    0    0    0    0  0.00000000000E+00  0.00000000000E+00  0.45593999997E+02  0.45594000000E+02  0.51100000000E-03 0. -1.
         11   -1    0    0    0    0 -0.00000000000E+00 -0.00000000000E+00 -0.45593999997E+02  0.45594000000E+02  0.51100000000E-03 0.  1.
    9900012    2    1    2    0    0  0.62392766531E+00 -0.16891338608E+02 -0.36979178097E+02  0.50528853201E+02  0.29999979788E+02 0.  0.
         12    1    1    2    0    0 -0.62392766531E+00  0.16891338608E+02  0.36979178097E+02  0.40659146799E+02  0.00000000000E+00 0. -1.
         11    1    3    3    0    0 -0.83809639387E+01  0.27134842725E+01 -0.82960812316E+01  0.12100765162E+02  0.51100000000E-03 0. -1.
        -11    1    3    3    0    0  0.34798821191E+00 -0.14040658362E+02 -0.10504182765E+02  0.17538501614E+02  0.51100000000E-03 0.  1.
         12    1    3    3    0    0  0.86569033921E+01 -0.55641645185E+01 -0.18178914100E+02  0.20889586425E+02  0.00000000000E+00 0. -1.
</event>
<event>
 7    1  0.2639126E-011  0.5052888E+02  0.7816164E-02  0.1300439E+00
        -11   -1    0    0    0    0  0.00000000000E+00  0.00000000000E+00  0.45593999997E+02  0.45594000000E+02  0.51100000000E-03 0.  1.
         11   -1    0    0    0    0 -0.00000000000E+00 -0.00000000000E+00 -0.45593999997E+02  0.45594000000E+02  0.51100000000E-03 0. -1.
    9900012    2    1    2    0    0 -0.38878772545E+01 -0.34404847914E+02  0.21315601430E+02  0.50528880311E+02  0.30000062192E+02 0.  0.
         12    1    1    2    0    0  0.38878772545E+01  0.34404847914E+02 -0.21315601430E+02  0.40659119689E+02  0.00000000000E+00 0. -1.
         11    1    3    3    0    0  0.11171799620E+01 -0.19053409202E+02  0.83928510471E+01  0.20849950653E+02  0.51100000000E-03 0. -1.
        -11    1    3    3    0    0  0.57198505897E+01 -0.14658764746E+02  0.95878663103E+01  0.18426156824E+02  0.51100000000E-03 0.  1.
        -12    1    3    3    0    0 -0.10724907806E+02 -0.69267396693E+00  0.33348840731E+01  0.11252772834E+02  0.00000000000E+00 0.  1.
</event>
<event>
 7    1  0.2639126E-011  0.5052887E+02  0.7816164E-02  0.1300439E+00
        -11   -1    0    0    0    0  0.00000000000E+00  0.00000000000E+00  0.45593999997E+02  0.45594000000E+02  0.51100000000E-03 0. -1.
         11   -1    0    0    0    0 -0.00000000000E+00 -0.00000000000E+00 -0.45593999997E+02  0.45594000000E+02  0.51100000000E-03 0.  1.
    9900012    2    1    2    0    0 -0.26266205620E+02  0.58796849435E+01 -0.30474258398E+02  0.50528872149E+02  0.30000037383E+02 0.  0.
         12    1    1    2    0    0  0.26266205620E+02 -0.58796849435E+01  0.30474258398E+02  0.40659127851E+02  0.00000000000E+00 0. -1.
         11    1    3    3    0    0  0.15339886431E+01 -0.41530008818E+01  0.12557368832E+01  0.46018923132E+01  0.51100000000E-03 0. -1.
        -11    1    3    3    0    0 -0.92336428775E+01 -0.33516188647E+01 -0.13338959811E+02  0.16565668079E+02  0.51100000000E-03 0.  1.
         12    1    3    3    0    0 -0.18566551385E+02  0.13384304690E+02 -0.18391035471E+02  0.29361311757E+02  0.00000000000E+00 0. -1.
</event>
<event>
 7    1  0.2639126E-011  0.5052886E+02  0.7816164E-02  0.1300439E+00
        -11   -1    0    0    0    0  0.00000000000E+00  0.00000000000E+00  0.45593999997E+02  0.45594000000E+02  0.51100000000E-03 0.  1.
         11   -1    0    0    0    0 -0.00000000000E+00 -0.00000000000E+00 -0.45593999997E+02  0.45594000000E+02  0.51100000000E-03 0. -1.
    9900012    2    1    2    0    0 -0.21703072557E+02 -0.33140577996E+02  0.91566699610E+01  0.50528857448E+02  0.29999992698E+02 0.  0.
         12    1    1    2    0    0  0.21703072557E+02  0.33140577996E+02 -0.91566699610E+01  0.40659142552E+02  0.00000000000E+00 0. -1.
         11    1    3    3    0    0 -0.89281543258E+00 -0.11981963373E+02 -0.10538320015E+01  0.12061307052E+02  0.51100000000E-03 0.  1.
        -11    1    3    3    0    0 -0.21700817660E+02 -0.68585465675E+01  0.61222834715E+01  0.23567933793E+02  0.51100000000E-03 0. -1.
         12    1    3    3    0    0  0.89056053518E+00 -0.14300068055E+02  0.40882184910E+01  0.14899616602E+02  0.00000000000E+00 0. -1.
</event>
<event>
 7    1  0.2639126E-011  0.5052887E+02  0.7816164E-02  0.1300439E+00
        -11   -1    0    0    0    0  0.00000000000E+00  0.00000000000E+00  0.45593999997E+02  0.45594000000E+02  0.51100000000E-03 0. -1.
         11   -1    0    0    0    0 -0.00000000000E+00 -0.00000000000E+00 -0.45593999997E+02  0.45594000000E+02  0.51100000000E-03 0.  1.
    9900012    2    1    2    0    0  0.81383461120E+01 -0.75816049542E+01 -0.39108203741E+02  0.50528868049E+02  0.30000024922E+02 0.  0.
         12    1    1    2    0    0 -0.81383461120E+01  0.75816049542E+01  0.39108203741E+02  0.40659131951E+02  0.00000000000E+00 0. -1.
         11    1    3    3    0    0  0.24860055719E+01 -0.25398346070E+01 -0.11802904865E+02  0.12326376071E+02  0.51100000000E-03 0. -1.
        -11    1    3    3    0    0 -0.53635282661E+01  0.35126971774E+01 -0.22585983925E+02  0.23478354863E+02  0.51100000000E-03 0.  1.
         12    1    3    3    0    0  0.11015868806E+02 -0.85544675245E+01 -0.47193149513E+01  0.14724137115E+02  0.00000000000E+00 0. -1.
</event>
<event>
 7    1  0.2639126E-011  0.5052882E+02  0.7816164E-02  0.1300439E+00
        -11   -1    0    0    0    0  0.00000000000E+00  0.00000000000E+00  0.45593999997E+02  0.45594000000E+02  0.51100000000E-03 0. -1.
         11   -1    0    0    0    0 -0.00000000000E+00 -0.00000000000E+00 -0.45593999997E+02  0.45594000000E+02  0.51100000000E-03 0.  1.
    9900012    2    1    2    0    0 -0.23096643089E+02  0.27765607639E+02 -0.18675794065E+02  0.50528816862E+02  0.29999869333E+02 0.  0.
         12    1    1    2    0    0  0.23096643089E+02 -0.27765607639E+02  0.18675794065E+02  0.40659183138E+02  0.00000000000E+00 0. -1.
         11    1    3    3    0    0 -0.40546305644E+01 -0.22966971451E+01 -0.30796863536E+01  0.55856347077E+01  0.51100000000E-03 0. -1.
        -11    1    3    3    0    0 -0.14581707672E+02  0.51766579898E+01 -0.46779904903E+00  0.15480401248E+02  0.51100000000E-03 0.  1.
        -12    1    3    3    0    0 -0.44603048518E+01  0.24885646794E+02 -0.15128308663E+02  0.29462780906E+02  0.00000000000E+00 0.  1.
</event>
<event>
 7    1  0.2639126E-011  0.5052887E+02  0.7816164E-02  0.1300439E+00
        -11   -1    0    0    0    0  0.00000000000E+00  0.00000000000E+00  0.45593999997E+02  0.45594000000E+02  0.51100000000E-03 0.  1.
         11   -1    0    0    0    0 -0.00000000000E+00 -0.00000000000E+00 -0.45593999997E+02  0.45594000000E+02  0.51100000000E-03 0. -1.
    9900012    2    1    2    0    0  0.16210038944E+02 -0.21289990367E+02  0.30612679845E+02  0.50528865482E+02  0.30000017120E+02 0.  0.
         12    1    1    2    0    0 -0.16210038944E+02  0.21289990367E+02 -0.30612679845E+02  0.40659134518E+02  0.00000000000E+00 0. -1.
         11    1    3    3    0    0 -0.50885775545E+01 -0.44342291227E+01  0.82092549010E+01  0.10627693811E+02  0.51100000000E-03 0. -1.
        -11    1    3    3    0    0  0.39103022671E+01 -0.72277352672E+01  0.17643264173E+02  0.19463180415E+02  0.51100000000E-03 0.  1.
         12    1    3    3    0    0  0.17388314232E+02 -0.96280259775E+01  0.47601607706E+01  0.20437991257E+02  0.00000000000E+00 0. -1.
</event>
<event>
 7    1  0.2639126E-011  0.5052886E+02  0.7816164E-02  0.1300439E+00
        -11   -1    0    0    0    0  0.00000000000E+00  0.00000000000E+00  0.45593999997E+02  0.45594000000E+02  0.51100000000E-03 0.  1.
         11   -1    0    0    0    0 -0.00000000000E+00 -0.00000000000E+00 -0.45593999997E+02  0.45594000000E+02  0.51100000000E-03 0. -1.
    9900012    2    1    2    0    0  0.25057932980E+02  0.26661824147E+02 -0.17731694481E+02  0.50528857593E+02  0.29999993140E+02 0.  0.
         12    1    1    2    0    0 -0.25057932980E+02 -0.26661824147E+02  0.17731694481E+02  0.40659142407E+02  0.00000000000E+00 0. -1.
         11    1    3    3    0    0  0.50486787560E+01  0.33228463021E+01 -0.54053888856E+01  0.81085568379E+01  0.51100000000E-03 0. -1.
        -11    1    3    3    0    0  0.25354036117E+02  0.19403990440E+02 -0.14987078187E+02  0.35269739229E+02  0.51100000000E-03 0.  1.
         12    1    3    3    0    0 -0.53447818924E+01  0.39349874052E+01  0.26607725922E+01  0.71505615265E+01  0.00000000000E+00 0. -1.
</event>
<event>
 7    1  0.2639126E-011  0.5052882E+02  0.7816164E-02  0.1300439E+00
        -11   -1    0    0    0    0  0.00000000000E+00  0.00000000000E+00  0.45593999997E+02  0.45594000000E+02  0.51100000000E-03 0.  1.
         11   -1    0    0    0    0 -0.00000000000E+00 -0.00000000000E+00 -0.45593999997E+02  0.45594000000E+02  0.51100000000E-03 0. -1.
    9900012    2    1    2    0    0 -0.36763315107E+02 -0.17996398096E+00  0.17366487058E+02  0.50528823945E+02  0.29999890864E+02 0.  0.
         12    1    1    2    0    0  0.36763315107E+02  0.17996398096E+00 -0.17366487058E+02  0.40659176055E+02  0.00000000000E+00 0. -1.
         11    1    3    3    0    0  0.23520694127E+01 -0.14155550776E+00  0.61499592493E+01  0.65859143263E+01  0.51100000000E-03 0. -1.
        -11    1    3    3    0    0 -0.98304854855E+00 -0.21475848761E+01  0.46172890418E+01  0.51863150315E+01  0.51100000000E-03 0.  1.
         12    1    3    3    0    0 -0.38132335971E+02  0.21091764029E+01  0.65992387674E+01  0.38756594588E+02  0.00000000000E+00 0. -1.
</event>
<event>
 7    1  0.2639126E-011  0.5052886E+02  0.7816164E-02  0.1300439E+00
        -11   -1    0    0    0    0  0.00000000000E+00  0.00000000000E+00  0.45593999997E+02  0.45594000000E+02  0.51100000000E-03 0. -1.
         11   -1    0    0    0    0 -0.00000000000E+00 -0.00000000000E+00 -0.45593999997E+02  0.45594000000E+02  0.51100000000E-03 0.  1.
    9900012    2    1    2    0    0  0.27146534765E+02  0.22909447840E+02 -0.19783539506E+02  0.50528860985E+02  0.30000003449E+02 0.  0.
         12    1    1    2    0    0 -0.27146534765E+02 -0.22909447840E+02  0.19783539506E+02  0.40659139015E+02  0.00000000000E+00 0. -1.
         11    1    3    3    0    0  0.68749757608E+01  0.12084199462E+02 -0.47390092012E+01  0.14688477689E+02  0.51100000000E-03 0. -1.
        -11    1    3    3    0    0  0.15723832585E+02  0.16950698632E+02 -0.57672571839E+01  0.23829107221E+02  0.51100000000E-03 0.  1.
         12    1    3    3    0    0  0.45477264197E+01 -0.61254502538E+01 -0.92772731204E+01  0.12011276075E+02  0.00000000000E+00 0. -1.
</event>
<event>
 7    1  0.2639126E-011  0.5052883E+02  0.7816164E-02  0.1300439E+00
        -11   -1    0    0    0    0  0.00000000000E+00  0.00000000000E+00  0.45593999997E+02  0.45594000000E+02  0.51100000000E-03 0. -1.
         11   -1    0    0    0    0 -0.00000000000E+00 -0.00000000000E+00 -0.45593999997E+02  0.45594000000E+02  0.51100000000E-03 0.  1.
    9900012    2    1    2    0    0 -0.22859336010E+02 -0.30895110392E+02  0.13270674062E+02  0.50528832780E+02  0.29999917718E+02 0.  0.
         12    1    1    2    0    0  0.22859336010E+02  0.30895110392E+02 -0.13270674062E+02  0.40659167220E+02  0.00000000000E+00 0. -1.
         11    1    3    3    0    0 -0.15210055386E+02 -0.14632880416E+02  0.42443895550E+01  0.21528627849E+02  0.51100000000E-03 0. -1.
        -11    1    3    3    0    0 -0.14830469718E+02 -0.90176049737E+01  0.58612453127E+01  0.18319776974E+02  0.51100000000E-03 0.  1.
         12    1    3    3    0    0  0.71811890937E+01 -0.72446250025E+01  0.31650391946E+01  0.10680427956E+02  0.00000000000E+00 0. -1.
</event>
<event>
 7    1  0.2639126E-011  0.5052886E+02  0.7816164E-02  0.1300439E+00
        -11   -1    0    0    0    0  0.00000000000E+00  0.00000000000E+00  0.45593999997E+02  0.45594000000E+02  0.51100000000E-03 0.  1.
         11   -1    0    0    0    0 -0.00000000000E+00 -0.00000000000E+00 -0.45593999997E+02  0.45594000000E+02  0.51100000000E-03 0. -1.
    9900012    2    1    2    0    0  0.18839122857E+02 -0.35992195836E+02 -0.16778674295E+01  0.50528856499E+02  0.29999989814E+02 0.  0.
         12    1    1    2    0    0 -0.18839122857E+02  0.35992195836E+02  0.16778674295E+01  0.40659143501E+02  0.00000000000E+00 0. -1.
         11    1    3    3    0    0  0.81655560395E+00  0.28409746588E+01 -0.54516806975E+00  0.30058457298E+01  0.51100000000E-03 0. -1.
        -11    1    3    3    0    0  0.15864657651E+00  0.18675808324E+01  0.22707586254E+01  0.29443797135E+01  0.51100000000E-03 0.  1.
        -12    1    3    3    0    0  0.17863920677E+02 -0.40700751327E+02 -0.34034579851E+01  0.44578631056E+02  0.00000000000E+00 0.  1.
</event>
<event>
 7    1  0.2639126E-011  0.5052886E+02  0.7816164E-02  0.1300439E+00
        -11   -1    0    0    0    0  0.00000000000E+00  0.00000000000E+00  0.45593999997E+02  0.45594000000E+02  0.51100000000E-03 0.  1.
         11   -1    0    0    0    0 -0.00000000000E+00 -0.00000000000E+00 -0.45593999997E+02  0.45594000000E+02  0.51100000000E-03 0. -1.
    9900012    2    1    2    0    0  0.28957080717E+01 -0.47175521904E+01  0.40280583945E+02  0.50528857524E+02  0.29999992931E+02 0.  0.
         12    1    1    2    0    0 -0.28957080717E+01  0.47175521904E+01 -0.40280583945E+02  0.40659142476E+02  0.00000000000E+00 0. -1.
         11    1    3    3    0    0  0.10004292565E+02 -0.18979834324E+01  0.22604695797E+02  0.24792347271E+02  0.51100000000E-03 0. -1.
        -11    1    3    3    0    0  0.50686356460E+01 -0.29161992038E+01  0.27182988216E+01  0.64485993714E+01  0.51100000000E-03 0.  1.
         12    1    3    3    0    0 -0.12177220139E+02  0.96630445856E-01  0.14957589326E+02  0.19287910882E+02  0.00000000000E+00 0. -1.
</event>
<event>
 7    1  0.2639126E-011  0.5052885E+02  0.7816164E-02  0.1300439E+00
        -11   -1    0    0    0    0  0.00000000000E+00  0.00000000000E+00  0.45593999997E+02  0.45594000000E+02  0.51100000000E-03 0.  1.
         11   -1    0    0    0    0 -0.00000000000E+00 -0.00000000000E+00 -0.45593999997E+02  0.45594000000E+02  0.51100000000E-03 0. -1.
    9900012    2    1    2    0    0 -0.34749383263E+02 -0.21069548474E+02 -0.13117935510E+01  0.50528852045E+02  0.29999976277E+02 0.  0.
         12    1    1    2    0    0  0.34749383263E+02  0.21069548474E+02  0.13117935510E+01  0.40659147955E+02  0.00000000000E+00 0. -1.
         11    1    3    3    0    0 -0.10224136731E+02  0.64874933654E+01 -0.25135069853E+01  0.12366820921E+02  0.51100000000E-03 0. -1.
        -11    1    3    3    0    0  0.19733663600E+00  0.54318353473E+00  0.44047707048E+00  0.72664324882E+00  0.51100000000E-03 0.  1.
        -12    1    3    3    0    0 -0.24722583168E+02 -0.28100225374E+02  0.76123636385E+00  0.37435387876E+02  0.00000000000E+00 0.  1.
</event>
<event>
 7    1  0.2639126E-011  0.5052888E+02  0.7816164E-02  0.1300439E+00
        -11   -1    0    0    0    0  0.00000000000E+00  0.00000000000E+00  0.45593999997E+02  0.45594000000E+02  0.51100000000E-03 0.  1.
         11   -1    0    0    0    0 -0.00000000000E+00 -0.00000000000E+00 -0.45593999997E+02  0.45594000000E+02  0.51100000000E-03 0. -1.
    9900012    2    1    2    0    0 -0.26184449913E+02 -0.51915313068E+01  0.30668982867E+02  0.50528881408E+02  0.30000065529E+02 0.  0.
         12    1    1    2    0    0  0.26184449913E+02  0.51915313068E+01 -0.30668982867E+02  0.40659118592E+02  0.00000000000E+00 0. -1.
         11    1    3    3    0    0 -0.12499507285E+02  0.72186434721E+01  0.14406343178E+02  0.20393362155E+02  0.51100000000E-03 0. -1.
        -11    1    3    3    0    0  0.16487065984E+01 -0.74489714244E+01  0.10586031228E+02  0.13048734274E+02  0.51100000000E-03 0.  1.
         12    1    3    3    0    0 -0.15333649226E+02 -0.49612033545E+01  0.56766084608E+01  0.17086784980E+02  0.00000000000E+00 0. -1.
</event>
<event>
 7    1  0.2639126E-011  0.5052887E+02  0.7816164E-02  0.1300439E+00
        -11   -1    0    0    0    0  0.00000000000E+00  0.00000000000E+00  0.45593999997E+02  0.45594000000E+02  0.51100000000E-03 0.  1.
         11   -1    0    0    0    0 -0.00000000000E+00 -0.00000000000E+00 -0.45593999997E+02  0.45594000000E+02  0.51100000000E-03 0. -1.
    9900012    2    1    2    0    0 -0.10823059370E+02 -0.22401988154E+02  0.32158630323E+02  0.50528865828E+02  0.30000018171E+02 0.  0.
         12    1    1    2    0    0  0.10823059370E+02  0.22401988154E+02 -0.32158630323E+02  0.40659134172E+02  0.00000000000E+00 0. -1.
         11    1    3    3    0    0  0.63422478206E-02 -0.20394149526E+01 -0.21735301766E+01  0.29805179521E+01  0.51100000000E-03 0. -1.
        -11    1    3    3    0    0 -0.11863667904E+02 -0.12674346925E+02  0.63090476680E+01  0.18471322877E+02  0.51100000000E-03 0.  1.
         12    1    3    3    0    0  0.10342662861E+01 -0.76882262768E+01  0.28023112831E+02  0.29077024999E+02  0.00000000000E+00 0. -1.
</event>
<event>
 7    1  0.2639126E-011  0.5052887E+02  0.7816164E-02  0.1300439E+00
        -11   -1    0    0    0    0  0.00000000000E+00  0.00000000000E+00  0.45593999997E+02  0.45594000000E+02  0.51100000000E-03 0. -1.
         11   -1    0    0    0    0 -0.00000000000E+00 -0.00000000000E+00 -0.45593999997E+02  0.45594000000E+02  0.51100000000E-03 0.  1.
    9900012    2    1    2    0    0 -0.12576136047E+02  0.20134031198E+02 -0.33009496276E+02  0.50528865054E+02  0.30000015819E+02 0.  0.
         12    1    1    2    0    0  0.12576136047E+02 -0.20134031198E+02  0.33009496276E+02  0.40659134946E+02  0.00000000000E+00 0. -1.
         11    1    3    3    0    0 -0.73192036370E+01  0.43036976582E+01  0.58389520553E+00  0.85107866432E+01  0.51100000000E-03 0. -1.
        -11    1    3    3    0    0 -0.43960362403E+01 -0.23635429309E+01 -0.15742956757E+02  0.16515209884E+02  0.51100000000E-03 0.  1.
         12    1    3    3    0    0 -0.86089616929E+00  0.18193876471E+02 -0.17850434725E+02  0.25502868527E+02  0.00000000000E+00 0. -1.
</event>
<event>
 7    1  0.2639126E-011  0.5052886E+02  0.7816164E-02  0.1300439E+00
        -11   -1    0    0    0    0  0.00000000000E+00  0.00000000000E+00  0.45593999997E+02  0.45594000000E+02  0.51100000000E-03 0.  1.
         11   -1    0    0    0    0 -0.00000000000E+00 -0.00000000000E+00 -0.45593999997E+02  0.45594000000E+02  0.51100000000E-03 0. -1.
    9900012    2    1    2    0    0 -0.82836434524E+01 -0.25004811083E+02  0.30972668123E+02  0.50528862074E+02  0.30000006761E+02 0.  0.
         12    1    1    2    0    0  0.82836434524E+01  0.25004811083E+02 -0.30972668123E+02  0.40659137926E+02  0.00000000000E+00 0. -1.
         11    1    3    3    0    0 -0.92754928202E+01 -0.62436676045E+01  0.13353295099E+01  0.11260606439E+02  0.51100000000E-03 0. -1.
        -11    1    3    3    0    0 -0.66810484698E+01 -0.16273348594E+02  0.18643604874E+02  0.25632836091E+02  0.51100000000E-03 0.  1.
        -12    1    3    3    0    0  0.76728978375E+01 -0.24877948850E+01  0.10993733739E+02  0.13635419544E+02  0.00000000000E+00 0.  1.
</event>
<event>
 7    1  0.2639126E-011  0.5052885E+02  0.7816164E-02  0.1300439E+00
        -11   -1    0    0    0    0  0.00000000000E+00  0.00000000000E+00  0.45593999997E+02  0.45594000000E+02  0.51100000000E-03 0. -1.
         11   -1    0    0    0    0 -0.00000000000E+00 -0.00000000000E+00 -0.45593999997E+02  0.45594000000E+02  0.51100000000E-03 0.  1.
    9900012    2    1    2    0    0 -0.15193809163E+02 -0.37626051935E+02  0.25680943965E+01  0.50528846910E+02  0.29999960669E+02 0.  0.
         12    1    1    2    0    0  0.15193809163E+02  0.37626051935E+02 -0.25680943965E+01  0.40659153090E+02  0.00000000000E+00 0. -1.
         11    1    3    3    0    0  0.10573171647E+01 -0.11025785863E+02  0.43107297387E+01  0.11885632698E+02  0.51100000000E-03 0. -1.
        -11    1    3    3    0    0 -0.14860647056E+02 -0.17537488644E+02  0.88515630342E+01  0.24632346768E+02  0.51100000000E-03 0.  1.
         12    1    3    3    0    0 -0.13904792712E+01 -0.90627774278E+01 -0.10594198376E+02  0.14010867445E+02  0.00000000000E+00 0. -1.
</event>
<event>
 7    1  0.2639126E-011  0.5052885E+02  0.7816164E-02  0.1300439E+00
        -11   -1    0    0    0    0  0.00000000000E+00  0.00000000000E+00  0.45593999997E+02  0.45594000000E+02  0.51100000000E-03 0.  1.
         11   -1    0    0    0    0 -0.00000000000E+00 -0.00000000000E+00 -0.45593999997E+02  0.45594000000E+02  0.51100000000E-03 0. -1.
    9900012    2    1    2    0    0 -0.81236652245E+01  0.10538587812E+02  0.38420181775E+02  0.50528854197E+02  0.29999982818E+02 0.  0.
         12    1    1    2    0    0  0.81236652245E+01 -0.10538587812E+02 -0.38420181775E+02  0.40659145803E+02  0.00000000000E+00 0. -1.
         11    1    3    3    0    0  0.19273566862E+01  0.88153961251E+01  0.54472261259E+01  0.10540312394E+02  0.51100000000E-03 0. -1.
        -11    1    3    3    0    0 -0.78767923357E+01  0.15863709021E+00  0.10438132610E+01  0.79472366021E+01  0.51100000000E-03 0.  1.
        -12    1    3    3    0    0 -0.21742295751E+01  0.15645545967E+01  0.31929142388E+02  0.32041305201E+02  0.00000000000E+00 0.  1.
</event>
<event>
 7    1  0.2639126E-011  0.5052888E+02  0.7816164E-02  0.1300439E+00
        -11   -1    0    0    0    0  0.00000000000E+00  0.00000000000E+00  0.45593999997E+02  0.45594000000E+02  0.51100000000E-03 0.  1.
         11   -1    0    0    0    0 -0.00000000000E+00 -0.00000000000E+00 -0.45593999997E+02  0.45594000000E+02  0.51100000000E-03 0. -1.
    9900012    2    1    2    0    0  0.14545932201E+02  0.19728371319E+02  0.32440268696E+02  0.50528882799E+02  0.30000069756E+02 0.  0.
         12    1    1    2    0    0 -0.14545932201E+02 -0.19728371319E+02 -0.32440268696E+02  0.40659117201E+02  0.00000000000E+00 0. -1.
         11    1    3    3    0    0 -0.66818382584E+01  0.11528569587E+02  0.11993446905E+02  0.17927566711E+02  0.51100000000E-03 0. -1.
        -11    1    3    3    0    0  0.32545884944E+01  0.64641203116E+01  0.71810142588E+01  0.10195301061E+02  0.51100000000E-03 0.  1.
         12    1    3    3    0    0  0.17973181965E+02  0.17356814202E+01  0.13265807532E+02  0.22406015028E+02  0.00000000000E+00 0. -1.
</event>
<event>
 7    1  0.2639126E-011  0.5052889E+02  0.7816164E-02  0.1300439E+00
        -11   -1    0    0    0    0  0.00000000000E+00  0.00000000000E+00  0.45593999997E+02  0.45594000000E+02  0.51100000000E-03 0. -1.
         11   -1    0    0    0    0 -0.00000000000E+00 -0.00000000000E+00 -0.45593999997E+02  0.45594000000E+02  0.51100000000E-03 0.  1.
    9900012    2    1    2    0    0 -0.28079232746E+02 -0.23033967521E+02 -0.18279936683E+02  0.50528892084E+02  0.30000097980E+02 0.  0.
         12    1    1    2    0    0  0.28079232746E+02  0.23033967521E+02  0.18279936683E+02  0.40659107916E+02  0.00000000000E+00 0. -1.
         11    1    3    3    0    0 -0.86204008975E+01 -0.41441180267E+01 -0.11775922598E+02  0.15170938638E+02  0.51100000000E-03 0. -1.
        -11    1    3    3    0    0 -0.51771897576E+01 -0.12686275732E+02 -0.12620866223E+02  0.18628772107E+02  0.51100000000E-03 0.  1.
         12    1    3    3    0    0 -0.14281642091E+02 -0.62035737621E+01  0.61168521375E+01  0.16729181340E+02  0.00000000000E+00 0. -1.
</event>
<event>
 7    1  0.2639126E-011  0.5052885E+02  0.7816164E-02  0.1300439E+00
        -11   -1    0    0    0    0  0.00000000000E+00  0.00000000000E+00  0.45593999997E+02  0.45594000000E+02  0.51100000000E-03 0.  1.
         11   -1    0    0    0    0 -0.00000000000E+00 -0.00000000000E+00 -0.45593999997E+02  0.45594000000E+02  0.51100000000E-03 0. -1.
    9900012    2    1    2    0    0  0.29190608065E+02 -0.15005588447E+02  0.23998065281E+02  0.50528850709E+02  0.29999972216E+02 0.  0.
         12    1    1    2    0    0 -0.29190608065E+02  0.15005588447E+02 -0.23998065281E+02  0.40659149291E+02  0.00000000000E+00 0. -1.
         11    1    3    3    0    0  0.19671176391E+02 -0.99255150023E+00  0.20298504188E+02  0.28283734046E+02  0.51100000000E-03 0. -1.
        -11    1    3    3    0    0  0.53214888502E+01 -0.20850646312E+01  0.71347559834E+01  0.91416891931E+01  0.51100000000E-03 0.  1.
         12    1    3    3    0    0  0.41979428239E+01 -0.11927972316E+02 -0.34351948906E+01  0.13103427470E+02  0.00000000000E+00 0. -1.
</event>
<event>
 7    1  0.3563957E-011  0.5052888E+02  0.7816164E-02  0.1300439E+00
        -11   -1    0    0    0    0  0.00000000000E+00  0.00000000000E+00  0.45593999997E+02  0.45594000000E+02  0.51100000000E-03 0.  1.
         11   -1    0    0    0    0 -0.00000000000E+00 -0.00000000000E+00 -0.45593999997E+02  0.45594000000E+02  0.51100000000E-03 0. -1.
    9900012    2    1    2    0    0  0.54277808773E+01  0.38411103342E+02 -0.12177463372E+02  0.50528877046E+02  0.30000052268E+02 0.  0.
         12    1    1    2    0    0 -0.54277808773E+01 -0.38411103342E+02  0.12177463372E+02  0.40659122954E+02  0.00000000000E+00 0. -1.
         11    1    3    3    0    0 -0.15501801786E+01  0.14228447685E+02  0.53450793148E+01  0.15278143057E+02  0.51100000000E-03 0. -1.
        -11    1    3    3    0    0 -0.13889455753E+01  0.18109609190E+02 -0.46653207116E+01  0.18752395378E+02  0.51100000000E-03 0.  1.
         12    1    3    3    0    0  0.83669066312E+01  0.60730464670E+01 -0.12857221976E+02  0.16498338610E+02  0.00000000000E+00 0. -1.
</event>
<event>
 7    1  0.2639126E-011  0.5052886E+02  0.7816164E-02  0.1300439E+00
        -11   -1    0    0    0    0  0.00000000000E+00  0.00000000000E+00  0.45593999997E+02  0.45594000000E+02  0.51100000000E-03 0.  1.
         11   -1    0    0    0    0 -0.00000000000E+00 -0.00000000000E+00 -0.45593999997E+02  0.45594000000E+02  0.51100000000E-03 0. -1.
    9900012    2    1    2    0    0  0.49120964009E+01  0.40266492870E+02  0.27652599374E+01  0.50528858327E+02  0.29999995370E+02 0.  0.
         12    1    1    2    0    0 -0.49120964009E+01 -0.40266492870E+02 -0.27652599374E+01  0.40659141673E+02  0.00000000000E+00 0. -1.
         11    1    3    3    0    0  0.89029200394E+01  0.18003666945E+02 -0.10512459274E+02  0.22669490708E+02  0.51100000000E-03 0. -1.
        -11    1    3    3    0    0  0.21620086255E+01  0.93403036764E+01  0.83758201493E+01  0.12730668384E+02  0.51100000000E-03 0.  1.
        -12    1    3    3    0    0 -0.61528322640E+01  0.12922522248E+02  0.49018990624E+01  0.15128699235E+02  0.00000000000E+00 0.  1.
</event>
<event>
 7    1  0.2639126E-011  0.5052886E+02  0.7816164E-02  0.1300439E+00
        -11   -1    0    0    0    0  0.00000000000E+00  0.00000000000E+00  0.45593999997E+02  0.45594000000E+02  0.51100000000E-03 0.  1.
         11   -1    0    0    0    0 -0.00000000000E+00 -0.00000000000E+00 -0.45593999997E+02  0.45594000000E+02  0.51100000000E-03 0. -1.
    9900012    2    1    2    0    0  0.37647031183E+02  0.12708538927E+02  0.86232226264E+01  0.50528857276E+02  0.29999992177E+02 0.  0.
         12    1    1    2    0    0 -0.37647031183E+02 -0.12708538927E+02 -0.86232226264E+01  0.40659142724E+02  0.00000000000E+00 0. -1.
         11    1    3    3    0    0  0.34092374793E+01  0.35170271371E-01 -0.13683835206E+01  0.36737733816E+01  0.51100000000E-03 0. -1.
        -11    1    3    3    0    0  0.20945586071E+02 -0.32390373877E+01 -0.43607001680E+01  0.21638499146E+02  0.51100000000E-03 0.  1.
         12    1    3    3    0    0  0.13292207632E+02  0.15912406043E+02  0.14352306315E+02  0.25216584749E+02  0.00000000000E+00 0. -1.
</event>
<event>
 7    1  0.2639126E-011  0.5052886E+02  0.7816164E-02  0.1300439E+00
        -11   -1    0    0    0    0  0.00000000000E+00  0.00000000000E+00  0.45593999997E+02  0.45594000000E+02  0.51100000000E-03 0.  1.
         11   -1    0    0    0    0 -0.00000000000E+00 -0.00000000000E+00 -0.45593999997E+02  0.45594000000E+02  0.51100000000E-03 0. -1.
    9900012    2    1    2    0    0 -0.22006164751E+01 -0.32886925822E+02  0.23806988479E+02  0.50528864455E+02  0.30000013996E+02 0.  0.
         12    1    1    2    0    0  0.22006164751E+01  0.32886925822E+02 -0.23806988479E+02  0.40659135545E+02  0.00000000000E+00 0. -1.
         11    1    3    3    0    0  0.29793326387E+01 -0.43064750279E+01 -0.24707895180E+01  0.57902462160E+01  0.51100000000E-03 0. -1.
        -11    1    3    3    0    0  0.41273870369E+01 -0.18735062613E+02  0.55414639215E+01  0.19968618317E+02  0.51100000000E-03 0.  1.
        -12    1    3    3    0    0 -0.93073361508E+01 -0.98453881811E+01  0.20736314076E+02  0.24769999921E+02  0.00000000000E+00 0.  1.
</event>
<event>
 7    1  0.2639126E-011  0.5052888E+02  0.7816164E-02  0.1300439E+00
        -11   -1    0    0    0    0  0.00000000000E+00  0.00000000000E+00  0.45593999997E+02  0.45594000000E+02  0.51100000000E-03 0. -1.
         11   -1    0    0    0    0 -0.00000000000E+00 -0.00000000000E+00 -0.45593999997E+02  0.45594000000E+02  0.51100000000E-03 0.  1.
    9900012    2    1    2    0    0  0.28227296772E+02 -0.26669712953E+02 -0.12046177808E+02  0.50528877139E+02  0.30000052550E+02 0.  0.
         12    1    1    2    0    0 -0.28227296772E+02  0.26669712953E+02  0.12046177808E+02  0.40659122861E+02  0.00000000000E+00 0. -1.
         11    1    3    3    0    0  0.75913723824E+01 -0.19780889185E+00 -0.63329807216E+01  0.98881094294E+01  0.51100000000E-03 0. -1.
        -11    1    3    3    0    0  0.20337240181E+02 -0.12454507656E+02 -0.10174428667E+02  0.25927535520E+02  0.51100000000E-03 0.  1.
         12    1    3    3    0    0  0.29868420860E+00 -0.14017396405E+02  0.44612315814E+01  0.14713232189E+02  0.00000000000E+00 0. -1.
</event>
<event>
 7    1  0.2639126E-011  0.5052887E+02  0.7816164E-02  0.1300439E+00
        -11   -1    0    0    0    0  0.00000000000E+00  0.00000000000E+00  0.45593999997E+02  0.45594000000E+02  0.51100000000E-03 0. -1.
         11   -1    0    0    0    0 -0.00000000000E+00 -0.00000000000E+00 -0.45593999997E+02  0.45594000000E+02  0.51100000000E-03 0.  1.
    9900012    2    1    2    0    0 -0.30850967145E+02 -0.11728986101E+02 -0.23744763176E+02  0.50528867361E+02  0.30000022829E+02 0.  0.
         12    1    1    2    0    0  0.30850967145E+02  0.11728986101E+02  0.23744763176E+02  0.40659132639E+02  0.00000000000E+00 0. -1.
         11    1    3    3    0    0 -0.11784452165E+02 -0.94941173575E+01 -0.34892717236E+01  0.15530183342E+02  0.51100000000E-03 0. -1.
        -11    1    3    3    0    0 -0.12720522733E+02 -0.11508500649E+02 -0.13972484365E+02  0.22124366779E+02  0.51100000000E-03 0.  1.
         12    1    3    3    0    0 -0.63459922467E+01  0.92736319055E+01 -0.62830070870E+01  0.12874317239E+02  0.00000000000E+00 0. -1.
</event>
<event>
 7    1  0.2639126E-011  0.5052886E+02  0.7816164E-02  0.1300439E+00
        -11   -1    0    0    0    0  0.00000000000E+00  0.00000000000E+00  0.45593999997E+02  0.45594000000E+02  0.51100000000E-03 0.  1.
         11   -1    0    0    0    0 -0.00000000000E+00 -0.00000000000E+00 -0.45593999997E+02  0.45594000000E+02  0.51100000000E-03 0. -1.
    9900012    2    1    2    0    0 -0.30940329028E+02 -0.23408313328E+02  0.12161933841E+02  0.50528859232E+02  0.29999998123E+02 0.  0.
         12    1    1    2    0    0  0.30940329028E+02  0.23408313328E+02 -0.12161933841E+02  0.40659140768E+02  0.00000000000E+00 0. -1.
         11    1    3    3    0    0  0.63855070280E+00  0.26571967508E+01  0.34919876188E+01  0.44342326691E+01  0.51100000000E-03 0. -1.
        -11    1    3    3    0    0  0.17898545548E+01 -0.36615657574E+00 -0.19358326573E+01  0.26617847967E+01  0.51100000000E-03 0.  1.
        -12    1    3    3    0    0 -0.33368734286E+02 -0.25699353503E+02  0.10605778880E+02  0.43432841767E+02  0.00000000000E+00 0.  1.
</event>
<event>
 7    1  0.2639126E-011  0.5052887E+02  0.7816164E-02  0.1300439E+00
        -11   -1    0    0    0    0  0.00000000000E+00  0.00000000000E+00  0.45593999997E+02  0.45594000000E+02  0.51100000000E-03 0. -1.
         11   -1    0    0    0    0 -0.00000000000E+00 -0.00000000000E+00 -0.45593999997E+02  0.45594000000E+02  0.51100000000E-03 0.  1.
    9900012    2    1    2    0    0 -0.12516708095E+02 -0.34898207006E+02 -0.16691667474E+02  0.50528873142E+02  0.30000040404E+02 0.  0.
         12    1    1    2    0    0  0.12516708095E+02  0.34898207006E+02  0.16691667474E+02  0.40659126858E+02  0.00000000000E+00 0. -1.
         11    1    3    3    0    0  0.23795048099E+01  0.68513089496E+00  0.25721726974E+01  0.35703669461E+01  0.51100000000E-03 0. -1.
        -11    1    3    3    0    0 -0.14000674429E+02 -0.13562740554E+02 -0.33591426442E+01  0.19780057011E+02  0.51100000000E-03 0.  1.
         12    1    3    3    0    0 -0.89553847576E+00 -0.22020597347E+02 -0.15904697527E+02  0.27178449185E+02  0.00000000000E+00 0. -1.
</event>
<event>
 7    1  0.2639126E-011  0.5052887E+02  0.7816164E-02  0.1300439E+00
        -11   -1    0    0    0    0  0.00000000000E+00  0.00000000000E+00  0.45593999997E+02  0.45594000000E+02  0.51100000000E-03 0.  1.
         11   -1    0    0    0    0 -0.00000000000E+00 -0.00000000000E+00 -0.45593999997E+02  0.45594000000E+02  0.51100000000E-03 0. -1.
    9900012    2    1    2    0    0  0.11528933365E+02  0.28189565326E+02  0.26936911067E+02  0.50528867254E+02  0.30000022506E+02 0.  0.
         12    1    1    2    0    0 -0.11528933365E+02 -0.28189565326E+02 -0.26936911067E+02  0.40659132746E+02  0.00000000000E+00 0. -1.
         11    1    3    3    0    0  0.12849722515E+01  0.73799226648E+01 -0.23626988301E+01  0.78547284007E+01  0.51100000000E-03 0. -1.
        -11    1    3    3    0    0  0.10489735853E+02  0.14267385948E+02  0.63558737471E+01  0.18814621745E+02  0.51100000000E-03 0.  1.
        -12    1    3    3    0    0 -0.24577473975E+00  0.65422567133E+01  0.22943736150E+02  0.23859517108E+02  0.00000000000E+00 0.  1.
</event>
<event>
 7    1  0.2639126E-011  0.5052886E+02  0.7816164E-02  0.1300439E+00
        -11   -1    0    0    0    0  0.00000000000E+00  0.00000000000E+00  0.45593999997E+02  0.45594000000E+02  0.51100000000E-03 0.  1.
         11   -1    0    0    0    0 -0.00000000000E+00 -0.00000000000E+00 -0.45593999997E+02  0.45594000000E+02  0.51100000000E-03 0. -1.
    9900012    2    1    2    0    0 -0.13356027674E+02  0.14062468964E+01  0.38377141303E+02  0.50528856131E+02  0.29999988696E+02 0.  0.
         12    1    1    2    0    0  0.13356027674E+02 -0.14062468964E+01 -0.38377141303E+02  0.40659143869E+02  0.00000000000E+00 0. -1.
         11    1    3    3    0    0 -0.65715399529E+01  0.46994047087E+01  0.63651422389E-01  0.80792074941E+01  0.51100000000E-03 0.  1.
        -11    1    3    3    0    0 -0.38111352044E+01  0.17822563883E+01  0.56434906414E+00  0.42449593057E+01  0.51100000000E-03 0. -1.
        -12    1    3    3    0    0 -0.29733525169E+01 -0.50754142006E+01  0.37749140817E+02  0.38204689331E+02  0.00000000000E+00 0.  1.
</event>
<event>
 7    1  0.2639126E-011  0.5052886E+02  0.7816164E-02  0.1300439E+00
        -11   -1    0    0    0    0  0.00000000000E+00  0.00000000000E+00  0.45593999997E+02  0.45594000000E+02  0.51100000000E-03 0.  1.
         11   -1    0    0    0    0 -0.00000000000E+00 -0.00000000000E+00 -0.45593999997E+02  0.45594000000E+02  0.51100000000E-03 0. -1.
    9900012    2    1    2    0    0 -0.32141983054E+02 -0.16709576319E+02  0.18462080924E+02  0.50528862682E+02  0.30000008609E+02 0.  0.
         12    1    1    2    0    0  0.32141983054E+02  0.16709576319E+02 -0.18462080924E+02  0.40659137318E+02  0.00000000000E+00 0. -1.
         11    1    3    3    0    0 -0.12553757825E+02 -0.21014926796E+01  0.18476726526E+02  0.22436633669E+02  0.51100000000E-03 0. -1.
        -11    1    3    3    0    0 -0.92133003087E+01 -0.63683046029E+01  0.68925323750E+01  0.13150939468E+02  0.51100000000E-03 0.  1.
         12    1    3    3    0    0 -0.10374924920E+02 -0.82397790361E+01 -0.69071779771E+01  0.14941289545E+02  0.00000000000E+00 0. -1.
</event>
<event>
 7    1  0.2639126E-011  0.5052886E+02  0.7816164E-02  0.1300439E+00
        -11   -1    0    0    0    0  0.00000000000E+00  0.00000000000E+00  0.45593999997E+02  0.45594000000E+02  0.51100000000E-03 0. -1.
         11   -1    0    0    0    0 -0.00000000000E+00 -0.00000000000E+00 -0.45593999997E+02  0.45594000000E+02  0.51100000000E-03 0.  1.
    9900012    2    1    2    0    0  0.38222343270E+02  0.13420921708E+02 -0.34781298855E+01  0.50528855247E+02  0.29999986009E+02 0.  0.
         12    1    1    2    0    0 -0.38222343270E+02 -0.13420921708E+02  0.34781298855E+01  0.40659144753E+02  0.00000000000E+00 0. -1.
         11    1    3    3    0    0 -0.23418004985E+01  0.49080277028E+01 -0.19442983015E+01  0.57752109617E+01  0.51100000000E-03 0. -1.
        -11    1    3    3    0    0  0.64862610556E+01  0.79806433844E+01 -0.27652730053E+01  0.10649365538E+02  0.51100000000E-03 0.  1.
        -12    1    3    3    0    0  0.34077882713E+02  0.53225062129E+00  0.12314414212E+01  0.34104278747E+02  0.00000000000E+00 0.  1.
</event>
<event>
 7    1  0.2639126E-011  0.5052886E+02  0.7816164E-02  0.1300439E+00
        -11   -1    0    0    0    0  0.00000000000E+00  0.00000000000E+00  0.45593999997E+02  0.45594000000E+02  0.51100000000E-03 0. -1.
         11   -1    0    0    0    0 -0.00000000000E+00 -0.00000000000E+00 -0.45593999997E+02  0.45594000000E+02  0.51100000000E-03 0.  1.
    9900012    2    1    2    0    0  0.13043800454E+02 -0.37213372545E+02  0.99090707909E+01  0.50528861907E+02  0.30000006254E+02 0.  0.
         12    1    1    2    0    0 -0.13043800454E+02  0.37213372545E+02 -0.99090707909E+01  0.40659138093E+02  0.00000000000E+00 0. -1.
         11    1    3    3    0    0  0.48022109057E+01 -0.30828756194E+02  0.14275427550E+01  0.31233176538E+02  0.51100000000E-03 0. -1.
        -11    1    3    3    0    0  0.87868043684E+01 -0.53475669549E+01 -0.44195241699E+00  0.10295616812E+02  0.51100000000E-03 0.  1.
         12    1    3    3    0    0 -0.54521482021E+00 -0.10370493967E+01  0.89234804528E+01  0.90000685577E+01  0.00000000000E+00 0. -1.
</event>
<event>
 7    1  0.2639126E-011  0.5052884E+02  0.7816164E-02  0.1300439E+00
        -11   -1    0    0    0    0  0.00000000000E+00  0.00000000000E+00  0.45593999997E+02  0.45594000000E+02  0.51100000000E-03 0.  1.
         11   -1    0    0    0    0 -0.00000000000E+00 -0.00000000000E+00 -0.45593999997E+02  0.45594000000E+02  0.51100000000E-03 0. -1.
    9900012    2    1    2    0    0  0.30333571637E+02  0.22223739834E+02  0.15464382187E+02  0.50528839938E+02  0.29999939477E+02 0.  0.
         12    1    1    2    0    0 -0.30333571637E+02 -0.22223739834E+02 -0.15464382187E+02  0.40659160062E+02  0.00000000000E+00 0. -1.
         11    1    3    3    0    0  0.61423408421E+00  0.47252878542E+01 -0.48605612488E+01  0.68066647287E+01  0.51100000000E-03 0. -1.
        -11    1    3    3    0    0  0.17629463755E+02  0.18374013236E+02  0.86507541498E+01  0.26893082797E+02  0.51100000000E-03 0.  1.
        -12    1    3    3    0    0  0.12089873798E+02 -0.87556125613E+00  0.11674189286E+02  0.16829092413E+02  0.00000000000E+00 0.  1.
</event>
<event>
 7    1  0.2639126E-011  0.5052886E+02  0.7816164E-02  0.1300439E+00
        -11   -1    0    0    0    0  0.00000000000E+00  0.00000000000E+00  0.45593999997E+02  0.45594000000E+02  0.51100000000E-03 0.  1.
         11   -1    0    0    0    0 -0.00000000000E+00 -0.00000000000E+00 -0.45593999997E+02  0.45594000000E+02  0.51100000000E-03 0. -1.
    9900012    2    1    2    0    0  0.36932058901E+02 -0.14663808783E+02  0.86116877882E+01  0.50528862905E+02  0.30000009287E+02 0.  0.
         12    1    1    2    0    0 -0.36932058901E+02  0.14663808783E+02 -0.86116877882E+01  0.40659137095E+02  0.00000000000E+00 0. -1.
         11    1    3    3    0    0  0.69837766127E+01  0.36823663155E+01  0.42164214242E+01  0.89504841961E+01  0.51100000000E-03 0. -1.
        -11    1    3    3    0    0  0.20677101310E+02  0.12553754206E+00  0.22453596398E+01  0.20799036478E+02  0.51100000000E-03 0.  1.
         12    1    3    3    0    0  0.92711809785E+01 -0.18471712641E+02  0.21499067243E+01  0.20779342231E+02  0.00000000000E+00 0. -1.
</event>
<event>
 7    1  0.2639126E-011  0.5052887E+02  0.7816164E-02  0.1300439E+00
        -11   -1    0    0    0    0  0.00000000000E+00  0.00000000000E+00  0.45593999997E+02  0.45594000000E+02  0.51100000000E-03 0.  1.
         11   -1    0    0    0    0 -0.00000000000E+00 -0.00000000000E+00 -0.45593999997E+02  0.45594000000E+02  0.51100000000E-03 0. -1.
    9900012    2    1    2    0    0  0.18022298859E+02 -0.98553876241E+01  0.35088924044E+02  0.50528874186E+02  0.30000043576E+02 0.  0.
         12    1    1    2    0    0 -0.18022298859E+02  0.98553876241E+01 -0.35088924044E+02  0.40659125814E+02  0.00000000000E+00 0. -1.
         11    1    3    3    0    0  0.33403398540E+01  0.34448134503E+01 -0.34631319909E+01  0.59175918663E+01  0.51100000000E-03 0. -1.
        -11    1    3    3    0    0  0.51465545516E+01  0.91850654188E+00  0.10892747336E+02  0.12082326878E+02  0.51100000000E-03 0.  1.
        -12    1    3    3    0    0  0.95354044535E+01 -0.14218707616E+02  0.27659308699E+02  0.32528955441E+02  0.00000000000E+00 0.  1.
</event>
<event>
 7    1  0.2639126E-011  0.5052886E+02  0.7816164E-02  0.1300439E+00
        -11   -1    0    0    0    0  0.00000000000E+00  0.00000000000E+00  0.45593999997E+02  0.45594000000E+02  0.51100000000E-03 0. -1.
         11   -1    0    0    0    0 -0.00000000000E+00 -0.00000000000E+00 -0.45593999997E+02  0.45594000000E+02  0.51100000000E-03 0.  1.
    9900012    2    1    2    0    0 -0.17113978966E+02 -0.36493401176E+02 -0.53393912804E+01  0.50528859519E+02  0.29999998993E+02 0.  0.
         12    1    1    2    0    0  0.17113978966E+02  0.36493401176E+02  0.53393912804E+01  0.40659140481E+02  0.00000000000E+00 0. -1.
         11    1    3    3    0    0 -0.10470241005E+01 -0.29995323545E+01  0.71552076634E+01  0.78288218002E+01  0.51100000000E-03 0. -1.
        -11    1    3    3    0    0 -0.10376385975E+02 -0.55272041964E+01 -0.68524864540E+01  0.13607936765E+02  0.51100000000E-03 0.  1.
        -12    1    3    3    0    0 -0.56905688906E+01 -0.27966664625E+02 -0.56421124897E+01  0.29092100954E+02  0.00000000000E+00 0.  1.
</event>
<event>
 7    1  0.2639126E-011  0.5052888E+02  0.7816164E-02  0.1300439E+00
        -11   -1    0    0    0    0  0.00000000000E+00  0.00000000000E+00  0.45593999997E+02  0.45594000000E+02  0.51100000000E-03 0.  1.
         11   -1    0    0    0    0 -0.00000000000E+00 -0.00000000000E+00 -0.45593999997E+02  0.45594000000E+02  0.51100000000E-03 0. -1.
    9900012    2    1    2    0    0  0.23675759033E+02  0.17715999199E+02  0.27906380185E+02  0.50528877427E+02  0.30000053427E+02 0.  0.
         12    1    1    2    0    0 -0.23675759033E+02 -0.17715999199E+02 -0.27906380185E+02  0.40659122573E+02  0.00000000000E+00 0. -1.
         11    1    3    3    0    0 -0.23893607075E+01  0.79905024549E+01  0.71357701895E+01  0.10976173766E+02  0.51100000000E-03 0.  1.
        -11    1    3    3    0    0  0.20283257994E+01  0.91901840998E+01  0.78657013003E+01  0.12265514524E+02  0.51100000000E-03 0. -1.
         12    1    3    3    0    0  0.24036793941E+02  0.53531264458E+00  0.12904908695E+02  0.27287189137E+02  0.00000000000E+00 0. -1.
</event>
<event>
 7    1  0.2639126E-011  0.5052886E+02  0.7816164E-02  0.1300439E+00
        -11   -1    0    0    0    0  0.00000000000E+00  0.00000000000E+00  0.45593999997E+02  0.45594000000E+02  0.51100000000E-03 0. -1.
         11   -1    0    0    0    0 -0.00000000000E+00 -0.00000000000E+00 -0.45593999997E+02  0.45594000000E+02  0.51100000000E-03 0.  1.
    9900012    2    1    2    0    0 -0.11600642755E+02 -0.31477616867E+02 -0.22972823072E+02  0.50528857414E+02  0.29999992595E+02 0.  0.
         12    1    1    2    0    0  0.11600642755E+02  0.31477616867E+02  0.22972823072E+02  0.40659142586E+02  0.00000000000E+00 0. -1.
         11    1    3    3    0    0  0.13788849846E+01 -0.24442421197E+00 -0.74879022590E+01  0.76177258744E+01  0.51100000000E-03 0. -1.
        -11    1    3    3    0    0  0.60080789569E+01 -0.71472570633E+01 -0.31622705329E+01  0.98580044363E+01  0.51100000000E-03 0.  1.
        -12    1    3    3    0    0 -0.18987606696E+02 -0.24085935592E+02 -0.12322650280E+02  0.33053127103E+02  0.00000000000E+00 0.  1.
</event>
<event>
 7    1  0.2639126E-011  0.5052891E+02  0.7816164E-02  0.1300439E+00
        -11   -1    0    0    0    0  0.00000000000E+00  0.00000000000E+00  0.45593999997E+02  0.45594000000E+02  0.51100000000E-03 0.  1.
         11   -1    0    0    0    0 -0.00000000000E+00 -0.00000000000E+00 -0.45593999997E+02  0.45594000000E+02  0.51100000000E-03 0. -1.
    9900012    2    1    2    0    0 -0.33081231580E+02  0.15839346457E+02  0.17547339258E+02  0.50528906379E+02  0.30000141429E+02 0.  0.
         12    1    1    2    0    0  0.33081231580E+02 -0.15839346457E+02 -0.17547339258E+02  0.40659093621E+02  0.00000000000E+00 0. -1.
         11    1    3    3    0    0 -0.12597451167E+02  0.17069808691E+02  0.11198487424E+02  0.23989169754E+02  0.51100000000E-03 0. -1.
        -11    1    3    3    0    0 -0.77653488417E+01  0.31449128229E+01  0.95601300898E+01  0.12711695673E+02  0.51100000000E-03 0.  1.
         12    1    3    3    0    0 -0.12718431571E+02 -0.43753750562E+01 -0.32112782559E+01  0.13828040951E+02  0.00000000000E+00 0. -1.
</event>
<event>
 7    1  0.2639126E-011  0.5052891E+02  0.7816164E-02  0.1300439E+00
        -11   -1    0    0    0    0  0.00000000000E+00  0.00000000000E+00  0.45593999997E+02  0.45594000000E+02  0.51100000000E-03 0. -1.
         11   -1    0    0    0    0 -0.00000000000E+00 -0.00000000000E+00 -0.45593999997E+02  0.45594000000E+02  0.51100000000E-03 0.  1.
    9900012    2    1    2    0    0  0.33497444863E+02  0.23591536057E+01 -0.22924155214E+02  0.50528913557E+02  0.30000163248E+02 0.  0.
         12    1    1    2    0    0 -0.33497444863E+02 -0.23591536057E+01  0.22924155214E+02  0.40659086443E+02  0.00000000000E+00 0. -1.
         11    1    3    3    0    0  0.16441977204E+02  0.20715182206E+01 -0.15656217437E+02  0.22797959268E+02  0.51100000000E-03 0. -1.
        -11    1    3    3    0    0  0.18005074798E+02 -0.31318436689E+01 -0.11965087635E+02  0.21843866087E+02  0.51100000000E-03 0.  1.
         12    1    3    3    0    0 -0.94960713876E+00  0.34194790541E+01  0.46971498575E+01  0.58870882024E+01  0.00000000000E+00 0. -1.
</event>
<event>
 7    1  0.2639126E-011  0.5052884E+02  0.7816164E-02  0.1300439E+00
        -11   -1    0    0    0    0  0.00000000000E+00  0.00000000000E+00  0.45593999997E+02  0.45594000000E+02  0.51100000000E-03 0. -1.
         11   -1    0    0    0    0 -0.00000000000E+00 -0.00000000000E+00 -0.45593999997E+02  0.45594000000E+02  0.51100000000E-03 0.  1.
    9900012    2    1    2    0    0  0.26651185852E+02 -0.12806602617E+02 -0.27908286125E+02  0.50528840978E+02  0.29999942638E+02 0.  0.
         12    1    1    2    0    0 -0.26651185852E+02  0.12806602617E+02  0.27908286125E+02  0.40659159022E+02  0.00000000000E+00 0. -1.
         11    1    3    3    0    0  0.30784776647E+01  0.30364448181E+01 -0.11405042651E+02  0.12197213616E+02  0.51100000000E-03 0. -1.
        -11    1    3    3    0    0  0.16925012273E+02 -0.14308172902E+02 -0.20696307396E+02  0.30323538586E+02  0.51100000000E-03 0.  1.
        -12    1    3    3    0    0  0.66476959141E+01 -0.15348745323E+01  0.41930639223E+01  0.80080887765E+01  0.00000000000E+00 0.  1.
</event>
<event>
 7    1  0.2639126E-011  0.5052886E+02  0.7816164E-02  0.1300439E+00
        -11   -1    0    0    0    0  0.00000000000E+00  0.00000000000E+00  0.45593999997E+02  0.45594000000E+02  0.51100000000E-03 0.  1.
         11   -1    0    0    0    0 -0.00000000000E+00 -0.00000000000E+00 -0.45593999997E+02  0.45594000000E+02  0.51100000000E-03 0. -1.
    9900012    2    1    2    0    0 -0.23873067123E+02  0.72803081043E+00  0.32904591278E+02  0.50528862160E+02  0.30000007021E+02 0.  0.
         12    1    1    2    0    0  0.23873067123E+02 -0.72803081043E+00 -0.32904591278E+02  0.40659137840E+02  0.00000000000E+00 0. -1.
         11    1    3    3    0    0  0.31982581737E+01 -0.21813996200E+01  0.61929221091E+01  0.73033994932E+01  0.51100000000E-03 0. -1.
        -11    1    3    3    0    0  0.58168453152E+00 -0.26543227154E+01  0.10167807232E+02  0.10524642043E+02  0.51100000000E-03 0.  1.
         12    1    3    3    0    0 -0.27653009828E+02  0.55637531458E+01  0.16543861937E+02  0.32700820623E+02  0.00000000000E+00 0. -1.
</event>
<event>
 7    1  0.2639126E-011  0.5052886E+02  0.7816164E-02  0.1300439E+00
        -11   -1    0    0    0    0  0.00000000000E+00  0.00000000000E+00  0.45593999997E+02  0.45594000000E+02  0.51100000000E-03 0. -1.
         11   -1    0    0    0    0 -0.00000000000E+00 -0.00000000000E+00 -0.45593999997E+02  0.45594000000E+02  0.51100000000E-03 0.  1.
    9900012    2    1    2    0    0 -0.10057767931E+02  0.32226993762E+02 -0.22658946056E+02  0.50528860080E+02  0.30000000699E+02 0.  0.
         12    1    1    2    0    0  0.10057767931E+02 -0.32226993762E+02  0.22658946056E+02  0.40659139920E+02  0.00000000000E+00 0. -1.
         11    1    3    3    0    0 -0.26581265053E+01  0.18374064494E+01  0.18719711612E+01  0.37344310501E+01  0.51100000000E-03 0. -1.
        -11    1    3    3    0    0  0.50589543248E+01 -0.17656650683E+01 -0.35893044022E+01  0.64493176652E+01  0.51100000000E-03 0.  1.
        -12    1    3    3    0    0 -0.12458595751E+02  0.32155252381E+02 -0.20941612815E+02  0.40345111365E+02  0.00000000000E+00 0.  1.
</event>
<event>
 7    1  0.2639126E-011  0.5052885E+02  0.7816164E-02  0.1300439E+00
        -11   -1    0    0    0    0  0.00000000000E+00  0.00000000000E+00  0.45593999997E+02  0.45594000000E+02  0.51100000000E-03 0.  1.
         11   -1    0    0    0    0 -0.00000000000E+00 -0.00000000000E+00 -0.45593999997E+02  0.45594000000E+02  0.51100000000E-03 0. -1.
    9900012    2    1    2    0    0 -0.33102207100E+01 -0.53895992337E+01  0.40164177751E+02  0.50528849548E+02  0.29999968686E+02 0.  0.
         12    1    1    2    0    0  0.33102207100E+01  0.53895992337E+01 -0.40164177751E+02  0.40659150452E+02  0.00000000000E+00 0. -1.
         11    1    3    3    0    0  0.13141124382E+00 -0.46425835087E+01  0.36117149176E+01  0.58834798765E+01  0.51100000000E-03 0. -1.
        -11    1    3    3    0    0  0.89599524099E+01 -0.48331275995E+01  0.25781835730E+02  0.27718999323E+02  0.51100000000E-03 0.  1.
         12    1    3    3    0    0 -0.12401584364E+02  0.40861118746E+01  0.10770627103E+02  0.16926370349E+02  0.00000000000E+00 0. -1.
</event>
<event>
 7    1  0.2639126E-011  0.5052886E+02  0.7816164E-02  0.1300439E+00
        -11   -1    0    0    0    0  0.00000000000E+00  0.00000000000E+00  0.45593999997E+02  0.45594000000E+02  0.51100000000E-03 0. -1.
         11   -1    0    0    0    0 -0.00000000000E+00 -0.00000000000E+00 -0.45593999997E+02  0.45594000000E+02  0.51100000000E-03 0.  1.
    9900012    2    1    2    0    0 -0.89548047543E+01 -0.38009356601E+02  0.11325453772E+02  0.50528860553E+02  0.30000002137E+02 0.  0.
         12    1    1    2    0    0  0.89548047543E+01  0.38009356601E+02 -0.11325453772E+02  0.40659139447E+02  0.00000000000E+00 0. -1.
         11    1    3    3    0    0 -0.11150291043E+02 -0.31476733349E+02  0.90029683350E+01  0.34585649796E+02  0.51100000000E-03 0. -1.
        -11    1    3    3    0    0 -0.20186649866E+01 -0.85102223906E+01 -0.26429140111E+01  0.91369518001E+01  0.51100000000E-03 0.  1.
         12    1    3    3    0    0  0.42141512751E+01  0.19775991384E+01  0.49653994476E+01  0.68062589574E+01  0.00000000000E+00 0. -1.
</event>
<event>
 7    1  0.2639126E-011  0.5052886E+02  0.7816164E-02  0.1300439E+00
        -11   -1    0    0    0    0  0.00000000000E+00  0.00000000000E+00  0.45593999997E+02  0.45594000000E+02  0.51100000000E-03 0.  1.
         11   -1    0    0    0    0 -0.00000000000E+00 -0.00000000000E+00 -0.45593999997E+02  0.45594000000E+02  0.51100000000E-03 0. -1.
    9900012    2    1    2    0    0  0.21093159465E+02  0.29875791669E+02 -0.17767429268E+02  0.50528857770E+02  0.29999993678E+02 0.  0.
         12    1    1    2    0    0 -0.21093159465E+02 -0.29875791669E+02  0.17767429268E+02  0.40659142230E+02  0.00000000000E+00 0. -1.
         11    1    3    3    0    0  0.26298251997E+02  0.22020455352E+02 -0.12544594783E+02  0.36522121660E+02  0.51100000000E-03 0. -1.
        -11    1    3    3    0    0 -0.20649666817E+01  0.18850933287E+01 -0.65589196213E+01  0.71300134021E+01  0.51100000000E-03 0.  1.
        -12    1    3    3    0    0 -0.31401258511E+01  0.59702429888E+01  0.13360851362E+01  0.68767227076E+01  0.00000000000E+00 0.  1.
</event>
<event>
 7    1  0.2639126E-011  0.5052887E+02  0.7816164E-02  0.1300439E+00
        -11   -1    0    0    0    0  0.00000000000E+00  0.00000000000E+00  0.45593999997E+02  0.45594000000E+02  0.51100000000E-03 0. -1.
         11   -1    0    0    0    0 -0.00000000000E+00 -0.00000000000E+00 -0.45593999997E+02  0.45594000000E+02  0.51100000000E-03 0.  1.
    9900012    2    1    2    0    0  0.38932984199E+02 -0.10763783353E+02 -0.46399284949E+01  0.50528865391E+02  0.30000016842E+02 0.  0.
         12    1    1    2    0    0 -0.38932984199E+02  0.10763783353E+02  0.46399284949E+01  0.40659134609E+02  0.00000000000E+00 0. -1.
         11    1    3    3    0    0  0.79908457123E+01 -0.71212787545E+01 -0.35231733166E+00  0.10709358247E+02  0.51100000000E-03 0.  1.
        -11    1    3    3    0    0  0.30106091139E+02 -0.10480319717E+02 -0.65977968676E+01  0.32553720968E+02  0.51100000000E-03 0. -1.
         12    1    3    3    0    0  0.83604734776E+00  0.68378151192E+01  0.23101857044E+01  0.72657861763E+01  0.00000000000E+00 0. -1.
</event>
<event>
 7    1  0.2639126E-011  0.5052886E+02  0.7816164E-02  0.1300439E+00
        -11   -1    0    0    0    0  0.00000000000E+00  0.00000000000E+00  0.45593999997E+02  0.45594000000E+02  0.51100000000E-03 0.  1.
         11   -1    0    0    0    0 -0.00000000000E+00 -0.00000000000E+00 -0.45593999997E+02  0.45594000000E+02  0.51100000000E-03 0. -1.
    9900012    2    1    2    0    0  0.15161557377E+02  0.31368389015E+02  0.20959884345E+02  0.50528863226E+02  0.30000010261E+02 0.  0.
         12    1    1    2    0    0 -0.15161557377E+02 -0.31368389015E+02 -0.20959884345E+02  0.40659136774E+02  0.00000000000E+00 0. -1.
         11    1    3    3    0    0  0.75511753736E+01  0.28992715633E+01 -0.37159356365E+01  0.89013596173E+01  0.51100000000E-03 0. -1.
        -11    1    3    3    0    0 -0.32477752403E+01  0.18304926805E+02  0.14955433095E+02  0.23859659861E+02  0.51100000000E-03 0.  1.
         12    1    3    3    0    0  0.10858157243E+02  0.10164190647E+02  0.97203868859E+01  0.17767843748E+02  0.00000000000E+00 0. -1.
</event>
<event>
 7    1  0.2639126E-011  0.5052886E+02  0.7816164E-02  0.1300439E+00
        -11   -1    0    0    0    0  0.00000000000E+00  0.00000000000E+00  0.45593999997E+02  0.45594000000E+02  0.51100000000E-03 0.  1.
         11   -1    0    0    0    0 -0.00000000000E+00 -0.00000000000E+00 -0.45593999997E+02  0.45594000000E+02  0.51100000000E-03 0. -1.
    9900012    2    1    2    0    0 -0.26462910155E+02  0.21402284724E+02  0.22244602289E+02  0.50528859130E+02  0.29999997812E+02 0.  0.
         12    1    1    2    0    0  0.26462910155E+02 -0.21402284724E+02 -0.22244602289E+02  0.40659140870E+02  0.00000000000E+00 0. -1.
         11    1    3    3    0    0 -0.19529801278E+01 -0.21248568791E+01 -0.16886060725E+01  0.33437312790E+01  0.51100000000E-03 0. -1.
        -11    1    3    3    0    0  0.17257442507E+01  0.62286384784E+01  0.11886225375E+02  0.13529836823E+02  0.51100000000E-03 0.  1.
        -12    1    3    3    0    0 -0.26235674278E+02  0.17298503124E+02  0.12046982987E+02  0.33655291029E+02  0.00000000000E+00 0.  1.
</event>
<event>
 7    1  0.2639126E-011  0.5052883E+02  0.7816164E-02  0.1300439E+00
        -11   -1    0    0    0    0  0.00000000000E+00  0.00000000000E+00  0.45593999997E+02  0.45594000000E+02  0.51100000000E-03 0.  1.
         11   -1    0    0    0    0 -0.00000000000E+00 -0.00000000000E+00 -0.45593999997E+02  0.45594000000E+02  0.51100000000E-03 0. -1.
    9900012    2    1    2    0    0 -0.30984997281E+02  0.25906146956E+02  0.46871407586E+01  0.50528833812E+02  0.29999920856E+02 0.  0.
         12    1    1    2    0    0  0.30984997281E+02 -0.25906146956E+02 -0.46871407586E+01  0.40659166188E+02  0.00000000000E+00 0. -1.
         11    1    3    3    0    0 -0.41303968888E+01  0.91716936957E+01  0.12361156339E+02  0.15936697588E+02  0.51100000000E-03 0. -1.
        -11    1    3    3    0    0 -0.12266220068E+02  0.22777550414E+01  0.50292830309E+00  0.12486042605E+02  0.51100000000E-03 0.  1.
        -12    1    3    3    0    0 -0.14588380324E+02  0.14456698219E+02 -0.81769438832E+01  0.22106093620E+02  0.00000000000E+00 0.  1.
</event>
<event>
 7    1  0.2639126E-011  0.5052886E+02  0.7816164E-02  0.1300439E+00
        -11   -1    0    0    0    0  0.00000000000E+00  0.00000000000E+00  0.45593999997E+02  0.45594000000E+02  0.51100000000E-03 0. -1.
         11   -1    0    0    0    0 -0.00000000000E+00 -0.00000000000E+00 -0.45593999997E+02  0.45594000000E+02  0.51100000000E-03 0.  1.
    9900012    2    1    2    0    0  0.17200260861E+02  0.20121915018E+02 -0.30861387986E+02  0.50528859501E+02  0.29999998940E+02 0.  0.
         12    1    1    2    0    0 -0.17200260861E+02 -0.20121915018E+02  0.30861387986E+02  0.40659140499E+02  0.00000000000E+00 0. -1.
         11    1    3    3    0    0  0.10188313876E+02  0.16351282549E+02 -0.10683642758E+02  0.22029670979E+02  0.51100000000E-03 0. -1.
        -11    1    3    3    0    0  0.30203865580E+01  0.94701631001E+01 -0.18998426929E+02  0.21441710523E+02  0.51100000000E-03 0.  1.
        -12    1    3    3    0    0  0.39915604265E+01 -0.56995306309E+01 -0.11793182994E+01  0.70574779987E+01  0.00000000000E+00 0.  1.
</event>
<event>
 7    1  0.2639126E-011  0.5052885E+02  0.7816164E-02  0.1300439E+00
        -11   -1    0    0    0    0  0.00000000000E+00  0.00000000000E+00  0.45593999997E+02  0.45594000000E+02  0.51100000000E-03 0.  1.
         11   -1    0    0    0    0 -0.00000000000E+00 -0.00000000000E+00 -0.45593999997E+02  0.45594000000E+02  0.51100000000E-03 0. -1.
    9900012    2    1    2    0    0  0.19861959212E+02  0.25937837346E+02  0.24205315019E+02  0.50528854594E+02  0.29999984025E+02 0.  0.
         12    1    1    2    0    0 -0.19861959212E+02 -0.25937837346E+02 -0.24205315019E+02  0.40659145406E+02  0.00000000000E+00 0. -1.
         11    1    3    3    0    0  0.13614922902E+02  0.22783877492E+02  0.10939881756E+02  0.28708051350E+02  0.51100000000E-03 0. -1.
        -11    1    3    3    0    0  0.78827301002E+01  0.83533487227E+01  0.67346902528E+01  0.13314350220E+02  0.51100000000E-03 0.  1.
         12    1    3    3    0    0 -0.16356937899E+01 -0.51993888695E+01  0.65307430103E+01  0.85064530245E+01  0.00000000000E+00 0. -1.
</event>
<event>
 7    1  0.2639126E-011  0.5052884E+02  0.7816164E-02  0.1300439E+00
        -11   -1    0    0    0    0  0.00000000000E+00  0.00000000000E+00  0.45593999997E+02  0.45594000000E+02  0.51100000000E-03 0. -1.
         11   -1    0    0    0    0 -0.00000000000E+00 -0.00000000000E+00 -0.45593999997E+02  0.45594000000E+02  0.51100000000E-03 0.  1.
    9900012    2    1    2    0    0  0.38946748031E+02 -0.37398833678E+01 -0.11060338994E+02  0.50528843486E+02  0.29999950260E+02 0.  0.
         12    1    1    2    0    0 -0.38946748031E+02  0.37398833678E+01  0.11060338994E+02  0.40659156514E+02  0.00000000000E+00 0. -1.
         11    1    3    3    0    0  0.10365006331E+02  0.10410696872E+01  0.32863705133E+01  0.10923251061E+02  0.51100000000E-03 0. -1.
        -11    1    3    3    0    0  0.21760156863E+02 -0.44186339989E+01  0.15954479201E+01  0.22261496074E+02  0.51100000000E-03 0.  1.
        -12    1    3    3    0    0  0.68215848366E+01 -0.36231905606E+00 -0.15942157428E+02  0.17344096351E+02  0.00000000000E+00 0.  1.
</event>
<event>
 7    1  0.2639126E-011  0.5052887E+02  0.7816164E-02  0.1300439E+00
        -11   -1    0    0    0    0  0.00000000000E+00  0.00000000000E+00  0.45593999997E+02  0.45594000000E+02  0.51100000000E-03 0.  1.
         11   -1    0    0    0    0 -0.00000000000E+00 -0.00000000000E+00 -0.45593999997E+02  0.45594000000E+02  0.51100000000E-03 0. -1.
    9900012    2    1    2    0    0 -0.27521346090E+02  0.20120624060E+02  0.22156283808E+02  0.50528869225E+02  0.30000028497E+02 0.  0.
         12    1    1    2    0    0  0.27521346090E+02 -0.20120624060E+02 -0.22156283808E+02  0.40659130775E+02  0.00000000000E+00 0. -1.
         11    1    3    3    0    0 -0.97684429363E-01  0.65195055964E+01  0.91197480939E+01  0.11210856391E+02  0.51100000000E-03 0. -1.
        -11    1    3    3    0    0 -0.85432464374E+01 -0.36871292027E+01  0.98009754603E+01  0.13514477485E+02  0.51100000000E-03 0.  1.
         12    1    3    3    0    0 -0.18880415223E+02  0.17288247666E+02  0.32355602539E+01  0.25803535349E+02  0.00000000000E+00 0. -1.
</event>
<event>
 7    1  0.2639126E-011  0.5052886E+02  0.7816164E-02  0.1300439E+00
        -11   -1    0    0    0    0  0.00000000000E+00  0.00000000000E+00  0.45593999997E+02  0.45594000000E+02  0.51100000000E-03 0.  1.
         11   -1    0    0    0    0 -0.00000000000E+00 -0.00000000000E+00 -0.45593999997E+02  0.45594000000E+02  0.51100000000E-03 0. -1.
    9900012    2    1    2    0    0 -0.57019755598E+01 -0.38294838039E+02 -0.12416074303E+02  0.50528855312E+02  0.29999986205E+02 0.  0.
         12    1    1    2    0    0  0.57019755598E+01  0.38294838039E+02  0.12416074303E+02  0.40659144688E+02  0.00000000000E+00 0. -1.
         11    1    3    3    0    0 -0.41665297542E+01 -0.22464787225E+02 -0.50425081728E+01  0.23397724765E+02  0.51100000000E-03 0. -1.
        -11    1    3    3    0    0 -0.93839829390E+01 -0.55873192206E+01  0.21018975787E+01  0.11121836430E+02  0.51100000000E-03 0.  1.
         12    1    3    3    0    0  0.78485371335E+01 -0.10242731594E+02 -0.94754637086E+01  0.16009294117E+02  0.00000000000E+00 0. -1.
</event>
<event>
 7    1  0.2639126E-011  0.5052882E+02  0.7816164E-02  0.1300439E+00
        -11   -1    0    0    0    0  0.00000000000E+00  0.00000000000E+00  0.45593999997E+02  0.45594000000E+02  0.51100000000E-03 0.  1.
         11   -1    0    0    0    0 -0.00000000000E+00 -0.00000000000E+00 -0.45593999997E+02  0.45594000000E+02  0.51100000000E-03 0. -1.
    9900012    2    1    2    0    0 -0.26425139546E+02  0.43118913605E+01  0.30598831866E+02  0.50528819995E+02  0.29999878856E+02 0.  0.
         12    1    1    2    0    0  0.26425139546E+02 -0.43118913605E+01 -0.30598831866E+02  0.40659180005E+02  0.00000000000E+00 0. -1.
         11    1    3    3    0    0  0.23606461427E+01  0.10691874683E+01 -0.82060379825E+00  0.27183088324E+01  0.51100000000E-03 0. -1.
        -11    1    3    3    0    0 -0.57662528013E+01  0.37422645948E+01 -0.20613992672E+01  0.71765996729E+01  0.51100000000E-03 0.  1.
        -12    1    3    3    0    0 -0.23019532888E+02 -0.49956070264E+00  0.33480834931E+02  0.40633911490E+02  0.00000000000E+00 0.  1.
</event>
<event>
 7    1  0.2639126E-011  0.5052886E+02  0.7816164E-02  0.1300439E+00
        -11   -1    0    0    0    0  0.00000000000E+00  0.00000000000E+00  0.45593999997E+02  0.45594000000E+02  0.51100000000E-03 0.  1.
         11   -1    0    0    0    0 -0.00000000000E+00 -0.00000000000E+00 -0.45593999997E+02  0.45594000000E+02  0.51100000000E-03 0. -1.
    9900012    2    1    2    0    0 -0.17418019669E+02 -0.31339316343E+02  0.19173564867E+02  0.50528858989E+02  0.29999997383E+02 0.  0.
         12    1    1    2    0    0  0.17418019669E+02  0.31339316343E+02 -0.19173564867E+02  0.40659141011E+02  0.00000000000E+00 0. -1.
         11    1    3    3    0    0 -0.11516779336E+02 -0.18825143213E+02  0.36985728028E+01  0.22376363965E+02  0.51100000000E-03 0. -1.
        -11    1    3    3    0    0 -0.11911524651E+02 -0.12787440154E+02  0.12076250279E+02  0.21242383724E+02  0.51100000000E-03 0.  1.
         12    1    3    3    0    0  0.60102843184E+01  0.27326702369E+00  0.33987417845E+01  0.69101112995E+01  0.00000000000E+00 0. -1.
</event>
<event>
 7    1  0.2639126E-011  0.5052886E+02  0.7816164E-02  0.1300439E+00
        -11   -1    0    0    0    0  0.00000000000E+00  0.00000000000E+00  0.45593999997E+02  0.45594000000E+02  0.51100000000E-03 0.  1.
         11   -1    0    0    0    0 -0.00000000000E+00 -0.00000000000E+00 -0.45593999997E+02  0.45594000000E+02  0.51100000000E-03 0. -1.
    9900012    2    1    2    0    0  0.12327980941E+00 -0.29512538589E+01  0.40551698417E+02  0.50528863981E+02  0.30000012558E+02 0.  0.
         12    1    1    2    0    0 -0.12327980941E+00  0.29512538589E+01 -0.40551698417E+02  0.40659136019E+02  0.00000000000E+00 0. -1.
         11    1    3    3    0    0 -0.32664352682E+01 -0.49244534675E+00 -0.22058991582E+01  0.39721647924E+01  0.51100000000E-03 0. -1.
        -11    1    3    3    0    0  0.48527909338E+01  0.14119813153E+01  0.17613852783E+01  0.53521724039E+01  0.51100000000E-03 0.  1.
        -12    1    3    3    0    0 -0.14630758562E+01 -0.38707898274E+01  0.40996212297E+02  0.41204526785E+02  0.00000000000E+00 0.  1.
</event>
<event>
 7    1  0.2639126E-011  0.5052885E+02  0.7816164E-02  0.1300439E+00
        -11   -1    0    0    0    0  0.00000000000E+00  0.00000000000E+00  0.45593999997E+02  0.45594000000E+02  0.51100000000E-03 0.  1.
         11   -1    0    0    0    0 -0.00000000000E+00 -0.00000000000E+00 -0.45593999997E+02  0.45594000000E+02  0.51100000000E-03 0. -1.
    9900012    2    1    2    0    0 -0.30415370813E+02  0.38001510624E+01  0.26713865126E+02  0.50528849495E+02  0.29999968526E+02 0.  0.
         12    1    1    2    0    0  0.30415370813E+02 -0.38001510624E+01 -0.26713865126E+02  0.40659150505E+02  0.00000000000E+00 0. -1.
         11    1    3    3    0    0 -0.30379079199E+01 -0.54187306423E+01  0.23607084578E+01  0.66456354840E+01  0.51100000000E-03 0. -1.
        -11    1    3    3    0    0 -0.56624917711E+01  0.69139416390E+01 -0.24923271932E+01  0.92778282558E+01  0.51100000000E-03 0.  1.
        -12    1    3    3    0    0 -0.21714971122E+02  0.23049400656E+01  0.26845483861E+02  0.34605385756E+02  0.00000000000E+00 0.  1.
</event>
<event>
 7    1  0.2639126E-011  0.5052887E+02  0.7816164E-02  0.1300439E+00
        -11   -1    0    0    0    0  0.00000000000E+00  0.00000000000E+00  0.45593999997E+02  0.45594000000E+02  0.51100000000E-03 0. -1.
         11   -1    0    0    0    0 -0.00000000000E+00 -0.00000000000E+00 -0.45593999997E+02  0.45594000000E+02  0.51100000000E-03 0.  1.
    9900012    2    1    2    0    0  0.32913392208E+02 -0.24149431967E+01 -0.23749559635E+02  0.50528869167E+02  0.30000028319E+02 0.  0.
         12    1    1    2    0    0 -0.32913392208E+02  0.24149431967E+01  0.23749559635E+02  0.40659130833E+02  0.00000000000E+00 0. -1.
         11    1    3    3    0    0  0.19192597345E+01 -0.68227627659E+01 -0.14562149363E+02  0.16195364893E+02  0.51100000000E-03 0. -1.
        -11    1    3    3    0    0  0.42841724795E+01 -0.14167011097E+01 -0.49009095837E+01  0.66618384007E+01  0.51100000000E-03 0.  1.
        -12    1    3    3    0    0  0.26709959994E+02  0.58245206790E+01 -0.42865006880E+01  0.27671665872E+02  0.00000000000E+00 0.  1.
</event>
<event>
 7    1  0.2639126E-011  0.5052885E+02  0.7816164E-02  0.1300439E+00
        -11   -1    0    0    0    0  0.00000000000E+00  0.00000000000E+00  0.45593999997E+02  0.45594000000E+02  0.51100000000E-03 0. -1.
         11   -1    0    0    0    0 -0.00000000000E+00 -0.00000000000E+00 -0.45593999997E+02  0.45594000000E+02  0.51100000000E-03 0.  1.
    9900012    2    1    2    0    0 -0.22007952399E+02 -0.18723430027E+02 -0.28605062942E+02  0.50528850640E+02  0.29999972004E+02 0.  0.
         12    1    1    2    0    0  0.22007952399E+02  0.18723430027E+02  0.28605062942E+02  0.40659149360E+02  0.00000000000E+00 0. -1.
         11    1    3    3    0    0 -0.19266799849E+02 -0.13414443313E+02 -0.12438859082E+02  0.26568441455E+02  0.51100000000E-03 0. -1.
        -11    1    3    3    0    0 -0.32353071392E+01 -0.86853061337E+01 -0.17881875631E+02  0.20141083170E+02  0.51100000000E-03 0.  1.
        -12    1    3    3    0    0  0.49415458891E+00  0.33763194197E+01  0.17156717708E+01  0.38193260147E+01  0.00000000000E+00 0.  1.
</event>
<event>
 7    1  0.2639126E-011  0.5052886E+02  0.7816164E-02  0.1300439E+00
        -11   -1    0    0    0    0  0.00000000000E+00  0.00000000000E+00  0.45593999997E+02  0.45594000000E+02  0.51100000000E-03 0.  1.
         11   -1    0    0    0    0 -0.00000000000E+00 -0.00000000000E+00 -0.45593999997E+02  0.45594000000E+02  0.51100000000E-03 0. -1.
    9900012    2    1    2    0    0  0.31696242977E+02 -0.16514881292E+02  0.19384846982E+02  0.50528863076E+02  0.30000009804E+02 0.  0.
         12    1    1    2    0    0 -0.31696242977E+02  0.16514881292E+02 -0.19384846982E+02  0.40659136924E+02  0.00000000000E+00 0. -1.
         11    1    3    3    0    0  0.51570180923E+01 -0.16611754062E+02  0.84378703542E+01  0.19332430396E+02  0.51100000000E-03 0. -1.
        -11    1    3    3    0    0  0.15189414086E+02 -0.51786379004E+01  0.93656914206E+01  0.18580978630E+02  0.51100000000E-03 0.  1.
         12    1    3    3    0    0  0.11349810798E+02  0.52755106707E+01  0.15812852073E+01  0.12615454050E+02  0.00000000000E+00 0. -1.
</event>
<event>
 7    1  0.2639126E-011  0.5052886E+02  0.7816164E-02  0.1300439E+00
        -11   -1    0    0    0    0  0.00000000000E+00  0.00000000000E+00  0.45593999997E+02  0.45594000000E+02  0.51100000000E-03 0.  1.
         11   -1    0    0    0    0 -0.00000000000E+00 -0.00000000000E+00 -0.45593999997E+02  0.45594000000E+02  0.51100000000E-03 0. -1.
    9900012    2    1    2    0    0  0.24922837725E+02  0.30434602158E+02  0.10283616227E+02  0.50528860664E+02  0.30000002476E+02 0.  0.
         12    1    1    2    0    0 -0.24922837725E+02 -0.30434602158E+02 -0.10283616227E+02  0.40659139336E+02  0.00000000000E+00 0. -1.
         11    1    3    3    0    0  0.84013253145E+01  0.98018841837E+01 -0.59372017755E+01  0.14209488582E+02  0.51100000000E-03 0. -1.
        -11    1    3    3    0    0  0.61273185453E+01 -0.26218985107E+01  0.56644563041E+01  0.87466822189E+01  0.51100000000E-03 0.  1.
         12    1    3    3    0    0  0.10394193866E+02  0.23254616485E+02  0.10556361699E+02  0.27572689863E+02  0.00000000000E+00 0. -1.
</event>
<event>
 7    1  0.2639126E-011  0.5052886E+02  0.7816164E-02  0.1300439E+00
        -11   -1    0    0    0    0  0.00000000000E+00  0.00000000000E+00  0.45593999997E+02  0.45594000000E+02  0.51100000000E-03 0. -1.
         11   -1    0    0    0    0 -0.00000000000E+00 -0.00000000000E+00 -0.45593999997E+02  0.45594000000E+02  0.51100000000E-03 0.  1.
    9900012    2    1    2    0    0  0.35281264444E+02 -0.20181108180E+02 -0.10586307936E+01  0.50528862684E+02  0.30000008614E+02 0.  0.
         12    1    1    2    0    0 -0.35281264444E+02  0.20181108180E+02  0.10586307936E+01  0.40659137316E+02  0.00000000000E+00 0. -1.
         11    1    3    3    0    0  0.22424564166E+02 -0.17557453606E+02 -0.85850148309E+00  0.28493197087E+02  0.51100000000E-03 0. -1.
        -11    1    3    3    0    0  0.15069202143E+02  0.30713362818E+01 -0.23526081179E+01  0.15557915188E+02  0.51100000000E-03 0.  1.
         12    1    3    3    0    0 -0.22125018647E+01 -0.56949908559E+01  0.21524788073E+01  0.64777504094E+01  0.00000000000E+00 0. -1.
</event>
<event>
 7    1  0.2639126E-011  0.5052888E+02  0.7816164E-02  0.1300439E+00
        -11   -1    0    0    0    0  0.00000000000E+00  0.00000000000E+00  0.45593999997E+02  0.45594000000E+02  0.51100000000E-03 0. -1.
         11   -1    0    0    0    0 -0.00000000000E+00 -0.00000000000E+00 -0.45593999997E+02  0.45594000000E+02  0.51100000000E-03 0.  1.
    9900012    2    1    2    0    0 -0.10547672564E+02  0.38847696573E+02  0.57242695820E+01  0.50528878173E+02  0.30000055694E+02 0.  0.
         12    1    1    2    0    0  0.10547672564E+02 -0.38847696573E+02 -0.57242695820E+01  0.40659121827E+02  0.00000000000E+00 0. -1.
         11    1    3    3    0    0 -0.31638663254E+01 -0.14942020955E+01  0.52343122499E+01  0.62960872785E+01  0.51100000000E-03 0. -1.
        -11    1    3    3    0    0  0.18791042691E+01  0.24015941854E+01  0.39897237372E+01  0.50216116184E+01  0.51100000000E-03 0.  1.
         12    1    3    3    0    0 -0.92629105074E+01  0.37940304483E+02 -0.34997664051E+01  0.39211179276E+02  0.00000000000E+00 0. -1.
</event>
<event>
 7    1  0.2639126E-011  0.5052886E+02  0.7816164E-02  0.1300439E+00
        -11   -1    0    0    0    0  0.00000000000E+00  0.00000000000E+00  0.45593999997E+02  0.45594000000E+02  0.51100000000E-03 0.  1.
         11   -1    0    0    0    0 -0.00000000000E+00 -0.00000000000E+00 -0.45593999997E+02  0.45594000000E+02  0.51100000000E-03 0. -1.
    9900012    2    1    2    0    0  0.37269726995E+02 -0.11172527491E+02  0.11802858291E+02  0.50528863454E+02  0.30000010956E+02 0.  0.
         12    1    1    2    0    0 -0.37269726995E+02  0.11172527491E+02 -0.11802858291E+02  0.40659136546E+02  0.00000000000E+00 0. -1.
         11    1    3    3    0    0  0.47893614255E+01  0.34705476048E+01  0.10707881910E+02  0.12232800938E+02  0.51100000000E-03 0. -1.
        -11    1    3    3    0    0  0.36263792292E+01 -0.18736286553E+01  0.50527697746E+01  0.64955056237E+01  0.51100000000E-03 0.  1.
         12    1    3    3    0    0  0.28853986340E+02 -0.12769446440E+02 -0.39577933936E+01  0.31800556892E+02  0.00000000000E+00 0. -1.
</event>
<event>
 7    1  0.2639126E-011  0.5052886E+02  0.7816164E-02  0.1300439E+00
        -11   -1    0    0    0    0  0.00000000000E+00  0.00000000000E+00  0.45593999997E+02  0.45594000000E+02  0.51100000000E-03 0.  1.
         11   -1    0    0    0    0 -0.00000000000E+00 -0.00000000000E+00 -0.45593999997E+02  0.45594000000E+02  0.51100000000E-03 0. -1.
    9900012    2    1    2    0    0 -0.61009119777E+01 -0.15629427282E+02  0.37036003994E+02  0.50528859379E+02  0.29999998570E+02 0.  0.
         12    1    1    2    0    0  0.61009119777E+01  0.15629427282E+02 -0.37036003994E+02  0.40659140621E+02  0.00000000000E+00 0. -1.
         11    1    3    3    0    0 -0.63073300003E+01 -0.27840501751E+01  0.18184097361E+01  0.71302146770E+01  0.51100000000E-03 0.  1.
        -11    1    3    3    0    0 -0.44603752308E+00 -0.86158924130E+01  0.74290995806E+00  0.86593571938E+01  0.51100000000E-03 0. -1.
        -12    1    3    3    0    0  0.65245554562E+00 -0.42294846943E+01  0.34474684300E+02  0.34739287509E+02  0.00000000000E+00 0.  1.
</event>
<event>
 7    1  0.2639126E-011  0.5052887E+02  0.7816164E-02  0.1300439E+00
        -11   -1    0    0    0    0  0.00000000000E+00  0.00000000000E+00  0.45593999997E+02  0.45594000000E+02  0.51100000000E-03 0.  1.
         11   -1    0    0    0    0 -0.00000000000E+00 -0.00000000000E+00 -0.45593999997E+02  0.45594000000E+02  0.51100000000E-03 0. -1.
    9900012    2    1    2    0    0 -0.38908108338E+01  0.36249988723E+02  0.17999029024E+02  0.50528866497E+02  0.30000020205E+02 0.  0.
         12    1    1    2    0    0  0.38908108338E+01 -0.36249988723E+02 -0.17999029024E+02  0.40659133503E+02  0.00000000000E+00 0. -1.
         11    1    3    3    0    0  0.34171067976E+01 -0.17127070826E+01  0.58938221053E+01  0.70247507918E+01  0.51100000000E-03 0. -1.
        -11    1    3    3    0    0 -0.41105732552E+01  0.40183113564E+01  0.69543962206E+01  0.90225975028E+01  0.51100000000E-03 0.  1.
         12    1    3    3    0    0 -0.31973443761E+01  0.33944384449E+02  0.51508106983E+01  0.34481518203E+02  0.00000000000E+00 0. -1.
</event>
<event>
 7    1  0.2639126E-011  0.5052886E+02  0.7816164E-02  0.1300439E+00
        -11   -1    0    0    0    0  0.00000000000E+00  0.00000000000E+00  0.45593999997E+02  0.45594000000E+02  0.51100000000E-03 0.  1.
         11   -1    0    0    0    0 -0.00000000000E+00 -0.00000000000E+00 -0.45593999997E+02  0.45594000000E+02  0.51100000000E-03 0. -1.
    9900012    2    1    2    0    0  0.12819071848E+02  0.34562502141E+02  0.17154317639E+02  0.50528858704E+02  0.29999996515E+02 0.  0.
         12    1    1    2    0    0 -0.12819071848E+02 -0.34562502141E+02 -0.17154317639E+02  0.40659141296E+02  0.00000000000E+00 0. -1.
         11    1    3    3    0    0  0.39306092059E-01  0.95622271928E+01  0.73788920090E+01  0.12078318649E+02  0.51100000000E-03 0. -1.
        -11    1    3    3    0    0  0.67269510912E+01  0.16511531674E+02  0.17876196365E+02  0.25247592874E+02  0.51100000000E-03 0.  1.
         12    1    3    3    0    0  0.60528146650E+01  0.84887432742E+01 -0.81007707346E+01  0.13202947180E+02  0.00000000000E+00 0. -1.
</event>
<event>
 7    1  0.2639126E-011  0.5052887E+02  0.7816164E-02  0.1300439E+00
        -11   -1    0    0    0    0  0.00000000000E+00  0.00000000000E+00  0.45593999997E+02  0.45594000000E+02  0.51100000000E-03 0. -1.
         11   -1    0    0    0    0 -0.00000000000E+00 -0.00000000000E+00 -0.45593999997E+02  0.45594000000E+02  0.51100000000E-03 0.  1.
    9900012    2    1    2    0    0 -0.14419438485E+02 -0.37773003843E+02  0.42947907207E+01  0.50528865074E+02  0.30000015880E+02 0.  0.
         12    1    1    2    0    0  0.14419438485E+02  0.37773003843E+02 -0.42947907207E+01  0.40659134926E+02  0.00000000000E+00 0. -1.
         11    1    3    3    0    0 -0.61838297279E+01 -0.13794436651E+02 -0.67206310370E+01  0.16543672943E+02  0.51100000000E-03 0. -1.
        -11    1    3    3    0    0 -0.11502399877E+01 -0.15107241353E+02 -0.35068767500E+01  0.15551526553E+02  0.51100000000E-03 0.  1.
        -12    1    3    3    0    0 -0.70853687693E+01 -0.88713258390E+01  0.14522298508E+02  0.18433665579E+02  0.00000000000E+00 0.  1.
</event>
<event>
 7    1  0.2639126E-011  0.5052887E+02  0.7816164E-02  0.1300439E+00
        -11   -1    0    0    0    0  0.00000000000E+00  0.00000000000E+00  0.45593999997E+02  0.45594000000E+02  0.51100000000E-03 0. -1.
         11   -1    0    0    0    0 -0.00000000000E+00 -0.00000000000E+00 -0.45593999997E+02  0.45594000000E+02  0.51100000000E-03 0.  1.
    9900012    2    1    2    0    0  0.22880364272E+02 -0.27298209299E+02 -0.19607682607E+02  0.50528874119E+02  0.30000043373E+02 0.  0.
         12    1    1    2    0    0 -0.22880364272E+02  0.27298209299E+02  0.19607682607E+02  0.40659125881E+02  0.00000000000E+00 0. -1.
         11    1    3    3    0    0  0.10034139329E+01 -0.36977345620E+01  0.61949126559E+01  0.72840252257E+01  0.51100000000E-03 0. -1.
        -11    1    3    3    0    0  0.12847036088E+02 -0.51864646903E+01 -0.74871834103E+01  0.15748132204E+02  0.51100000000E-03 0.  1.
        -12    1    3    3    0    0  0.90299142508E+01 -0.18414010047E+02 -0.18315411853E+02  0.27496716690E+02  0.00000000000E+00 0.  1.
</event>
<event>
 7    1  0.2639126E-011  0.5052886E+02  0.7816164E-02  0.1300439E+00
        -11   -1    0    0    0    0  0.00000000000E+00  0.00000000000E+00  0.45593999997E+02  0.45594000000E+02  0.51100000000E-03 0.  1.
         11   -1    0    0    0    0 -0.00000000000E+00 -0.00000000000E+00 -0.45593999997E+02  0.45594000000E+02  0.51100000000E-03 0. -1.
    9900012    2    1    2    0    0  0.90827013319E+00  0.14875127165E+02  0.37829503786E+02  0.50528859337E+02  0.29999998440E+02 0.  0.
         12    1    1    2    0    0 -0.90827013319E+00 -0.14875127165E+02 -0.37829503786E+02  0.40659140663E+02  0.00000000000E+00 0. -1.
         11    1    3    3    0    0 -0.96089471201E+00  0.99501223007E+01  0.50584354464E+01  0.11203393320E+02  0.51100000000E-03 0. -1.
        -11    1    3    3    0    0  0.56502850352E+01  0.65853508182E+01  0.28683275630E+01  0.91389205953E+01  0.51100000000E-03 0.  1.
        -12    1    3    3    0    0 -0.37811201900E+01 -0.16603459542E+01  0.29902740776E+02  0.30186545422E+02  0.00000000000E+00 0.  1.
</event>
<event>
 7    1  0.2639126E-011  0.5052886E+02  0.7816164E-02  0.1300439E+00
        -11   -1    0    0    0    0  0.00000000000E+00  0.00000000000E+00  0.45593999997E+02  0.45594000000E+02  0.51100000000E-03 0.  1.
         11   -1    0    0    0    0 -0.00000000000E+00 -0.00000000000E+00 -0.45593999997E+02  0.45594000000E+02  0.51100000000E-03 0. -1.
    9900012    2    1    2    0    0 -0.17578599412E+02 -0.19848844082E+02  0.30825025712E+02  0.50528856148E+02  0.29999988747E+02 0.  0.
         12    1    1    2    0    0  0.17578599412E+02  0.19848844082E+02 -0.30825025712E+02  0.40659143852E+02  0.00000000000E+00 0. -1.
         11    1    3    3    0    0 -0.50145087089E+01 -0.15983931626E-01  0.26577973417E+01  0.56753361176E+01  0.51100000000E-03 0. -1.
        -11    1    3    3    0    0 -0.13345797936E+02 -0.72925992352E-01  0.46637426835E+01  0.14137402054E+02  0.51100000000E-03 0.  1.
        -12    1    3    3    0    0  0.78170723353E+00 -0.19759934158E+02  0.23503485686E+02  0.30716117976E+02  0.00000000000E+00 0.  1.
</event>
<event>
 7    1  0.2639126E-011  0.5052894E+02  0.7816164E-02  0.1300439E+00
        -11   -1    0    0    0    0  0.00000000000E+00  0.00000000000E+00  0.45593999997E+02  0.45594000000E+02  0.51100000000E-03 0.  1.
         11   -1    0    0    0    0 -0.00000000000E+00 -0.00000000000E+00 -0.45593999997E+02  0.45594000000E+02  0.51100000000E-03 0. -1.
    9900012    2    1    2    0    0 -0.36516174432E+02  0.11732852874E+02  0.13493271787E+02  0.50528939322E+02  0.30000241561E+02 0.  0.
         12    1    1    2    0    0  0.36516174432E+02 -0.11732852874E+02 -0.13493271787E+02  0.40659060678E+02  0.00000000000E+00 0. -1.
         11    1    3    3    0    0 -0.17218943119E+02  0.12814916875E+02  0.11036107282E+02  0.24135238985E+02  0.51100000000E-03 0. -1.
        -11    1    3    3    0    0 -0.10661651254E+02  0.35684977075E+01  0.91698967307E+01  0.14508342071E+02  0.51100000000E-03 0.  1.
         12    1    3    3    0    0 -0.86355800596E+01 -0.46505617085E+01 -0.67127322259E+01  0.11885358266E+02  0.00000000000E+00 0. -1.
</event>
<event>
 7    1  0.2639126E-011  0.5052887E+02  0.7816164E-02  0.1300439E+00
        -11   -1    0    0    0    0  0.00000000000E+00  0.00000000000E+00  0.45593999997E+02  0.45594000000E+02  0.51100000000E-03 0.  1.
         11   -1    0    0    0    0 -0.00000000000E+00 -0.00000000000E+00 -0.45593999997E+02  0.45594000000E+02  0.51100000000E-03 0. -1.
    9900012    2    1    2    0    0  0.14550640085E+01  0.25575667012E+02  0.31574240343E+02  0.50528873009E+02  0.30000040000E+02 0.  0.
         12    1    1    2    0    0 -0.14550640085E+01 -0.25575667012E+02 -0.31574240343E+02  0.40659126991E+02  0.00000000000E+00 0. -1.
         11    1    3    3    0    0 -0.19721240747E+01 -0.25132685027E+01  0.28821889065E+01  0.43026509371E+01  0.51100000000E-03 0. -1.
        -11    1    3    3    0    0  0.39200306668E+01 -0.26733494753E+01  0.10353117633E+01  0.48564707921E+01  0.51100000000E-03 0.  1.
        -12    1    3    3    0    0 -0.49284258364E+00  0.30762284990E+02  0.27656739673E+02  0.41369751280E+02  0.00000000000E+00 0.  1.
</event>
<event>
 7    1  0.2639126E-011  0.5052886E+02  0.7816164E-02  0.1300439E+00
        -11   -1    0    0    0    0  0.00000000000E+00  0.00000000000E+00  0.45593999997E+02  0.45594000000E+02  0.51100000000E-03 0. -1.
         11   -1    0    0    0    0 -0.00000000000E+00 -0.00000000000E+00 -0.45593999997E+02  0.45594000000E+02  0.51100000000E-03 0.  1.
    9900012    2    1    2    0    0  0.11623137793E+02 -0.14793530460E+00 -0.38962116086E+02  0.50528859491E+02  0.29999998909E+02 0.  0.
         12    1    1    2    0    0 -0.11623137793E+02  0.14793530460E+00  0.38962116086E+02  0.40659140509E+02  0.00000000000E+00 0. -1.
         11    1    3    3    0    0  0.32060891340E+01 -0.25237626530E+01 -0.17473659730E+01  0.44386567302E+01  0.51100000000E-03 0. -1.
        -11    1    3    3    0    0 -0.35302136388E+01 -0.53404853788E+01 -0.16448520856E+00  0.64039244266E+01  0.51100000000E-03 0.  1.
        -12    1    3    3    0    0  0.11947262298E+02  0.77163127272E+01 -0.37050264905E+02  0.39686278334E+02  0.00000000000E+00 0.  1.
</event>
<event>
 7    1  0.2639126E-011  0.5052887E+02  0.7816164E-02  0.1300439E+00
        -11   -1    0    0    0    0  0.00000000000E+00  0.00000000000E+00  0.45593999997E+02  0.45594000000E+02  0.51100000000E-03 0.  1.
         11   -1    0    0    0    0 -0.00000000000E+00 -0.00000000000E+00 -0.45593999997E+02  0.45594000000E+02  0.51100000000E-03 0. -1.
    9900012    2    1    2    0    0  0.79600656693E+01  0.14248991030E+01  0.39846853475E+02  0.50528871692E+02  0.30000035994E+02 0.  0.
         12    1    1    2    0    0 -0.79600656693E+01 -0.14248991030E+01 -0.39846853475E+02  0.40659128308E+02  0.00000000000E+00 0. -1.
         11    1    3    3    0    0  0.13661056699E+01  0.76722407384E+01  0.87406891116E+01  0.11710216439E+02  0.51100000000E-03 0. -1.
        -11    1    3    3    0    0 -0.56514340062E+01  0.37937522882E+01  0.13629266358E+02  0.15234440077E+02  0.51100000000E-03 0.  1.
         12    1    3    3    0    0  0.12245394006E+02 -0.10041093924E+02  0.17476898006E+02  0.23584215175E+02  0.00000000000E+00 0. -1.
</event>
<event>
 7    1  0.2639126E-011  0.5052888E+02  0.7816164E-02  0.1300439E+00
        -11   -1    0    0    0    0  0.00000000000E+00  0.00000000000E+00  0.45593999997E+02  0.45594000000E+02  0.51100000000E-03 0. -1.
         11   -1    0    0    0    0 -0.00000000000E+00 -0.00000000000E+00 -0.45593999997E+02  0.45594000000E+02  0.51100000000E-03 0.  1.
    9900012    2    1    2    0    0 -0.10490965227E+02  0.37103188448E+02 -0.12901839173E+02  0.50528875582E+02  0.30000047818E+02 0.  0.
         12    1    1    2    0    0  0.10490965227E+02 -0.37103188448E+02  0.12901839173E+02  0.40659124418E+02  0.00000000000E+00 0. -1.
         11    1    3    3    0    0  0.30762064430E+01  0.20940649654E+01 -0.67680591225E+01  0.77236506075E+01  0.51100000000E-03 0. -1.
        -11    1    3    3    0    0 -0.89746308737E+01  0.24692047421E+02 -0.13282999162E+02  0.29439416981E+02  0.51100000000E-03 0.  1.
        -12    1    3    3    0    0 -0.45925407963E+01  0.10317076062E+02  0.71492191111E+01  0.13365807994E+02  0.00000000000E+00 0.  1.
</event>
<event>
 7    1  0.2639126E-011  0.5052886E+02  0.7816164E-02  0.1300439E+00
        -11   -1    0    0    0    0  0.00000000000E+00  0.00000000000E+00  0.45593999997E+02  0.45594000000E+02  0.51100000000E-03 0. -1.
         11   -1    0    0    0    0 -0.00000000000E+00 -0.00000000000E+00 -0.45593999997E+02  0.45594000000E+02  0.51100000000E-03 0.  1.
    9900012    2    1    2    0    0 -0.27742972457E+02  0.23685885884E+02 -0.17957494930E+02  0.50528864064E+02  0.30000012810E+02 0.  0.
         12    1    1    2    0    0  0.27742972457E+02 -0.23685885884E+02  0.17957494930E+02  0.40659135936E+02  0.00000000000E+00 0. -1.
         11    1    3    3    0    0 -0.14567709627E+00  0.11708995099E+02 -0.13847709070E+02  0.18135071954E+02  0.51100000000E-03 0. -1.
        -11    1    3    3    0    0 -0.49663568549E+01  0.74960214937E+01 -0.21157561952E+01  0.92375030816E+01  0.51100000000E-03 0.  1.
        -12    1    3    3    0    0 -0.22630938506E+02  0.44808692914E+01 -0.19940296652E+01  0.23156289028E+02  0.00000000000E+00 0.  1.
</event>
<event>
 7    1  0.2639126E-011  0.5052889E+02  0.7816164E-02  0.1300439E+00
        -11   -1    0    0    0    0  0.00000000000E+00  0.00000000000E+00  0.45593999997E+02  0.45594000000E+02  0.51100000000E-03 0.  1.
         11   -1    0    0    0    0 -0.00000000000E+00 -0.00000000000E+00 -0.45593999997E+02  0.45594000000E+02  0.51100000000E-03 0. -1.
    9900012    2    1    2    0    0 -0.16951658692E+02  0.36651933645E+02  0.47371135692E+01  0.50528890107E+02  0.30000091969E+02 0.  0.
         12    1    1    2    0    0  0.16951658692E+02 -0.36651933645E+02 -0.47371135692E+01  0.40659109893E+02  0.00000000000E+00 0. -1.
         11    1    3    3    0    0 -0.13148123535E+01  0.14759010871E+02 -0.19418255942E+01  0.14944156728E+02  0.51100000000E-03 0. -1.
        -11    1    3    3    0    0 -0.25863550928E+01  0.19390993060E+02  0.98805617009E+01  0.21916325976E+02  0.51100000000E-03 0.  1.
        -12    1    3    3    0    0 -0.13050491246E+02  0.25019297142E+01 -0.32016225376E+01  0.13668407403E+02  0.00000000000E+00 0.  1.
</event>
<event>
 7    1  0.2639126E-011  0.5052886E+02  0.7816164E-02  0.1300439E+00
        -11   -1    0    0    0    0  0.00000000000E+00  0.00000000000E+00  0.45593999997E+02  0.45594000000E+02  0.51100000000E-03 0. -1.
         11   -1    0    0    0    0 -0.00000000000E+00 -0.00000000000E+00 -0.45593999997E+02  0.45594000000E+02  0.51100000000E-03 0.  1.
    9900012    2    1    2    0    0  0.27528889986E+02 -0.29175687582E+02  0.66411528076E+01  0.50528862770E+02  0.30000008874E+02 0.  0.
         12    1    1    2    0    0 -0.27528889986E+02  0.29175687582E+02 -0.66411528076E+01  0.40659137230E+02  0.00000000000E+00 0. -1.
         11    1    3    3    0    0  0.13895908248E+01 -0.12635743635E+02 -0.61298019226E+01  0.14112669901E+02  0.51100000000E-03 0. -1.
        -11    1    3    3    0    0 -0.80239710015E+00  0.12272489037E+01 -0.45978180738E+00  0.15366784145E+01  0.51100000000E-03 0.  1.
         12    1    3    3    0    0  0.26941696261E+02 -0.17767192850E+02  0.13230736538E+02  0.34879514454E+02  0.00000000000E+00 0. -1.
</event>
<event>
 7    1  0.2639126E-011  0.5052884E+02  0.7816164E-02  0.1300439E+00
        -11   -1    0    0    0    0  0.00000000000E+00  0.00000000000E+00  0.45593999997E+02  0.45594000000E+02  0.51100000000E-03 0.  1.
         11   -1    0    0    0    0 -0.00000000000E+00 -0.00000000000E+00 -0.45593999997E+02  0.45594000000E+02  0.51100000000E-03 0. -1.
    9900012    2    1    2    0    0 -0.71201535704E+01 -0.37782447349E+02 -0.13227132429E+02  0.50528844243E+02  0.29999952562E+02 0.  0.
         12    1    1    2    0    0  0.71201535704E+01  0.37782447349E+02  0.13227132429E+02  0.40659155757E+02  0.00000000000E+00 0. -1.
         11    1    3    3    0    0 -0.80790419643E+01 -0.21323811789E+02 -0.33161118193E+01  0.23042839802E+02  0.51100000000E-03 0. -1.
        -11    1    3    3    0    0 -0.38658308440E+01 -0.18692292732E+02 -0.39386482443E+01  0.19489982195E+02  0.51100000000E-03 0.  1.
         12    1    3    3    0    0  0.48247192379E+01  0.22336571728E+01 -0.59723723655E+01  0.79960222462E+01  0.00000000000E+00 0. -1.
</event>
<event>
 7    1  0.2639126E-011  0.5052886E+02  0.7816164E-02  0.1300439E+00
        -11   -1    0    0    0    0  0.00000000000E+00  0.00000000000E+00  0.45593999997E+02  0.45594000000E+02  0.51100000000E-03 0.  1.
         11   -1    0    0    0    0 -0.00000000000E+00 -0.00000000000E+00 -0.45593999997E+02  0.45594000000E+02  0.51100000000E-03 0. -1.
    9900012    2    1    2    0    0  0.25150238866E+02  0.18976788814E+02  0.25700437236E+02  0.50528862000E+02  0.30000006537E+02 0.  0.
         12    1    1    2    0    0 -0.25150238866E+02 -0.18976788814E+02 -0.25700437236E+02  0.40659138000E+02  0.00000000000E+00 0. -1.
         11    1    3    3    0    0 -0.22720704792E+01  0.58755128550E+01 -0.29617964729E+01  0.69610483535E+01  0.51100000000E-03 0. -1.
        -11    1    3    3    0    0 -0.54609069292E+00  0.25156203974E+01  0.42289293945E+01  0.49507984319E+01  0.51100000000E-03 0.  1.
        -12    1    3    3    0    0  0.27968400038E+02  0.10585655562E+02  0.24433304315E+02  0.38617015215E+02  0.00000000000E+00 0.  1.
</event>
<event>
 7    1  0.2639126E-011  0.5052886E+02  0.7816164E-02  0.1300439E+00
        -11   -1    0    0    0    0  0.00000000000E+00  0.00000000000E+00  0.45593999997E+02  0.45594000000E+02  0.51100000000E-03 0.  1.
         11   -1    0    0    0    0 -0.00000000000E+00 -0.00000000000E+00 -0.45593999997E+02  0.45594000000E+02  0.51100000000E-03 0. -1.
    9900012    2    1    2    0    0 -0.29867718891E+02  0.31138874531E+01  0.27411470660E+02  0.50528860183E+02  0.30000001014E+02 0.  0.
         12    1    1    2    0    0  0.29867718891E+02 -0.31138874531E+01 -0.27411470660E+02  0.40659139817E+02  0.00000000000E+00 0. -1.
         11    1    3    3    0    0 -0.46269876487E+01  0.45946823889E+00  0.10847028656E+02  0.11801616698E+02  0.51100000000E-03 0. -1.
        -11    1    3    3    0    0 -0.20684719945E+02  0.56755209789E+01  0.22204633785E+02  0.30872559651E+02  0.51100000000E-03 0.  1.
         12    1    3    3    0    0 -0.45560112973E+01 -0.30211017647E+01 -0.56401917807E+01  0.78546838343E+01  0.00000000000E+00 0. -1.
</event>
<event>
 7    1  0.2639126E-011  0.5052886E+02  0.7816164E-02  0.1300439E+00
        -11   -1    0    0    0    0  0.00000000000E+00  0.00000000000E+00  0.45593999997E+02  0.45594000000E+02  0.51100000000E-03 0. -1.
         11   -1    0    0    0    0 -0.00000000000E+00 -0.00000000000E+00 -0.45593999997E+02  0.45594000000E+02  0.51100000000E-03 0.  1.
    9900012    2    1    2    0    0 -0.26398366918E+02 -0.18359331535E+02 -0.24884273654E+02  0.50528857047E+02  0.29999991481E+02 0.  0.
         12    1    1    2    0    0  0.26398366918E+02  0.18359331535E+02  0.24884273654E+02  0.40659142953E+02  0.00000000000E+00 0. -1.
         11    1    3    3    0    0  0.22417066981E+01  0.23087590059E+01  0.16545652076E+01  0.36184531717E+01  0.51100000000E-03 0. -1.
        -11    1    3    3    0    0 -0.53828753274E+01 -0.56689895642E+01  0.98495083916E+00  0.78792714058E+01  0.51100000000E-03 0.  1.
        -12    1    3    3    0    0 -0.23257198289E+02 -0.14999100976E+02 -0.27523789701E+02  0.39031132470E+02  0.00000000000E+00 0.  1.
</event>
<event>
 7    1  0.2639126E-011  0.5052886E+02  0.7816164E-02  0.1300439E+00
        -11   -1    0    0    0    0  0.00000000000E+00  0.00000000000E+00  0.45593999997E+02  0.45594000000E+02  0.51100000000E-03 0.  1.
         11   -1    0    0    0    0 -0.00000000000E+00 -0.00000000000E+00 -0.45593999997E+02  0.45594000000E+02  0.51100000000E-03 0. -1.
    9900012    2    1    2    0    0 -0.39515377907E+02 -0.93951146237E+01  0.18525691042E+01  0.50528864714E+02  0.30000014785E+02 0.  0.
         12    1    1    2    0    0  0.39515377907E+02  0.93951146237E+01 -0.18525691042E+01  0.40659135286E+02  0.00000000000E+00 0. -1.
         11    1    3    3    0    0 -0.11427945739E+02 -0.32305392441E+01  0.29808993806E+01  0.12244185927E+02  0.51100000000E-03 0. -1.
        -11    1    3    3    0    0 -0.32684859641E+02 -0.37294847395E+01 -0.22093534489E+01  0.32971053199E+02  0.51100000000E-03 0.  1.
         12    1    3    3    0    0  0.45974274729E+01 -0.24350906401E+01  0.10810231725E+01  0.53136255883E+01  0.00000000000E+00 0. -1.
</event>
<event>
 7    1  0.2639126E-011  0.5052885E+02  0.7816164E-02  0.1300439E+00
        -11   -1    0    0    0    0  0.00000000000E+00  0.00000000000E+00  0.45593999997E+02  0.45594000000E+02  0.51100000000E-03 0.  1.
         11   -1    0    0    0    0 -0.00000000000E+00 -0.00000000000E+00 -0.45593999997E+02  0.45594000000E+02  0.51100000000E-03 0. -1.
    9900012    2    1    2    0    0  0.23817794074E+02 -0.24496964178E+02  0.22040366074E+02  0.50528852135E+02  0.29999976549E+02 0.  0.
         12    1    1    2    0    0 -0.23817794074E+02  0.24496964178E+02 -0.22040366074E+02  0.40659147865E+02  0.00000000000E+00 0. -1.
         11    1    3    3    0    0  0.55496558279E+01 -0.10810258691E+02  0.10763389809E+02  0.16233019843E+02  0.51100000000E-03 0. -1.
        -11    1    3    3    0    0  0.17712756007E+02 -0.12375660451E+02  0.17566316677E+02  0.27847337015E+02  0.51100000000E-03 0.  1.
         12    1    3    3    0    0  0.55538223911E+00 -0.13110450354E+01 -0.62893404126E+01  0.64484952773E+01  0.00000000000E+00 0. -1.
</event>
<event>
 7    1  0.2639126E-011  0.5052885E+02  0.7816164E-02  0.1300439E+00
        -11   -1    0    0    0    0  0.00000000000E+00  0.00000000000E+00  0.45593999997E+02  0.45594000000E+02  0.51100000000E-03 0.  1.
         11   -1    0    0    0    0 -0.00000000000E+00 -0.00000000000E+00 -0.45593999997E+02  0.45594000000E+02  0.51100000000E-03 0. -1.
    9900012    2    1    2    0    0  0.20999234486E+01 -0.11258201235E+02  0.39012946200E+02  0.50528846729E+02  0.29999960118E+02 0.  0.
         12    1    1    2    0    0 -0.20999234486E+01  0.11258201235E+02 -0.39012946200E+02  0.40659153271E+02  0.00000000000E+00 0. -1.
         11    1    3    3    0    0 -0.49986252265E+01  0.36768809952E+01  0.23514332618E+02  0.24319324554E+02  0.51100000000E-03 0. -1.
        -11    1    3    3    0    0 -0.23901871960E+01 -0.10258540232E+01  0.67520668000E+01  0.72357292405E+01  0.51100000000E-03 0.  1.
         12    1    3    3    0    0  0.94887358710E+01 -0.13909228206E+02  0.87465467814E+01  0.18973792935E+02  0.00000000000E+00 0. -1.
</event>
<event>
 7    1  0.2639126E-011  0.5052885E+02  0.7816164E-02  0.1300439E+00
        -11   -1    0    0    0    0  0.00000000000E+00  0.00000000000E+00  0.45593999997E+02  0.45594000000E+02  0.51100000000E-03 0.  1.
         11   -1    0    0    0    0 -0.00000000000E+00 -0.00000000000E+00 -0.45593999997E+02  0.45594000000E+02  0.51100000000E-03 0. -1.
    9900012    2    1    2    0    0 -0.21686813116E+02 -0.57156546863E+00  0.34387811316E+02  0.50528854444E+02  0.29999983569E+02 0.  0.
         12    1    1    2    0    0  0.21686813116E+02  0.57156546863E+00 -0.34387811316E+02  0.40659145556E+02  0.00000000000E+00 0. -1.
         11    1    3    3    0    0 -0.72461167522E+00  0.28835901305E+00 -0.13927292818E+01  0.15962168129E+01  0.51100000000E-03 0. -1.
        -11    1    3    3    0    0 -0.99580257606E+01 -0.91274205119E+01  0.36720425215E+01  0.13998427726E+02  0.51100000000E-03 0.  1.
         12    1    3    3    0    0 -0.11004175680E+02  0.82674960302E+01  0.32108498076E+02  0.34934209906E+02  0.00000000000E+00 0. -1.
</event>
<event>
 7    1  0.2639126E-011  0.5052890E+02  0.7816164E-02  0.1300439E+00
        -11   -1    0    0    0    0  0.00000000000E+00  0.00000000000E+00  0.45593999997E+02  0.45594000000E+02  0.51100000000E-03 0.  1.
         11   -1    0    0    0    0 -0.00000000000E+00 -0.00000000000E+00 -0.45593999997E+02  0.45594000000E+02  0.51100000000E-03 0. -1.
    9900012    2    1    2    0    0 -0.29403729497E+02 -0.42020500500E+01  0.27765557891E+02  0.50528896002E+02  0.30000109888E+02 0.  0.
         12    1    1    2    0    0  0.29403729497E+02  0.42020500500E+01 -0.27765557891E+02  0.40659103998E+02  0.00000000000E+00 0. -1.
         11    1    3    3    0    0 -0.17219640986E+02  0.50862714578E+01  0.69732477442E+01  0.19261681583E+02  0.51100000000E-03 0. -1.
        -11    1    3    3    0    0 -0.94324804734E+01 -0.13173036712E+02  0.89627461472E+01  0.18515706923E+02  0.51100000000E-03 0.  1.
         12    1    3    3    0    0 -0.27516080369E+01  0.38847152046E+01  0.11829563999E+02  0.12751507496E+02  0.00000000000E+00 0. -1.
</event>
<event>
 7    1  0.2639126E-011  0.5052886E+02  0.7816164E-02  0.1300439E+00
        -11   -1    0    0    0    0  0.00000000000E+00  0.00000000000E+00  0.45593999997E+02  0.45594000000E+02  0.51100000000E-03 0. -1.
         11   -1    0    0    0    0 -0.00000000000E+00 -0.00000000000E+00 -0.45593999997E+02  0.45594000000E+02  0.51100000000E-03 0.  1.
    9900012    2    1    2    0    0 -0.39393667959E+02  0.88021584006E+01 -0.48812331495E+01  0.50528861977E+02  0.30000006464E+02 0.  0.
         12    1    1    2    0    0  0.39393667959E+02 -0.88021584006E+01  0.48812331495E+01  0.40659138023E+02  0.00000000000E+00 0. -1.
         11    1    3    3    0    0  0.19913387384E+01  0.31412065200E+01  0.38513311192E+00  0.37391090045E+01  0.51100000000E-03 0. -1.
        -11    1    3    3    0    0 -0.37521437102E+01 -0.29192881068E+01 -0.66403361635E+01  0.81666939515E+01  0.51100000000E-03 0.  1.
        -12    1    3    3    0    0 -0.37632862987E+02  0.85802399873E+01  0.13739699021E+01  0.38623059021E+02  0.00000000000E+00 0.  1.
</event>
<event>
 7    1  0.2639126E-011  0.5052886E+02  0.7816164E-02  0.1300439E+00
        -11   -1    0    0    0    0  0.00000000000E+00  0.00000000000E+00  0.45593999997E+02  0.45594000000E+02  0.51100000000E-03 0.  1.
         11   -1    0    0    0    0 -0.00000000000E+00 -0.00000000000E+00 -0.45593999997E+02  0.45594000000E+02  0.51100000000E-03 0. -1.
    9900012    2    1    2    0    0 -0.83936187532E+01 -0.63554659109E+01  0.39272393044E+02  0.50528860338E+02  0.30000001482E+02 0.  0.
         12    1    1    2    0    0  0.83936187532E+01  0.63554659109E+01 -0.39272393044E+02  0.40659139662E+02  0.00000000000E+00 0. -1.
         11    1    3    3    0    0  0.33614052324E+01 -0.49172773586E+01  0.88498432258E+01  0.10667632687E+02  0.51100000000E-03 0. -1.
        -11    1    3    3    0    0  0.31236329306E+01  0.17415746514E+01  0.22356421446E+02  0.22640665739E+02  0.51100000000E-03 0.  1.
         12    1    3    3    0    0 -0.14878656916E+02 -0.31797632037E+01  0.80661283718E+01  0.17220561912E+02  0.00000000000E+00 0. -1.
</event>
<event>
 7    1  0.2639126E-011  0.5052887E+02  0.7816164E-02  0.1300439E+00
        -11   -1    0    0    0    0  0.00000000000E+00  0.00000000000E+00  0.45593999997E+02  0.45594000000E+02  0.51100000000E-03 0. -1.
         11   -1    0    0    0    0 -0.00000000000E+00 -0.00000000000E+00 -0.45593999997E+02  0.45594000000E+02  0.51100000000E-03 0.  1.
    9900012    2    1    2    0    0 -0.33481926243E+02  0.22605607016E+01 -0.22956814630E+02  0.50528869936E+02  0.30000030657E+02 0.  0.
         12    1    1    2    0    0  0.33481926243E+02 -0.22605607016E+01  0.22956814630E+02  0.40659130064E+02  0.00000000000E+00 0. -1.
         11    1    3    3    0    0 -0.94176563507E+01 -0.96580180168E+01 -0.82404266447E+01  0.15807409487E+02  0.51100000000E-03 0. -1.
        -11    1    3    3    0    0 -0.98037839848E+01 -0.32930046020E+01 -0.70017168476E+01  0.12489279355E+02  0.51100000000E-03 0.  1.
         12    1    3    3    0    0 -0.14260485907E+02  0.15211583320E+02 -0.77146711373E+01  0.22232181094E+02  0.00000000000E+00 0. -1.
</event>
<event>
 7    1  0.2639126E-011  0.5052886E+02  0.7816164E-02  0.1300439E+00
        -11   -1    0    0    0    0  0.00000000000E+00  0.00000000000E+00  0.45593999997E+02  0.45594000000E+02  0.51100000000E-03 0. -1.
         11   -1    0    0    0    0 -0.00000000000E+00 -0.00000000000E+00 -0.45593999997E+02  0.45594000000E+02  0.51100000000E-03 0.  1.
    9900012    2    1    2    0    0  0.18828247344E+02 -0.14395875462E+02 -0.33036668485E+02  0.50528860892E+02  0.30000003168E+02 0.  0.
         12    1    1    2    0    0 -0.18828247344E+02  0.14395875462E+02  0.33036668485E+02  0.40659139108E+02  0.00000000000E+00 0. -1.
         11    1    3    3    0    0 -0.52940907421E+01  0.27339621839E+00 -0.11761052308E+01  0.54300429145E+01  0.51100000000E-03 0. -1.
        -11    1    3    3    0    0  0.19588162980E+01 -0.71300899359E+01 -0.31079554626E+01  0.80208809493E+01  0.51100000000E-03 0.  1.
         12    1    3    3    0    0  0.22163521788E+02 -0.75391817448E+01 -0.28752607792E+02  0.37077937028E+02  0.00000000000E+00 0. -1.
</event>
<event>
 7    1  0.2776384E-011  0.5052885E+02  0.7816164E-02  0.1300439E+00
        -11   -1    0    0    0    0  0.00000000000E+00  0.00000000000E+00  0.45593999997E+02  0.45594000000E+02  0.51100000000E-03 0. -1.
         11   -1    0    0    0    0 -0.00000000000E+00 -0.00000000000E+00 -0.45593999997E+02  0.45594000000E+02  0.51100000000E-03 0.  1.
    9900012    2    1    2    0    0  0.56047730512E+00  0.21781444932E+02 -0.34328139802E+02  0.50528847766E+02  0.29999963270E+02 0.  0.
         12    1    1    2    0    0 -0.56047730512E+00 -0.21781444932E+02  0.34328139802E+02  0.40659152234E+02  0.00000000000E+00 0. -1.
         11    1    3    3    0    0  0.18433648609E+01 -0.21613569632E+01  0.27271654262E+01  0.39378788015E+01  0.51100000000E-03 0. -1.
        -11    1    3    3    0    0  0.28995347818E+01  0.57000644344E+01 -0.20933888296E+02  0.21888940495E+02  0.51100000000E-03 0.  1.
        -12    1    3    3    0    0 -0.41824223376E+01  0.18242737460E+02 -0.16121416931E+02  0.24702028470E+02  0.00000000000E+00 0.  1.
</event>
<event>
 7    1  0.2639126E-011  0.5052886E+02  0.7816164E-02  0.1300439E+00
        -11   -1    0    0    0    0  0.00000000000E+00  0.00000000000E+00  0.45593999997E+02  0.45594000000E+02  0.51100000000E-03 0. -1.
         11   -1    0    0    0    0 -0.00000000000E+00 -0.00000000000E+00 -0.45593999997E+02  0.45594000000E+02  0.51100000000E-03 0.  1.
    9900012    2    1    2    0    0  0.33179375772E+01 -0.40457473011E+02  0.23130315496E+01  0.50528856536E+02  0.29999989928E+02 0.  0.
         12    1    1    2    0    0 -0.33179375772E+01  0.40457473011E+02 -0.23130315496E+01  0.40659143464E+02  0.00000000000E+00 0. -1.
         11    1    3    3    0    0 -0.58601491308E+00 -0.80562522773E+01 -0.84885611117E+01  0.11717605738E+02  0.51100000000E-03 0. -1.
        -11    1    3    3    0    0 -0.22051543543E+01 -0.13520756225E+02 -0.37501244862E+01  0.14203414679E+02  0.51100000000E-03 0.  1.
         12    1    3    3    0    0  0.61091068446E+01 -0.18880464510E+02  0.14551717148E+02  0.24607836119E+02  0.00000000000E+00 0. -1.
</event>
<event>
 7    1  0.2639126E-011  0.5052886E+02  0.7816164E-02  0.1300439E+00
        -11   -1    0    0    0    0  0.00000000000E+00  0.00000000000E+00  0.45593999997E+02  0.45594000000E+02  0.51100000000E-03 0. -1.
         11   -1    0    0    0    0 -0.00000000000E+00 -0.00000000000E+00 -0.45593999997E+02  0.45594000000E+02  0.51100000000E-03 0.  1.
    9900012    2    1    2    0    0  0.29427206116E+02 -0.27597529999E+02 -0.50577885499E+01  0.50528863919E+02  0.30000012368E+02 0.  0.
         12    1    1    2    0    0 -0.29427206116E+02  0.27597529999E+02  0.50577885499E+01  0.40659136081E+02  0.00000000000E+00 0. -1.
         11    1    3    3    0    0  0.30584992830E+01  0.36266993071E+01 -0.51722176796E+01  0.70184899882E+01  0.51100000000E-03 0. -1.
        -11    1    3    3    0    0  0.33890506764E+01 -0.42417821965E+01 -0.53820867492E+01  0.76449485758E+01  0.51100000000E-03 0.  1.
         12    1    3    3    0    0  0.22979656157E+02 -0.26982447110E+02  0.54965158789E+01  0.35865425355E+02  0.00000000000E+00 0. -1.
</event>
<event>
 7    1  0.2639126E-011  0.5052888E+02  0.7816164E-02  0.1300439E+00
        -11   -1    0    0    0    0  0.00000000000E+00  0.00000000000E+00  0.45593999997E+02  0.45594000000E+02  0.51100000000E-03 0.  1.
         11   -1    0    0    0    0 -0.00000000000E+00 -0.00000000000E+00 -0.45593999997E+02  0.45594000000E+02  0.51100000000E-03 0. -1.
    9900012    2    1    2    0    0 -0.40051634635E+02  0.15374533512E+00  0.70004971910E+01  0.50528880045E+02  0.30000061386E+02 0.  0.
         12    1    1    2    0    0  0.40051634635E+02 -0.15374533512E+00 -0.70004971910E+01  0.40659119955E+02  0.00000000000E+00 0. -1.
         11    1    3    3    0    0 -0.29823279519E+02  0.56198620610E+01  0.80431033405E+01  0.31395897223E+02  0.51100000000E-03 0. -1.
        -11    1    3    3    0    0 -0.89994255667E+01 -0.99300954338E+01 -0.35554618823E+01  0.13864983423E+02  0.51100000000E-03 0.  1.
         12    1    3    3    0    0 -0.12289295496E+01  0.44639787078E+01  0.25128557328E+01  0.52679993997E+01  0.00000000000E+00 0. -1.
</event>
<event>
 7    1  0.2639126E-011  0.5052887E+02  0.7816164E-02  0.1300439E+00
        -11   -1    0    0    0    0  0.00000000000E+00  0.00000000000E+00  0.45593999997E+02  0.45594000000E+02  0.51100000000E-03 0.  1.
         11   -1    0    0    0    0 -0.00000000000E+00 -0.00000000000E+00 -0.45593999997E+02  0.45594000000E+02  0.51100000000E-03 0. -1.
    9900012    2    1    2    0    0  0.18291419476E+02 -0.14975232488E+02  0.33080674687E+02  0.50528872461E+02  0.30000038332E+02 0.  0.
         12    1    1    2    0    0 -0.18291419476E+02  0.14975232488E+02 -0.33080674687E+02  0.40659127539E+02  0.00000000000E+00 0. -1.
         11    1    3    3    0    0  0.27401131862E+01 -0.14678783578E+02  0.11187676543E+01  0.14974196103E+02  0.51100000000E-03 0. -1.
        -11    1    3    3    0    0  0.10924548549E+01 -0.21505560603E+00  0.21349004110E+01  0.24078011857E+01  0.51100000000E-03 0.  1.
         12    1    3    3    0    0  0.14458851435E+02 -0.81393303367E-01  0.29827006622E+02  0.33146875172E+02  0.00000000000E+00 0. -1.
</event>
<event>
 7    1  0.2639126E-011  0.5052886E+02  0.7816164E-02  0.1300439E+00
        -11   -1    0    0    0    0  0.00000000000E+00  0.00000000000E+00  0.45593999997E+02  0.45594000000E+02  0.51100000000E-03 0. -1.
         11   -1    0    0    0    0 -0.00000000000E+00 -0.00000000000E+00 -0.45593999997E+02  0.45594000000E+02  0.51100000000E-03 0.  1.
    9900012    2    1    2    0    0  0.25594660801E+02 -0.24816967028E+02 -0.19549855639E+02  0.50528863640E+02  0.30000011521E+02 0.  0.
         12    1    1    2    0    0 -0.25594660801E+02  0.24816967028E+02  0.19549855639E+02  0.40659136360E+02  0.00000000000E+00 0. -1.
         11    1    3    3    0    0 -0.14332462287E+01  0.35852952803E+01 -0.19071551855E+00  0.38658646729E+01  0.51100000000E-03 0. -1.
        -11    1    3    3    0    0  0.18600477429E+02 -0.87220904614E+01 -0.13072383283E+02  0.24350355799E+02  0.51100000000E-03 0.  1.
         12    1    3    3    0    0  0.84274296014E+01 -0.19680171847E+02 -0.62867568372E+01  0.22312643168E+02  0.00000000000E+00 0. -1.
</event>
<event>
 7    1  0.2639126E-011  0.5052886E+02  0.7816164E-02  0.1300439E+00
        -11   -1    0    0    0    0  0.00000000000E+00  0.00000000000E+00  0.45593999997E+02  0.45594000000E+02  0.51100000000E-03 0. -1.
         11   -1    0    0    0    0 -0.00000000000E+00 -0.00000000000E+00 -0.45593999997E+02  0.45594000000E+02  0.51100000000E-03 0.  1.
    9900012    2    1    2    0    0 -0.30543080392E+02 -0.25562902019E+02 -0.81745996629E+01  0.50528858357E+02  0.29999995461E+02 0.  0.
         12    1    1    2    0    0  0.30543080392E+02  0.25562902019E+02  0.81745996629E+01  0.40659141643E+02  0.00000000000E+00 0. -1.
         11    1    3    3    0    0 -0.17087830636E+02 -0.19953266214E+02 -0.39090246083E+00  0.26273172505E+02  0.51100000000E-03 0. -1.
        -11    1    3    3    0    0  0.33673224866E+01 -0.96471472155E+00  0.22130006887E+01  0.41432966985E+01  0.51100000000E-03 0.  1.
        -12    1    3    3    0    0 -0.16822572243E+02 -0.46449210835E+01 -0.99966978907E+01  0.20112389153E+02  0.00000000000E+00 0.  1.
</event>
<event>
 7    1  0.2639126E-011  0.5052881E+02  0.7816164E-02  0.1300439E+00
        -11   -1    0    0    0    0  0.00000000000E+00  0.00000000000E+00  0.45593999997E+02  0.45594000000E+02  0.51100000000E-03 0.  1.
         11   -1    0    0    0    0 -0.00000000000E+00 -0.00000000000E+00 -0.45593999997E+02  0.45594000000E+02  0.51100000000E-03 0. -1.
    9900012    2    1    2    0    0 -0.23341072319E+02 -0.20011761196E+02  0.26606264868E+02  0.50528811944E+02  0.29999854384E+02 0.  0.
         12    1    1    2    0    0  0.23341072319E+02  0.20011761196E+02 -0.26606264868E+02  0.40659188056E+02  0.00000000000E+00 0. -1.
         11    1    3    3    0    0 -0.12462061894E+02 -0.33357024065E+01  0.10950886227E+02  0.16921932709E+02  0.51100000000E-03 0. -1.
        -11    1    3    3    0    0 -0.15927113823E+02 -0.53804999958E+01  0.12166754333E+02  0.20752172084E+02  0.51100000000E-03 0.  1.
         12    1    3    3    0    0  0.50481033981E+01 -0.11295558793E+02  0.34886243083E+01  0.12854707151E+02  0.00000000000E+00 0. -1.
</event>
<event>
 7    1  0.2639126E-011  0.5052885E+02  0.7816164E-02  0.1300439E+00
        -11   -1    0    0    0    0  0.00000000000E+00  0.00000000000E+00  0.45593999997E+02  0.45594000000E+02  0.51100000000E-03 0.  1.
         11   -1    0    0    0    0 -0.00000000000E+00 -0.00000000000E+00 -0.45593999997E+02  0.45594000000E+02  0.51100000000E-03 0. -1.
    9900012    2    1    2    0    0  0.12271159237E+01 -0.30597099856E+02  0.26748416224E+02  0.50528854613E+02  0.29999984081E+02 0.  0.
         12    1    1    2    0    0 -0.12271159237E+01  0.30597099856E+02 -0.26748416224E+02  0.40659145387E+02  0.00000000000E+00 0. -1.
         11    1    3    3    0    0 -0.44139608294E+01 -0.16646534042E+02  0.43918289857E+01  0.17772965647E+02  0.51100000000E-03 0. -1.
        -11    1    3    3    0    0  0.18219141613E+01 -0.17051613064E+02  0.21899878704E+02  0.27815131976E+02  0.51100000000E-03 0.  1.
        -12    1    3    3    0    0  0.38191625918E+01  0.31010472495E+01  0.45670853436E+00  0.49407569898E+01  0.00000000000E+00 0.  1.
</event>
<event>
 7    1  0.2639126E-011  0.5052886E+02  0.7816164E-02  0.1300439E+00
        -11   -1    0    0    0    0  0.00000000000E+00  0.00000000000E+00  0.45593999997E+02  0.45594000000E+02  0.51100000000E-03 0.  1.
         11   -1    0    0    0    0 -0.00000000000E+00 -0.00000000000E+00 -0.45593999997E+02  0.45594000000E+02  0.51100000000E-03 0. -1.
    9900012    2    1    2    0    0  0.33829515073E+02 -0.35954025991E+01  0.22266628033E+02  0.50528859160E+02  0.29999997902E+02 0.  0.
         12    1    1    2    0    0 -0.33829515073E+02  0.35954025991E+01 -0.22266628033E+02  0.40659140840E+02  0.00000000000E+00 0. -1.
         11    1    3    3    0    0  0.15730841448E+02 -0.36136301602E+01  0.53872842016E+01  0.17015890424E+02  0.51100000000E-03 0. -1.
        -11    1    3    3    0    0  0.91271450098E+01 -0.13647208557E+01 -0.45139994773E+01  0.10273433242E+02  0.51100000000E-03 0.  1.
        -12    1    3    3    0    0  0.89715286152E+01  0.13829484168E+01  0.21393343309E+02  0.23239535493E+02  0.00000000000E+00 0.  1.
</event>
<event>
 7    1  0.2639126E-011  0.5052883E+02  0.7816164E-02  0.1300439E+00
        -11   -1    0    0    0    0  0.00000000000E+00  0.00000000000E+00  0.45593999997E+02  0.45594000000E+02  0.51100000000E-03 0.  1.
         11   -1    0    0    0    0 -0.00000000000E+00 -0.00000000000E+00 -0.45593999997E+02  0.45594000000E+02  0.51100000000E-03 0. -1.
    9900012    2    1    2    0    0  0.21058220476E+02 -0.31385803302E+02  0.14988346863E+02  0.50528833257E+02  0.29999919169E+02 0.  0.
         12    1    1    2    0    0 -0.21058220476E+02  0.31385803302E+02 -0.14988346863E+02  0.40659166743E+02  0.00000000000E+00 0. -1.
         11    1    3    3    0    0  0.44056796310E+01 -0.57560178246E+00  0.31807154420E+01  0.54642731820E+01  0.51100000000E-03 0. -1.
        -11    1    3    3    0    0  0.22593005129E+02 -0.17529173179E+02  0.10477704356E+02  0.30454853175E+02  0.51100000000E-03 0.  1.
         12    1    3    3    0    0 -0.59404642843E+01 -0.13281028341E+02  0.13299270647E+01  0.14609706900E+02  0.00000000000E+00 0. -1.
</event>
<event>
 7    1  0.2639126E-011  0.5052885E+02  0.7816164E-02  0.1300439E+00
        -11   -1    0    0    0    0  0.00000000000E+00  0.00000000000E+00  0.45593999997E+02  0.45594000000E+02  0.51100000000E-03 0.  1.
         11   -1    0    0    0    0 -0.00000000000E+00 -0.00000000000E+00 -0.45593999997E+02  0.45594000000E+02  0.51100000000E-03 0. -1.
    9900012    2    1    2    0    0 -0.14948812102E+01  0.40603594576E+02 -0.15098535435E+01  0.50528853181E+02  0.29999979728E+02 0.  0.
         12    1    1    2    0    0  0.14948812102E+01 -0.40603594576E+02  0.15098535435E+01  0.40659146819E+02  0.00000000000E+00 0. -1.
         11    1    3    3    0    0  0.29672660665E+01  0.33367252623E+01 -0.83089861701E+00  0.45418934552E+01  0.51100000000E-03 0.  1.
        -11    1    3    3    0    0  0.90776031807E+00 -0.31101937750E+01 -0.39669175220E+01  0.51218911547E+01  0.51100000000E-03 0. -1.
        -12    1    3    3    0    0 -0.53699075948E+01  0.40377063089E+02  0.32879625955E+01  0.40865068571E+02  0.00000000000E+00 0.  1.
</event>
<event>
 7    1  0.2639126E-011  0.5052883E+02  0.7816164E-02  0.1300439E+00
        -11   -1    0    0    0    0  0.00000000000E+00  0.00000000000E+00  0.45593999997E+02  0.45594000000E+02  0.51100000000E-03 0.  1.
         11   -1    0    0    0    0 -0.00000000000E+00 -0.00000000000E+00 -0.45593999997E+02  0.45594000000E+02  0.51100000000E-03 0. -1.
    9900012    2    1    2    0    0 -0.37439632918E+02  0.13765675171E+01  0.15797067659E+02  0.50528826400E+02  0.29999898327E+02 0.  0.
         12    1    1    2    0    0  0.37439632918E+02 -0.13765675171E+01 -0.15797067659E+02  0.40659173600E+02  0.00000000000E+00 0. -1.
         11    1    3    3    0    0 -0.32326385525E+01  0.59819661371E+00  0.10840092512E+02  0.11327638639E+02  0.51100000000E-03 0. -1.
        -11    1    3    3    0    0 -0.15054142789E+02 -0.27435636347E+00  0.11487249114E+02  0.18938304544E+02  0.51100000000E-03 0.  1.
         12    1    3    3    0    0 -0.19152851576E+02  0.10527272668E+01 -0.65302739671E+01  0.20262883218E+02  0.00000000000E+00 0. -1.
</event>
<event>
 7    1  0.2639126E-011  0.5052886E+02  0.7816164E-02  0.1300439E+00
        -11   -1    0    0    0    0  0.00000000000E+00  0.00000000000E+00  0.45593999997E+02  0.45594000000E+02  0.51100000000E-03 0.  1.
         11   -1    0    0    0    0 -0.00000000000E+00 -0.00000000000E+00 -0.45593999997E+02  0.45594000000E+02  0.51100000000E-03 0. -1.
    9900012    2    1    2    0    0  0.59175161348E+01  0.39224095395E+02 -0.89229386950E+01  0.50528862137E+02  0.30000006953E+02 0.  0.
         12    1    1    2    0    0 -0.59175161348E+01 -0.39224095395E+02  0.89229386950E+01  0.40659137863E+02  0.00000000000E+00 0. -1.
         11    1    3    3    0    0 -0.57275797449E+00  0.73208094458E+01 -0.12037572224E+02  0.14100547789E+02  0.51100000000E-03 0. -1.
        -11    1    3    3    0    0  0.11433941548E+01  0.89414972124E+00  0.47026184607E+01  0.49215317296E+01  0.51100000000E-03 0.  1.
         12    1    3    3    0    0  0.53468799545E+01  0.31009136228E+02 -0.15879849322E+01  0.31506782619E+02  0.00000000000E+00 0. -1.
</event>
<event>
 7    1  0.2639126E-011  0.5052889E+02  0.7816164E-02  0.1300439E+00
        -11   -1    0    0    0    0  0.00000000000E+00  0.00000000000E+00  0.45593999997E+02  0.45594000000E+02  0.51100000000E-03 0.  1.
         11   -1    0    0    0    0 -0.00000000000E+00 -0.00000000000E+00 -0.45593999997E+02  0.45594000000E+02  0.51100000000E-03 0. -1.
    9900012    2    1    2    0    0  0.12439880684E+02 -0.60039322514E+01  0.38240883780E+02  0.50528892457E+02  0.30000099112E+02 0.  0.
         12    1    1    2    0    0 -0.12439880684E+02  0.60039322514E+01 -0.38240883780E+02  0.40659107543E+02  0.00000000000E+00 0. -1.
         11    1    3    3    0    0 -0.14955734506E+01  0.25173356133E+01  0.51442355295E+01  0.59191957207E+01  0.51100000000E-03 0. -1.
        -11    1    3    3    0    0 -0.56755893764E+01 -0.18528794914E+01  0.18038709819E+02  0.19001066532E+02  0.51100000000E-03 0.  1.
        -12    1    3    3    0    0  0.19611043511E+02 -0.66683883733E+01  0.15057938432E+02  0.25608630204E+02  0.00000000000E+00 0.  1.
</event>
<event>
 7    1  0.2639126E-011  0.5052886E+02  0.7816164E-02  0.1300439E+00
        -11   -1    0    0    0    0  0.00000000000E+00  0.00000000000E+00  0.45593999997E+02  0.45594000000E+02  0.51100000000E-03 0.  1.
         11   -1    0    0    0    0 -0.00000000000E+00 -0.00000000000E+00 -0.45593999997E+02  0.45594000000E+02  0.51100000000E-03 0. -1.
    9900012    2    1    2    0    0  0.23044862528E+02  0.33351191797E+02  0.31301336003E+01  0.50528863025E+02  0.30000009650E+02 0.  0.
         12    1    1    2    0    0 -0.23044862528E+02 -0.33351191797E+02 -0.31301336003E+01  0.40659136975E+02  0.00000000000E+00 0. -1.
         11    1    3    3    0    0  0.16650397762E+01 -0.19491014697E+01 -0.21747966954E+00  0.25726740298E+01  0.51100000000E-03 0. -1.
        -11    1    3    3    0    0  0.70149797222E+00 -0.24550777785E+01 -0.35365969467E+01  0.43619977680E+01  0.51100000000E-03 0.  1.
        -12    1    3    3    0    0  0.20678324779E+02  0.37755371045E+02  0.68842102165E+01  0.43594191227E+02  0.00000000000E+00 0.  1.
</event>
<event>
 7    1  0.2639126E-011  0.5052886E+02  0.7816164E-02  0.1300439E+00
        -11   -1    0    0    0    0  0.00000000000E+00  0.00000000000E+00  0.45593999997E+02  0.45594000000E+02  0.51100000000E-03 0. -1.
         11   -1    0    0    0    0 -0.00000000000E+00 -0.00000000000E+00 -0.45593999997E+02  0.45594000000E+02  0.51100000000E-03 0.  1.
    9900012    2    1    2    0    0 -0.25723204853E+02  0.18939654151E+02 -0.25154950157E+02  0.50528864684E+02  0.30000014693E+02 0.  0.
         12    1    1    2    0    0  0.25723204853E+02 -0.18939654151E+02  0.25154950157E+02  0.40659135316E+02  0.00000000000E+00 0. -1.
         11    1    3    3    0    0 -0.19131146597E+02  0.14602978881E+02 -0.13774514997E+02  0.27730579258E+02  0.51100000000E-03 0. -1.
        -11    1    3    3    0    0 -0.23318765327E+00  0.10708261341E+02 -0.69223395916E+01  0.12753039760E+02  0.51100000000E-03 0.  1.
         12    1    3    3    0    0 -0.63588706025E+01 -0.63715860708E+01 -0.44580955682E+01  0.10045245666E+02  0.00000000000E+00 0. -1.
</event>
<event>
 7    1  0.2639126E-011  0.5052885E+02  0.7816164E-02  0.1300439E+00
        -11   -1    0    0    0    0  0.00000000000E+00  0.00000000000E+00  0.45593999997E+02  0.45594000000E+02  0.51100000000E-03 0.  1.
         11   -1    0    0    0    0 -0.00000000000E+00 -0.00000000000E+00 -0.45593999997E+02  0.45594000000E+02  0.51100000000E-03 0. -1.
    9900012    2    1    2    0    0  0.32149020714E+02 -0.22279866928E+02  0.11100209323E+02  0.50528847891E+02  0.29999963650E+02 0.  0.
         12    1    1    2    0    0 -0.32149020714E+02  0.22279866928E+02 -0.11100209323E+02  0.40659152109E+02  0.00000000000E+00 0. -1.
         11    1    3    3    0    0  0.22526224822E+01 -0.19083193505E+01 -0.62071232556E+01  0.68734540198E+01  0.51100000000E-03 0. -1.
        -11    1    3    3    0    0 -0.75284900285E-02 -0.22276051235E+01  0.67665915630E+01  0.71238362492E+01  0.51100000000E-03 0.  1.
        -12    1    3    3    0    0  0.29903926722E+02 -0.18143942454E+02  0.10540741016E+02  0.36531557622E+02  0.00000000000E+00 0.  1.
</event>
<event>
 7    1  0.2639126E-011  0.5052886E+02  0.7816164E-02  0.1300439E+00
        -11   -1    0    0    0    0  0.00000000000E+00  0.00000000000E+00  0.45593999997E+02  0.45594000000E+02  0.51100000000E-03 0.  1.
         11   -1    0    0    0    0 -0.00000000000E+00 -0.00000000000E+00 -0.45593999997E+02  0.45594000000E+02  0.51100000000E-03 0. -1.
    9900012    2    1    2    0    0 -0.19825148404E+02 -0.13835707951E+02  0.32691014962E+02  0.50528858555E+02  0.29999996065E+02 0.  0.
         12    1    1    2    0    0  0.19825148404E+02  0.13835707951E+02 -0.32691014962E+02  0.40659141445E+02  0.00000000000E+00 0. -1.
         11    1    3    3    0    0 -0.66853734760E+01 -0.80655389146E+01  0.11797359559E+02  0.15777351784E+02  0.51100000000E-03 0. -1.
        -11    1    3    3    0    0 -0.18826393197E+02 -0.83184363310E+01  0.11791580950E+02  0.23720683915E+02  0.51100000000E-03 0.  1.
        -12    1    3    3    0    0  0.56866182691E+01  0.25482672944E+01  0.91020744528E+01  0.11030822856E+02  0.00000000000E+00 0.  1.
</event>
<event>
 7    1  0.2639126E-011  0.5052872E+02  0.7816164E-02  0.1300439E+00
        -11   -1    0    0    0    0  0.00000000000E+00  0.00000000000E+00  0.45593999997E+02  0.45594000000E+02  0.51100000000E-03 0.  1.
         11   -1    0    0    0    0 -0.00000000000E+00 -0.00000000000E+00 -0.45593999997E+02  0.45594000000E+02  0.51100000000E-03 0. -1.
    9900012    2    1    2    0    0  0.36958158600E+02  0.12108024586E+02  0.11860309160E+02  0.50528724554E+02  0.29999588750E+02 0.  0.
         12    1    1    2    0    0 -0.36958158600E+02 -0.12108024586E+02 -0.11860309160E+02  0.40659275446E+02  0.00000000000E+00 0. -1.
         11    1    3    3    0    0  0.38493189773E+01  0.83174384701E-01 -0.41676853474E+01  0.56739559377E+01  0.51100000000E-03 0. -1.
        -11    1    3    3    0    0  0.14792291984E+02  0.12300744441E+02 -0.17624494719E+01  0.19319069448E+02  0.51100000000E-03 0.  1.
        -12    1    3    3    0    0  0.18316547639E+02 -0.27589423924E+00  0.17790443979E+02  0.25535699168E+02  0.00000000000E+00 0.  1.
</event>
<event>
 7    1  0.2639126E-011  0.5052885E+02  0.7816164E-02  0.1300439E+00
        -11   -1    0    0    0    0  0.00000000000E+00  0.00000000000E+00  0.45593999997E+02  0.45594000000E+02  0.51100000000E-03 0. -1.
         11   -1    0    0    0    0 -0.00000000000E+00 -0.00000000000E+00 -0.45593999997E+02  0.45594000000E+02  0.51100000000E-03 0.  1.
    9900012    2    1    2    0    0  0.38965380121E+02  0.11283574945E+02  0.27470942590E+01  0.50528850496E+02  0.29999971568E+02 0.  0.
         12    1    1    2    0    0 -0.38965380121E+02 -0.11283574945E+02 -0.27470942590E+01  0.40659149504E+02  0.00000000000E+00 0. -1.
         11    1    3    3    0    0 -0.41419162742E+01  0.81275466828E+00 -0.30246842922E+01  0.51927599504E+01  0.51100000000E-03 0. -1.
        -11    1    3    3    0    0  0.19143715801E+02  0.82961443421E+01  0.17143554501E+01  0.20934346908E+02  0.51100000000E-03 0.  1.
        -12    1    3    3    0    0  0.23963580594E+02  0.21746759351E+01  0.40574231011E+01  0.24401743637E+02  0.00000000000E+00 0.  1.
</event>
<event>
 7    1  0.2639126E-011  0.5052886E+02  0.7816164E-02  0.1300439E+00
        -11   -1    0    0    0    0  0.00000000000E+00  0.00000000000E+00  0.45593999997E+02  0.45594000000E+02  0.51100000000E-03 0.  1.
         11   -1    0    0    0    0 -0.00000000000E+00 -0.00000000000E+00 -0.45593999997E+02  0.45594000000E+02  0.51100000000E-03 0. -1.
    9900012    2    1    2    0    0 -0.27930434293E+02 -0.20363403261E+02  0.21410004738E+02  0.50528860129E+02  0.30000000848E+02 0.  0.
         12    1    1    2    0    0  0.27930434293E+02  0.20363403261E+02 -0.21410004738E+02  0.40659139871E+02  0.00000000000E+00 0. -1.
         11    1    3    3    0    0 -0.79223542772E+01 -0.39378683675E+01 -0.22238186763E+01  0.91222735291E+01  0.51100000000E-03 0.  1.
        -11    1    3    3    0    0 -0.10504684371E+02 -0.95447979473E+01 -0.88935356157E+00  0.14221199373E+02  0.51100000000E-03 0. -1.
        -12    1    3    3    0    0 -0.95033956452E+01 -0.68807369467E+01  0.24523176976E+02  0.27185387227E+02  0.00000000000E+00 0.  1.
</event>
<event>
 7    1  0.2639126E-011  0.5052886E+02  0.7816164E-02  0.1300439E+00
        -11   -1    0    0    0    0  0.00000000000E+00  0.00000000000E+00  0.45593999997E+02  0.45594000000E+02  0.51100000000E-03 0.  1.
         11   -1    0    0    0    0 -0.00000000000E+00 -0.00000000000E+00 -0.45593999997E+02  0.45594000000E+02  0.51100000000E-03 0. -1.
    9900012    2    1    2    0    0  0.85739331393E+01  0.36252920854E+02  0.16290453668E+02  0.50528862274E+02  0.30000007369E+02 0.  0.
         12    1    1    2    0    0 -0.85739331393E+01 -0.36252920854E+02 -0.16290453668E+02  0.40659137726E+02  0.00000000000E+00 0. -1.
         11    1    3    3    0    0  0.37230486589E+01  0.14774027470E+02 -0.26645960865E+01  0.15467160423E+02  0.51100000000E-03 0. -1.
        -11    1    3    3    0    0 -0.59630568002E+01  0.13990277691E+02  0.53087935064E+01  0.16108047834E+02  0.51100000000E-03 0.  1.
         12    1    3    3    0    0  0.10813941281E+02  0.74886156929E+01  0.13646256248E+02  0.18953654017E+02  0.00000000000E+00 0. -1.
</event>
<event>
 7    1  0.2639126E-011  0.5052886E+02  0.7816164E-02  0.1300439E+00
        -11   -1    0    0    0    0  0.00000000000E+00  0.00000000000E+00  0.45593999997E+02  0.45594000000E+02  0.51100000000E-03 0.  1.
         11   -1    0    0    0    0 -0.00000000000E+00 -0.00000000000E+00 -0.45593999997E+02  0.45594000000E+02  0.51100000000E-03 0. -1.
    9900012    2    1    2    0    0  0.13051902440E+02 -0.40092163730E+01  0.38298036293E+02  0.50528861333E+02  0.30000004509E+02 0.  0.
         12    1    1    2    0    0 -0.13051902440E+02  0.40092163730E+01 -0.38298036293E+02  0.40659138667E+02  0.00000000000E+00 0. -1.
         11    1    3    3    0    0  0.10838409819E+02 -0.51167957943E+01  0.11401067939E+02  0.16541979235E+02  0.51100000000E-03 0. -1.
        -11    1    3    3    0    0 -0.69586425724E+01  0.23320377260E+01  0.22642521507E+02  0.23802203403E+02  0.51100000000E-03 0.  1.
         12    1    3    3    0    0  0.91721351935E+01 -0.12244583047E+01  0.42544468472E+01  0.10184678695E+02  0.00000000000E+00 0. -1.
</event>
<event>
 7    1  0.2639126E-011  0.5052886E+02  0.7816164E-02  0.1300439E+00
        -11   -1    0    0    0    0  0.00000000000E+00  0.00000000000E+00  0.45593999997E+02  0.45594000000E+02  0.51100000000E-03 0.  1.
         11   -1    0    0    0    0 -0.00000000000E+00 -0.00000000000E+00 -0.45593999997E+02  0.45594000000E+02  0.51100000000E-03 0. -1.
    9900012    2    1    2    0    0 -0.15488281625E+01 -0.29453772963E+02  0.27986459210E+02  0.50528861919E+02  0.30000006288E+02 0.  0.
         12    1    1    2    0    0  0.15488281625E+01  0.29453772963E+02 -0.27986459210E+02  0.40659138081E+02  0.00000000000E+00 0. -1.
         11    1    3    3    0    0  0.10846323191E+02 -0.34749340583E+01  0.79246566137E+01  0.13875088331E+02  0.51100000000E-03 0. -1.
        -11    1    3    3    0    0 -0.13546027461E+01  0.68377900084E+00  0.17635246792E-01  0.15175024168E+01  0.51100000000E-03 0.  1.
        -12    1    3    3    0    0 -0.11040548608E+02 -0.26662617905E+02  0.20044167349E+02  0.35136271171E+02  0.00000000000E+00 0.  1.
</event>
<event>
 7    1  0.2639126E-011  0.5052886E+02  0.7816164E-02  0.1300439E+00
        -11   -1    0    0    0    0  0.00000000000E+00  0.00000000000E+00  0.45593999997E+02  0.45594000000E+02  0.51100000000E-03 0. -1.
         11   -1    0    0    0    0 -0.00000000000E+00 -0.00000000000E+00 -0.45593999997E+02  0.45594000000E+02  0.51100000000E-03 0.  1.
    9900012    2    1    2    0    0  0.33693999444E+02 -0.20873322153E+02  0.90655718937E+01  0.50528858716E+02  0.29999996552E+02 0.  0.
         12    1    1    2    0    0 -0.33693999444E+02  0.20873322153E+02 -0.90655718937E+01  0.40659141284E+02  0.00000000000E+00 0. -1.
         11    1    3    3    0    0  0.29962953423E+02 -0.77805884505E+01  0.12465255724E+02  0.33372125119E+02  0.51100000000E-03 0. -1.
        -11    1    3    3    0    0  0.42412820750E+01 -0.11624750773E+01  0.85534182201E+00  0.44801151591E+01  0.51100000000E-03 0.  1.
        -12    1    3    3    0    0 -0.51023605416E+00 -0.11930258625E+02 -0.42550256525E+01  0.12676618437E+02  0.00000000000E+00 0.  1.
</event>
<event>
 7    1  0.2639126E-011  0.5052887E+02  0.7816164E-02  0.1300439E+00
        -11   -1    0    0    0    0  0.00000000000E+00  0.00000000000E+00  0.45593999997E+02  0.45594000000E+02  0.51100000000E-03 0. -1.
         11   -1    0    0    0    0 -0.00000000000E+00 -0.00000000000E+00 -0.45593999997E+02  0.45594000000E+02  0.51100000000E-03 0.  1.
    9900012    2    1    2    0    0  0.33736855593E+02  0.21061654401E+02  0.84496199270E+01  0.50528870788E+02  0.30000033246E+02 0.  0.
         12    1    1    2    0    0 -0.33736855593E+02 -0.21061654401E+02 -0.84496199270E+01  0.40659129212E+02  0.00000000000E+00 0. -1.
         11    1    3    3    0    0  0.17993552339E+01  0.82686515882E+01  0.70859412000E+01  0.11037157301E+02  0.51100000000E-03 0. -1.
        -11    1    3    3    0    0  0.21223517377E+02  0.17179666164E+02  0.40577811050E+01  0.27605148200E+02  0.51100000000E-03 0.  1.
        -12    1    3    3    0    0  0.10713982981E+02 -0.43866633511E+01 -0.26941023780E+01  0.11886565286E+02  0.00000000000E+00 0.  1.
</event>
<event>
 7    1  0.2639126E-011  0.5052886E+02  0.7816164E-02  0.1300439E+00
        -11   -1    0    0    0    0  0.00000000000E+00  0.00000000000E+00  0.45593999997E+02  0.45594000000E+02  0.51100000000E-03 0.  1.
         11   -1    0    0    0    0 -0.00000000000E+00 -0.00000000000E+00 -0.45593999997E+02  0.45594000000E+02  0.51100000000E-03 0. -1.
    9900012    2    1    2    0    0  0.90103526754E+00 -0.27853357213E+02  0.29606489786E+02  0.50528860682E+02  0.30000002530E+02 0.  0.
         12    1    1    2    0    0 -0.90103526754E+00  0.27853357213E+02 -0.29606489786E+02  0.40659139318E+02  0.00000000000E+00 0. -1.
         11    1    3    3    0    0 -0.26038108719E+01 -0.65253447287E+01  0.14415630733E+01  0.71720331316E+01  0.51100000000E-03 0. -1.
        -11    1    3    3    0    0  0.24355396486E+01  0.21913061673E+01 -0.29019703426E+01  0.43766549132E+01  0.51100000000E-03 0.  1.
        -12    1    3    3    0    0  0.10693064909E+01 -0.23519318652E+02  0.31066897055E+02  0.38980172638E+02  0.00000000000E+00 0.  1.
</event>
<event>
 7    1  0.2639126E-011  0.5052885E+02  0.7816164E-02  0.1300439E+00
        -11   -1    0    0    0    0  0.00000000000E+00  0.00000000000E+00  0.45593999997E+02  0.45594000000E+02  0.51100000000E-03 0. -1.
         11   -1    0    0    0    0 -0.00000000000E+00 -0.00000000000E+00 -0.45593999997E+02  0.45594000000E+02  0.51100000000E-03 0.  1.
    9900012    2    1    2    0    0 -0.49954007531E+01 -0.61627780111E+01 -0.39877715783E+02  0.50528854934E+02  0.29999985056E+02 0.  0.
         12    1    1    2    0    0  0.49954007531E+01  0.61627780111E+01  0.39877715783E+02  0.40659145066E+02  0.00000000000E+00 0. -1.
         11    1    3    3    0    0  0.47976374628E+00  0.51467569231E+01 -0.45800066536E+01  0.69062103419E+01  0.51100000000E-03 0. -1.
        -11    1    3    3    0    0 -0.46026388227E+01  0.62408508475E+01 -0.78678501416E+01  0.11046971058E+02  0.51100000000E-03 0.  1.
        -12    1    3    3    0    0 -0.87252567660E+00 -0.17550385782E+02 -0.27429858987E+02  0.32575673534E+02  0.00000000000E+00 0.  1.
</event>
<event>
 7    1  0.2639126E-011  0.5052886E+02  0.7816164E-02  0.1300439E+00
        -11   -1    0    0    0    0  0.00000000000E+00  0.00000000000E+00  0.45593999997E+02  0.45594000000E+02  0.51100000000E-03 0.  1.
         11   -1    0    0    0    0 -0.00000000000E+00 -0.00000000000E+00 -0.45593999997E+02  0.45594000000E+02  0.51100000000E-03 0. -1.
    9900012    2    1    2    0    0 -0.38970463649E+02 -0.11528250987E+02 -0.12521579055E+01  0.50528861947E+02  0.30000006373E+02 0.  0.
         12    1    1    2    0    0  0.38970463649E+02  0.11528250987E+02  0.12521579055E+01  0.40659138053E+02  0.00000000000E+00 0. -1.
         11    1    3    3    0    0 -0.24357426369E+01 -0.68628739955E+01  0.81476175490E+01  0.10927742386E+02  0.51100000000E-03 0. -1.
        -11    1    3    3    0    0 -0.12387623409E+02 -0.62237660126E+01 -0.62240134058E+01  0.15196276525E+02  0.51100000000E-03 0.  1.
        -12    1    3    3    0    0 -0.24147097603E+02  0.15583890208E+01 -0.31757620488E+01  0.24404843035E+02  0.00000000000E+00 0.  1.
</event>
<event>
 7    1  0.2639126E-011  0.5052886E+02  0.7816164E-02  0.1300439E+00
        -11   -1    0    0    0    0  0.00000000000E+00  0.00000000000E+00  0.45593999997E+02  0.45594000000E+02  0.51100000000E-03 0.  1.
         11   -1    0    0    0    0 -0.00000000000E+00 -0.00000000000E+00 -0.45593999997E+02  0.45594000000E+02  0.51100000000E-03 0. -1.
    9900012    2    1    2    0    0 -0.12855925739E+02 -0.33432520116E+02  0.19239472307E+02  0.50528861758E+02  0.30000005801E+02 0.  0.
         12    1    1    2    0    0  0.12855925739E+02  0.33432520116E+02 -0.19239472307E+02  0.40659138242E+02  0.00000000000E+00 0. -1.
         11    1    3    3    0    0 -0.73008004451E+00  0.16779716462E+01  0.12179064783E+01  0.21981588131E+01  0.51100000000E-03 0. -1.
        -11    1    3    3    0    0  0.13293994624E+01 -0.78198407167E+01 -0.56845478750E+01  0.97586523952E+01  0.51100000000E-03 0.  1.
        -12    1    3    3    0    0 -0.13455245157E+02 -0.27290651045E+02  0.23706113704E+02  0.38572050550E+02  0.00000000000E+00 0.  1.
</event>
<event>
 7    1  0.2639126E-011  0.5052886E+02  0.7816164E-02  0.1300439E+00
        -11   -1    0    0    0    0  0.00000000000E+00  0.00000000000E+00  0.45593999997E+02  0.45594000000E+02  0.51100000000E-03 0.  1.
         11   -1    0    0    0    0 -0.00000000000E+00 -0.00000000000E+00 -0.45593999997E+02  0.45594000000E+02  0.51100000000E-03 0. -1.
    9900012    2    1    2    0    0  0.84235068704E+01 -0.36675977562E+02  0.15397503264E+02  0.50528857057E+02  0.29999991511E+02 0.  0.
         12    1    1    2    0    0 -0.84235068704E+01  0.36675977562E+02 -0.15397503264E+02  0.40659142943E+02  0.00000000000E+00 0. -1.
         11    1    3    3    0    0  0.26476031774E+01  0.37359502594E+01  0.61477657011E+01  0.76656474158E+01  0.51100000000E-03 0. -1.
        -11    1    3    3    0    0 -0.21480357543E+01 -0.85271717827E+01  0.37129994853E+01  0.95453172631E+01  0.51100000000E-03 0.  1.
        -12    1    3    3    0    0  0.79239394473E+01 -0.31884756038E+02  0.55367380774E+01  0.33317892378E+02  0.00000000000E+00 0.  1.
</event>
<event>
 7    1  0.2639126E-011  0.5052884E+02  0.7816164E-02  0.1300439E+00
        -11   -1    0    0    0    0  0.00000000000E+00  0.00000000000E+00  0.45593999997E+02  0.45594000000E+02  0.51100000000E-03 0.  1.
         11   -1    0    0    0    0 -0.00000000000E+00 -0.00000000000E+00 -0.45593999997E+02  0.45594000000E+02  0.51100000000E-03 0. -1.
    9900012    2    1    2    0    0 -0.36513029810E+02 -0.95324201303E+01  0.15136017657E+02  0.50528838549E+02  0.29999935253E+02 0.  0.
         12    1    1    2    0    0  0.36513029810E+02  0.95324201303E+01 -0.15136017657E+02  0.40659161451E+02  0.00000000000E+00 0. -1.
         11    1    3    3    0    0 -0.11693316493E+01  0.38791430557E+01 -0.21904838696E+01  0.46057906158E+01  0.51100000000E-03 0. -1.
        -11    1    3    3    0    0 -0.14110113313E+02  0.16081061659E+01 -0.79512434014E+00  0.14223695937E+02  0.51100000000E-03 0.  1.
        -12    1    3    3    0    0 -0.21233584848E+02 -0.15019669352E+02  0.18121625866E+02  0.31699351996E+02  0.00000000000E+00 0.  1.
</event>
<event>
 7    1  0.2639126E-011  0.5052885E+02  0.7816164E-02  0.1300439E+00
        -11   -1    0    0    0    0  0.00000000000E+00  0.00000000000E+00  0.45593999997E+02  0.45594000000E+02  0.51100000000E-03 0.  1.
         11   -1    0    0    0    0 -0.00000000000E+00 -0.00000000000E+00 -0.45593999997E+02  0.45594000000E+02  0.51100000000E-03 0. -1.
    9900012    2    1    2    0    0  0.81765767631E+01 -0.38698122304E+02 -0.94215179514E+01  0.50528854929E+02  0.29999985042E+02 0.  0.
         12    1    1    2    0    0 -0.81765767631E+01  0.38698122304E+02  0.94215179514E+01  0.40659145071E+02  0.00000000000E+00 0. -1.
         11    1    3    3    0    0  0.49295192714E+01 -0.21434215900E+01  0.48571173126E+01  0.72447225764E+01  0.51100000000E-03 0.  1.
        -11    1    3    3    0    0  0.10354864014E+02 -0.16117713781E+02 -0.79349925348E+01  0.20735670066E+02  0.51100000000E-03 0. -1.
        -12    1    3    3    0    0 -0.71078065220E+01 -0.20436986933E+02 -0.63436427291E+01  0.22548462287E+02  0.00000000000E+00 0.  1.
</event>
<event>
 7    1  0.2639126E-011  0.5052886E+02  0.7816164E-02  0.1300439E+00
        -11   -1    0    0    0    0  0.00000000000E+00  0.00000000000E+00  0.45593999997E+02  0.45594000000E+02  0.51100000000E-03 0.  1.
         11   -1    0    0    0    0 -0.00000000000E+00 -0.00000000000E+00 -0.45593999997E+02  0.45594000000E+02  0.51100000000E-03 0. -1.
    9900012    2    1    2    0    0  0.10167108856E+02 -0.11602245118E+02  0.37618919558E+02  0.50528864459E+02  0.30000014009E+02 0.  0.
         12    1    1    2    0    0 -0.10167108856E+02  0.11602245118E+02 -0.37618919558E+02  0.40659135541E+02  0.00000000000E+00 0. -1.
         11    1    3    3    0    0  0.11718439416E+02 -0.57375147013E+01  0.70631499262E+01  0.14836744402E+02  0.51100000000E-03 0. -1.
        -11    1    3    3    0    0  0.54801480341E+01  0.29882094337E+01  0.59965517584E+01  0.86556369695E+01  0.51100000000E-03 0.  1.
        -12    1    3    3    0    0 -0.70314785940E+01 -0.88529398508E+01  0.24559217873E+02  0.27036483088E+02  0.00000000000E+00 0.  1.
</event>
<event>
 7    1  0.2639126E-011  0.5052886E+02  0.7816164E-02  0.1300439E+00
        -11   -1    0    0    0    0  0.00000000000E+00  0.00000000000E+00  0.45593999997E+02  0.45594000000E+02  0.51100000000E-03 0. -1.
         11   -1    0    0    0    0 -0.00000000000E+00 -0.00000000000E+00 -0.45593999997E+02  0.45594000000E+02  0.51100000000E-03 0.  1.
    9900012    2    1    2    0    0 -0.13186187946E+01 -0.38160083733E+02 -0.13972650224E+02  0.50528859572E+02  0.29999999156E+02 0.  0.
         12    1    1    2    0    0  0.13186187946E+01  0.38160083733E+02  0.13972650224E+02  0.40659140428E+02  0.00000000000E+00 0. -1.
         11    1    3    3    0    0 -0.27092125625E+01 -0.30690142940E+02  0.32453198420E+01  0.30979942020E+02  0.51100000000E-03 0.  1.
        -11    1    3    3    0    0  0.51293042819E+00  0.11865981967E+00  0.17294321867E+00  0.55415466701E+00  0.51100000000E-03 0. -1.
        -12    1    3    3    0    0  0.87766333973E+00 -0.75886006120E+01 -0.17390913285E+02  0.18994762885E+02  0.00000000000E+00 0.  1.
</event>
<event>
 7    1  0.2639126E-011  0.5052887E+02  0.7816164E-02  0.1300439E+00
        -11   -1    0    0    0    0  0.00000000000E+00  0.00000000000E+00  0.45593999997E+02  0.45594000000E+02  0.51100000000E-03 0.  1.
         11   -1    0    0    0    0 -0.00000000000E+00 -0.00000000000E+00 -0.45593999997E+02  0.45594000000E+02  0.51100000000E-03 0. -1.
    9900012    2    1    2    0    0  0.31070030401E+02  0.26225060412E+02  0.25281155180E+00  0.50528874378E+02  0.30000044158E+02 0.  0.
         12    1    1    2    0    0 -0.31070030401E+02 -0.26225060412E+02 -0.25281155180E+00  0.40659125622E+02  0.00000000000E+00 0. -1.
         11    1    3    3    0    0  0.62855844505E+01  0.14477249285E+02 -0.27350800521E+01  0.16018114180E+02  0.51100000000E-03 0. -1.
        -11    1    3    3    0    0  0.12477094662E+01  0.10158376970E+02  0.37712461817E+01  0.10907414891E+02  0.51100000000E-03 0.  1.
         12    1    3    3    0    0  0.23536736484E+02  0.15894341570E+01 -0.78335457781E+00  0.23603345306E+02  0.00000000000E+00 0. -1.
</event>
<event>
 7    1  0.2639126E-011  0.5052887E+02  0.7816164E-02  0.1300439E+00
        -11   -1    0    0    0    0  0.00000000000E+00  0.00000000000E+00  0.45593999997E+02  0.45594000000E+02  0.51100000000E-03 0.  1.
         11   -1    0    0    0    0 -0.00000000000E+00 -0.00000000000E+00 -0.45593999997E+02  0.45594000000E+02  0.51100000000E-03 0. -1.
    9900012    2    1    2    0    0  0.14906700075E+02 -0.37826568453E+02  0.32543724933E+00  0.50528869445E+02  0.30000029165E+02 0.  0.
         12    1    1    2    0    0 -0.14906700075E+02  0.37826568453E+02 -0.32543724933E+00  0.40659130555E+02  0.00000000000E+00 0. -1.
         11    1    3    3    0    0  0.12602514113E+01 -0.72744872601E+01  0.90803383366E+01  0.11702945915E+02  0.51100000000E-03 0.  1.
        -11    1    3    3    0    0  0.10960987210E+02 -0.53925834529E+01 -0.51944168590E+01  0.13274229307E+02  0.51100000000E-03 0. -1.
         12    1    3    3    0    0  0.26854614532E+01 -0.25159497740E+02 -0.35604842282E+01  0.25551694224E+02  0.00000000000E+00 0. -1.
</event>
<event>
 7    1  0.2639126E-011  0.5052887E+02  0.7816164E-02  0.1300439E+00
        -11   -1    0    0    0    0  0.00000000000E+00  0.00000000000E+00  0.45593999997E+02  0.45594000000E+02  0.51100000000E-03 0. -1.
         11   -1    0    0    0    0 -0.00000000000E+00 -0.00000000000E+00 -0.45593999997E+02  0.45594000000E+02  0.51100000000E-03 0.  1.
    9900012    2    1    2    0    0  0.21062877442E+02 -0.16382166090E+01 -0.34739545373E+02  0.50528873442E+02  0.30000041314E+02 0.  0.
         12    1    1    2    0    0 -0.21062877442E+02  0.16382166090E+01  0.34739545373E+02  0.40659126558E+02  0.00000000000E+00 0. -1.
         11    1    3    3    0    0  0.17970546335E+02 -0.62135646068E+01 -0.12595330135E+02  0.22807701817E+02  0.51100000000E-03 0. -1.
        -11    1    3    3    0    0  0.50142062485E+01 -0.32765989107E+01 -0.25221524189E+01  0.64992013208E+01  0.51100000000E-03 0.  1.
        -12    1    3    3    0    0 -0.19218751419E+01  0.78519469086E+01 -0.19622062818E+02  0.21221970304E+02  0.00000000000E+00 0.  1.
</event>
<event>
 7    1  0.2639126E-011  0.5052885E+02  0.7816164E-02  0.1300439E+00
        -11   -1    0    0    0    0  0.00000000000E+00  0.00000000000E+00  0.45593999997E+02  0.45594000000E+02  0.51100000000E-03 0.  1.
         11   -1    0    0    0    0 -0.00000000000E+00 -0.00000000000E+00 -0.45593999997E+02  0.45594000000E+02  0.51100000000E-03 0. -1.
    9900012    2    1    2    0    0 -0.49217044422E+01 -0.39685093728E+02  0.73509534978E+01  0.50528851508E+02  0.29999974642E+02 0.  0.
         12    1    1    2    0    0  0.49217044422E+01  0.39685093728E+02 -0.73509534978E+01  0.40659148492E+02  0.00000000000E+00 0. -1.
         11    1    3    3    0    0 -0.23667890904E+01 -0.12602834698E+02  0.12648732228E+02  0.18011761721E+02  0.51100000000E-03 0.  1.
        -11    1    3    3    0    0  0.65190900822E+01 -0.13574481978E+02 -0.60464309671E+01  0.16227274083E+02  0.51100000000E-03 0. -1.
         12    1    3    3    0    0 -0.90740054340E+01 -0.13507777051E+02  0.74865223641E+00  0.16289815704E+02  0.00000000000E+00 0. -1.
</event>
<event>
 7    1  0.2639126E-011  0.5052887E+02  0.7816164E-02  0.1300439E+00
        -11   -1    0    0    0    0  0.00000000000E+00  0.00000000000E+00  0.45593999997E+02  0.45594000000E+02  0.51100000000E-03 0.  1.
         11   -1    0    0    0    0 -0.00000000000E+00 -0.00000000000E+00 -0.45593999997E+02  0.45594000000E+02  0.51100000000E-03 0. -1.
    9900012    2    1    2    0    0  0.32386027084E+02  0.14891071916E+02  0.19559302893E+02  0.50528866921E+02  0.30000021494E+02 0.  0.
         12    1    1    2    0    0 -0.32386027084E+02 -0.14891071916E+02 -0.19559302893E+02  0.40659133079E+02  0.00000000000E+00 0. -1.
         11    1    3    3    0    0  0.24106124034E+02  0.22075780208E+00  0.96592327735E+01  0.25970266229E+02  0.51100000000E-03 0. -1.
        -11    1    3    3    0    0  0.10589337554E+02  0.87596252905E+01  0.12069772508E+01  0.13795720329E+02  0.51100000000E-03 0.  1.
         12    1    3    3    0    0 -0.23094345043E+01  0.59106888231E+01  0.86930928683E+01  0.10762880363E+02  0.00000000000E+00 0. -1.
</event>
<event>
 7    1  0.2639126E-011  0.5052886E+02  0.7816164E-02  0.1300439E+00
        -11   -1    0    0    0    0  0.00000000000E+00  0.00000000000E+00  0.45593999997E+02  0.45594000000E+02  0.51100000000E-03 0.  1.
         11   -1    0    0    0    0 -0.00000000000E+00 -0.00000000000E+00 -0.45593999997E+02  0.45594000000E+02  0.51100000000E-03 0. -1.
    9900012    2    1    2    0    0 -0.90427508136E+01 -0.90509101969E+01  0.38593717962E+02  0.50528863465E+02  0.30000010987E+02 0.  0.
         12    1    1    2    0    0  0.90427508136E+01  0.90509101969E+01 -0.38593717962E+02  0.40659136535E+02  0.00000000000E+00 0. -1.
         11    1    3    3    0    0 -0.75550737944E+01 -0.38027851675E+01  0.43559340688E+01  0.95139096560E+01  0.51100000000E-03 0. -1.
        -11    1    3    3    0    0 -0.31599080998E+01 -0.13338476202E+02  0.25745027082E+02  0.29166871384E+02  0.51100000000E-03 0.  1.
         12    1    3    3    0    0  0.16722310806E+01  0.80903511730E+01  0.84927568107E+01  0.11848082424E+02  0.00000000000E+00 0. -1.
</event>
<event>
 7    1  0.2639126E-011  0.5052885E+02  0.7816164E-02  0.1300439E+00
        -11   -1    0    0    0    0  0.00000000000E+00  0.00000000000E+00  0.45593999997E+02  0.45594000000E+02  0.51100000000E-03 0. -1.
         11   -1    0    0    0    0 -0.00000000000E+00 -0.00000000000E+00 -0.45593999997E+02  0.45594000000E+02  0.51100000000E-03 0.  1.
    9900012    2    1    2    0    0  0.22801891318E+02  0.30010643526E+02 -0.15251285558E+02  0.50528847479E+02  0.29999962399E+02 0.  0.
         12    1    1    2    0    0 -0.22801891318E+02 -0.30010643526E+02  0.15251285558E+02  0.40659152521E+02  0.00000000000E+00 0. -1.
         11    1    3    3    0    0  0.72593572394E+01  0.83736350184E+01 -0.30898008829E+01  0.11504907679E+02  0.51100000000E-03 0.  1.
        -11    1    3    3    0    0  0.16426815109E+01  0.41842792391E+00  0.70201489787E+01  0.72219094718E+01  0.51100000000E-03 0. -1.
         12    1    3    3    0    0  0.13899852568E+02  0.21218580584E+02 -0.19181633654E+02  0.31802030328E+02  0.00000000000E+00 0. -1.
</event>
<event>
 7    1  0.2639126E-011  0.5052886E+02  0.7816164E-02  0.1300439E+00
        -11   -1    0    0    0    0  0.00000000000E+00  0.00000000000E+00  0.45593999997E+02  0.45594000000E+02  0.51100000000E-03 0. -1.
         11   -1    0    0    0    0 -0.00000000000E+00 -0.00000000000E+00 -0.45593999997E+02  0.45594000000E+02  0.51100000000E-03 0.  1.
    9900012    2    1    2    0    0  0.13350239772E+02 -0.10488606410E+02 -0.36944903713E+02  0.50528859862E+02  0.30000000036E+02 0.  0.
         12    1    1    2    0    0 -0.13350239772E+02  0.10488606410E+02  0.36944903713E+02  0.40659140138E+02  0.00000000000E+00 0. -1.
         11    1    3    3    0    0  0.11070624702E+02  0.70671728323E+01 -0.12873260816E+02  0.18390881095E+02  0.51100000000E-03 0. -1.
        -11    1    3    3    0    0  0.24075042309E+01  0.26994949793E+00 -0.71884103023E+01  0.75856570110E+01  0.51100000000E-03 0.  1.
         12    1    3    3    0    0 -0.12788916082E+00 -0.17825728740E+02 -0.16883232595E+02  0.24552321756E+02  0.00000000000E+00 0. -1.
</event>
<event>
 7    1  0.2639126E-011  0.5052886E+02  0.7816164E-02  0.1300439E+00
        -11   -1    0    0    0    0  0.00000000000E+00  0.00000000000E+00  0.45593999997E+02  0.45594000000E+02  0.51100000000E-03 0.  1.
         11   -1    0    0    0    0 -0.00000000000E+00 -0.00000000000E+00 -0.45593999997E+02  0.45594000000E+02  0.51100000000E-03 0. -1.
    9900012    2    1    2    0    0 -0.93952425356E+01  0.20347468451E+02  0.33924562621E+02  0.50528855842E+02  0.29999987816E+02 0.  0.
         12    1    1    2    0    0  0.93952425356E+01 -0.20347468451E+02 -0.33924562621E+02  0.40659144158E+02  0.00000000000E+00 0. -1.
         11    1    3    3    0    0  0.36743184711E+01  0.10666383206E+02  0.13640723908E+01  0.11363671971E+02  0.51100000000E-03 0. -1.
        -11    1    3    3    0    0 -0.16010110126E+01 -0.27020122487E+01  0.12790906557E+02  0.13170854083E+02  0.51100000000E-03 0.  1.
        -12    1    3    3    0    0 -0.11468549994E+02  0.12383097494E+02  0.19769583673E+02  0.25994329787E+02  0.00000000000E+00 0.  1.
</event>
<event>
 7    1  0.2639126E-011  0.5052880E+02  0.7816164E-02  0.1300439E+00
        -11   -1    0    0    0    0  0.00000000000E+00  0.00000000000E+00  0.45593999997E+02  0.45594000000E+02  0.51100000000E-03 0.  1.
         11   -1    0    0    0    0 -0.00000000000E+00 -0.00000000000E+00 -0.45593999997E+02  0.45594000000E+02  0.51100000000E-03 0. -1.
    9900012    2    1    2    0    0 -0.31188545387E+02 -0.23719282229E+01  0.25977281878E+02  0.50528799558E+02  0.29999816736E+02 0.  0.
         12    1    1    2    0    0  0.31188545387E+02  0.23719282229E+01 -0.25977281878E+02  0.40659200442E+02  0.00000000000E+00 0. -1.
         11    1    3    3    0    0 -0.23028919761E+02 -0.10655002780E+02  0.10946853522E+02  0.27635010981E+02  0.51100000000E-03 0. -1.
        -11    1    3    3    0    0  0.34888221880E+01  0.15862035454E+01  0.33491670969E+01  0.50896799949E+01  0.51100000000E-03 0.  1.
        -12    1    3    3    0    0 -0.11648447814E+02  0.66968710118E+01  0.11681261259E+02  0.17804108582E+02  0.00000000000E+00 0.  1.
</event>
<event>
 7    1  0.2639126E-011  0.5052886E+02  0.7816164E-02  0.1300439E+00
        -11   -1    0    0    0    0  0.00000000000E+00  0.00000000000E+00  0.45593999997E+02  0.45594000000E+02  0.51100000000E-03 0.  1.
         11   -1    0    0    0    0 -0.00000000000E+00 -0.00000000000E+00 -0.45593999997E+02  0.45594000000E+02  0.51100000000E-03 0. -1.
    9900012    2    1    2    0    0  0.13211810979E+02 -0.35955578272E+02  0.13631221137E+02  0.50528858987E+02  0.29999997377E+02 0.  0.
         12    1    1    2    0    0 -0.13211810979E+02  0.35955578272E+02 -0.13631221137E+02  0.40659141013E+02  0.00000000000E+00 0. -1.
         11    1    3    3    0    0  0.13277953139E+02 -0.14762383796E+02  0.76222188286E+00  0.19869901796E+02  0.51100000000E-03 0. -1.
        -11    1    3    3    0    0  0.65890086709E+01 -0.10669798103E+02 -0.28894537559E+00  0.12543648453E+02  0.51100000000E-03 0.  1.
         12    1    3    3    0    0 -0.66551508310E+01 -0.10523396373E+02  0.13157944629E+02  0.18115308738E+02  0.00000000000E+00 0. -1.
</event>
<event>
 7    1  0.2639126E-011  0.5052891E+02  0.7816164E-02  0.1300439E+00
        -11   -1    0    0    0    0  0.00000000000E+00  0.00000000000E+00  0.45593999997E+02  0.45594000000E+02  0.51100000000E-03 0. -1.
         11   -1    0    0    0    0 -0.00000000000E+00 -0.00000000000E+00 -0.45593999997E+02  0.45594000000E+02  0.51100000000E-03 0.  1.
    9900012    2    1    2    0    0 -0.29525654628E+02 -0.18186225102E+01 -0.27894268200E+02  0.50528906706E+02  0.30000142424E+02 0.  0.
         12    1    1    2    0    0  0.29525654628E+02  0.18186225102E+01  0.27894268200E+02  0.40659093294E+02  0.00000000000E+00 0. -1.
         11    1    3    3    0    0 -0.14781808937E+01  0.21164570027E+01  0.36788717669E+01  0.44942748845E+01  0.51100000000E-03 0. -1.
        -11    1    3    3    0    0 -0.38788670639E+00  0.64904771707E+00 -0.11567133402E+02  0.11591820152E+02  0.51100000000E-03 0.  1.
        -12    1    3    3    0    0 -0.27659587028E+02 -0.45841272299E+01 -0.20006006565E+02  0.34442811669E+02  0.00000000000E+00 0.  1.
</event>
<event>
 7    1  0.2639126E-011  0.5052885E+02  0.7816164E-02  0.1300439E+00
        -11   -1    0    0    0    0  0.00000000000E+00  0.00000000000E+00  0.45593999997E+02  0.45594000000E+02  0.51100000000E-03 0.  1.
         11   -1    0    0    0    0 -0.00000000000E+00 -0.00000000000E+00 -0.45593999997E+02  0.45594000000E+02  0.51100000000E-03 0. -1.
    9900012    2    1    2    0    0  0.31725028770E+02  0.45988432274E+01  0.25010783229E+02  0.50528854814E+02  0.29999984693E+02 0.  0.
         12    1    1    2    0    0 -0.31725028770E+02 -0.45988432274E+01 -0.25010783229E+02  0.40659145186E+02  0.00000000000E+00 0. -1.
         11    1    3    3    0    0  0.21405757773E+01  0.20960046642E+01 -0.44456326775E+01  0.53608721655E+01  0.51100000000E-03 0. -1.
        -11    1    3    3    0    0  0.14504350797E+02 -0.66111378034E+01  0.18496249322E+02  0.24417095945E+02  0.51100000000E-03 0.  1.
         12    1    3    3    0    0  0.15080102196E+02  0.91139763666E+01  0.10960166584E+02  0.20750886704E+02  0.00000000000E+00 0. -1.
</event>
<event>
 7    1  0.2639126E-011  0.5052876E+02  0.7816164E-02  0.1300439E+00
        -11   -1    0    0    0    0  0.00000000000E+00  0.00000000000E+00  0.45593999997E+02  0.45594000000E+02  0.51100000000E-03 0.  1.
         11   -1    0    0    0    0 -0.00000000000E+00 -0.00000000000E+00 -0.45593999997E+02  0.45594000000E+02  0.51100000000E-03 0. -1.
    9900012    2    1    2    0    0  0.27756318730E+02  0.21751642613E+02  0.20239239170E+02  0.50528757656E+02  0.29999689371E+02 0.  0.
         12    1    1    2    0    0 -0.27756318730E+02 -0.21751642613E+02 -0.20239239170E+02  0.40659242344E+02  0.00000000000E+00 0. -1.
         11    1    3    3    0    0  0.65580256656E+01 -0.47281409708E+01  0.38717414806E+01  0.89640058023E+01  0.51100000000E-03 0. -1.
        -11    1    3    3    0    0 -0.22880333030E+01  0.64478462418E+01  0.56987757078E+01  0.89042609116E+01  0.51100000000E-03 0.  1.
         12    1    3    3    0    0  0.23486326367E+02  0.20031937342E+02  0.10668721982E+02  0.32660490943E+02  0.00000000000E+00 0. -1.
</event>
<event>
 7    1  0.2639126E-011  0.5052886E+02  0.7816164E-02  0.1300439E+00
        -11   -1    0    0    0    0  0.00000000000E+00  0.00000000000E+00  0.45593999997E+02  0.45594000000E+02  0.51100000000E-03 0.  1.
         11   -1    0    0    0    0 -0.00000000000E+00 -0.00000000000E+00 -0.45593999997E+02  0.45594000000E+02  0.51100000000E-03 0. -1.
    9900012    2    1    2    0    0 -0.16167772348E+02  0.25459814972E+01  0.37219438648E+02  0.50528862064E+02  0.30000006729E+02 0.  0.
         12    1    1    2    0    0  0.16167772348E+02 -0.25459814972E+01 -0.37219438648E+02  0.40659137936E+02  0.00000000000E+00 0. -1.
         11    1    3    3    0    0 -0.21517835614E+01  0.27759594263E+01 -0.30827208411E+01  0.46732527513E+01  0.51100000000E-03 0. -1.
        -11    1    3    3    0    0 -0.15477899659E+02 -0.11135618054E+01  0.19211524453E+02  0.24695912006E+02  0.51100000000E-03 0.  1.
         12    1    3    3    0    0  0.14619108731E+01  0.88358387627E+00  0.21090635036E+02  0.21159697306E+02  0.00000000000E+00 0. -1.
</event>
<event>
 7    1  0.2639126E-011  0.5052877E+02  0.7816164E-02  0.1300439E+00
        -11   -1    0    0    0    0  0.00000000000E+00  0.00000000000E+00  0.45593999997E+02  0.45594000000E+02  0.51100000000E-03 0.  1.
         11   -1    0    0    0    0 -0.00000000000E+00 -0.00000000000E+00 -0.45593999997E+02  0.45594000000E+02  0.51100000000E-03 0. -1.
    9900012    2    1    2    0    0  0.10077146214E+02 -0.32320001899E+02  0.22517580511E+02  0.50528771889E+02  0.29999732631E+02 0.  0.
         12    1    1    2    0    0 -0.10077146214E+02  0.32320001899E+02 -0.22517580511E+02  0.40659228111E+02  0.00000000000E+00 0. -1.
         11    1    3    3    0    0  0.19127620718E+01 -0.67150871280E+01  0.52022686122E+01  0.87071610100E+01  0.51100000000E-03 0. -1.
        -11    1    3    3    0    0 -0.37741259056E+01 -0.25844777653E+02  0.12300975405E+02  0.28870582856E+02  0.51100000000E-03 0.  1.
         12    1    3    3    0    0  0.11938510048E+02  0.23986288205E+00  0.50143364931E+01  0.12951028022E+02  0.00000000000E+00 0. -1.
</event>
<event>
 7    1  0.2639126E-011  0.5052885E+02  0.7816164E-02  0.1300439E+00
        -11   -1    0    0    0    0  0.00000000000E+00  0.00000000000E+00  0.45593999997E+02  0.45594000000E+02  0.51100000000E-03 0.  1.
         11   -1    0    0    0    0 -0.00000000000E+00 -0.00000000000E+00 -0.45593999997E+02  0.45594000000E+02  0.51100000000E-03 0. -1.
    9900012    2    1    2    0    0  0.24841130718E+02 -0.12245879755E+02  0.29767820487E+02  0.50528849949E+02  0.29999969906E+02 0.  0.
         12    1    1    2    0    0 -0.24841130718E+02  0.12245879755E+02 -0.29767820487E+02  0.40659150051E+02  0.00000000000E+00 0. -1.
         11    1    3    3    0    0  0.42411136612E+00 -0.78937729839E+01  0.12590767744E+02  0.14866706259E+02  0.51100000000E-03 0.  1.
        -11    1    3    3    0    0  0.24106820840E+02 -0.48576764215E+01  0.20666730555E+02  0.32122415590E+02  0.51100000000E-03 0. -1.
         12    1    3    3    0    0  0.31019851150E+00  0.50556964985E+00 -0.34896778123E+01  0.35397280999E+01  0.00000000000E+00 0. -1.
</event>
<event>
 7    1  0.2639126E-011  0.5052887E+02  0.7816164E-02  0.1300439E+00
        -11   -1    0    0    0    0  0.00000000000E+00  0.00000000000E+00  0.45593999997E+02  0.45594000000E+02  0.51100000000E-03 0.  1.
         11   -1    0    0    0    0 -0.00000000000E+00 -0.00000000000E+00 -0.45593999997E+02  0.45594000000E+02  0.51100000000E-03 0. -1.
    9900012    2    1    2    0    0 -0.13406566022E+02 -0.10461140162E+02  0.36932276196E+02  0.50528874444E+02  0.30000044360E+02 0.  0.
         12    1    1    2    0    0  0.13406566022E+02  0.10461140162E+02 -0.36932276196E+02  0.40659125556E+02  0.00000000000E+00 0. -1.
         11    1    3    3    0    0 -0.66908675384E+01 -0.42940646001E+01  0.16142046660E+02  0.17993675829E+02  0.51100000000E-03 0. -1.
        -11    1    3    3    0    0 -0.23075359262E+01 -0.95531875802E+01  0.24127095437E+02  0.26051964407E+02  0.51100000000E-03 0.  1.
         12    1    3    3    0    0 -0.44081625579E+01  0.33861120182E+01 -0.33368659019E+01  0.64832342071E+01  0.00000000000E+00 0. -1.
</event>
<event>
 7    1  0.2639126E-011  0.5052885E+02  0.7816164E-02  0.1300439E+00
        -11   -1    0    0    0    0  0.00000000000E+00  0.00000000000E+00  0.45593999997E+02  0.45594000000E+02  0.51100000000E-03 0.  1.
         11   -1    0    0    0    0 -0.00000000000E+00 -0.00000000000E+00 -0.45593999997E+02  0.45594000000E+02  0.51100000000E-03 0. -1.
    9900012    2    1    2    0    0  0.37884826353E+02  0.10578233639E+02 -0.10295980276E+02  0.50528852142E+02  0.29999976571E+02 0.  0.
         12    1    1    2    0    0 -0.37884826353E+02 -0.10578233639E+02  0.10295980276E+02  0.40659147858E+02  0.00000000000E+00 0. -1.
         11    1    3    3    0    0  0.71359135674E+01 -0.50483056924E+01  0.16135907724E+01  0.88887754077E+01  0.51100000000E-03 0. -1.
        -11    1    3    3    0    0  0.14889253818E+02 -0.23242534679E+01 -0.42415388436E+00  0.15075541125E+02  0.51100000000E-03 0.  1.
        -12    1    3    3    0    0  0.15859658967E+02  0.17950792799E+02 -0.11485417164E+02  0.26564535609E+02  0.00000000000E+00 0.  1.
</event>
<event>
 7    1  0.2639126E-011  0.5052887E+02  0.7816164E-02  0.1300439E+00
        -11   -1    0    0    0    0  0.00000000000E+00  0.00000000000E+00  0.45593999997E+02  0.45594000000E+02  0.51100000000E-03 0.  1.
         11   -1    0    0    0    0 -0.00000000000E+00 -0.00000000000E+00 -0.45593999997E+02  0.45594000000E+02  0.51100000000E-03 0. -1.
    9900012    2    1    2    0    0 -0.25096305375E+02 -0.22187219750E+02 -0.23044897066E+02  0.50528873786E+02  0.30000042360E+02 0.  0.
         12    1    1    2    0    0  0.25096305375E+02  0.22187219750E+02  0.23044897066E+02  0.40659126214E+02  0.00000000000E+00 0. -1.
         11    1    3    3    0    0 -0.46003706909E+01 -0.22368222067E+01 -0.12917050550E+02  0.13893055072E+02  0.51100000000E-03 0. -1.
        -11    1    3    3    0    0 -0.48092126634E+01 -0.11556310617E+02 -0.13627307182E+02  0.18503522444E+02  0.51100000000E-03 0.  1.
        -12    1    3    3    0    0 -0.15686722021E+02 -0.83940869257E+01  0.34994606660E+01  0.18132296270E+02  0.00000000000E+00 0.  1.
</event>
<event>
 7    1  0.2639126E-011  0.5052887E+02  0.7816164E-02  0.1300439E+00
        -11   -1    0    0    0    0  0.00000000000E+00  0.00000000000E+00  0.45593999997E+02  0.45594000000E+02  0.51100000000E-03 0.  1.
         11   -1    0    0    0    0 -0.00000000000E+00 -0.00000000000E+00 -0.45593999997E+02  0.45594000000E+02  0.51100000000E-03 0. -1.
    9900012    2    1    2    0    0 -0.24530976381E+02 -0.12121744828E+02  0.30074225422E+02  0.50528873907E+02  0.30000042728E+02 0.  0.
         12    1    1    2    0    0  0.24530976381E+02  0.12121744828E+02 -0.30074225422E+02  0.40659126093E+02  0.00000000000E+00 0. -1.
         11    1    3    3    0    0 -0.11716319555E+02 -0.38575717790E+01  0.23475741034E+02  0.26519114263E+02  0.51100000000E-03 0. -1.
        -11    1    3    3    0    0 -0.95323412076E+01 -0.14873147432E+00  0.10709791620E+02  0.14338315339E+02  0.51100000000E-03 0.  1.
         12    1    3    3    0    0 -0.32823156187E+01 -0.81154415750E+01 -0.41113072327E+01  0.96714443047E+01  0.00000000000E+00 0. -1.
</event>
<event>
 7    1  0.2639126E-011  0.5052886E+02  0.7816164E-02  0.1300439E+00
        -11   -1    0    0    0    0  0.00000000000E+00  0.00000000000E+00  0.45593999997E+02  0.45594000000E+02  0.51100000000E-03 0. -1.
         11   -1    0    0    0    0 -0.00000000000E+00 -0.00000000000E+00 -0.45593999997E+02  0.45594000000E+02  0.51100000000E-03 0.  1.
    9900012    2    1    2    0    0  0.38895174512E+02 -0.28244737620E+01 -0.11504493728E+02  0.50528860458E+02  0.30000001849E+02 0.  0.
         12    1    1    2    0    0 -0.38895174512E+02  0.28244737620E+01  0.11504493728E+02  0.40659139542E+02  0.00000000000E+00 0. -1.
         11    1    3    3    0    0  0.18465632362E+02  0.15144667491E+00 -0.32519903965E+01  0.18750412167E+02  0.51100000000E-03 0. -1.
        -11    1    3    3    0    0  0.21993718235E+02  0.35925948401E+01 -0.10536374244E+02  0.24650467784E+02  0.51100000000E-03 0.  1.
        -12    1    3    3    0    0 -0.15641760851E+01 -0.65685152770E+01  0.22838709126E+01  0.71279805075E+01  0.00000000000E+00 0.  1.
</event>
<event>
 7    1  0.2639126E-011  0.5052885E+02  0.7816164E-02  0.1300439E+00
        -11   -1    0    0    0    0  0.00000000000E+00  0.00000000000E+00  0.45593999997E+02  0.45594000000E+02  0.51100000000E-03 0.  1.
         11   -1    0    0    0    0 -0.00000000000E+00 -0.00000000000E+00 -0.45593999997E+02  0.45594000000E+02  0.51100000000E-03 0. -1.
    9900012    2    1    2    0    0  0.13348344544E+02 -0.26967565606E+02  0.27344814101E+02  0.50528846603E+02  0.29999959734E+02 0.  0.
         12    1    1    2    0    0 -0.13348344544E+02  0.26967565606E+02 -0.27344814101E+02  0.40659153397E+02  0.00000000000E+00 0. -1.
         11    1    3    3    0    0 -0.61646341758E+01 -0.31074131188E+01  0.24074476894E+01  0.73112608660E+01  0.51100000000E-03 0. -1.
        -11    1    3    3    0    0 -0.10320007031E+01 -0.10925756867E+02  0.87890170747E+01  0.14060014579E+02  0.51100000000E-03 0.  1.
         12    1    3    3    0    0  0.20544979423E+02 -0.12934395620E+02  0.16148349337E+02  0.29157571158E+02  0.00000000000E+00 0. -1.
</event>
<event>
 7    1  0.2639126E-011  0.5052886E+02  0.7816164E-02  0.1300439E+00
        -11   -1    0    0    0    0  0.00000000000E+00  0.00000000000E+00  0.45593999997E+02  0.45594000000E+02  0.51100000000E-03 0. -1.
         11   -1    0    0    0    0 -0.00000000000E+00 -0.00000000000E+00 -0.45593999997E+02  0.45594000000E+02  0.51100000000E-03 0.  1.
    9900012    2    1    2    0    0 -0.36478575192E+02 -0.17793488229E+02 -0.24229614291E+01  0.50528863100E+02  0.30000009878E+02 0.  0.
         12    1    1    2    0    0  0.36478575192E+02  0.17793488229E+02  0.24229614291E+01  0.40659136900E+02  0.00000000000E+00 0. -1.
         11    1    3    3    0    0 -0.14073312786E+02 -0.12528062526E+01 -0.43063791009E+01  0.14770665438E+02  0.51100000000E-03 0. -1.
        -11    1    3    3    0    0 -0.14028736602E+02  0.58151622990E+00  0.74577289367E+01  0.15898469515E+02  0.51100000000E-03 0.  1.
        -12    1    3    3    0    0 -0.83765258045E+01 -0.17122198206E+02 -0.55743112649E+01  0.19859728146E+02  0.00000000000E+00 0.  1.
</event>
<event>
 7    1  0.2639126E-011  0.5052886E+02  0.7816164E-02  0.1300439E+00
        -11   -1    0    0    0    0  0.00000000000E+00  0.00000000000E+00  0.45593999997E+02  0.45594000000E+02  0.51100000000E-03 0.  1.
         11   -1    0    0    0    0 -0.00000000000E+00 -0.00000000000E+00 -0.45593999997E+02  0.45594000000E+02  0.51100000000E-03 0. -1.
    9900012    2    1    2    0    0  0.16918121920E+01 -0.33094612758E+02  0.23559500042E+02  0.50528860015E+02  0.30000000502E+02 0.  0.
         12    1    1    2    0    0 -0.16918121920E+01  0.33094612758E+02 -0.23559500042E+02  0.40659139985E+02  0.00000000000E+00 0. -1.
         11    1    3    3    0    0 -0.24862645338E+01 -0.12156819292E+02 -0.51090385443E+01  0.13419092434E+02  0.51100000000E-03 0. -1.
        -11    1    3    3    0    0 -0.87386884587E+00 -0.81053270347E+01  0.45746920350E+01  0.93481431619E+01  0.51100000000E-03 0.  1.
        -12    1    3    3    0    0  0.50519455717E+01 -0.12832466431E+02  0.24093846551E+02  0.27761624419E+02  0.00000000000E+00 0.  1.
</event>
<event>
 7    1  0.2639126E-011  0.5052888E+02  0.7816164E-02  0.1300439E+00
        -11   -1    0    0    0    0  0.00000000000E+00  0.00000000000E+00  0.45593999997E+02  0.45594000000E+02  0.51100000000E-03 0. -1.
         11   -1    0    0    0    0 -0.00000000000E+00 -0.00000000000E+00 -0.45593999997E+02  0.45594000000E+02  0.51100000000E-03 0.  1.
    9900012    2    1    2    0    0 -0.39428058438E+01  0.29594036110E+02 -0.27600929636E+02  0.50528880384E+02  0.30000062414E+02 0.  0.
         12    1    1    2    0    0  0.39428058438E+01 -0.29594036110E+02  0.27600929636E+02  0.40659119616E+02  0.00000000000E+00 0. -1.
         11    1    3    3    0    0 -0.10242112820E+01 -0.71433973435E+00  0.27292079161E+01  0.30013107331E+01  0.51100000000E-03 0. -1.
        -11    1    3    3    0    0  0.79719707251E+01  0.12824903270E+02 -0.77834922750E+01  0.16988620114E+02  0.51100000000E-03 0.  1.
         12    1    3    3    0    0 -0.10890565287E+02  0.17483472574E+02 -0.22546645278E+02  0.30538949536E+02  0.00000000000E+00 0. -1.
</event>
<event>
 7    1  0.2639126E-011  0.5052885E+02  0.7816164E-02  0.1300439E+00
        -11   -1    0    0    0    0  0.00000000000E+00  0.00000000000E+00  0.45593999997E+02  0.45594000000E+02  0.51100000000E-03 0.  1.
         11   -1    0    0    0    0 -0.00000000000E+00 -0.00000000000E+00 -0.45593999997E+02  0.45594000000E+02  0.51100000000E-03 0. -1.
    9900012    2    1    2    0    0  0.13867320195E+02 -0.33996746765E+02  0.17466678708E+02  0.50528853119E+02  0.29999979541E+02 0.  0.
         12    1    1    2    0    0 -0.13867320195E+02  0.33996746765E+02 -0.17466678708E+02  0.40659146881E+02  0.00000000000E+00 0. -1.
         11    1    3    3    0    0  0.66544795420E+01 -0.28765945191E+01 -0.12038009215E+01  0.73488795692E+01  0.51100000000E-03 0. -1.
        -11    1    3    3    0    0  0.11117079059E+02 -0.60597897519E+01  0.10749741640E+02  0.16609257787E+02  0.51100000000E-03 0.  1.
        -12    1    3    3    0    0 -0.39042384058E+01 -0.25060362494E+02  0.79207379893E+01  0.26570715763E+02  0.00000000000E+00 0.  1.
</event>
<event>
 7    1  0.2639126E-011  0.5052885E+02  0.7816164E-02  0.1300439E+00
        -11   -1    0    0    0    0  0.00000000000E+00  0.00000000000E+00  0.45593999997E+02  0.45594000000E+02  0.51100000000E-03 0. -1.
         11   -1    0    0    0    0 -0.00000000000E+00 -0.00000000000E+00 -0.45593999997E+02  0.45594000000E+02  0.51100000000E-03 0.  1.
    9900012    2    1    2    0    0 -0.40541877469E+02  0.30806175068E+01 -0.18042408328E+00  0.50528848683E+02  0.29999966058E+02 0.  0.
         12    1    1    2    0    0  0.40541877469E+02 -0.30806175068E+01  0.18042408328E+00  0.40659151317E+02  0.00000000000E+00 0. -1.
         11    1    3    3    0    0 -0.43889723693E+01  0.66729952884E+01 -0.17434985563E+01  0.81750677095E+01  0.51100000000E-03 0. -1.
        -11    1    3    3    0    0 -0.17180631144E+02  0.31874715833E+01 -0.89456054693E+01  0.19630535374E+02  0.51100000000E-03 0.  1.
         12    1    3    3    0    0 -0.18972273956E+02 -0.67798493649E+01  0.10508679942E+02  0.22723245600E+02  0.00000000000E+00 0. -1.
</event>
<event>
 7    1  0.2639126E-011  0.5052886E+02  0.7816164E-02  0.1300439E+00
        -11   -1    0    0    0    0  0.00000000000E+00  0.00000000000E+00  0.45593999997E+02  0.45594000000E+02  0.51100000000E-03 0.  1.
         11   -1    0    0    0    0 -0.00000000000E+00 -0.00000000000E+00 -0.45593999997E+02  0.45594000000E+02  0.51100000000E-03 0. -1.
    9900012    2    1    2    0    0  0.23200029969E+02  0.32656548718E+02 -0.69623170794E+01  0.50528862972E+02  0.30000009490E+02 0.  0.
         12    1    1    2    0    0 -0.23200029969E+02 -0.32656548718E+02  0.69623170794E+01  0.40659137028E+02  0.00000000000E+00 0. -1.
         11    1    3    3    0    0  0.11749493109E+02  0.10906930818E+02 -0.79628010725E+01  0.17900221489E+02  0.51100000000E-03 0. -1.
        -11    1    3    3    0    0 -0.42992806563E+01 -0.76438068663E+00 -0.23333289778E+01  0.49510116517E+01  0.51100000000E-03 0.  1.
         12    1    3    3    0    0  0.15749817517E+02  0.22513998586E+02  0.33338129709E+01  0.27677629831E+02  0.00000000000E+00 0. -1.
</event>
<event>
 7    1  0.2639126E-011  0.5052887E+02  0.7816164E-02  0.1300439E+00
        -11   -1    0    0    0    0  0.00000000000E+00  0.00000000000E+00  0.45593999997E+02  0.45594000000E+02  0.51100000000E-03 0. -1.
         11   -1    0    0    0    0 -0.00000000000E+00 -0.00000000000E+00 -0.45593999997E+02  0.45594000000E+02  0.51100000000E-03 0.  1.
    9900012    2    1    2    0    0 -0.30165359089E+02  0.16139318616E+00 -0.27261516740E+02  0.50528865335E+02  0.30000016672E+02 0.  0.
         12    1    1    2    0    0  0.30165359089E+02 -0.16139318616E+00  0.27261516740E+02  0.40659134665E+02  0.00000000000E+00 0. -1.
         11    1    3    3    0    0 -0.70034437139E+01  0.15898798471E+01  0.27727518236E+01  0.76983176551E+01  0.51100000000E-03 0. -1.
        -11    1    3    3    0    0 -0.16460925417E+02 -0.11917672625E+01 -0.54997065749E+01  0.17396239463E+02  0.51100000000E-03 0.  1.
        -12    1    3    3    0    0 -0.67009899585E+01 -0.23671939839E+00 -0.24534561989E+02  0.25434308217E+02  0.00000000000E+00 0.  1.
</event>
<event>
 7    1  0.2639126E-011  0.5052886E+02  0.7816164E-02  0.1300439E+00
        -11   -1    0    0    0    0  0.00000000000E+00  0.00000000000E+00  0.45593999997E+02  0.45594000000E+02  0.51100000000E-03 0.  1.
         11   -1    0    0    0    0 -0.00000000000E+00 -0.00000000000E+00 -0.45593999997E+02  0.45594000000E+02  0.51100000000E-03 0. -1.
    9900012    2    1    2    0    0 -0.37006571972E+02 -0.75771178258E+00  0.16825722597E+02  0.50528862808E+02  0.30000008993E+02 0.  0.
         12    1    1    2    0    0  0.37006571972E+02  0.75771178258E+00 -0.16825722597E+02  0.40659137192E+02  0.00000000000E+00 0. -1.
         11    1    3    3    0    0 -0.19075258905E+02  0.40687912705E+01 -0.54679961515E-02  0.19504373736E+02  0.51100000000E-03 0. -1.
        -11    1    3    3    0    0 -0.19693682332E+02 -0.76508638886E+01  0.98933935017E+01  0.23329296545E+02  0.51100000000E-03 0.  1.
         12    1    3    3    0    0  0.17623692647E+01  0.28243608354E+01  0.69377970913E+01  0.76951925274E+01  0.00000000000E+00 0. -1.
</event>
<event>
 7    1  0.2639126E-011  0.5052886E+02  0.7816164E-02  0.1300439E+00
        -11   -1    0    0    0    0  0.00000000000E+00  0.00000000000E+00  0.45593999997E+02  0.45594000000E+02  0.51100000000E-03 0.  1.
         11   -1    0    0    0    0 -0.00000000000E+00 -0.00000000000E+00 -0.45593999997E+02  0.45594000000E+02  0.51100000000E-03 0. -1.
    9900012    2    1    2    0    0  0.36851550130E+02  0.57101731231E+01  0.16202560177E+02  0.50528858588E+02  0.29999996163E+02 0.  0.
         12    1    1    2    0    0 -0.36851550130E+02 -0.57101731231E+01 -0.16202560177E+02  0.40659141412E+02  0.00000000000E+00 0. -1.
         11    1    3    3    0    0  0.13536283271E+02 -0.25235479878E+01  0.54816341653E+01  0.14820511888E+02  0.51100000000E-03 0.  1.
        -11    1    3    3    0    0  0.77482504810E+01  0.12146267960E+02 -0.28532030928E+01  0.14687000341E+02  0.51100000000E-03 0. -1.
         12    1    3    3    0    0  0.15567016378E+02 -0.39125468493E+01  0.13574129105E+02  0.21021346358E+02  0.00000000000E+00 0. -1.
</event>
<event>
 7    1  0.2639126E-011  0.5052886E+02  0.7816164E-02  0.1300439E+00
        -11   -1    0    0    0    0  0.00000000000E+00  0.00000000000E+00  0.45593999997E+02  0.45594000000E+02  0.51100000000E-03 0.  1.
         11   -1    0    0    0    0 -0.00000000000E+00 -0.00000000000E+00 -0.45593999997E+02  0.45594000000E+02  0.51100000000E-03 0. -1.
    9900012    2    1    2    0    0  0.71077870253E+01  0.38226641227E+02  0.11889859304E+02  0.50528862157E+02  0.30000007013E+02 0.  0.
         12    1    1    2    0    0 -0.71077870253E+01 -0.38226641227E+02 -0.11889859304E+02  0.40659137843E+02  0.00000000000E+00 0. -1.
         11    1    3    3    0    0 -0.16546553902E+01 -0.16969509826E+01  0.56605167298E+01  0.61366910471E+01  0.51100000000E-03 0. -1.
        -11    1    3    3    0    0 -0.14228635622E+01  0.28316659776E+02  0.58256308960E+01  0.28944701367E+02  0.51100000000E-03 0.  1.
        -12    1    3    3    0    0  0.10185305978E+02  0.11606932433E+02  0.40371167769E+00  0.15447469744E+02  0.00000000000E+00 0.  1.
</event>
<event>
 7    1  0.2639126E-011  0.5052886E+02  0.7816164E-02  0.1300439E+00
        -11   -1    0    0    0    0  0.00000000000E+00  0.00000000000E+00  0.45593999997E+02  0.45594000000E+02  0.51100000000E-03 0. -1.
         11   -1    0    0    0    0 -0.00000000000E+00 -0.00000000000E+00 -0.45593999997E+02  0.45594000000E+02  0.51100000000E-03 0.  1.
    9900012    2    1    2    0    0 -0.20357191710E+02 -0.17842745826E+02 -0.30337884453E+02  0.50528855075E+02  0.29999985486E+02 0.  0.
         12    1    1    2    0    0  0.20357191710E+02  0.17842745826E+02  0.30337884453E+02  0.40659144925E+02  0.00000000000E+00 0. -1.
         11    1    3    3    0    0 -0.88609618976E+01 -0.57041260503E+01  0.60957898424E-01  0.10538378237E+02  0.51100000000E-03 0. -1.
        -11    1    3    3    0    0 -0.14247036670E+02 -0.31395015836E+01 -0.10486807975E+02  0.17966849080E+02  0.51100000000E-03 0.  1.
         12    1    3    3    0    0  0.27508068579E+01 -0.89991181923E+01 -0.19912034376E+02  0.22023627758E+02  0.00000000000E+00 0. -1.
</event>
<event>
 7    1  0.3448400E-011  0.5052888E+02  0.7816164E-02  0.1300439E+00
        -11   -1    0    0    0    0  0.00000000000E+00  0.00000000000E+00  0.45593999997E+02  0.45594000000E+02  0.51100000000E-03 0. -1.
         11   -1    0    0    0    0 -0.00000000000E+00 -0.00000000000E+00 -0.45593999997E+02  0.45594000000E+02  0.51100000000E-03 0.  1.
    9900012    2    1    2    0    0  0.28825638866E+02  0.62257669794E+01 -0.27990825182E+02  0.50528881406E+02  0.30000065521E+02 0.  0.
         12    1    1    2    0    0 -0.28825638866E+02 -0.62257669794E+01  0.27990825182E+02  0.40659118594E+02  0.00000000000E+00 0. -1.
         11    1    3    3    0    0  0.11837381393E+01  0.21696116833E+01  0.41975349703E+01  0.48711139308E+01  0.51100000000E-03 0. -1.
        -11    1    3    3    0    0  0.13071752861E+02 -0.58990599412E+01 -0.10941328907E+02  0.18038356621E+02  0.51100000000E-03 0.  1.
        -12    1    3    3    0    0  0.14570147865E+02  0.99552152372E+01 -0.21247031245E+02  0.27619410854E+02  0.00000000000E+00 0.  1.
</event>
<event>
 7    1  0.2639126E-011  0.5052887E+02  0.7816164E-02  0.1300439E+00
        -11   -1    0    0    0    0  0.00000000000E+00  0.00000000000E+00  0.45593999997E+02  0.45594000000E+02  0.51100000000E-03 0.  1.
         11   -1    0    0    0    0 -0.00000000000E+00 -0.00000000000E+00 -0.45593999997E+02  0.45594000000E+02  0.51100000000E-03 0. -1.
    9900012    2    1    2    0    0  0.19533876445E+02 -0.34868510992E+02  0.74685727217E+01  0.50528868599E+02  0.30000026593E+02 0.  0.
         12    1    1    2    0    0 -0.19533876445E+02  0.34868510992E+02 -0.74685727217E+01  0.40659131401E+02  0.00000000000E+00 0. -1.
         11    1    3    3    0    0 -0.30937503323E+01 -0.67853461037E+01  0.24386072996E+01  0.78459555625E+01  0.51100000000E-03 0. -1.
        -11    1    3    3    0    0  0.66958428130E+01 -0.17088564681E+02  0.12202188551E+02  0.22039663326E+02  0.51100000000E-03 0.  1.
         12    1    3    3    0    0  0.15931783964E+02 -0.10994600207E+02 -0.71722231286E+01  0.20643249710E+02  0.00000000000E+00 0. -1.
</event>
<event>
 7    1  0.2639126E-011  0.5052886E+02  0.7816164E-02  0.1300439E+00
        -11   -1    0    0    0    0  0.00000000000E+00  0.00000000000E+00  0.45593999997E+02  0.45594000000E+02  0.51100000000E-03 0. -1.
         11   -1    0    0    0    0 -0.00000000000E+00 -0.00000000000E+00 -0.45593999997E+02  0.45594000000E+02  0.51100000000E-03 0.  1.
    9900012    2    1    2    0    0 -0.24892687685E+02  0.84977546256E+01 -0.31004960907E+02  0.50528864068E+02  0.30000012823E+02 0.  0.
         12    1    1    2    0    0  0.24892687685E+02 -0.84977546256E+01  0.31004960907E+02  0.40659135932E+02  0.00000000000E+00 0. -1.
         11    1    3    3    0    0 -0.17616857774E+01  0.27721528293E+01  0.19454037563E+01  0.38174551894E+01  0.51100000000E-03 0. -1.
        -11    1    3    3    0    0 -0.55586383337E+01 -0.10130395897E+01  0.28029532424E+01  0.63072384191E+01  0.51100000000E-03 0.  1.
        -12    1    3    3    0    0 -0.17572363574E+02  0.67386413861E+01 -0.35753317905E+02  0.40404170460E+02  0.00000000000E+00 0.  1.
</event>
<event>
 7    1  0.2639126E-011  0.5052886E+02  0.7816164E-02  0.1300439E+00
        -11   -1    0    0    0    0  0.00000000000E+00  0.00000000000E+00  0.45593999997E+02  0.45594000000E+02  0.51100000000E-03 0.  1.
         11   -1    0    0    0    0 -0.00000000000E+00 -0.00000000000E+00 -0.45593999997E+02  0.45594000000E+02  0.51100000000E-03 0. -1.
    9900012    2    1    2    0    0  0.89138943531E+01 -0.17671306229E+02  0.35516664350E+02  0.50528855605E+02  0.29999987096E+02 0.  0.
         12    1    1    2    0    0 -0.89138943531E+01  0.17671306229E+02 -0.35516664350E+02  0.40659144395E+02  0.00000000000E+00 0. -1.
         11    1    3    3    0    0 -0.28506116772E+01 -0.37538052438E+01  0.11841626866E+02  0.12745240988E+02  0.51100000000E-03 0. -1.
        -11    1    3    3    0    0  0.20411567813E+01  0.46730796317E+01  0.13571030549E+02  0.14497477873E+02  0.51100000000E-03 0.  1.
        -12    1    3    3    0    0  0.97233492490E+01 -0.18590580617E+02  0.10104006935E+02  0.23286136744E+02  0.00000000000E+00 0.  1.
</event>
<event>
 7    1  0.2639126E-011  0.5052886E+02  0.7816164E-02  0.1300439E+00
        -11   -1    0    0    0    0  0.00000000000E+00  0.00000000000E+00  0.45593999997E+02  0.45594000000E+02  0.51100000000E-03 0. -1.
         11   -1    0    0    0    0 -0.00000000000E+00 -0.00000000000E+00 -0.45593999997E+02  0.45594000000E+02  0.51100000000E-03 0.  1.
    9900012    2    1    2    0    0  0.17511476430E+02  0.26462548416E+01 -0.36599332706E+02  0.50528860487E+02  0.30000001936E+02 0.  0.
         12    1    1    2    0    0 -0.17511476430E+02 -0.26462548416E+01  0.36599332706E+02  0.40659139513E+02  0.00000000000E+00 0. -1.
         11    1    3    3    0    0 -0.86340693347E+00 -0.40558900564E+01 -0.34816371275E+01  0.54145648977E+01  0.51100000000E-03 0. -1.
        -11    1    3    3    0    0  0.50514274416E+00  0.96806557606E+00 -0.24394369588E+02  0.24418795793E+02  0.51100000000E-03 0.  1.
        -12    1    3    3    0    0  0.17869740619E+02  0.57340793219E+01 -0.87233259902E+01  0.20695499796E+02  0.00000000000E+00 0.  1.
</event>
<event>
 7    1  0.2639126E-011  0.5052886E+02  0.7816164E-02  0.1300439E+00
        -11   -1    0    0    0    0  0.00000000000E+00  0.00000000000E+00  0.45593999997E+02  0.45594000000E+02  0.51100000000E-03 0. -1.
         11   -1    0    0    0    0 -0.00000000000E+00 -0.00000000000E+00 -0.45593999997E+02  0.45594000000E+02  0.51100000000E-03 0.  1.
    9900012    2    1    2    0    0 -0.99607708859E+01 -0.39411066227E+02 -0.84634364185E+00  0.50528863323E+02  0.30000010556E+02 0.  0.
         12    1    1    2    0    0  0.99607708859E+01  0.39411066227E+02  0.84634364185E+00  0.40659136677E+02  0.00000000000E+00 0. -1.
         11    1    3    3    0    0 -0.65606486698E+01  0.10329837397E+01 -0.18993677226E+01  0.69077322169E+01  0.51100000000E-03 0. -1.
        -11    1    3    3    0    0 -0.42509754645E+01 -0.33238190296E+01 -0.31592923603E+01  0.62529747977E+01  0.51100000000E-03 0.  1.
         12    1    3    3    0    0  0.85085324831E+00 -0.37120230937E+02  0.42123164410E+01  0.37368156308E+02  0.00000000000E+00 0. -1.
</event>
<event>
 7    1  0.2639126E-011  0.5052886E+02  0.7816164E-02  0.1300439E+00
        -11   -1    0    0    0    0  0.00000000000E+00  0.00000000000E+00  0.45593999997E+02  0.45594000000E+02  0.51100000000E-03 0. -1.
         11   -1    0    0    0    0 -0.00000000000E+00 -0.00000000000E+00 -0.45593999997E+02  0.45594000000E+02  0.51100000000E-03 0.  1.
    9900012    2    1    2    0    0 -0.14687704318E+02  0.30825435608E+02 -0.22073283307E+02  0.50528856200E+02  0.29999988907E+02 0.  0.
         12    1    1    2    0    0  0.14687704318E+02 -0.30825435608E+02  0.22073283307E+02  0.40659143800E+02  0.00000000000E+00 0. -1.
         11    1    3    3    0    0 -0.16369545291E-01  0.75437292603E+01 -0.60807060236E+01  0.96893294464E+01  0.51100000000E-03 0. -1.
        -11    1    3    3    0    0 -0.60673677468E+01  0.85477607803E+01 -0.20645649138E+02  0.23154265143E+02  0.51100000000E-03 0.  1.
         12    1    3    3    0    0 -0.86039670264E+01  0.14733945567E+02  0.46530718544E+01  0.17685261611E+02  0.00000000000E+00 0. -1.
</event>
<event>
 7    1  0.2639126E-011  0.5052887E+02  0.7816164E-02  0.1300439E+00
        -11   -1    0    0    0    0  0.00000000000E+00  0.00000000000E+00  0.45593999997E+02  0.45594000000E+02  0.51100000000E-03 0.  1.
         11   -1    0    0    0    0 -0.00000000000E+00 -0.00000000000E+00 -0.45593999997E+02  0.45594000000E+02  0.51100000000E-03 0. -1.
    9900012    2    1    2    0    0  0.25842194981E+02  0.19727874338E+01  0.31328161991E+02  0.50528872298E+02  0.30000037838E+02 0.  0.
         12    1    1    2    0    0 -0.25842194981E+02 -0.19727874338E+01 -0.31328161991E+02  0.40659127702E+02  0.00000000000E+00 0. -1.
         11    1    3    3    0    0  0.70121213005E+01 -0.59800183164E+01  0.21506368524E+01  0.94633875187E+01  0.51100000000E-03 0. -1.
        -11    1    3    3    0    0  0.38942436098E+01 -0.23441998721E+01  0.20422209775E+02  0.20921927700E+02  0.51100000000E-03 0.  1.
         12    1    3    3    0    0  0.14935830071E+02  0.10297005622E+02  0.87553153644E+01  0.20143557080E+02  0.00000000000E+00 0. -1.
</event>
<event>
 7    1  0.2639126E-011  0.5052886E+02  0.7816164E-02  0.1300439E+00
        -11   -1    0    0    0    0  0.00000000000E+00  0.00000000000E+00  0.45593999997E+02  0.45594000000E+02  0.51100000000E-03 0.  1.
         11   -1    0    0    0    0 -0.00000000000E+00 -0.00000000000E+00 -0.45593999997E+02  0.45594000000E+02  0.51100000000E-03 0. -1.
    9900012    2    1    2    0    0  0.17008123133E+02  0.36159574201E+02  0.75082832377E+01  0.50528863559E+02  0.30000011275E+02 0.  0.
         12    1    1    2    0    0 -0.17008123133E+02 -0.36159574201E+02 -0.75082832377E+01  0.40659136441E+02  0.00000000000E+00 0. -1.
         11    1    3    3    0    0  0.57707447352E+01  0.18725677405E+02 -0.38896089263E+01  0.19977025478E+02  0.51100000000E-03 0. -1.
        -11    1    3    3    0    0 -0.51888804091E+01  0.24361641952E+01  0.44246210333E+01  0.72413153112E+01  0.51100000000E-03 0.  1.
        -12    1    3    3    0    0  0.16426258807E+02  0.14997732601E+02  0.69732711308E+01  0.23310522770E+02  0.00000000000E+00 0.  1.
</event>
<event>
 7    1  0.2639126E-011  0.5052886E+02  0.7816164E-02  0.1300439E+00
        -11   -1    0    0    0    0  0.00000000000E+00  0.00000000000E+00  0.45593999997E+02  0.45594000000E+02  0.51100000000E-03 0. -1.
         11   -1    0    0    0    0 -0.00000000000E+00 -0.00000000000E+00 -0.45593999997E+02  0.45594000000E+02  0.51100000000E-03 0.  1.
    9900012    2    1    2    0    0 -0.30983866952E+02  0.51872430516E+01 -0.25811979053E+02  0.50528858785E+02  0.29999996762E+02 0.  0.
         12    1    1    2    0    0  0.30983866952E+02 -0.51872430516E+01  0.25811979053E+02  0.40659141215E+02  0.00000000000E+00 0. -1.
         11    1    3    3    0    0 -0.27337980503E+02  0.33682890783E+01 -0.91762814911E+01  0.29032993156E+02  0.51100000000E-03 0. -1.
        -11    1    3    3    0    0 -0.81550162891E+01  0.30047224341E+01 -0.12729384581E+02  0.15413302036E+02  0.51100000000E-03 0.  1.
        -12    1    3    3    0    0  0.45091298405E+01 -0.11857684608E+01 -0.39063129805E+01  0.60825635930E+01  0.00000000000E+00 0.  1.
</event>
<event>
 7    1  0.2639126E-011  0.5052887E+02  0.7816164E-02  0.1300439E+00
        -11   -1    0    0    0    0  0.00000000000E+00  0.00000000000E+00  0.45593999997E+02  0.45594000000E+02  0.51100000000E-03 0.  1.
         11   -1    0    0    0    0 -0.00000000000E+00 -0.00000000000E+00 -0.45593999997E+02  0.45594000000E+02  0.51100000000E-03 0. -1.
    9900012    2    1    2    0    0  0.63209684686E+01 -0.30384610761E+02  0.26267582764E+02  0.50528866737E+02  0.30000020932E+02 0.  0.
         12    1    1    2    0    0 -0.63209684686E+01  0.30384610761E+02 -0.26267582764E+02  0.40659133263E+02  0.00000000000E+00 0. -1.
         11    1    3    3    0    0 -0.38450033359E+01 -0.56922101732E+01  0.32786159268E+01  0.76114801429E+01  0.51100000000E-03 0. -1.
        -11    1    3    3    0    0 -0.33189870778E+01 -0.18238812201E+02  0.20709634367E+02  0.27794943814E+02  0.51100000000E-03 0.  1.
         12    1    3    3    0    0  0.13484958882E+02 -0.64535883868E+01  0.22793324699E+01  0.15122442780E+02  0.00000000000E+00 0. -1.
</event>
<event>
 7    1  0.2639126E-011  0.5052883E+02  0.7816164E-02  0.1300439E+00
        -11   -1    0    0    0    0  0.00000000000E+00  0.00000000000E+00  0.45593999997E+02  0.45594000000E+02  0.51100000000E-03 0.  1.
         11   -1    0    0    0    0 -0.00000000000E+00 -0.00000000000E+00 -0.45593999997E+02  0.45594000000E+02  0.51100000000E-03 0. -1.
    9900012    2    1    2    0    0 -0.28028266793E+02  0.29017360195E+02  0.50573844849E+01  0.50528830433E+02  0.29999910583E+02 0.  0.
         12    1    1    2    0    0  0.28028266793E+02 -0.29017360195E+02 -0.50573844849E+01  0.40659169567E+02  0.00000000000E+00 0. -1.
         11    1    3    3    0    0 -0.29478331284E+01  0.34756546436E+00 -0.23981207774E+01  0.38159540654E+01  0.51100000000E-03 0. -1.
        -11    1    3    3    0    0 -0.15994662033E+02  0.80116806646E+01 -0.77550589536E+01  0.19497619862E+02  0.51100000000E-03 0.  1.
        -12    1    3    3    0    0 -0.90857716310E+01  0.20658114066E+02  0.15210564216E+02  0.27215256506E+02  0.00000000000E+00 0.  1.
</event>
<event>
 7    1  0.2639126E-011  0.5052888E+02  0.7816164E-02  0.1300439E+00
        -11   -1    0    0    0    0  0.00000000000E+00  0.00000000000E+00  0.45593999997E+02  0.45594000000E+02  0.51100000000E-03 0.  1.
         11   -1    0    0    0    0 -0.00000000000E+00 -0.00000000000E+00 -0.45593999997E+02  0.45594000000E+02  0.51100000000E-03 0. -1.
    9900012    2    1    2    0    0 -0.30357784646E+02 -0.24886399477E+02  0.10594171485E+02  0.50528875108E+02  0.30000046378E+02 0.  0.
         12    1    1    2    0    0  0.30357784646E+02  0.24886399477E+02 -0.10594171485E+02  0.40659124892E+02  0.00000000000E+00 0. -1.
         11    1    3    3    0    0 -0.12921501398E+02 -0.17587297651E+02  0.71937337589E+01  0.22978860779E+02  0.51100000000E-03 0. -1.
        -11    1    3    3    0    0 -0.15405295692E+02 -0.11961388874E+02  0.76224490750E+01  0.20940384173E+02  0.51100000000E-03 0.  1.
         12    1    3    3    0    0 -0.20309875562E+01  0.46622870474E+01 -0.42220113494E+01  0.66096301561E+01  0.00000000000E+00 0. -1.
</event>
<event>
 7    1  0.2639126E-011  0.5052887E+02  0.7816164E-02  0.1300439E+00
        -11   -1    0    0    0    0  0.00000000000E+00  0.00000000000E+00  0.45593999997E+02  0.45594000000E+02  0.51100000000E-03 0. -1.
         11   -1    0    0    0    0 -0.00000000000E+00 -0.00000000000E+00 -0.45593999997E+02  0.45594000000E+02  0.51100000000E-03 0.  1.
    9900012    2    1    2    0    0  0.21936385414E+02 -0.34224549616E+02 -0.80014342691E+00  0.50528867803E+02  0.30000024176E+02 0.  0.
         12    1    1    2    0    0 -0.21936385414E+02  0.34224549616E+02  0.80014342691E+00  0.40659132197E+02  0.00000000000E+00 0. -1.
         11    1    3    3    0    0  0.11333693952E+01 -0.51406361964E+00  0.26412967670E+01  0.29198007575E+01  0.51100000000E-03 0. -1.
        -11    1    3    3    0    0 -0.20437839965E+01  0.19984414060E+01 -0.43522709251E+01  0.52070225220E+01  0.51100000000E-03 0.  1.
        -12    1    3    3    0    0  0.22846800016E+02 -0.35708927402E+02  0.91083073119E+00  0.42402044524E+02  0.00000000000E+00 0.  1.
</event>
<event>
 7    1  0.2788073E-011  0.5052889E+02  0.7816164E-02  0.1300439E+00
        -11   -1    0    0    0    0  0.00000000000E+00  0.00000000000E+00  0.45593999997E+02  0.45594000000E+02  0.51100000000E-03 0. -1.
         11   -1    0    0    0    0 -0.00000000000E+00 -0.00000000000E+00 -0.45593999997E+02  0.45594000000E+02  0.51100000000E-03 0.  1.
    9900012    2    1    2    0    0  0.10867779448E+02  0.40506225255E+01 -0.38969823049E+02  0.50528889318E+02  0.30000089571E+02 0.  0.
         12    1    1    2    0    0 -0.10867779448E+02 -0.40506225255E+01  0.38969823049E+02  0.40659110682E+02  0.00000000000E+00 0. -1.
         11    1    3    3    0    0  0.53798929358E+01  0.60893667060E+01 -0.86495507090E+00  0.81714002727E+01  0.51100000000E-03 0. -1.
        -11    1    3    3    0    0  0.43530772737E+01  0.65216170378E+01 -0.27942438368E+02  0.29021726908E+02  0.51100000000E-03 0.  1.
         12    1    3    3    0    0  0.11348092390E+01 -0.85603612183E+01 -0.10162429610E+02  0.13335762137E+02  0.00000000000E+00 0. -1.
</event>
<event>
 7    1  0.2639126E-011  0.5052886E+02  0.7816164E-02  0.1300439E+00
        -11   -1    0    0    0    0  0.00000000000E+00  0.00000000000E+00  0.45593999997E+02  0.45594000000E+02  0.51100000000E-03 0. -1.
         11   -1    0    0    0    0 -0.00000000000E+00 -0.00000000000E+00 -0.45593999997E+02  0.45594000000E+02  0.51100000000E-03 0.  1.
    9900012    2    1    2    0    0 -0.29972109882E+02  0.24009796640E+02 -0.13355447517E+02  0.50528859775E+02  0.29999999772E+02 0.  0.
         12    1    1    2    0    0  0.29972109882E+02 -0.24009796640E+02  0.13355447517E+02  0.40659140225E+02  0.00000000000E+00 0. -1.
         11    1    3    3    0    0 -0.11616431777E+02  0.16609203291E+02  0.55930373558E+01  0.21025917062E+02  0.51100000000E-03 0. -1.
        -11    1    3    3    0    0 -0.50824864023E+01  0.11471248980E+01  0.39383919397E+00  0.52251959899E+01  0.51100000000E-03 0.  1.
        -12    1    3    3    0    0 -0.13273191702E+02  0.62534684511E+01 -0.19342324067E+02  0.24277746723E+02  0.00000000000E+00 0.  1.
</event>
<event>
 7    1  0.2639126E-011  0.5052885E+02  0.7816164E-02  0.1300439E+00
        -11   -1    0    0    0    0  0.00000000000E+00  0.00000000000E+00  0.45593999997E+02  0.45594000000E+02  0.51100000000E-03 0. -1.
         11   -1    0    0    0    0 -0.00000000000E+00 -0.00000000000E+00 -0.45593999997E+02  0.45594000000E+02  0.51100000000E-03 0.  1.
    9900012    2    1    2    0    0  0.17460654974E+02 -0.16168841349E+02 -0.32967565515E+02  0.50528852460E+02  0.29999977538E+02 0.  0.
         12    1    1    2    0    0 -0.17460654974E+02  0.16168841349E+02  0.32967565515E+02  0.40659147540E+02  0.00000000000E+00 0. -1.
         11    1    3    3    0    0 -0.54999242569E+01 -0.22110514219E+00 -0.16959463461E+01  0.57597125436E+01  0.51100000000E-03 0. -1.
        -11    1    3    3    0    0  0.13265480303E+02 -0.14226552058E+02 -0.28561773736E+02  0.34556369461E+02  0.51100000000E-03 0.  1.
         12    1    3    3    0    0  0.96950989284E+01 -0.17211841488E+01 -0.27098454328E+01  0.10212770455E+02  0.00000000000E+00 0. -1.
</event>
<event>
 7    1  0.2639126E-011  0.5052886E+02  0.7816164E-02  0.1300439E+00
        -11   -1    0    0    0    0  0.00000000000E+00  0.00000000000E+00  0.45593999997E+02  0.45594000000E+02  0.51100000000E-03 0.  1.
         11   -1    0    0    0    0 -0.00000000000E+00 -0.00000000000E+00 -0.45593999997E+02  0.45594000000E+02  0.51100000000E-03 0. -1.
    9900012    2    1    2    0    0  0.65365011098E+01  0.12135080923E+02  0.38251529321E+02  0.50528861653E+02  0.30000005479E+02 0.  0.
         12    1    1    2    0    0 -0.65365011098E+01 -0.12135080923E+02 -0.38251529321E+02  0.40659138347E+02  0.00000000000E+00 0. -1.
         11    1    3    3    0    0  0.34813202993E+01 -0.72839088239E+01  0.21126113355E+02  0.22616091275E+02  0.51100000000E-03 0. -1.
        -11    1    3    3    0    0 -0.27366148444E+01  0.30144926721E+01  0.10012205812E+01  0.41926924273E+01  0.51100000000E-03 0.  1.
        -12    1    3    3    0    0  0.57917956549E+01  0.16404497075E+02  0.16124195384E+02  0.23720077951E+02  0.00000000000E+00 0.  1.
</event>
<event>
 7    1  0.2639126E-011  0.5052886E+02  0.7816164E-02  0.1300439E+00
        -11   -1    0    0    0    0  0.00000000000E+00  0.00000000000E+00  0.45593999997E+02  0.45594000000E+02  0.51100000000E-03 0. -1.
         11   -1    0    0    0    0 -0.00000000000E+00 -0.00000000000E+00 -0.45593999997E+02  0.45594000000E+02  0.51100000000E-03 0.  1.
    9900012    2    1    2    0    0  0.34017711625E+02 -0.16352731893E+02  0.15117830012E+02  0.50528864141E+02  0.30000013042E+02 0.  0.
         12    1    1    2    0    0 -0.34017711625E+02  0.16352731893E+02 -0.15117830012E+02  0.40659135859E+02  0.00000000000E+00 0. -1.
         11    1    3    3    0    0 -0.48583008780E+00 -0.26551562056E+01  0.54515680951E+01  0.60832129921E+01  0.51100000000E-03 0.  1.
        -11    1    3    3    0    0 -0.15226952273E+01  0.39967840532E+00 -0.32902247470E+01  0.36474542807E+01  0.51100000000E-03 0. -1.
        -12    1    3    3    0    0  0.36026236940E+02 -0.14097254092E+02  0.12956486664E+02  0.40798196868E+02  0.00000000000E+00 0.  1.
</event>
<event>
 7    1  0.2639126E-011  0.5052886E+02  0.7816164E-02  0.1300439E+00
        -11   -1    0    0    0    0  0.00000000000E+00  0.00000000000E+00  0.45593999997E+02  0.45594000000E+02  0.51100000000E-03 0. -1.
         11   -1    0    0    0    0 -0.00000000000E+00 -0.00000000000E+00 -0.45593999997E+02  0.45594000000E+02  0.51100000000E-03 0.  1.
    9900012    2    1    2    0    0 -0.22506232635E+01  0.25032748707E+02 -0.31960314067E+02  0.50528862182E+02  0.30000007087E+02 0.  0.
         12    1    1    2    0    0  0.22506232635E+01 -0.25032748707E+02  0.31960314067E+02  0.40659137818E+02  0.00000000000E+00 0. -1.
         11    1    3    3    0    0  0.26349114635E+01  0.95648797631E+00 -0.77847201296E+01  0.82740253460E+01  0.51100000000E-03 0.  1.
        -11    1    3    3    0    0  0.36466978166E+01  0.37947709938E+01 -0.18912319720E+02  0.19630958441E+02  0.51100000000E-03 0. -1.
        -12    1    3    3    0    0 -0.85322325436E+01  0.20281489737E+02 -0.52632742170E+01  0.22623878395E+02  0.00000000000E+00 0.  1.
</event>
<event>
 7    1  0.2639126E-011  0.5052883E+02  0.7816164E-02  0.1300439E+00
        -11   -1    0    0    0    0  0.00000000000E+00  0.00000000000E+00  0.45593999997E+02  0.45594000000E+02  0.51100000000E-03 0.  1.
         11   -1    0    0    0    0 -0.00000000000E+00 -0.00000000000E+00 -0.45593999997E+02  0.45594000000E+02  0.51100000000E-03 0. -1.
    9900012    2    1    2    0    0 -0.25168679237E+02 -0.24451346156E+02  0.20538671547E+02  0.50528834092E+02  0.29999921707E+02 0.  0.
         12    1    1    2    0    0  0.25168679237E+02  0.24451346156E+02 -0.20538671547E+02  0.40659165908E+02  0.00000000000E+00 0. -1.
         11    1    3    3    0    0 -0.12598965404E+02 -0.12596858415E+02  0.17892014802E+02  0.25249533958E+02  0.51100000000E-03 0.  1.
        -11    1    3    3    0    0 -0.54932585804E+00 -0.98892903739E+01  0.72330290073E+01  0.12264441768E+02  0.51100000000E-03 0. -1.
        -12    1    3    3    0    0 -0.12020387975E+02 -0.19651973675E+01 -0.45863722618E+01  0.13014858366E+02  0.00000000000E+00 0.  1.
</event>
<event>
 7    1  0.2639126E-011  0.5052886E+02  0.7816164E-02  0.1300439E+00
        -11   -1    0    0    0    0  0.00000000000E+00  0.00000000000E+00  0.45593999997E+02  0.45594000000E+02  0.51100000000E-03 0.  1.
         11   -1    0    0    0    0 -0.00000000000E+00 -0.00000000000E+00 -0.45593999997E+02  0.45594000000E+02  0.51100000000E-03 0. -1.
    9900012    2    1    2    0    0  0.21213568645E+02 -0.29829556019E+02  0.17701623254E+02  0.50528863600E+02  0.30000011399E+02 0.  0.
         12    1    1    2    0    0 -0.21213568645E+02  0.29829556019E+02 -0.17701623254E+02  0.40659136400E+02  0.00000000000E+00 0. -1.
         11    1    3    3    0    0 -0.31900032927E+01 -0.39598372946E+00  0.62214726758E+01  0.70028313301E+01  0.51100000000E-03 0. -1.
        -11    1    3    3    0    0  0.96415032789E+01 -0.50525780307E+01 -0.33603503872E+01  0.11392062378E+02  0.51100000000E-03 0.  1.
        -12    1    3    3    0    0  0.14762068659E+02 -0.24380994259E+02  0.14840500965E+02  0.32133969892E+02  0.00000000000E+00 0.  1.
</event>
<event>
 7    1  0.2639126E-011  0.5052884E+02  0.7816164E-02  0.1300439E+00
        -11   -1    0    0    0    0  0.00000000000E+00  0.00000000000E+00  0.45593999997E+02  0.45594000000E+02  0.51100000000E-03 0. -1.
         11   -1    0    0    0    0 -0.00000000000E+00 -0.00000000000E+00 -0.45593999997E+02  0.45594000000E+02  0.51100000000E-03 0.  1.
    9900012    2    1    2    0    0 -0.15201345985E+02  0.33497103898E+02 -0.17321395056E+02  0.50528836014E+02  0.29999927549E+02 0.  0.
         12    1    1    2    0    0  0.15201345985E+02 -0.33497103898E+02  0.17321395056E+02  0.40659163986E+02  0.00000000000E+00 0. -1.
         11    1    3    3    0    0 -0.92113696367E+01  0.12475852259E+02 -0.24928075492E+01  0.15707014672E+02  0.51100000000E-03 0. -1.
        -11    1    3    3    0    0 -0.72736344033E+01  0.22266717741E+02 -0.38990380149E+01  0.23746893988E+02  0.51100000000E-03 0.  1.
        -12    1    3    3    0    0  0.12836580548E+01 -0.12454661012E+01 -0.10929549492E+02  0.11074927354E+02  0.00000000000E+00 0.  1.
</event>
<event>
 7    1  0.2639126E-011  0.5052886E+02  0.7816164E-02  0.1300439E+00
        -11   -1    0    0    0    0  0.00000000000E+00  0.00000000000E+00  0.45593999997E+02  0.45594000000E+02  0.51100000000E-03 0.  1.
         11   -1    0    0    0    0 -0.00000000000E+00 -0.00000000000E+00 -0.45593999997E+02  0.45594000000E+02  0.51100000000E-03 0. -1.
    9900012    2    1    2    0    0  0.20838603798E+02 -0.37264564444E+01  0.34713565571E+02  0.50528861784E+02  0.30000005878E+02 0.  0.
         12    1    1    2    0    0 -0.20838603798E+02  0.37264564444E+01 -0.34713565571E+02  0.40659138216E+02  0.00000000000E+00 0. -1.
         11    1    3    3    0    0  0.10966859206E+02 -0.96293665973E+01  0.13505569069E+02  0.19884594491E+02  0.51100000000E-03 0. -1.
        -11    1    3    3    0    0  0.88694113807E+01 -0.43588773519E+01  0.16669838987E+02  0.19379107361E+02  0.51100000000E-03 0.  1.
         12    1    3    3    0    0  0.10023332109E+01  0.10261787505E+02  0.45381575142E+01  0.11265159932E+02  0.00000000000E+00 0. -1.
</event>
<event>
 7    1  0.2639126E-011  0.5052886E+02  0.7816164E-02  0.1300439E+00
        -11   -1    0    0    0    0  0.00000000000E+00  0.00000000000E+00  0.45593999997E+02  0.45594000000E+02  0.51100000000E-03 0.  1.
         11   -1    0    0    0    0 -0.00000000000E+00 -0.00000000000E+00 -0.45593999997E+02  0.45594000000E+02  0.51100000000E-03 0. -1.
    9900012    2    1    2    0    0  0.40501576826E+02 -0.43830381794E-01  0.35757326103E+01  0.50528861911E+02  0.30000006263E+02 0.  0.
         12    1    1    2    0    0 -0.40501576826E+02  0.43830381794E-01 -0.35757326103E+01  0.40659138089E+02  0.00000000000E+00 0. -1.
         11    1    3    3    0    0 -0.26694729472E+01  0.36869399862E+01 -0.20638210961E+01  0.49978965631E+01  0.51100000000E-03 0. -1.
        -11    1    3    3    0    0  0.40639455809E+01  0.13006533880E+01 -0.29362866100E+01  0.51796845693E+01  0.51100000000E-03 0.  1.
        -12    1    3    3    0    0  0.39107104192E+02 -0.50314237559E+01  0.85758403165E+01  0.40351280778E+02  0.00000000000E+00 0.  1.
</event>
<event>
 7    1  0.2639126E-011  0.5052882E+02  0.7816164E-02  0.1300439E+00
        -11   -1    0    0    0    0  0.00000000000E+00  0.00000000000E+00  0.45593999997E+02  0.45594000000E+02  0.51100000000E-03 0.  1.
         11   -1    0    0    0    0 -0.00000000000E+00 -0.00000000000E+00 -0.45593999997E+02  0.45594000000E+02  0.51100000000E-03 0. -1.
    9900012    2    1    2    0    0 -0.37989273817E+02  0.49131249873E+01  0.13632503415E+02  0.50528820574E+02  0.29999880615E+02 0.  0.
         12    1    1    2    0    0  0.37989273817E+02 -0.49131249873E+01 -0.13632503415E+02  0.40659179426E+02  0.00000000000E+00 0. -1.
         11    1    3    3    0    0 -0.20589267994E+02  0.22416208433E+01  0.89620111099E+01  0.22566800037E+02  0.51100000000E-03 0. -1.
        -11    1    3    3    0    0 -0.22345885033E+02  0.16239385436E+01  0.47633185237E+01  0.22905566091E+02  0.51100000000E-03 0.  1.
         12    1    3    3    0    0  0.49458792105E+01  0.10475656005E+01 -0.92826218260E-01  0.50564544455E+01  0.00000000000E+00 0. -1.
</event>
<event>
 7    1  0.2639126E-011  0.5052887E+02  0.7816164E-02  0.1300439E+00
        -11   -1    0    0    0    0  0.00000000000E+00  0.00000000000E+00  0.45593999997E+02  0.45594000000E+02  0.51100000000E-03 0.  1.
         11   -1    0    0    0    0 -0.00000000000E+00 -0.00000000000E+00 -0.45593999997E+02  0.45594000000E+02  0.51100000000E-03 0. -1.
    9900012    2    1    2    0    0  0.36484961367E+01  0.17306932154E+02  0.36610425728E+02  0.50528871914E+02  0.30000036671E+02 0.  0.
         12    1    1    2    0    0 -0.36484961367E+01 -0.17306932154E+02 -0.36610425728E+02  0.40659128086E+02  0.00000000000E+00 0. -1.
         11    1    3    3    0    0 -0.11170078112E+01  0.41065335001E+01  0.74535061611E+00  0.43205175199E+01  0.51100000000E-03 0. -1.
        -11    1    3    3    0    0 -0.90590182571E+01  0.72221827282E+00  0.56064818723E+01  0.10678017150E+02  0.51100000000E-03 0.  1.
        -12    1    3    3    0    0  0.13824522205E+02  0.12478180381E+02  0.30258593240E+02  0.35530337244E+02  0.00000000000E+00 0.  1.
</event>
<event>
 7    1  0.2639126E-011  0.5052885E+02  0.7816164E-02  0.1300439E+00
        -11   -1    0    0    0    0  0.00000000000E+00  0.00000000000E+00  0.45593999997E+02  0.45594000000E+02  0.51100000000E-03 0.  1.
         11   -1    0    0    0    0 -0.00000000000E+00 -0.00000000000E+00 -0.45593999997E+02  0.45594000000E+02  0.51100000000E-03 0. -1.
    9900012    2    1    2    0    0  0.27976071508E+02 -0.16285945298E+01  0.29459351793E+02  0.50528852133E+02  0.29999976544E+02 0.  0.
         12    1    1    2    0    0 -0.27976071508E+02  0.16285945298E+01 -0.29459351793E+02  0.40659147867E+02  0.00000000000E+00 0. -1.
         11    1    3    3    0    0  0.21810324614E+02  0.13572444083E+01  0.14670877897E+02  0.26320467904E+02  0.51100000000E-03 0. -1.
        -11    1    3    3    0    0  0.12403080386E+02 -0.14718351417E+01  0.78286682454E+01  0.14740785206E+02  0.51100000000E-03 0.  1.
         12    1    3    3    0    0 -0.62373334908E+01 -0.15140037965E+01  0.69598056508E+01  0.94675990234E+01  0.00000000000E+00 0. -1.
</event>
<event>
 7    1  0.2639126E-011  0.5052886E+02  0.7816164E-02  0.1300439E+00
        -11   -1    0    0    0    0  0.00000000000E+00  0.00000000000E+00  0.45593999997E+02  0.45594000000E+02  0.51100000000E-03 0.  1.
         11   -1    0    0    0    0 -0.00000000000E+00 -0.00000000000E+00 -0.45593999997E+02  0.45594000000E+02  0.51100000000E-03 0. -1.
    9900012    2    1    2    0    0  0.30165291671E+02  0.91553430469E+01  0.25678788247E+02  0.50528864572E+02  0.30000014354E+02 0.  0.
         12    1    1    2    0    0 -0.30165291671E+02 -0.91553430469E+01 -0.25678788247E+02  0.40659135428E+02  0.00000000000E+00 0. -1.
         11    1    3    3    0    0  0.62217286563E+01  0.76150943976E+01  0.89205524382E-01  0.98339985786E+01  0.51100000000E-03 0. -1.
        -11    1    3    3    0    0  0.17560393502E+02  0.97451610054E+01  0.11362971408E+02  0.23074936673E+02  0.51100000000E-03 0.  1.
        -12    1    3    3    0    0  0.63831695123E+01 -0.82049123560E+01  0.14226611314E+02  0.17619929321E+02  0.00000000000E+00 0.  1.
</event>
<event>
 7    1  0.2639126E-011  0.5052886E+02  0.7816164E-02  0.1300439E+00
        -11   -1    0    0    0    0  0.00000000000E+00  0.00000000000E+00  0.45593999997E+02  0.45594000000E+02  0.51100000000E-03 0.  1.
         11   -1    0    0    0    0 -0.00000000000E+00 -0.00000000000E+00 -0.45593999997E+02  0.45594000000E+02  0.51100000000E-03 0. -1.
    9900012    2    1    2    0    0 -0.25341003412E+02  0.97531432472E+01  0.30263432065E+02  0.50528861083E+02  0.30000003748E+02 0.  0.
         12    1    1    2    0    0  0.25341003412E+02 -0.97531432472E+01 -0.30263432065E+02  0.40659138917E+02  0.00000000000E+00 0. -1.
         11    1    3    3    0    0 -0.23284046095E+01  0.48074859577E+01  0.43003601744E+01  0.68575861022E+01  0.51100000000E-03 0. -1.
        -11    1    3    3    0    0 -0.23797916434E+02  0.12936073802E+02  0.20009231760E+02  0.33675691350E+02  0.51100000000E-03 0.  1.
         12    1    3    3    0    0  0.78531763143E+00 -0.79904165124E+01  0.59538401304E+01  0.99955836309E+01  0.00000000000E+00 0. -1.
</event>
<event>
 7    1  0.2639126E-011  0.5052885E+02  0.7816164E-02  0.1300439E+00
        -11   -1    0    0    0    0  0.00000000000E+00  0.00000000000E+00  0.45593999997E+02  0.45594000000E+02  0.51100000000E-03 0. -1.
         11   -1    0    0    0    0 -0.00000000000E+00 -0.00000000000E+00 -0.45593999997E+02  0.45594000000E+02  0.51100000000E-03 0.  1.
    9900012    2    1    2    0    0 -0.68678142814E+00  0.39896640578E+02  0.78072185783E+01  0.50528852689E+02  0.29999978234E+02 0.  0.
         12    1    1    2    0    0  0.68678142814E+00 -0.39896640578E+02 -0.78072185783E+01  0.40659147311E+02  0.00000000000E+00 0. -1.
         11    1    3    3    0    0  0.47225631079E+00  0.10007646931E+02  0.49615448395E+00  0.10031061392E+02  0.51100000000E-03 0. -1.
        -11    1    3    3    0    0 -0.55847334753E+01  0.28434580389E+02  0.14130140603E+02  0.32239346824E+02  0.51100000000E-03 0.  1.
         12    1    3    3    0    0  0.44256957364E+01  0.14544132572E+01 -0.68190765090E+01  0.82584444727E+01  0.00000000000E+00 0. -1.
</event>
<event>
 7    1  0.2639126E-011  0.5052886E+02  0.7816164E-02  0.1300439E+00
        -11   -1    0    0    0    0  0.00000000000E+00  0.00000000000E+00  0.45593999997E+02  0.45594000000E+02  0.51100000000E-03 0. -1.
         11   -1    0    0    0    0 -0.00000000000E+00 -0.00000000000E+00 -0.45593999997E+02  0.45594000000E+02  0.51100000000E-03 0.  1.
    9900012    2    1    2    0    0  0.76767151628E+01 -0.48129471446E+01 -0.39636719452E+02  0.50528856565E+02  0.29999990015E+02 0.  0.
         12    1    1    2    0    0 -0.76767151628E+01  0.48129471446E+01  0.39636719452E+02  0.40659143435E+02  0.00000000000E+00 0. -1.
         11    1    3    3    0    0  0.20954531140E+01  0.22197438949E+01 -0.46523809782E+01  0.55644259129E+01  0.51100000000E-03 0. -1.
        -11    1    3    3    0    0  0.17029318192E+01 -0.12329004470E+02 -0.36792626237E+01  0.12978493815E+02  0.51100000000E-03 0.  1.
        -12    1    3    3    0    0  0.38783302297E+01  0.52963134304E+01 -0.31305075850E+02  0.31985936837E+02  0.00000000000E+00 0.  1.
</event>
<event>
 7    1  0.2639126E-011  0.5052885E+02  0.7816164E-02  0.1300439E+00
        -11   -1    0    0    0    0  0.00000000000E+00  0.00000000000E+00  0.45593999997E+02  0.45594000000E+02  0.51100000000E-03 0. -1.
         11   -1    0    0    0    0 -0.00000000000E+00 -0.00000000000E+00 -0.45593999997E+02  0.45594000000E+02  0.51100000000E-03 0.  1.
    9900012    2    1    2    0    0 -0.37687172109E+01  0.40229316518E+02 -0.45348707871E+01  0.50528853551E+02  0.29999980853E+02 0.  0.
         12    1    1    2    0    0  0.37687172109E+01 -0.40229316518E+02  0.45348707871E+01  0.40659146449E+02  0.00000000000E+00 0. -1.
         11    1    3    3    0    0 -0.19097493665E+01  0.10467624676E+02 -0.44387675583E+01  0.11529135558E+02  0.51100000000E-03 0. -1.
        -11    1    3    3    0    0 -0.11158647316E+02  0.27044063693E+02 -0.96972659074E+00  0.29271780965E+02  0.51100000000E-03 0.  1.
         12    1    3    3    0    0  0.92996794719E+01  0.27176281487E+01  0.87362336194E+00  0.97279370276E+01  0.00000000000E+00 0. -1.
</event>
<event>
 7    1  0.2639126E-011  0.5052886E+02  0.7816164E-02  0.1300439E+00
        -11   -1    0    0    0    0  0.00000000000E+00  0.00000000000E+00  0.45593999997E+02  0.45594000000E+02  0.51100000000E-03 0. -1.
         11   -1    0    0    0    0 -0.00000000000E+00 -0.00000000000E+00 -0.45593999997E+02  0.45594000000E+02  0.51100000000E-03 0.  1.
    9900012    2    1    2    0    0  0.35695410733E+02  0.18289325953E+02  0.66711152753E+01  0.50528861172E+02  0.30000004020E+02 0.  0.
         12    1    1    2    0    0 -0.35695410733E+02 -0.18289325953E+02 -0.66711152753E+01  0.40659138828E+02  0.00000000000E+00 0. -1.
         11    1    3    3    0    0  0.20087527007E+02 -0.24605193790E+01 -0.71436338384E+00  0.20250264497E+02  0.51100000000E-03 0. -1.
        -11    1    3    3    0    0  0.44043018687E+01 -0.13270887070E+01  0.14008902844E+01  0.48084855451E+01  0.51100000000E-03 0.  1.
        -12    1    3    3    0    0  0.11203581856E+02  0.22076934039E+02  0.59845883747E+01  0.25470111131E+02  0.00000000000E+00 0.  1.
</event>
<event>
 7    1  0.2639126E-011  0.5052888E+02  0.7816164E-02  0.1300439E+00
        -11   -1    0    0    0    0  0.00000000000E+00  0.00000000000E+00  0.45593999997E+02  0.45594000000E+02  0.51100000000E-03 0.  1.
         11   -1    0    0    0    0 -0.00000000000E+00 -0.00000000000E+00 -0.45593999997E+02  0.45594000000E+02  0.51100000000E-03 0. -1.
    9900012    2    1    2    0    0 -0.67540440760E+01 -0.34032148445E+02  0.21198116143E+02  0.50528875967E+02  0.30000048988E+02 0.  0.
         12    1    1    2    0    0  0.67540440760E+01  0.34032148445E+02 -0.21198116143E+02  0.40659124033E+02  0.00000000000E+00 0. -1.
         11    1    3    3    0    0  0.70847449566E+01 -0.16194143112E+00  0.19765115629E+01  0.73570669662E+01  0.51100000000E-03 0. -1.
        -11    1    3    3    0    0 -0.95549269749E+00 -0.56852682155E-01  0.36596693678E+01  0.37827739379E+01  0.51100000000E-03 0.  1.
         12    1    3    3    0    0 -0.12883296335E+02 -0.33813354332E+02  0.15561935212E+02  0.39389035063E+02  0.00000000000E+00 0. -1.
</event>
<event>
 7    1  0.2639126E-011  0.5052880E+02  0.7816164E-02  0.1300439E+00
        -11   -1    0    0    0    0  0.00000000000E+00  0.00000000000E+00  0.45593999997E+02  0.45594000000E+02  0.51100000000E-03 0. -1.
         11   -1    0    0    0    0 -0.00000000000E+00 -0.00000000000E+00 -0.45593999997E+02  0.45594000000E+02  0.51100000000E-03 0.  1.
    9900012    2    1    2    0    0 -0.24839983030E+02  0.27413464525E+02 -0.16871507707E+02  0.50528799731E+02  0.29999817263E+02 0.  0.
         12    1    1    2    0    0  0.24839983030E+02 -0.27413464525E+02  0.16871507707E+02  0.40659200269E+02  0.00000000000E+00 0. -1.
         11    1    3    3    0    0  0.21386597138E+01  0.10049298024E+02 -0.16119431410E+00  0.10275613851E+02  0.51100000000E-03 0.  1.
        -11    1    3    3    0    0 -0.83905217489E+01 -0.30871855267E+01 -0.49415946356E+01  0.10215230174E+02  0.51100000000E-03 0. -1.
        -12    1    3    3    0    0 -0.18588120995E+02  0.20451352027E+02 -0.11768718757E+02  0.30037955707E+02  0.00000000000E+00 0.  1.
</event>
<event>
 7    1  0.2639126E-011  0.5052888E+02  0.7816164E-02  0.1300439E+00
        -11   -1    0    0    0    0  0.00000000000E+00  0.00000000000E+00  0.45593999997E+02  0.45594000000E+02  0.51100000000E-03 0. -1.
         11   -1    0    0    0    0 -0.00000000000E+00 -0.00000000000E+00 -0.45593999997E+02  0.45594000000E+02  0.51100000000E-03 0.  1.
    9900012    2    1    2    0    0 -0.39940402536E+02 -0.75143256923E+01 -0.12097709253E+01  0.50528875673E+02  0.30000048094E+02 0.  0.
         12    1    1    2    0    0  0.39940402536E+02  0.75143256923E+01  0.12097709253E+01  0.40659124327E+02  0.00000000000E+00 0. -1.
         11    1    3    3    0    0 -0.23784761340E+02 -0.95402351669E+01  0.23583589049E+01  0.25735050340E+02  0.51100000000E-03 0. -1.
        -11    1    3    3    0    0 -0.14514377774E+02 -0.51590283031E+01 -0.66847556928E+01  0.16791923479E+02  0.51100000000E-03 0.  1.
         12    1    3    3    0    0 -0.16412634222E+01  0.71849377777E+01  0.31166258626E+01  0.80019018526E+01  0.00000000000E+00 0. -1.
</event>
<event>
 7    1  0.2639126E-011  0.5052886E+02  0.7816164E-02  0.1300439E+00
        -11   -1    0    0    0    0  0.00000000000E+00  0.00000000000E+00  0.45593999997E+02  0.45594000000E+02  0.51100000000E-03 0.  1.
         11   -1    0    0    0    0 -0.00000000000E+00 -0.00000000000E+00 -0.45593999997E+02  0.45594000000E+02  0.51100000000E-03 0. -1.
    9900012    2    1    2    0    0 -0.18176784150E+02  0.27545867784E+02  0.23748583792E+02  0.50528861468E+02  0.30000004919E+02 0.  0.
         12    1    1    2    0    0  0.18176784150E+02 -0.27545867784E+02 -0.23748583792E+02  0.40659138532E+02  0.00000000000E+00 0. -1.
         11    1    3    3    0    0  0.90441822071E+00 -0.26055406122E+01  0.11205547998E+00  0.27603207951E+01  0.51100000000E-03 0. -1.
        -11    1    3    3    0    0 -0.17039987423E+02  0.80304627876E+01  0.73391683014E+01  0.20216648970E+02  0.51100000000E-03 0.  1.
        -12    1    3    3    0    0 -0.20412149476E+01  0.22120945609E+02  0.16297360011E+02  0.27551891703E+02  0.00000000000E+00 0.  1.
</event>
<event>
 7    1  0.2639126E-011  0.5052885E+02  0.7816164E-02  0.1300439E+00
        -11   -1    0    0    0    0  0.00000000000E+00  0.00000000000E+00  0.45593999997E+02  0.45594000000E+02  0.51100000000E-03 0.  1.
         11   -1    0    0    0    0 -0.00000000000E+00 -0.00000000000E+00 -0.45593999997E+02  0.45594000000E+02  0.51100000000E-03 0. -1.
    9900012    2    1    2    0    0  0.21585451171E+02 -0.32932962859E+02  0.10131865477E+02  0.50528850440E+02  0.29999971396E+02 0.  0.
         12    1    1    2    0    0 -0.21585451171E+02  0.32932962859E+02 -0.10131865477E+02  0.40659149560E+02  0.00000000000E+00 0. -1.
         11    1    3    3    0    0  0.14955905541E+02 -0.10834507674E+02  0.55684915288E+01  0.19289213703E+02  0.51100000000E-03 0. -1.
        -11    1    3    3    0    0  0.97355017151E+01 -0.20294310346E+02  0.10075240572E+02  0.24660687316E+02  0.51100000000E-03 0.  1.
        -12    1    3    3    0    0 -0.31059560859E+01 -0.18041448395E+01 -0.55118666234E+01  0.65789494210E+01  0.00000000000E+00 0.  1.
</event>
<event>
 7    1  0.2639126E-011  0.5052887E+02  0.7816164E-02  0.1300439E+00
        -11   -1    0    0    0    0  0.00000000000E+00  0.00000000000E+00  0.45593999997E+02  0.45594000000E+02  0.51100000000E-03 0.  1.
         11   -1    0    0    0    0 -0.00000000000E+00 -0.00000000000E+00 -0.45593999997E+02  0.45594000000E+02  0.51100000000E-03 0. -1.
    9900012    2    1    2    0    0 -0.15089539642E+02  0.37134478775E+02 -0.68192031154E+01  0.50528865090E+02  0.30000015927E+02 0.  0.
         12    1    1    2    0    0  0.15089539642E+02 -0.37134478775E+02  0.68192031154E+01  0.40659134910E+02  0.00000000000E+00 0. -1.
         11    1    3    3    0    0 -0.60971987449E+00  0.19868970329E+02 -0.10676582961E+02  0.22564067990E+02  0.51100000000E-03 0. -1.
        -11    1    3    3    0    0 -0.55867416730E+01  0.91251171192E+01 -0.61105979786E+01  0.12321479330E+02  0.51100000000E-03 0.  1.
        -12    1    3    3    0    0 -0.88930780950E+01  0.81403913268E+01  0.99679778242E+01  0.15643317770E+02  0.00000000000E+00 0.  1.
</event>
<event>
 7    1  0.2639126E-011  0.5052885E+02  0.7816164E-02  0.1300439E+00
        -11   -1    0    0    0    0  0.00000000000E+00  0.00000000000E+00  0.45593999997E+02  0.45594000000E+02  0.51100000000E-03 0.  1.
         11   -1    0    0    0    0 -0.00000000000E+00 -0.00000000000E+00 -0.45593999997E+02  0.45594000000E+02  0.51100000000E-03 0. -1.
    9900012    2    1    2    0    0 -0.18563592972E+02 -0.24660911380E+02  0.26465052256E+02  0.50528849430E+02  0.29999968328E+02 0.  0.
         12    1    1    2    0    0  0.18563592972E+02  0.24660911380E+02 -0.26465052256E+02  0.40659150570E+02  0.00000000000E+00 0. -1.
         11    1    3    3    0    0 -0.97706073199E+01 -0.18050497066E+01 -0.10670212461E+01  0.99930729230E+01  0.51100000000E-03 0. -1.
        -11    1    3    3    0    0 -0.41872474343E+01  0.16785281661E+01  0.63953094323E+01  0.78262686432E+01  0.51100000000E-03 0.  1.
        -12    1    3    3    0    0 -0.46057382178E+01 -0.24534389840E+02  0.21136764070E+02  0.32709507864E+02  0.00000000000E+00 0.  1.
</event>
<event>
 7    1  0.2639126E-011  0.5052885E+02  0.7816164E-02  0.1300439E+00
        -11   -1    0    0    0    0  0.00000000000E+00  0.00000000000E+00  0.45593999997E+02  0.45594000000E+02  0.51100000000E-03 0.  1.
         11   -1    0    0    0    0 -0.00000000000E+00 -0.00000000000E+00 -0.45593999997E+02  0.45594000000E+02  0.51100000000E-03 0. -1.
    9900012    2    1    2    0    0  0.27864735632E+02 -0.20709310344E+02  0.21162399366E+02  0.50528853751E+02  0.29999981463E+02 0.  0.
         12    1    1    2    0    0 -0.27864735632E+02  0.20709310344E+02 -0.21162399366E+02  0.40659146249E+02  0.00000000000E+00 0. -1.
         11    1    3    3    0    0 -0.10201814569E+01 -0.26695388070E+01  0.13585730384E+02  0.13883057228E+02  0.51100000000E-03 0. -1.
        -11    1    3    3    0    0  0.16442203121E+02 -0.16459197150E+02  0.58097741718E+01  0.23979255419E+02  0.51100000000E-03 0.  1.
        -12    1    3    3    0    0  0.12442713968E+02 -0.15805743867E+01  0.17668948097E+01  0.12666541105E+02  0.00000000000E+00 0.  1.
</event>
<event>
 7    1  0.2639126E-011  0.5052886E+02  0.7816164E-02  0.1300439E+00
        -11   -1    0    0    0    0  0.00000000000E+00  0.00000000000E+00  0.45593999997E+02  0.45594000000E+02  0.51100000000E-03 0. -1.
         11   -1    0    0    0    0 -0.00000000000E+00 -0.00000000000E+00 -0.45593999997E+02  0.45594000000E+02  0.51100000000E-03 0.  1.
    9900012    2    1    2    0    0  0.21918573284E+02  0.33739650566E+02  0.58632339845E+01  0.50528863414E+02  0.30000010833E+02 0.  0.
         12    1    1    2    0    0 -0.21918573284E+02 -0.33739650566E+02 -0.58632339845E+01  0.40659136586E+02  0.00000000000E+00 0. -1.
         11    1    3    3    0    0 -0.16455898725E+01 -0.32330754746E+01 -0.18861962901E+01  0.40888237623E+01  0.51100000000E-03 0. -1.
        -11    1    3    3    0    0  0.30471272924E+01  0.24705505642E+01  0.47873493079E+01  0.61892906285E+01  0.51100000000E-03 0.  1.
        -12    1    3    3    0    0  0.20517035864E+02  0.34502175477E+02  0.29620809667E+01  0.40250749023E+02  0.00000000000E+00 0.  1.
</event>
<event>
 7    1  0.2639126E-011  0.5052886E+02  0.7816164E-02  0.1300439E+00
        -11   -1    0    0    0    0  0.00000000000E+00  0.00000000000E+00  0.45593999997E+02  0.45594000000E+02  0.51100000000E-03 0. -1.
         11   -1    0    0    0    0 -0.00000000000E+00 -0.00000000000E+00 -0.45593999997E+02  0.45594000000E+02  0.51100000000E-03 0.  1.
    9900012    2    1    2    0    0  0.31992309864E+02  0.10117556257E+02 -0.22962856152E+02  0.50528860834E+02  0.30000002990E+02 0.  0.
         12    1    1    2    0    0 -0.31992309864E+02 -0.10117556257E+02  0.22962856152E+02  0.40659139166E+02  0.00000000000E+00 0. -1.
         11    1    3    3    0    0 -0.94011647513E+00  0.64600932952E+01 -0.37444269333E+01  0.75257795403E+01  0.51100000000E-03 0. -1.
        -11    1    3    3    0    0  0.49099646285E+01  0.70348924027E+01 -0.10294831555E+02  0.13400784334E+02  0.51100000000E-03 0.  1.
         12    1    3    3    0    0  0.28022461711E+02 -0.33774294406E+01 -0.89235976641E+01  0.29602296959E+02  0.00000000000E+00 0. -1.
</event>
<event>
 7    1  0.2639126E-011  0.5052886E+02  0.7816164E-02  0.1300439E+00
        -11   -1    0    0    0    0  0.00000000000E+00  0.00000000000E+00  0.45593999997E+02  0.45594000000E+02  0.51100000000E-03 0.  1.
         11   -1    0    0    0    0 -0.00000000000E+00 -0.00000000000E+00 -0.45593999997E+02  0.45594000000E+02  0.51100000000E-03 0. -1.
    9900012    2    1    2    0    0 -0.38084387261E+02  0.11968865748E+02  0.77130720591E+01  0.50528858581E+02  0.29999996143E+02 0.  0.
         12    1    1    2    0    0  0.38084387261E+02 -0.11968865748E+02 -0.77130720591E+01  0.40659141419E+02  0.00000000000E+00 0. -1.
         11    1    3    3    0    0 -0.11717742197E+02 -0.31370760907E+01 -0.34525841839E+01  0.12612179288E+02  0.51100000000E-03 0. -1.
        -11    1    3    3    0    0 -0.23840221023E+02  0.47104379642E+01  0.30566039163E+01  0.24492594636E+02  0.51100000000E-03 0.  1.
         12    1    3    3    0    0 -0.25264240412E+01  0.10395503874E+02  0.81090523267E+01  0.13424084657E+02  0.00000000000E+00 0. -1.
</event>
<event>
 7    1  0.2639126E-011  0.5052887E+02  0.7816164E-02  0.1300439E+00
        -11   -1    0    0    0    0  0.00000000000E+00  0.00000000000E+00  0.45593999997E+02  0.45594000000E+02  0.51100000000E-03 0.  1.
         11   -1    0    0    0    0 -0.00000000000E+00 -0.00000000000E+00 -0.45593999997E+02  0.45594000000E+02  0.51100000000E-03 0. -1.
    9900012    2    1    2    0    0 -0.23712819677E+02  0.29006806098E+02  0.15794684742E+02  0.50528872081E+02  0.30000037177E+02 0.  0.
         12    1    1    2    0    0  0.23712819677E+02 -0.29006806098E+02 -0.15794684742E+02  0.40659127919E+02  0.00000000000E+00 0. -1.
         11    1    3    3    0    0 -0.76546255320E+00 -0.13284236685E+01  0.76717016198E+01  0.78234038863E+01  0.51100000000E-03 0.  1.
        -11    1    3    3    0    0 -0.45915915044E+01  0.45645759054E+01 -0.52699319969E+01  0.83480685942E+01  0.51100000000E-03 0. -1.
        -12    1    3    3    0    0 -0.18355765620E+02  0.25770653861E+02  0.13392915119E+02  0.34357399600E+02  0.00000000000E+00 0.  1.
</event>
<event>
 7    1  0.2639126E-011  0.5052886E+02  0.7816164E-02  0.1300439E+00
        -11   -1    0    0    0    0  0.00000000000E+00  0.00000000000E+00  0.45593999997E+02  0.45594000000E+02  0.51100000000E-03 0.  1.
         11   -1    0    0    0    0 -0.00000000000E+00 -0.00000000000E+00 -0.45593999997E+02  0.45594000000E+02  0.51100000000E-03 0. -1.
    9900012    2    1    2    0    0 -0.23703088884E+02  0.33594047876E+01  0.32864015320E+02  0.50528861714E+02  0.30000005667E+02 0.  0.
         12    1    1    2    0    0  0.23703088884E+02 -0.33594047876E+01 -0.32864015320E+02  0.40659138286E+02  0.00000000000E+00 0. -1.
         11    1    3    3    0    0 -0.63451122842E+01  0.67224653966E+01 -0.90002280770E+00  0.92877355810E+01  0.51100000000E-03 0. -1.
        -11    1    3    3    0    0 -0.99972228234E+01  0.44291079832E+01  0.25371456534E+02  0.27627382587E+02  0.51100000000E-03 0.  1.
        -12    1    3    3    0    0 -0.73607537769E+01 -0.77921685921E+01  0.83925815941E+01  0.13613743546E+02  0.00000000000E+00 0.  1.
</event>
<event>
 7    1  0.2639126E-011  0.5052887E+02  0.7816164E-02  0.1300439E+00
        -11   -1    0    0    0    0  0.00000000000E+00  0.00000000000E+00  0.45593999997E+02  0.45594000000E+02  0.51100000000E-03 0. -1.
         11   -1    0    0    0    0 -0.00000000000E+00 -0.00000000000E+00 -0.45593999997E+02  0.45594000000E+02  0.51100000000E-03 0.  1.
    9900012    2    1    2    0    0 -0.38588752365E+02 -0.11870895973E+02  0.48119445564E+01  0.50528870758E+02  0.30000033156E+02 0.  0.
         12    1    1    2    0    0  0.38588752365E+02  0.11870895973E+02 -0.48119445564E+01  0.40659129242E+02  0.00000000000E+00 0. -1.
         11    1    3    3    0    0 -0.18169914041E+02 -0.11487469369E+02  0.24870199129E+01  0.21640078490E+02  0.51100000000E-03 0. -1.
        -11    1    3    3    0    0 -0.23577110961E+02  0.96018240923E+00 -0.16292254546E+01  0.23652832544E+02  0.51100000000E-03 0.  1.
         12    1    3    3    0    0  0.31582726365E+01 -0.13436090135E+01  0.39541500981E+01  0.52359597235E+01  0.00000000000E+00 0. -1.
</event>
<event>
 7    1  0.2639126E-011  0.5052885E+02  0.7816164E-02  0.1300439E+00
        -11   -1    0    0    0    0  0.00000000000E+00  0.00000000000E+00  0.45593999997E+02  0.45594000000E+02  0.51100000000E-03 0.  1.
         11   -1    0    0    0    0 -0.00000000000E+00 -0.00000000000E+00 -0.45593999997E+02  0.45594000000E+02  0.51100000000E-03 0. -1.
    9900012    2    1    2    0    0  0.18410440982E+02  0.14448267920E+02  0.33248605858E+02  0.50528848822E+02  0.29999966479E+02 0.  0.
         12    1    1    2    0    0 -0.18410440982E+02 -0.14448267920E+02 -0.33248605858E+02  0.40659151178E+02  0.00000000000E+00 0. -1.
         11    1    3    3    0    0  0.28755450360E+01 -0.28615063945E+01  0.20082630462E+01  0.45265990350E+01  0.51100000000E-03 0. -1.
        -11    1    3    3    0    0 -0.49213212014E+00 -0.25403536843E+01 -0.25694977878E+01  0.36466299522E+01  0.51100000000E-03 0.  1.
        -12    1    3    3    0    0  0.16027028066E+02  0.19850127999E+02  0.33809840599E+02  0.42355619835E+02  0.00000000000E+00 0.  1.
</event>
<event>
 7    1  0.2639126E-011  0.5052886E+02  0.7816164E-02  0.1300439E+00
        -11   -1    0    0    0    0  0.00000000000E+00  0.00000000000E+00  0.45593999997E+02  0.45594000000E+02  0.51100000000E-03 0.  1.
         11   -1    0    0    0    0 -0.00000000000E+00 -0.00000000000E+00 -0.45593999997E+02  0.45594000000E+02  0.51100000000E-03 0. -1.
    9900012    2    1    2    0    0 -0.18386518623E+02 -0.93440712558E+01  0.35039838989E+02  0.50528855259E+02  0.29999986044E+02 0.  0.
         12    1    1    2    0    0  0.18386518623E+02  0.93440712558E+01 -0.35039838989E+02  0.40659144741E+02  0.00000000000E+00 0. -1.
         11    1    3    3    0    0 -0.12909151144E+02 -0.69026287690E+01  0.18144536412E+02  0.23313443955E+02  0.51100000000E-03 0. -1.
        -11    1    3    3    0    0  0.15006189527E+01  0.51563783357E+01  0.15980780456E+02  0.16858986892E+02  0.51100000000E-03 0.  1.
         12    1    3    3    0    0 -0.69779864314E+01 -0.75978208226E+01  0.91452212168E+00  0.10356424412E+02  0.00000000000E+00 0. -1.
</event>
<event>
 7    1  0.2639126E-011  0.5052886E+02  0.7816164E-02  0.1300439E+00
        -11   -1    0    0    0    0  0.00000000000E+00  0.00000000000E+00  0.45593999997E+02  0.45594000000E+02  0.51100000000E-03 0.  1.
         11   -1    0    0    0    0 -0.00000000000E+00 -0.00000000000E+00 -0.45593999997E+02  0.45594000000E+02  0.51100000000E-03 0. -1.
    9900012    2    1    2    0    0  0.66799206345E+01 -0.34983481017E+02  0.19613783410E+02  0.50528858551E+02  0.29999996051E+02 0.  0.
         12    1    1    2    0    0 -0.66799206345E+01  0.34983481017E+02 -0.19613783410E+02  0.40659141449E+02  0.00000000000E+00 0. -1.
         11    1    3    3    0    0  0.11042317335E+02 -0.99179490602E+01  0.76473254974E+01  0.16696708455E+02  0.51100000000E-03 0.  1.
        -11    1    3    3    0    0  0.38334334974E+01  0.12837947787E+01  0.17847973891E+01  0.44191450977E+01  0.51100000000E-03 0. -1.
         12    1    3    3    0    0 -0.81958301980E+01 -0.26349326735E+02  0.10181660524E+02  0.29413004999E+02  0.00000000000E+00 0. -1.
</event>
<event>
 7    1  0.2639126E-011  0.5052885E+02  0.7816164E-02  0.1300439E+00
        -11   -1    0    0    0    0  0.00000000000E+00  0.00000000000E+00  0.45593999997E+02  0.45594000000E+02  0.51100000000E-03 0. -1.
         11   -1    0    0    0    0 -0.00000000000E+00 -0.00000000000E+00 -0.45593999997E+02  0.45594000000E+02  0.51100000000E-03 0.  1.
    9900012    2    1    2    0    0 -0.32088526091E+02 -0.19131720049E+02 -0.16045867430E+02  0.50528854899E+02  0.29999984952E+02 0.  0.
         12    1    1    2    0    0  0.32088526091E+02  0.19131720049E+02  0.16045867430E+02  0.40659145101E+02  0.00000000000E+00 0. -1.
         11    1    3    3    0    0 -0.23044469164E+02 -0.21918376907E+02 -0.14729276675E+02  0.35048743157E+02  0.51100000000E-03 0. -1.
        -11    1    3    3    0    0 -0.47867133232E+01 -0.47567548732E+01 -0.25112024187E+00  0.67529551308E+01  0.51100000000E-03 0.  1.
         12    1    3    3    0    0 -0.42573436036E+01  0.75434117309E+01 -0.10654705134E+01  0.87271566112E+01  0.00000000000E+00 0. -1.
</event>
<event>
 7    1  0.2639126E-011  0.5052886E+02  0.7816164E-02  0.1300439E+00
        -11   -1    0    0    0    0  0.00000000000E+00  0.00000000000E+00  0.45593999997E+02  0.45594000000E+02  0.51100000000E-03 0. -1.
         11   -1    0    0    0    0 -0.00000000000E+00 -0.00000000000E+00 -0.45593999997E+02  0.45594000000E+02  0.51100000000E-03 0.  1.
    9900012    2    1    2    0    0 -0.49647004239E+01  0.29369242463E+02  0.27676076724E+02  0.50528857412E+02  0.29999992591E+02 0.  0.
         12    1    1    2    0    0  0.49647004239E+01 -0.29369242463E+02 -0.27676076724E+02  0.40659142588E+02  0.00000000000E+00 0. -1.
         11    1    3    3    0    0  0.63505197562E+01 -0.22100158392E+01  0.12262924753E+01  0.68349882721E+01  0.51100000000E-03 0. -1.
        -11    1    3    3    0    0  0.22482866642E+00  0.47500893469E+01  0.79698389195E+00  0.48217300129E+01  0.51100000000E-03 0.  1.
        -12    1    3    3    0    0 -0.11540048847E+02  0.26829168955E+02  0.25652800357E+02  0.38872139127E+02  0.00000000000E+00 0.  1.
</event>
<event>
 7    1  0.2639126E-011  0.5052885E+02  0.7816164E-02  0.1300439E+00
        -11   -1    0    0    0    0  0.00000000000E+00  0.00000000000E+00  0.45593999997E+02  0.45594000000E+02  0.51100000000E-03 0.  1.
         11   -1    0    0    0    0 -0.00000000000E+00 -0.00000000000E+00 -0.45593999997E+02  0.45594000000E+02  0.51100000000E-03 0. -1.
    9900012    2    1    2    0    0 -0.67960894074E+01 -0.38624684670E+00  0.40085290333E+02  0.50528849506E+02  0.29999968558E+02 0.  0.
         12    1    1    2    0    0  0.67960894074E+01  0.38624684670E+00 -0.40085290333E+02  0.40659150494E+02  0.00000000000E+00 0. -1.
         11    1    3    3    0    0  0.28073280116E+01 -0.12345056896E+02  0.11766497791E+02  0.17283865044E+02  0.51100000000E-03 0. -1.
        -11    1    3    3    0    0  0.35133302192E+00  0.55808763122E+01  0.90161321322E+01  0.10609441747E+02  0.51100000000E-03 0.  1.
        -12    1    3    3    0    0 -0.99547504410E+01  0.63779337371E+01  0.19302660409E+02  0.22635542714E+02  0.00000000000E+00 0.  1.
</event>
<event>
 7    1  0.2639126E-011  0.5052886E+02  0.7816164E-02  0.1300439E+00
        -11   -1    0    0    0    0  0.00000000000E+00  0.00000000000E+00  0.45593999997E+02  0.45594000000E+02  0.51100000000E-03 0.  1.
         11   -1    0    0    0    0 -0.00000000000E+00 -0.00000000000E+00 -0.45593999997E+02  0.45594000000E+02  0.51100000000E-03 0. -1.
    9900012    2    1    2    0    0  0.22496249518E+02 -0.30761211493E+02  0.14171521426E+02  0.50528863334E+02  0.30000010589E+02 0.  0.
         12    1    1    2    0    0 -0.22496249518E+02  0.30761211493E+02 -0.14171521426E+02  0.40659136666E+02  0.00000000000E+00 0. -1.
         11    1    3    3    0    0  0.19470182143E+02 -0.51625293739E+01  0.85416945301E+01  0.21879219545E+02  0.51100000000E-03 0. -1.
        -11    1    3    3    0    0  0.43680517673E+01 -0.39772820440E+01  0.35378592995E+01  0.68858621380E+01  0.51100000000E-03 0.  1.
        -12    1    3    3    0    0 -0.13419843915E+01 -0.21621400075E+02  0.20919675967E+01  0.21763781651E+02  0.00000000000E+00 0.  1.
</event>
<event>
 7    1  0.2639126E-011  0.5052886E+02  0.7816164E-02  0.1300439E+00
        -11   -1    0    0    0    0  0.00000000000E+00  0.00000000000E+00  0.45593999997E+02  0.45594000000E+02  0.51100000000E-03 0.  1.
         11   -1    0    0    0    0 -0.00000000000E+00 -0.00000000000E+00 -0.45593999997E+02  0.45594000000E+02  0.51100000000E-03 0. -1.
    9900012    2    1    2    0    0 -0.14683739994E+01  0.13659066369E+02  0.38267998142E+02  0.50528857141E+02  0.29999991766E+02 0.  0.
         12    1    1    2    0    0  0.14683739994E+01 -0.13659066369E+02 -0.38267998142E+02  0.40659142859E+02  0.00000000000E+00 0. -1.
         11    1    3    3    0    0  0.34095264845E+01  0.35463533494E+01 -0.88630174646E+00  0.49987022289E+01  0.51100000000E-03 0. -1.
        -11    1    3    3    0    0 -0.34381564283E+01  0.98837119023E+01  0.54582657777E+01  0.11802599127E+02  0.51100000000E-03 0.  1.
        -12    1    3    3    0    0 -0.14397440556E+01  0.22900111700E+00  0.33696034110E+02  0.33727555785E+02  0.00000000000E+00 0.  1.
</event>
<event>
 7    1  0.2639126E-011  0.5052886E+02  0.7816164E-02  0.1300439E+00
        -11   -1    0    0    0    0  0.00000000000E+00  0.00000000000E+00  0.45593999997E+02  0.45594000000E+02  0.51100000000E-03 0.  1.
         11   -1    0    0    0    0 -0.00000000000E+00 -0.00000000000E+00 -0.45593999997E+02  0.45594000000E+02  0.51100000000E-03 0. -1.
    9900012    2    1    2    0    0 -0.26428192289E+02 -0.17070784207E+02  0.25754696653E+02  0.50528863010E+02  0.30000009607E+02 0.  0.
         12    1    1    2    0    0  0.26428192289E+02  0.17070784207E+02 -0.25754696653E+02  0.40659136990E+02  0.00000000000E+00 0. -1.
         11    1    3    3    0    0 -0.96495791634E+01 -0.90701550372E+00  0.16726281730E+01  0.98353820679E+01  0.51100000000E-03 0. -1.
        -11    1    3    3    0    0 -0.19173570786E+02 -0.14118686435E+02  0.92724668290E+01  0.25552725191E+02  0.51100000000E-03 0.  1.
        -12    1    3    3    0    0  0.23949576608E+01 -0.20450822678E+01  0.14809601650E+02  0.15140755751E+02  0.00000000000E+00 0.  1.
</event>
<event>
 7    1  0.2639126E-011  0.5052886E+02  0.7816164E-02  0.1300439E+00
        -11   -1    0    0    0    0  0.00000000000E+00  0.00000000000E+00  0.45593999997E+02  0.45594000000E+02  0.51100000000E-03 0.  1.
         11   -1    0    0    0    0 -0.00000000000E+00 -0.00000000000E+00 -0.45593999997E+02  0.45594000000E+02  0.51100000000E-03 0. -1.
    9900012    2    1    2    0    0  0.17844275605E+02  0.24973210583E+02  0.26666203121E+02  0.50528858253E+02  0.29999995146E+02 0.  0.
         12    1    1    2    0    0 -0.17844275605E+02 -0.24973210583E+02 -0.26666203121E+02  0.40659141747E+02  0.00000000000E+00 0. -1.
         11    1    3    3    0    0  0.56437983067E+00  0.69367563366E+01  0.11564211734E+02  0.13496966561E+02  0.51100000000E-03 0. -1.
        -11    1    3    3    0    0  0.22081445849E+02  0.18586379026E+02  0.11815251322E+02  0.31187239380E+02  0.51100000000E-03 0.  1.
         12    1    3    3    0    0 -0.48015500753E+01 -0.54992477935E+00  0.32867400658E+01  0.58446523121E+01  0.00000000000E+00 0. -1.
</event>
<event>
 7    1  0.2639126E-011  0.5052886E+02  0.7816164E-02  0.1300439E+00
        -11   -1    0    0    0    0  0.00000000000E+00  0.00000000000E+00  0.45593999997E+02  0.45594000000E+02  0.51100000000E-03 0.  1.
         11   -1    0    0    0    0 -0.00000000000E+00 -0.00000000000E+00 -0.45593999997E+02  0.45594000000E+02  0.51100000000E-03 0. -1.
    9900012    2    1    2    0    0  0.27836983474E+02  0.24627414428E+02  0.16485095647E+02  0.50528861189E+02  0.30000004071E+02 0.  0.
         12    1    1    2    0    0 -0.27836983474E+02 -0.24627414428E+02 -0.16485095647E+02  0.40659138811E+02  0.00000000000E+00 0. -1.
         11    1    3    3    0    0  0.85867291313E+01  0.14960663302E+02 -0.38185075687E+01  0.17667324753E+02  0.51100000000E-03 0. -1.
        -11    1    3    3    0    0  0.68638632381E+01  0.76935139669E+01  0.17373340619E+01  0.10455673370E+02  0.51100000000E-03 0.  1.
         12    1    3    3    0    0  0.12386391105E+02  0.19732371594E+01  0.18566269153E+02  0.22405863067E+02  0.00000000000E+00 0. -1.
</event>
<event>
 7    1  0.2639126E-011  0.5052886E+02  0.7816164E-02  0.1300439E+00
        -11   -1    0    0    0    0  0.00000000000E+00  0.00000000000E+00  0.45593999997E+02  0.45594000000E+02  0.51100000000E-03 0.  1.
         11   -1    0    0    0    0 -0.00000000000E+00 -0.00000000000E+00 -0.45593999997E+02  0.45594000000E+02  0.51100000000E-03 0. -1.
    9900012    2    1    2    0    0  0.37939174998E+02 -0.37050158986E+01  0.14144162127E+02  0.50528862471E+02  0.30000007967E+02 0.  0.
         12    1    1    2    0    0 -0.37939174998E+02  0.37050158986E+01 -0.14144162127E+02  0.40659137529E+02  0.00000000000E+00 0. -1.
         11    1    3    3    0    0  0.86860240703E+01 -0.54927992303E+01  0.88950927249E+00  0.10315477911E+02  0.51100000000E-03 0. -1.
        -11    1    3    3    0    0  0.33346495521E+02  0.19500844629E+01  0.96834369728E+01  0.34778736964E+02  0.51100000000E-03 0.  1.
         12    1    3    3    0    0 -0.40933445932E+01 -0.16230113125E+00  0.35712158817E+01  0.54346475957E+01  0.00000000000E+00 0. -1.
</event>
<event>
 7    1  0.2639126E-011  0.5052887E+02  0.7816164E-02  0.1300439E+00
        -11   -1    0    0    0    0  0.00000000000E+00  0.00000000000E+00  0.45593999997E+02  0.45594000000E+02  0.51100000000E-03 0.  1.
         11   -1    0    0    0    0 -0.00000000000E+00 -0.00000000000E+00 -0.45593999997E+02  0.45594000000E+02  0.51100000000E-03 0. -1.
    9900012    2    1    2    0    0  0.46993103956E+00 -0.37964661874E+02  0.14547465133E+02  0.50528866608E+02  0.30000020542E+02 0.  0.
         12    1    1    2    0    0 -0.46993103956E+00  0.37964661874E+02 -0.14547465133E+02  0.40659133392E+02  0.00000000000E+00 0. -1.
         11    1    3    3    0    0 -0.81040712255E+01 -0.66568742516E+01  0.28184028318E+01  0.10859711783E+02  0.51100000000E-03 0. -1.
        -11    1    3    3    0    0 -0.10946253654E+01 -0.27187015000E+02  0.10152416614E+02  0.29041410996E+02  0.51100000000E-03 0.  1.
        -12    1    3    3    0    0  0.96686276305E+01 -0.41207726225E+01  0.15766456873E+01  0.10627743829E+02  0.00000000000E+00 0.  1.
</event>
<event>
 7    1  0.2639126E-011  0.5052890E+02  0.7816164E-02  0.1300439E+00
        -11   -1    0    0    0    0  0.00000000000E+00  0.00000000000E+00  0.45593999997E+02  0.45594000000E+02  0.51100000000E-03 0. -1.
         11   -1    0    0    0    0 -0.00000000000E+00 -0.00000000000E+00 -0.45593999997E+02  0.45594000000E+02  0.51100000000E-03 0.  1.
    9900012    2    1    2    0    0 -0.37805196904E+02  0.54689849381E+01 -0.13929100812E+02  0.50528898207E+02  0.30000116589E+02 0.  0.
         12    1    1    2    0    0  0.37805196904E+02 -0.54689849381E+01  0.13929100812E+02  0.40659101793E+02  0.00000000000E+00 0. -1.
         11    1    3    3    0    0 -0.13208294024E+02  0.58261565859E+01  0.45626990971E+01  0.15140057956E+02  0.51100000000E-03 0. -1.
        -11    1    3    3    0    0 -0.15039343797E+02  0.83563676113E+01 -0.11395120148E+02  0.20636363657E+02  0.51100000000E-03 0.  1.
         12    1    3    3    0    0 -0.95575590827E+01 -0.87135392591E+01 -0.70966797607E+01  0.14752476594E+02  0.00000000000E+00 0. -1.
</event>
<event>
 7    1  0.2639126E-011  0.5052885E+02  0.7816164E-02  0.1300439E+00
        -11   -1    0    0    0    0  0.00000000000E+00  0.00000000000E+00  0.45593999997E+02  0.45594000000E+02  0.51100000000E-03 0. -1.
         11   -1    0    0    0    0 -0.00000000000E+00 -0.00000000000E+00 -0.45593999997E+02  0.45594000000E+02  0.51100000000E-03 0.  1.
    9900012    2    1    2    0    0 -0.24764159522E+02 -0.71950352480E+01 -0.31434606376E+02  0.50528848422E+02  0.29999965264E+02 0.  0.
         12    1    1    2    0    0  0.24764159522E+02  0.71950352480E+01  0.31434606376E+02  0.40659151578E+02  0.00000000000E+00 0. -1.
         11    1    3    3    0    0  0.54692011106E+00  0.29441062998E+01 -0.59923227059E+01  0.66988667090E+01  0.51100000000E-03 0. -1.
        -11    1    3    3    0    0 -0.14981956789E+02 -0.16998643453E+02 -0.20245172522E+02  0.30385521539E+02  0.51100000000E-03 0.  1.
         12    1    3    3    0    0 -0.10329122844E+02  0.68595019049E+01 -0.51971111474E+01  0.13444460175E+02  0.00000000000E+00 0. -1.
</event>
<event>
 7    1  0.2639126E-011  0.5052885E+02  0.7816164E-02  0.1300439E+00
        -11   -1    0    0    0    0  0.00000000000E+00  0.00000000000E+00  0.45593999997E+02  0.45594000000E+02  0.51100000000E-03 0.  1.
         11   -1    0    0    0    0 -0.00000000000E+00 -0.00000000000E+00 -0.45593999997E+02  0.45594000000E+02  0.51100000000E-03 0. -1.
    9900012    2    1    2    0    0 -0.50813877041E+00 -0.32293134947E+02  0.24699426538E+02  0.50528850464E+02  0.29999971470E+02 0.  0.
         12    1    1    2    0    0  0.50813877041E+00  0.32293134947E+02 -0.24699426538E+02  0.40659149536E+02  0.00000000000E+00 0. -1.
         11    1    3    3    0    0  0.12739026091E+01 -0.21390428864E+02  0.75810729522E+01  0.22729846947E+02  0.51100000000E-03 0. -1.
        -11    1    3    3    0    0 -0.91896144512E+01 -0.76061739119E+01  0.43972495179E+01  0.12713720892E+02  0.51100000000E-03 0.  1.
         12    1    3    3    0    0  0.74075730718E+01 -0.32965321707E+01  0.12721104068E+02  0.15085282625E+02  0.00000000000E+00 0. -1.
</event>
<event>
 7    1  0.2639126E-011  0.5052886E+02  0.7816164E-02  0.1300439E+00
        -11   -1    0    0    0    0  0.00000000000E+00  0.00000000000E+00  0.45593999997E+02  0.45594000000E+02  0.51100000000E-03 0. -1.
         11   -1    0    0    0    0 -0.00000000000E+00 -0.00000000000E+00 -0.45593999997E+02  0.45594000000E+02  0.51100000000E-03 0.  1.
    9900012    2    1    2    0    0 -0.34682872061E+02 -0.20438901530E+02  0.57022521727E+01  0.50528856011E+02  0.29999988330E+02 0.  0.
         12    1    1    2    0    0  0.34682872061E+02  0.20438901530E+02 -0.57022521727E+01  0.40659143989E+02  0.00000000000E+00 0. -1.
         11    1    3    3    0    0  0.68760717034E+00 -0.97950513572E+01  0.29576178177E+01  0.10254917753E+02  0.51100000000E-03 0. -1.
        -11    1    3    3    0    0 -0.21565049104E+01 -0.53923141904E+01  0.32270492507E+01  0.66439004270E+01  0.51100000000E-03 0.  1.
        -12    1    3    3    0    0 -0.33213974321E+02 -0.52515359821E+01 -0.48241489571E+00  0.33630037830E+02  0.00000000000E+00 0.  1.
</event>
<event>
 7    1  0.2639126E-011  0.5052886E+02  0.7816164E-02  0.1300439E+00
        -11   -1    0    0    0    0  0.00000000000E+00  0.00000000000E+00  0.45593999997E+02  0.45594000000E+02  0.51100000000E-03 0. -1.
         11   -1    0    0    0    0 -0.00000000000E+00 -0.00000000000E+00 -0.45593999997E+02  0.45594000000E+02  0.51100000000E-03 0.  1.
    9900012    2    1    2    0    0  0.34383653537E+02 -0.10956326340E+02  0.18732028485E+02  0.50528860700E+02  0.30000002585E+02 0.  0.
         12    1    1    2    0    0 -0.34383653537E+02  0.10956326340E+02 -0.18732028485E+02  0.40659139300E+02  0.00000000000E+00 0. -1.
         11    1    3    3    0    0  0.15882299693E+02 -0.77121637636E+00  0.11116397896E+02  0.19401456664E+02  0.51100000000E-03 0. -1.
        -11    1    3    3    0    0  0.71900440312E+01  0.65529777128E+01  0.43777812078E+01  0.10667859140E+02  0.51100000000E-03 0.  1.
         12    1    3    3    0    0  0.11311309813E+02 -0.16738087676E+02  0.32378493813E+01  0.20459544896E+02  0.00000000000E+00 0. -1.
</event>
<event>
 7    1  0.2639126E-011  0.5052886E+02  0.7816164E-02  0.1300439E+00
        -11   -1    0    0    0    0  0.00000000000E+00  0.00000000000E+00  0.45593999997E+02  0.45594000000E+02  0.51100000000E-03 0. -1.
         11   -1    0    0    0    0 -0.00000000000E+00 -0.00000000000E+00 -0.45593999997E+02  0.45594000000E+02  0.51100000000E-03 0.  1.
    9900012    2    1    2    0    0 -0.18623045474E+02  0.21776698815E+02 -0.28846546363E+02  0.50528859932E+02  0.30000000249E+02 0.  0.
         12    1    1    2    0    0  0.18623045474E+02 -0.21776698815E+02  0.28846546363E+02  0.40659140068E+02  0.00000000000E+00 0. -1.
         11    1    3    3    0    0 -0.50528172204E+01  0.71224723733E+01 -0.76415765818E+01  0.11604062542E+02  0.51100000000E-03 0. -1.
        -11    1    3    3    0    0 -0.11287770979E+02  0.20665090915E+02 -0.91498402123E+01  0.25262211549E+02  0.51100000000E-03 0.  1.
         12    1    3    3    0    0 -0.22824572752E+01 -0.60108644728E+01 -0.12055129569E+02  0.13662585840E+02  0.00000000000E+00 0. -1.
</event>
<event>
 7    1  0.2639126E-011  0.5052885E+02  0.7816164E-02  0.1300439E+00
        -11   -1    0    0    0    0  0.00000000000E+00  0.00000000000E+00  0.45593999997E+02  0.45594000000E+02  0.51100000000E-03 0.  1.
         11   -1    0    0    0    0 -0.00000000000E+00 -0.00000000000E+00 -0.45593999997E+02  0.45594000000E+02  0.51100000000E-03 0. -1.
    9900012    2    1    2    0    0  0.22867363311E+02 -0.46318061878E+01  0.33298592191E+02  0.50528853732E+02  0.29999981402E+02 0.  0.
         12    1    1    2    0    0 -0.22867363311E+02  0.46318061878E+01 -0.33298592191E+02  0.40659146268E+02  0.00000000000E+00 0. -1.
         11    1    3    3    0    0  0.26456287522E+02 -0.30060101424E+01  0.31953661149E+02  0.41593361339E+02  0.51100000000E-03 0. -1.
        -11    1    3    3    0    0  0.65425013094E+00 -0.20255241149E+01  0.35482127240E+01  0.41377052782E+01  0.51100000000E-03 0.  1.
         12    1    3    3    0    0 -0.42431743420E+01  0.39972806956E+00 -0.22032816813E+01  0.47977871142E+01  0.00000000000E+00 0. -1.
</event>
<event>
 7    1  0.2639126E-011  0.5052885E+02  0.7816164E-02  0.1300439E+00
        -11   -1    0    0    0    0  0.00000000000E+00  0.00000000000E+00  0.45593999997E+02  0.45594000000E+02  0.51100000000E-03 0.  1.
         11   -1    0    0    0    0 -0.00000000000E+00 -0.00000000000E+00 -0.45593999997E+02  0.45594000000E+02  0.51100000000E-03 0. -1.
    9900012    2    1    2    0    0  0.22110364123E+02 -0.33612285703E+02  0.58747326523E+01  0.50528850531E+02  0.29999971674E+02 0.  0.
         12    1    1    2    0    0 -0.22110364123E+02  0.33612285703E+02 -0.58747326523E+01  0.40659149469E+02  0.00000000000E+00 0. -1.
         11    1    3    3    0    0  0.15186447770E+02 -0.33066261362E+02 -0.36392988732E+01  0.36568433558E+02  0.51100000000E-03 0. -1.
        -11    1    3    3    0    0  0.42799413149E+00  0.11233927701E+01  0.64948791973E+01  0.66051984331E+01  0.51100000000E-03 0.  1.
        -12    1    3    3    0    0  0.64959222210E+01 -0.16694171115E+01  0.30191523283E+01  0.73552185402E+01  0.00000000000E+00 0.  1.
</event>
<event>
 7    1  0.2639126E-011  0.5052884E+02  0.7816164E-02  0.1300439E+00
        -11   -1    0    0    0    0  0.00000000000E+00  0.00000000000E+00  0.45593999997E+02  0.45594000000E+02  0.51100000000E-03 0.  1.
         11   -1    0    0    0    0 -0.00000000000E+00 -0.00000000000E+00 -0.45593999997E+02  0.45594000000E+02  0.51100000000E-03 0. -1.
    9900012    2    1    2    0    0 -0.96518185631E+01 -0.12522975648E+02  0.37459103642E+02  0.50528844004E+02  0.29999951835E+02 0.  0.
         12    1    1    2    0    0  0.96518185631E+01  0.12522975648E+02 -0.37459103642E+02  0.40659155996E+02  0.00000000000E+00 0. -1.
         11    1    3    3    0    0  0.45359355832E+01  0.49000212797E+01  0.48653993511E+01  0.82617813614E+01  0.51100000000E-03 0. -1.
        -11    1    3    3    0    0 -0.80224466097E+01 -0.44887358136E+01  0.35003947606E+01  0.98367251944E+01  0.51100000000E-03 0.  1.
        -12    1    3    3    0    0 -0.61653075366E+01 -0.12934261114E+02  0.29093309530E+02  0.32430337448E+02  0.00000000000E+00 0.  1.
</event>
<event>
 7    1  0.2639126E-011  0.5052887E+02  0.7816164E-02  0.1300439E+00
        -11   -1    0    0    0    0  0.00000000000E+00  0.00000000000E+00  0.45593999997E+02  0.45594000000E+02  0.51100000000E-03 0.  1.
         11   -1    0    0    0    0 -0.00000000000E+00 -0.00000000000E+00 -0.45593999997E+02  0.45594000000E+02  0.51100000000E-03 0. -1.
    9900012    2    1    2    0    0 -0.49766042283E+01  0.27168646501E+02  0.29837274133E+02  0.50528869782E+02  0.30000030190E+02 0.  0.
         12    1    1    2    0    0  0.49766042283E+01 -0.27168646501E+02 -0.29837274133E+02  0.40659130218E+02  0.00000000000E+00 0. -1.
         11    1    3    3    0    0 -0.29455427915E+01  0.25866731461E+02  0.30571097645E+02  0.40154153338E+02  0.51100000000E-03 0. -1.
        -11    1    3    3    0    0 -0.34929471852E+01  0.18268347915E+01  0.38650822754E+01  0.55205857163E+01  0.51100000000E-03 0.  1.
         12    1    3    3    0    0  0.14618857484E+01 -0.52491975116E+00 -0.45989057872E+01  0.48541307282E+01  0.00000000000E+00 0. -1.
</event>
<event>
 7    1  0.2639126E-011  0.5052886E+02  0.7816164E-02  0.1300439E+00
        -11   -1    0    0    0    0  0.00000000000E+00  0.00000000000E+00  0.45593999997E+02  0.45594000000E+02  0.51100000000E-03 0.  1.
         11   -1    0    0    0    0 -0.00000000000E+00 -0.00000000000E+00 -0.45593999997E+02  0.45594000000E+02  0.51100000000E-03 0. -1.
    9900012    2    1    2    0    0 -0.13144500355E+02 -0.22804317582E+02  0.30989530096E+02  0.50528858771E+02  0.29999996719E+02 0.  0.
         12    1    1    2    0    0  0.13144500355E+02  0.22804317582E+02 -0.30989530096E+02  0.40659141229E+02  0.00000000000E+00 0. -1.
         11    1    3    3    0    0  0.28460814296E+01 -0.35615943792E+01 -0.14748925960E+00  0.45614567157E+01  0.51100000000E-03 0. -1.
        -11    1    3    3    0    0  0.39543981760E+01  0.18867898036E+01  0.66783544120E+01  0.79873436517E+01  0.51100000000E-03 0.  1.
        -12    1    3    3    0    0 -0.19944979960E+02 -0.21129513006E+02  0.24458664943E+02  0.37980058403E+02  0.00000000000E+00 0.  1.
</event>
<event>
 7    1  0.2639126E-011  0.5052887E+02  0.7816164E-02  0.1300439E+00
        -11   -1    0    0    0    0  0.00000000000E+00  0.00000000000E+00  0.45593999997E+02  0.45594000000E+02  0.51100000000E-03 0. -1.
         11   -1    0    0    0    0 -0.00000000000E+00 -0.00000000000E+00 -0.45593999997E+02  0.45594000000E+02  0.51100000000E-03 0.  1.
    9900012    2    1    2    0    0  0.19619138019E+02  0.35089339129E+02 -0.60821657328E+01  0.50528867728E+02  0.30000023945E+02 0.  0.
         12    1    1    2    0    0 -0.19619138019E+02 -0.35089339129E+02  0.60821657328E+01  0.40659132272E+02  0.00000000000E+00 0. -1.
         11    1    3    3    0    0 -0.40496148858E+01  0.21161362601E+02 -0.55946653871E+01  0.22259895079E+02  0.51100000000E-03 0. -1.
        -11    1    3    3    0    0  0.78182761912E+01  0.56279930018E+01 -0.32460625675E+01  0.10165464588E+02  0.51100000000E-03 0.  1.
        -12    1    3    3    0    0  0.15850476713E+02  0.82999835264E+01  0.27585622219E+01  0.18103508061E+02  0.00000000000E+00 0.  1.
</event>
<event>
 7    1  0.2639126E-011  0.5052886E+02  0.7816164E-02  0.1300439E+00
        -11   -1    0    0    0    0  0.00000000000E+00  0.00000000000E+00  0.45593999997E+02  0.45594000000E+02  0.51100000000E-03 0.  1.
         11   -1    0    0    0    0 -0.00000000000E+00 -0.00000000000E+00 -0.45593999997E+02  0.45594000000E+02  0.51100000000E-03 0. -1.
    9900012    2    1    2    0    0 -0.17563632180E+02  0.30460960691E+01  0.36543206441E+02  0.50528858179E+02  0.29999994920E+02 0.  0.
         12    1    1    2    0    0  0.17563632180E+02 -0.30460960691E+01 -0.36543206441E+02  0.40659141821E+02  0.00000000000E+00 0. -1.
         11    1    3    3    0    0 -0.95118773521E+01  0.51850571962E+01  0.22506788488E+02  0.24978313738E+02  0.51100000000E-03 0. -1.
        -11    1    3    3    0    0 -0.82534871176E+01 -0.45978098089E+01  0.18316936199E+02  0.20609950427E+02  0.51100000000E-03 0.  1.
         12    1    3    3    0    0  0.20173228929E+00  0.24588486818E+01 -0.42805182456E+01  0.49405940136E+01  0.00000000000E+00 0. -1.
</event>
<event>
 7    1  0.2639126E-011  0.5052886E+02  0.7816164E-02  0.1300439E+00
        -11   -1    0    0    0    0  0.00000000000E+00  0.00000000000E+00  0.45593999997E+02  0.45594000000E+02  0.51100000000E-03 0. -1.
         11   -1    0    0    0    0 -0.00000000000E+00 -0.00000000000E+00 -0.45593999997E+02  0.45594000000E+02  0.51100000000E-03 0.  1.
    9900012    2    1    2    0    0 -0.26437974746E+01 -0.29737423816E+02 -0.27601837428E+02  0.50528862408E+02  0.30000007776E+02 0.  0.
         12    1    1    2    0    0  0.26437974746E+01  0.29737423816E+02  0.27601837428E+02  0.40659137592E+02  0.00000000000E+00 0. -1.
         11    1    3    3    0    0 -0.26633089641E+01 -0.21037743057E+01 -0.41254567488E+01  0.53421413885E+01  0.51100000000E-03 0. -1.
        -11    1    3    3    0    0 -0.50360090065E+01  0.39022977722E+01 -0.19191001898E+01  0.66537403328E+01  0.51100000000E-03 0.  1.
         12    1    3    3    0    0  0.50555204961E+01 -0.31535947282E+02 -0.21557280490E+02  0.38532980687E+02  0.00000000000E+00 0. -1.
</event>
<event>
 7    1  0.2639126E-011  0.5052888E+02  0.7816164E-02  0.1300439E+00
        -11   -1    0    0    0    0  0.00000000000E+00  0.00000000000E+00  0.45593999997E+02  0.45594000000E+02  0.51100000000E-03 0.  1.
         11   -1    0    0    0    0 -0.00000000000E+00 -0.00000000000E+00 -0.45593999997E+02  0.45594000000E+02  0.51100000000E-03 0. -1.
    9900012    2    1    2    0    0 -0.58422240453E+01 -0.36328747730E+02  0.17298967788E+02  0.50528883188E+02  0.30000070937E+02 0.  0.
         12    1    1    2    0    0  0.58422240453E+01  0.36328747730E+02 -0.17298967788E+02  0.40659116812E+02  0.00000000000E+00 0. -1.
         11    1    3    3    0    0  0.21547733988E+01 -0.15166605516E+01  0.92114652924E+01  0.95809394488E+01  0.51100000000E-03 0.  1.
        -11    1    3    3    0    0  0.28551041943E+01 -0.21703017122E+02 -0.47923990703E+00  0.21895256183E+02  0.51100000000E-03 0. -1.
         12    1    3    3    0    0 -0.10852101638E+02 -0.13109070056E+02  0.85667424025E+01  0.19052687556E+02  0.00000000000E+00 0. -1.
</event>
<event>
 7    1  0.2639126E-011  0.5052886E+02  0.7816164E-02  0.1300439E+00
        -11   -1    0    0    0    0  0.00000000000E+00  0.00000000000E+00  0.45593999997E+02  0.45594000000E+02  0.51100000000E-03 0. -1.
         11   -1    0    0    0    0 -0.00000000000E+00 -0.00000000000E+00 -0.45593999997E+02  0.45594000000E+02  0.51100000000E-03 0.  1.
    9900012    2    1    2    0    0 -0.66024344845E+01  0.30356982198E+02 -0.26230270478E+02  0.50528860822E+02  0.30000002956E+02 0.  0.
         12    1    1    2    0    0  0.66024344845E+01 -0.30356982198E+02  0.26230270478E+02  0.40659139178E+02  0.00000000000E+00 0. -1.
         11    1    3    3    0    0 -0.81141939314E+01  0.12154601987E+02 -0.13217131022E+02  0.19704493024E+02  0.51100000000E-03 0.  1.
        -11    1    3    3    0    0 -0.66972564498E+01  0.12611601937E+02 -0.14984273752E+02  0.20698652312E+02  0.51100000000E-03 0. -1.
         12    1    3    3    0    0  0.82090158967E+01  0.55907782743E+01  0.19711342961E+01  0.10125715487E+02  0.00000000000E+00 0. -1.
</event>
<event>
 7    1  0.2639126E-011  0.5052886E+02  0.7816164E-02  0.1300439E+00
        -11   -1    0    0    0    0  0.00000000000E+00  0.00000000000E+00  0.45593999997E+02  0.45594000000E+02  0.51100000000E-03 0.  1.
         11   -1    0    0    0    0 -0.00000000000E+00 -0.00000000000E+00 -0.45593999997E+02  0.45594000000E+02  0.51100000000E-03 0. -1.
    9900012    2    1    2    0    0 -0.17228727701E+02 -0.30282385716E+02  0.20959813606E+02  0.50528859216E+02  0.29999998074E+02 0.  0.
         12    1    1    2    0    0  0.17228727701E+02  0.30282385716E+02 -0.20959813606E+02  0.40659140784E+02  0.00000000000E+00 0. -1.
         11    1    3    3    0    0 -0.49635109486E+01 -0.12697112686E+02 -0.23462281040E+01  0.13833217199E+02  0.51100000000E-03 0. -1.
        -11    1    3    3    0    0 -0.11385314361E+02 -0.14248240744E+02  0.62280199685E+01  0.19272415012E+02  0.51100000000E-03 0.  1.
        -12    1    3    3    0    0 -0.87990239188E+00 -0.33370322864E+01  0.17078021742E+02  0.17423227006E+02  0.00000000000E+00 0.  1.
</event>
<event>
 7    1  0.2639126E-011  0.5052884E+02  0.7816164E-02  0.1300439E+00
        -11   -1    0    0    0    0  0.00000000000E+00  0.00000000000E+00  0.45593999997E+02  0.45594000000E+02  0.51100000000E-03 0.  1.
         11   -1    0    0    0    0 -0.00000000000E+00 -0.00000000000E+00 -0.45593999997E+02  0.45594000000E+02  0.51100000000E-03 0. -1.
    9900012    2    1    2    0    0  0.53286148831E+01  0.18479503378E+02  0.35822911809E+02  0.50528841227E+02  0.29999943393E+02 0.  0.
         12    1    1    2    0    0 -0.53286148831E+01 -0.18479503378E+02 -0.35822911809E+02  0.40659158773E+02  0.00000000000E+00 0. -1.
         11    1    3    3    0    0 -0.88400699365E+01  0.27657157560E+01  0.98071635934E+01  0.13489865757E+02  0.51100000000E-03 0. -1.
        -11    1    3    3    0    0 -0.18310293266E+01  0.87049924464E+01  0.89401293503E+01  0.12611719746E+02  0.51100000000E-03 0.  1.
         12    1    3    3    0    0  0.15999714146E+02  0.70087951751E+01  0.17075618866E+02  0.24427255724E+02  0.00000000000E+00 0. -1.
</event>
<event>
 7    1  0.2639126E-011  0.5052887E+02  0.7816164E-02  0.1300439E+00
        -11   -1    0    0    0    0  0.00000000000E+00  0.00000000000E+00  0.45593999997E+02  0.45594000000E+02  0.51100000000E-03 0.  1.
         11   -1    0    0    0    0 -0.00000000000E+00 -0.00000000000E+00 -0.45593999997E+02  0.45594000000E+02  0.51100000000E-03 0. -1.
    9900012    2    1    2    0    0  0.39606111602E+02  0.65465654738E+01 -0.64547359133E+01  0.50528865585E+02  0.30000017431E+02 0.  0.
         12    1    1    2    0    0 -0.39606111602E+02 -0.65465654738E+01  0.64547359133E+01  0.40659134415E+02  0.00000000000E+00 0. -1.
         11    1    3    3    0    0  0.25712788937E+01  0.50408628086E+01 -0.78557965548E+01  0.96816998908E+01  0.51100000000E-03 0. -1.
        -11    1    3    3    0    0  0.23366491889E+02  0.20833651713E+01 -0.73780036151E+01  0.24592037151E+02  0.51100000000E-03 0.  1.
        -12    1    3    3    0    0  0.13668340819E+02 -0.57766250610E+00  0.87790642567E+01  0.16255128542E+02  0.00000000000E+00 0.  1.
</event>
<event>
 7    1  0.2639126E-011  0.5052886E+02  0.7816164E-02  0.1300439E+00
        -11   -1    0    0    0    0  0.00000000000E+00  0.00000000000E+00  0.45593999997E+02  0.45594000000E+02  0.51100000000E-03 0. -1.
         11   -1    0    0    0    0 -0.00000000000E+00 -0.00000000000E+00 -0.45593999997E+02  0.45594000000E+02  0.51100000000E-03 0.  1.
    9900012    2    1    2    0    0 -0.31972598298E+02  0.14268960399E+02  0.20671616663E+02  0.50528855785E+02  0.29999987645E+02 0.  0.
         12    1    1    2    0    0  0.31972598298E+02 -0.14268960399E+02 -0.20671616663E+02  0.40659144215E+02  0.00000000000E+00 0. -1.
         11    1    3    3    0    0  0.91102728572E+00  0.19923650412E+01  0.11580799695E+00  0.21938324744E+01  0.51100000000E-03 0. -1.
        -11    1    3    3    0    0 -0.15329518212E+02  0.98375417429E+01 -0.34069732657E+01  0.18530483622E+02  0.51100000000E-03 0.  1.
         12    1    3    3    0    0 -0.17554107372E+02  0.24390536149E+01  0.23962781932E+02  0.29804539689E+02  0.00000000000E+00 0. -1.
</event>
<event>
 7    1  0.2639126E-011  0.5052886E+02  0.7816164E-02  0.1300439E+00
        -11   -1    0    0    0    0  0.00000000000E+00  0.00000000000E+00  0.45593999997E+02  0.45594000000E+02  0.51100000000E-03 0.  1.
         11   -1    0    0    0    0 -0.00000000000E+00 -0.00000000000E+00 -0.45593999997E+02  0.45594000000E+02  0.51100000000E-03 0. -1.
    9900012    2    1    2    0    0  0.22926356263E+02  0.22176303203E+01  0.33505670574E+02  0.50528860113E+02  0.30000000798E+02 0.  0.
         12    1    1    2    0    0 -0.22926356263E+02 -0.22176303203E+01 -0.33505670574E+02  0.40659139887E+02  0.00000000000E+00 0. -1.
         11    1    3    3    0    0  0.41314297885E+01 -0.10070881675E+01  0.91701357050E+01  0.10108131765E+02  0.51100000000E-03 0. -1.
        -11    1    3    3    0    0  0.22420174100E+02  0.34321476976E+01  0.27470117118E+02  0.35623744598E+02  0.51100000000E-03 0.  1.
         12    1    3    3    0    0 -0.36252476252E+01 -0.20742920986E+00 -0.31345822480E+01  0.47969837493E+01  0.00000000000E+00 0. -1.
</event>
<event>
 7    1  0.2639126E-011  0.5052881E+02  0.7816164E-02  0.1300439E+00
        -11   -1    0    0    0    0  0.00000000000E+00  0.00000000000E+00  0.45593999997E+02  0.45594000000E+02  0.51100000000E-03 0.  1.
         11   -1    0    0    0    0 -0.00000000000E+00 -0.00000000000E+00 -0.45593999997E+02  0.45594000000E+02  0.51100000000E-03 0. -1.
    9900012    2    1    2    0    0 -0.13345150312E+02 -0.35701700448E+02  0.14158583553E+02  0.50528807436E+02  0.29999840681E+02 0.  0.
         12    1    1    2    0    0  0.13345150312E+02  0.35701700448E+02 -0.14158583553E+02  0.40659192564E+02  0.00000000000E+00 0. -1.
         11    1    3    3    0    0 -0.12932544138E+02 -0.58529387279E+01  0.39354442875E+01  0.14730760728E+02  0.51100000000E-03 0. -1.
        -11    1    3    3    0    0 -0.86271471756E+01 -0.14024946973E+02  0.44284347732E+01  0.17051036355E+02  0.51100000000E-03 0.  1.
         12    1    3    3    0    0  0.82145410007E+01 -0.15823814748E+02  0.57947044923E+01  0.18747010353E+02  0.00000000000E+00 0. -1.
</event>
<event>
 7    1  0.2639126E-011  0.5052893E+02  0.7816164E-02  0.1300439E+00
        -11   -1    0    0    0    0  0.00000000000E+00  0.00000000000E+00  0.45593999997E+02  0.45594000000E+02  0.51100000000E-03 0.  1.
         11   -1    0    0    0    0 -0.00000000000E+00 -0.00000000000E+00 -0.45593999997E+02  0.45594000000E+02  0.51100000000E-03 0. -1.
    9900012    2    1    2    0    0  0.36455462144E+02  0.15587027088E+02  0.90113073438E+01  0.50528932209E+02  0.30000219942E+02 0.  0.
         12    1    1    2    0    0 -0.36455462144E+02 -0.15587027088E+02 -0.90113073438E+01  0.40659067791E+02  0.00000000000E+00 0. -1.
         11    1    3    3    0    0  0.27285314536E+02  0.10508036065E+02  0.48378584444E+01  0.29636330506E+02  0.51100000000E-03 0. -1.
        -11    1    3    3    0    0  0.12247316617E+02  0.76225078395E+01  0.69670465015E+01  0.16019960277E+02  0.51100000000E-03 0.  1.
         12    1    3    3    0    0 -0.30771690086E+01 -0.25435168161E+01 -0.27935976021E+01  0.48726414257E+01  0.00000000000E+00 0. -1.
</event>
<event>
 7    1  0.2639126E-011  0.5052884E+02  0.7816164E-02  0.1300439E+00
        -11   -1    0    0    0    0  0.00000000000E+00  0.00000000000E+00  0.45593999997E+02  0.45594000000E+02  0.51100000000E-03 0.  1.
         11   -1    0    0    0    0 -0.00000000000E+00 -0.00000000000E+00 -0.45593999997E+02  0.45594000000E+02  0.51100000000E-03 0. -1.
    9900012    2    1    2    0    0  0.20124707857E+02 -0.56515540694E+01  0.34874396183E+02  0.50528838193E+02  0.29999934172E+02 0.  0.
         12    1    1    2    0    0 -0.20124707857E+02  0.56515540694E+01 -0.34874396183E+02  0.40659161807E+02  0.00000000000E+00 0. -1.
         11    1    3    3    0    0  0.63160268961E+01 -0.97516960042E+01  0.27448168295E+01  0.11938249051E+02  0.51100000000E-03 0. -1.
        -11    1    3    3    0    0 -0.13413461938E+01  0.10532612781E+01 -0.10402239341E+01  0.19976573845E+01  0.51100000000E-03 0.  1.
        -12    1    3    3    0    0  0.15150027155E+02  0.30468806566E+01  0.33169803287E+02  0.36592931758E+02  0.00000000000E+00 0.  1.
</event>
<event>
 7    1  0.2639126E-011  0.5052886E+02  0.7816164E-02  0.1300439E+00
        -11   -1    0    0    0    0  0.00000000000E+00  0.00000000000E+00  0.45593999997E+02  0.45594000000E+02  0.51100000000E-03 0. -1.
         11   -1    0    0    0    0 -0.00000000000E+00 -0.00000000000E+00 -0.45593999997E+02  0.45594000000E+02  0.51100000000E-03 0.  1.
    9900012    2    1    2    0    0  0.15695453600E+02 -0.37291821353E+02 -0.40172559009E+01  0.50528861439E+02  0.30000004830E+02 0.  0.
         12    1    1    2    0    0 -0.15695453600E+02  0.37291821353E+02  0.40172559009E+01  0.40659138561E+02  0.00000000000E+00 0. -1.
         11    1    3    3    0    0  0.48006898444E+01 -0.71131180160E+00 -0.41942913879E+00  0.48711916946E+01  0.51100000000E-03 0. -1.
        -11    1    3    3    0    0  0.55671469810E+01 -0.31877416940E+02 -0.12125487277E+02  0.34557058299E+02  0.51100000000E-03 0.  1.
         12    1    3    3    0    0  0.53276167750E+01 -0.47030926113E+01  0.85276605148E+01  0.11100611446E+02  0.00000000000E+00 0. -1.
</event>
<event>
 7    1  0.2639126E-011  0.5052885E+02  0.7816164E-02  0.1300439E+00
        -11   -1    0    0    0    0  0.00000000000E+00  0.00000000000E+00  0.45593999997E+02  0.45594000000E+02  0.51100000000E-03 0. -1.
         11   -1    0    0    0    0 -0.00000000000E+00 -0.00000000000E+00 -0.45593999997E+02  0.45594000000E+02  0.51100000000E-03 0.  1.
    9900012    2    1    2    0    0 -0.12430599440E+01  0.51287053338E+01 -0.40315225567E+02  0.50528853072E+02  0.29999979398E+02 0.  0.
         12    1    1    2    0    0  0.12430599440E+01 -0.51287053338E+01  0.40315225567E+02  0.40659146928E+02  0.00000000000E+00 0. -1.
         11    1    3    3    0    0 -0.49737905030E+01 -0.50876064490E+01 -0.25813896897E+01  0.75687452289E+01  0.51100000000E-03 0. -1.
        -11    1    3    3    0    0 -0.49508359122E+01 -0.19807049662E+01 -0.72658709111E+01  0.90125938969E+01  0.51100000000E-03 0.  1.
        -12    1    3    3    0    0  0.86815664712E+01  0.12197016749E+02 -0.30467964966E+02  0.33947513946E+02  0.00000000000E+00 0.  1.
</event>
<event>
 7    1  0.2639126E-011  0.5052886E+02  0.7816164E-02  0.1300439E+00
        -11   -1    0    0    0    0  0.00000000000E+00  0.00000000000E+00  0.45593999997E+02  0.45594000000E+02  0.51100000000E-03 0.  1.
         11   -1    0    0    0    0 -0.00000000000E+00 -0.00000000000E+00 -0.45593999997E+02  0.45594000000E+02  0.51100000000E-03 0. -1.
    9900012    2    1    2    0    0 -0.27293471875E+02 -0.83577621196E+00  0.30125298743E+02  0.50528858922E+02  0.29999997179E+02 0.  0.
         12    1    1    2    0    0  0.27293471875E+02  0.83577621196E+00 -0.30125298743E+02  0.40659141078E+02  0.00000000000E+00 0. -1.
         11    1    3    3    0    0  0.19337727103E+01 -0.32562257275E+01  0.37837918051E+01  0.53534627643E+01  0.51100000000E-03 0.  1.
        -11    1    3    3    0    0  0.30370264147E+01 -0.37997451203E+00 -0.51393042044E+00  0.31035519669E+01  0.51100000000E-03 0. -1.
        -12    1    3    3    0    0 -0.32264271000E+02  0.28004240275E+01  0.26855437358E+02  0.42071844191E+02  0.00000000000E+00 0.  1.
</event>
<event>
 7    1  0.2639126E-011  0.5052886E+02  0.7816164E-02  0.1300439E+00
        -11   -1    0    0    0    0  0.00000000000E+00  0.00000000000E+00  0.45593999997E+02  0.45594000000E+02  0.51100000000E-03 0. -1.
         11   -1    0    0    0    0 -0.00000000000E+00 -0.00000000000E+00 -0.45593999997E+02  0.45594000000E+02  0.51100000000E-03 0.  1.
    9900012    2    1    2    0    0  0.18536715290E+02 -0.34501692741E+02 -0.10917367558E+02  0.50528861665E+02  0.30000005517E+02 0.  0.
         12    1    1    2    0    0 -0.18536715290E+02  0.34501692741E+02  0.10917367558E+02  0.40659138335E+02  0.00000000000E+00 0. -1.
         11    1    3    3    0    0  0.18266479217E+01 -0.39019051150E+01 -0.42425887108E+01  0.60465746821E+01  0.51100000000E-03 0.  1.
        -11    1    3    3    0    0  0.19963049315E+02 -0.92996111783E+01 -0.63978972121E+01  0.22933364233E+02  0.51100000000E-03 0. -1.
         12    1    3    3    0    0 -0.32529819465E+01 -0.21300176448E+02 -0.27688163471E+00  0.21548922750E+02  0.00000000000E+00 0. -1.
</event>
<event>
 7    1  0.2639126E-011  0.5052882E+02  0.7816164E-02  0.1300439E+00
        -11   -1    0    0    0    0  0.00000000000E+00  0.00000000000E+00  0.45593999997E+02  0.45594000000E+02  0.51100000000E-03 0. -1.
         11   -1    0    0    0    0 -0.00000000000E+00 -0.00000000000E+00 -0.45593999997E+02  0.45594000000E+02  0.51100000000E-03 0.  1.
    9900012    2    1    2    0    0  0.21966537768E+02 -0.10849701493E+01  0.34197410054E+02  0.50528821502E+02  0.29999883438E+02 0.  0.
         12    1    1    2    0    0 -0.21966537768E+02  0.10849701493E+01 -0.34197410054E+02  0.40659178498E+02  0.00000000000E+00 0. -1.
         11    1    3    3    0    0 -0.24549799848E+01  0.28550485251E+01 -0.18057177825E+01  0.41759844082E+01  0.51100000000E-03 0. -1.
        -11    1    3    3    0    0  0.60241594688E+01 -0.76546626817E+01  0.17314720875E+02  0.19866653400E+02  0.51100000000E-03 0.  1.
        -12    1    3    3    0    0  0.18397358284E+02  0.37146440073E+01  0.18688406961E+02  0.26486183694E+02  0.00000000000E+00 0.  1.
</event>
<event>
 7    1  0.2639126E-011  0.5052885E+02  0.7816164E-02  0.1300439E+00
        -11   -1    0    0    0    0  0.00000000000E+00  0.00000000000E+00  0.45593999997E+02  0.45594000000E+02  0.51100000000E-03 0.  1.
         11   -1    0    0    0    0 -0.00000000000E+00 -0.00000000000E+00 -0.45593999997E+02  0.45594000000E+02  0.51100000000E-03 0. -1.
    9900012    2    1    2    0    0 -0.11184687917E+02  0.37179942291E+02 -0.12071491429E+02  0.50528852715E+02  0.29999978313E+02 0.  0.
         12    1    1    2    0    0  0.11184687917E+02 -0.37179942291E+02  0.12071491429E+02  0.40659147285E+02  0.00000000000E+00 0. -1.
         11    1    3    3    0    0  0.12933058044E+01 -0.11798591533E+00 -0.28385090532E+01  0.31214891456E+01  0.51100000000E-03 0. -1.
        -11    1    3    3    0    0 -0.17048024133E+02  0.20531007392E+02  0.19241803021E+01  0.26755557581E+02  0.51100000000E-03 0.  1.
         12    1    3    3    0    0  0.45700304111E+01  0.16766920814E+02 -0.11157162678E+02  0.20651805988E+02  0.00000000000E+00 0. -1.
</event>
<event>
 7    1  0.2639126E-011  0.5052882E+02  0.7816164E-02  0.1300439E+00
        -11   -1    0    0    0    0  0.00000000000E+00  0.00000000000E+00  0.45593999997E+02  0.45594000000E+02  0.51100000000E-03 0. -1.
         11   -1    0    0    0    0 -0.00000000000E+00 -0.00000000000E+00 -0.45593999997E+02  0.45594000000E+02  0.51100000000E-03 0.  1.
    9900012    2    1    2    0    0  0.95191519834E+01  0.46230589110E+01 -0.39257893464E+02  0.50528817428E+02  0.29999871054E+02 0.  0.
         12    1    1    2    0    0 -0.95191519834E+01 -0.46230589110E+01  0.39257893464E+02  0.40659182572E+02  0.00000000000E+00 0. -1.
         11    1    3    3    0    0  0.69792565362E+00 -0.26529546964E+01 -0.31751056429E+01  0.41960177483E+01  0.51100000000E-03 0. -1.
        -11    1    3    3    0    0  0.13589873257E+02 -0.34748409849E+01 -0.86361286511E+01  0.16472458631E+02  0.51100000000E-03 0.  1.
         12    1    3    3    0    0 -0.47686469268E+01  0.10750854592E+02 -0.27446659170E+02  0.29860341049E+02  0.00000000000E+00 0. -1.
</event>
<event>
 7    1  0.2639126E-011  0.5052886E+02  0.7816164E-02  0.1300439E+00
        -11   -1    0    0    0    0  0.00000000000E+00  0.00000000000E+00  0.45593999997E+02  0.45594000000E+02  0.51100000000E-03 0. -1.
         11   -1    0    0    0    0 -0.00000000000E+00 -0.00000000000E+00 -0.45593999997E+02  0.45594000000E+02  0.51100000000E-03 0.  1.
    9900012    2    1    2    0    0 -0.26740367181E+02  0.14130002704E+02 -0.27174641796E+02  0.50528863633E+02  0.30000011497E+02 0.  0.
         12    1    1    2    0    0  0.26740367181E+02 -0.14130002704E+02  0.27174641796E+02  0.40659136367E+02  0.00000000000E+00 0. -1.
         11    1    3    3    0    0 -0.44255642151E+01 -0.12232780199E+01  0.13796593949E+01  0.47943183084E+01  0.51100000000E-03 0. -1.
        -11    1    3    3    0    0 -0.26009008805E+02  0.15790779466E+02 -0.28943064996E+02  0.41994264689E+02  0.51100000000E-03 0.  1.
         12    1    3    3    0    0  0.36942058390E+01 -0.43749874171E+00  0.38876380556E+00  0.37402806347E+01  0.00000000000E+00 0. -1.
</event>
<event>
 7    1  0.2639126E-011  0.5052886E+02  0.7816164E-02  0.1300439E+00
        -11   -1    0    0    0    0  0.00000000000E+00  0.00000000000E+00  0.45593999997E+02  0.45594000000E+02  0.51100000000E-03 0.  1.
         11   -1    0    0    0    0 -0.00000000000E+00 -0.00000000000E+00 -0.45593999997E+02  0.45594000000E+02  0.51100000000E-03 0. -1.
    9900012    2    1    2    0    0  0.37853640030E+02 -0.11976959649E+02  0.87646924946E+01  0.50528862522E+02  0.30000008121E+02 0.  0.
         12    1    1    2    0    0 -0.37853640030E+02  0.11976959649E+02 -0.87646924946E+01  0.40659137478E+02  0.00000000000E+00 0. -1.
         11    1    3    3    0    0  0.27448414672E+01 -0.12288381295E+02 -0.20529877977E+00  0.12592879630E+02  0.51100000000E-03 0. -1.
        -11    1    3    3    0    0  0.13688423932E+02 -0.44796016826E+01  0.50806460206E+00  0.14411728240E+02  0.51100000000E-03 0.  1.
        -12    1    3    3    0    0  0.21420374631E+02  0.47910233286E+01  0.84619266724E+01  0.23524254651E+02  0.00000000000E+00 0.  1.
</event>
<event>
 7    1  0.2639126E-011  0.5052889E+02  0.7816164E-02  0.1300439E+00
        -11   -1    0    0    0    0  0.00000000000E+00  0.00000000000E+00  0.45593999997E+02  0.45594000000E+02  0.51100000000E-03 0.  1.
         11   -1    0    0    0    0 -0.00000000000E+00 -0.00000000000E+00 -0.45593999997E+02  0.45594000000E+02  0.51100000000E-03 0. -1.
    9900012    2    1    2    0    0 -0.23227842361E+02 -0.23210505106E+02 -0.23977132005E+02  0.50528891953E+02  0.30000097580E+02 0.  0.
         12    1    1    2    0    0  0.23227842361E+02  0.23210505106E+02  0.23977132005E+02  0.40659108047E+02  0.00000000000E+00 0. -1.
         11    1    3    3    0    0 -0.64669451820E+01 -0.21990079289E+01  0.46738270603E+00  0.68465657605E+01  0.51100000000E-03 0. -1.
        -11    1    3    3    0    0 -0.17642585271E+01  0.21268168457E+01  0.34766878317E+01  0.44410940754E+01  0.51100000000E-03 0.  1.
         12    1    3    3    0    0 -0.14996638652E+02 -0.23138314023E+02 -0.27921202542E+02  0.39241232117E+02  0.00000000000E+00 0. -1.
</event>
<event>
 7    1  0.2639126E-011  0.5052887E+02  0.7816164E-02  0.1300439E+00
        -11   -1    0    0    0    0  0.00000000000E+00  0.00000000000E+00  0.45593999997E+02  0.45594000000E+02  0.51100000000E-03 0.  1.
         11   -1    0    0    0    0 -0.00000000000E+00 -0.00000000000E+00 -0.45593999997E+02  0.45594000000E+02  0.51100000000E-03 0. -1.
    9900012    2    1    2    0    0 -0.13425702781E+02  0.38374785941E+02 -0.53988383965E+00  0.50528866147E+02  0.30000019140E+02 0.  0.
         12    1    1    2    0    0  0.13425702781E+02 -0.38374785941E+02  0.53988383965E+00  0.40659133853E+02  0.00000000000E+00 0. -1.
         11    1    3    3    0    0  0.51197353094E+00  0.44409493541E+01  0.41041270280E+01  0.60686083236E+01  0.51100000000E-03 0. -1.
        -11    1    3    3    0    0 -0.82806727208E+01  0.17820810836E+02  0.99230974707E+01  0.22014056946E+02  0.51100000000E-03 0.  1.
        -12    1    3    3    0    0 -0.56570035909E+01  0.16113025750E+02 -0.14567108338E+02  0.22446200877E+02  0.00000000000E+00 0.  1.
</event>
<event>
 7    1  0.2639126E-011  0.5052886E+02  0.7816164E-02  0.1300439E+00
        -11   -1    0    0    0    0  0.00000000000E+00  0.00000000000E+00  0.45593999997E+02  0.45594000000E+02  0.51100000000E-03 0. -1.
         11   -1    0    0    0    0 -0.00000000000E+00 -0.00000000000E+00 -0.45593999997E+02  0.45594000000E+02  0.51100000000E-03 0.  1.
    9900012    2    1    2    0    0  0.33158347504E+02 -0.11470514756E+02 -0.20545480715E+02  0.50528862088E+02  0.30000006802E+02 0.  0.
         12    1    1    2    0    0 -0.33158347504E+02  0.11470514756E+02  0.20545480715E+02  0.40659137912E+02  0.00000000000E+00 0. -1.
         11    1    3    3    0    0  0.22080047089E+01  0.21905033940E+01 -0.41204651007E+01  0.51625403457E+01  0.51100000000E-03 0.  1.
        -11    1    3    3    0    0 -0.33324678473E+01  0.22844733405E+01 -0.36838139772E+01  0.54675996631E+01  0.51100000000E-03 0. -1.
         12    1    3    3    0    0  0.34282810642E+02 -0.15945491490E+02 -0.12741201637E+02  0.39898722079E+02  0.00000000000E+00 0. -1.
</event>
<event>
 7    1  0.2639126E-011  0.5052886E+02  0.7816164E-02  0.1300439E+00
        -11   -1    0    0    0    0  0.00000000000E+00  0.00000000000E+00  0.45593999997E+02  0.45594000000E+02  0.51100000000E-03 0.  1.
         11   -1    0    0    0    0 -0.00000000000E+00 -0.00000000000E+00 -0.45593999997E+02  0.45594000000E+02  0.51100000000E-03 0. -1.
    9900012    2    1    2    0    0 -0.94452612165E+01 -0.12681151574E+02  0.37458521650E+02  0.50528863156E+02  0.30000010050E+02 0.  0.
         12    1    1    2    0    0  0.94452612165E+01  0.12681151574E+02 -0.37458521650E+02  0.40659136844E+02  0.00000000000E+00 0. -1.
         11    1    3    3    0    0  0.25010765487E+01 -0.60413014681E+01  0.25813512194E+00  0.65436489311E+01  0.51100000000E-03 0.  1.
        -11    1    3    3    0    0  0.14532228707E+01  0.45494480853E+01  0.15008018071E+02  0.15749601306E+02  0.51100000000E-03 0. -1.
        -12    1    3    3    0    0 -0.13399560636E+02 -0.11189298191E+02  0.22192368456E+02  0.28235612920E+02  0.00000000000E+00 0.  1.
</event>
<event>
 7    1  0.2639126E-011  0.5052883E+02  0.7816164E-02  0.1300439E+00
        -11   -1    0    0    0    0  0.00000000000E+00  0.00000000000E+00  0.45593999997E+02  0.45594000000E+02  0.51100000000E-03 0. -1.
         11   -1    0    0    0    0 -0.00000000000E+00 -0.00000000000E+00 -0.45593999997E+02  0.45594000000E+02  0.51100000000E-03 0.  1.
    9900012    2    1    2    0    0  0.51878231001E+01 -0.19532984457E+02 -0.35280546110E+02  0.50528832225E+02  0.29999916031E+02 0.  0.
         12    1    1    2    0    0 -0.51878231001E+01  0.19532984457E+02  0.35280546110E+02  0.40659167775E+02  0.00000000000E+00 0. -1.
         11    1    3    3    0    0  0.29481185739E+01 -0.16041592959E+01 -0.12452503536E+02  0.12896882366E+02  0.51100000000E-03 0. -1.
        -11    1    3    3    0    0 -0.34217460571E+01  0.25628990484E+01 -0.13954993065E+02  0.14595157735E+02  0.51100000000E-03 0.  1.
         12    1    3    3    0    0  0.56614505833E+01 -0.20491724210E+02 -0.88730495087E+01  0.23036792124E+02  0.00000000000E+00 0. -1.
</event>
<event>
 7    1  0.2639126E-011  0.5052891E+02  0.7816164E-02  0.1300439E+00
        -11   -1    0    0    0    0  0.00000000000E+00  0.00000000000E+00  0.45593999997E+02  0.45594000000E+02  0.51100000000E-03 0.  1.
         11   -1    0    0    0    0 -0.00000000000E+00 -0.00000000000E+00 -0.45593999997E+02  0.45594000000E+02  0.51100000000E-03 0. -1.
    9900012    2    1    2    0    0 -0.91917272356E+01  0.20177382986E+02  0.34081479028E+02  0.50528906965E+02  0.30000143210E+02 0.  0.
         12    1    1    2    0    0  0.91917272356E+01 -0.20177382986E+02 -0.34081479028E+02  0.40659093035E+02  0.00000000000E+00 0. -1.
         11    1    3    3    0    0  0.32914006799E+01  0.12473959285E+02  0.99420971962E+01  0.16287365520E+02  0.51100000000E-03 0. -1.
        -11    1    3    3    0    0 -0.11085629473E+02  0.48040767453E+01  0.24665548944E+01  0.12331027025E+02  0.51100000000E-03 0.  1.
         12    1    3    3    0    0 -0.13974984423E+01  0.28993469559E+01  0.21672826937E+02  0.21910514419E+02  0.00000000000E+00 0. -1.
</event>
<event>
 7    1  0.2639126E-011  0.5052888E+02  0.7816164E-02  0.1300439E+00
        -11   -1    0    0    0    0  0.00000000000E+00  0.00000000000E+00  0.45593999997E+02  0.45594000000E+02  0.51100000000E-03 0.  1.
         11   -1    0    0    0    0 -0.00000000000E+00 -0.00000000000E+00 -0.45593999997E+02  0.45594000000E+02  0.51100000000E-03 0. -1.
    9900012    2    1    2    0    0 -0.35658544406E+02  0.13923658641E+02  0.13702702406E+02  0.50528879101E+02  0.30000058514E+02 0.  0.
         12    1    1    2    0    0  0.35658544406E+02 -0.13923658641E+02 -0.13702702406E+02  0.40659120899E+02  0.00000000000E+00 0. -1.
         11    1    3    3    0    0 -0.12854041865E+02 -0.41654574127E+00  0.36271306362E+01  0.13362484034E+02  0.51100000000E-03 0. -1.
        -11    1    3    3    0    0 -0.24972199236E+02  0.57478017445E+01  0.11678647968E+02  0.28160944199E+02  0.51100000000E-03 0.  1.
         12    1    3    3    0    0  0.21676966953E+01  0.85924026373E+01 -0.16030761980E+01  0.90054508683E+01  0.00000000000E+00 0. -1.
</event>
<event>
 7    1  0.2639126E-011  0.5052886E+02  0.7816164E-02  0.1300439E+00
        -11   -1    0    0    0    0  0.00000000000E+00  0.00000000000E+00  0.45593999997E+02  0.45594000000E+02  0.51100000000E-03 0.  1.
         11   -1    0    0    0    0 -0.00000000000E+00 -0.00000000000E+00 -0.45593999997E+02  0.45594000000E+02  0.51100000000E-03 0. -1.
    9900012    2    1    2    0    0 -0.27646773568E+02 -0.28393275473E+02  0.90908516628E+01  0.50528858780E+02  0.29999996748E+02 0.  0.
         12    1    1    2    0    0  0.27646773568E+02  0.28393275473E+02 -0.90908516628E+01  0.40659141220E+02  0.00000000000E+00 0. -1.
         11    1    3    3    0    0  0.42718397307E+00  0.56201876110E+00 -0.14534886300E+01  0.16158529306E+01  0.51100000000E-03 0. -1.
        -11    1    3    3    0    0  0.11853675038E+01  0.23252834111E+01  0.51095491971E+01  0.57375545592E+01  0.51100000000E-03 0.  1.
        -12    1    3    3    0    0 -0.29259325045E+02 -0.31280577645E+02  0.54347910957E+01  0.43175451290E+02  0.00000000000E+00 0.  1.
</event>
<event>
 7    1  0.2639126E-011  0.5052886E+02  0.7816164E-02  0.1300439E+00
        -11   -1    0    0    0    0  0.00000000000E+00  0.00000000000E+00  0.45593999997E+02  0.45594000000E+02  0.51100000000E-03 0.  1.
         11   -1    0    0    0    0 -0.00000000000E+00 -0.00000000000E+00 -0.45593999997E+02  0.45594000000E+02  0.51100000000E-03 0. -1.
    9900012    2    1    2    0    0 -0.11089209047E+02 -0.24967450153E+02  0.30113478080E+02  0.50528859742E+02  0.29999999672E+02 0.  0.
         12    1    1    2    0    0  0.11089209047E+02  0.24967450153E+02 -0.30113478080E+02  0.40659140258E+02  0.00000000000E+00 0. -1.
         11    1    3    3    0    0 -0.76523786291E+01 -0.17380280507E+02  0.11808691798E+02  0.22362429462E+02  0.51100000000E-03 0. -1.
        -11    1    3    3    0    0 -0.80783582753E+01 -0.84878474032E+01  0.29263013988E+01  0.12077527317E+02  0.51100000000E-03 0.  1.
         12    1    3    3    0    0  0.46415278570E+01  0.90067775699E+00  0.15378484883E+02  0.16088902963E+02  0.00000000000E+00 0. -1.
</event>
<event>
 7    1  0.2639126E-011  0.5052886E+02  0.7816164E-02  0.1300439E+00
        -11   -1    0    0    0    0  0.00000000000E+00  0.00000000000E+00  0.45593999997E+02  0.45594000000E+02  0.51100000000E-03 0.  1.
         11   -1    0    0    0    0 -0.00000000000E+00 -0.00000000000E+00 -0.45593999997E+02  0.45594000000E+02  0.51100000000E-03 0. -1.
    9900012    2    1    2    0    0 -0.70995723031E+01 -0.23403434182E+02  0.32481397326E+02  0.50528857970E+02  0.29999994285E+02 0.  0.
         12    1    1    2    0    0  0.70995723031E+01  0.23403434182E+02 -0.32481397326E+02  0.40659142030E+02  0.00000000000E+00 0. -1.
         11    1    3    3    0    0  0.43852376685E+01 -0.18399901905E+02  0.16545688398E+02  0.25130589017E+02  0.51100000000E-03 0. -1.
        -11    1    3    3    0    0 -0.83564825194E+01 -0.10519753528E+02  0.10906993572E+02  0.17304869934E+02  0.51100000000E-03 0.  1.
         12    1    3    3    0    0 -0.31283274522E+01  0.55162212514E+01  0.50287153570E+01  0.80933990192E+01  0.00000000000E+00 0. -1.
</event>
<event>
 7    1  0.2639126E-011  0.5052887E+02  0.7816164E-02  0.1300439E+00
        -11   -1    0    0    0    0  0.00000000000E+00  0.00000000000E+00  0.45593999997E+02  0.45594000000E+02  0.51100000000E-03 0.  1.
         11   -1    0    0    0    0 -0.00000000000E+00 -0.00000000000E+00 -0.45593999997E+02  0.45594000000E+02  0.51100000000E-03 0. -1.
    9900012    2    1    2    0    0 -0.11820448378E+02 -0.38902878040E+02  0.90102920224E-01  0.50528867715E+02  0.30000023905E+02 0.  0.
         12    1    1    2    0    0  0.11820448378E+02  0.38902878040E+02 -0.90102920224E-01  0.40659132285E+02  0.00000000000E+00 0. -1.
         11    1    3    3    0    0 -0.84366939612E+01 -0.20373346815E+02 -0.10227524267E+02  0.24307474537E+02  0.51100000000E-03 0. -1.
        -11    1    3    3    0    0 -0.30635411721E+01 -0.37241705823E+01 -0.35068665381E+01  0.59626205830E+01  0.51100000000E-03 0.  1.
        -12    1    3    3    0    0 -0.32021324469E+00 -0.14805360643E+02  0.13824493726E+02  0.20258772595E+02  0.00000000000E+00 0.  1.
</event>
<event>
 7    1  0.2639126E-011  0.5052887E+02  0.7816164E-02  0.1300439E+00
        -11   -1    0    0    0    0  0.00000000000E+00  0.00000000000E+00  0.45593999997E+02  0.45594000000E+02  0.51100000000E-03 0.  1.
         11   -1    0    0    0    0 -0.00000000000E+00 -0.00000000000E+00 -0.45593999997E+02  0.45594000000E+02  0.51100000000E-03 0. -1.
    9900012    2    1    2    0    0 -0.19932105473E+02  0.29806193829E+02  0.19169420766E+02  0.50528871730E+02  0.30000036111E+02 0.  0.
         12    1    1    2    0    0  0.19932105473E+02 -0.29806193829E+02 -0.19169420766E+02  0.40659128270E+02  0.00000000000E+00 0. -1.
         11    1    3    3    0    0  0.33475828198E+01  0.11581374167E+02  0.71873609860E+01  0.14035408670E+02  0.51100000000E-03 0. -1.
        -11    1    3    3    0    0 -0.19316344916E+02  0.21728967503E+02  0.90743044245E+01  0.30456726855E+02  0.51100000000E-03 0.  1.
        -12    1    3    3    0    0 -0.39633433768E+01 -0.35041478407E+01  0.29077553557E+01  0.60367362059E+01  0.00000000000E+00 0.  1.
</event>
<event>
 7    1  0.2639126E-011  0.5052886E+02  0.7816164E-02  0.1300439E+00
        -11   -1    0    0    0    0  0.00000000000E+00  0.00000000000E+00  0.45593999997E+02  0.45594000000E+02  0.51100000000E-03 0. -1.
         11   -1    0    0    0    0 -0.00000000000E+00 -0.00000000000E+00 -0.45593999997E+02  0.45594000000E+02  0.51100000000E-03 0.  1.
    9900012    2    1    2    0    0 -0.12274125063E+02 -0.10079598282E+02 -0.37428773919E+02  0.50528861241E+02  0.30000004227E+02 0.  0.
         12    1    1    2    0    0  0.12274125063E+02  0.10079598282E+02  0.37428773919E+02  0.40659138759E+02  0.00000000000E+00 0. -1.
         11    1    3    3    0    0 -0.28420715490E+01  0.19377873270E+01 -0.25433138625E+02  0.25664702044E+02  0.51100000000E-03 0. -1.
        -11    1    3    3    0    0 -0.31325269697E+01  0.28348894548E+01 -0.66310971438E+01  0.78626187132E+01  0.51100000000E-03 0.  1.
         12    1    3    3    0    0 -0.62995265438E+01 -0.14852275064E+02 -0.53645381498E+01  0.17001540484E+02  0.00000000000E+00 0. -1.
</event>
<event>
 7    1  0.2639126E-011  0.5052888E+02  0.7816164E-02  0.1300439E+00
        -11   -1    0    0    0    0  0.00000000000E+00  0.00000000000E+00  0.45593999997E+02  0.45594000000E+02  0.51100000000E-03 0. -1.
         11   -1    0    0    0    0 -0.00000000000E+00 -0.00000000000E+00 -0.45593999997E+02  0.45594000000E+02  0.51100000000E-03 0.  1.
    9900012    2    1    2    0    0  0.19743760133E+02 -0.31287288389E+01 -0.35405635496E+02  0.50528880073E+02  0.30000061471E+02 0.  0.
         12    1    1    2    0    0 -0.19743760133E+02  0.31287288389E+01  0.35405635496E+02  0.40659119927E+02  0.00000000000E+00 0. -1.
         11    1    3    3    0    0  0.95045172509E+00  0.50318808968E+01 -0.50034029271E+01  0.71594151265E+01  0.51100000000E-03 0. -1.
        -11    1    3    3    0    0 -0.24276101028E+00  0.61555196087E+01 -0.11168378874E+02  0.12754687040E+02  0.51100000000E-03 0.  1.
        -12    1    3    3    0    0  0.19036069418E+02 -0.14316129344E+02 -0.19233853695E+02  0.30614777906E+02  0.00000000000E+00 0.  1.
</event>
<event>
 7    1  0.2639126E-011  0.5052877E+02  0.7816164E-02  0.1300439E+00
        -11   -1    0    0    0    0  0.00000000000E+00  0.00000000000E+00  0.45593999997E+02  0.45594000000E+02  0.51100000000E-03 0. -1.
         11   -1    0    0    0    0 -0.00000000000E+00 -0.00000000000E+00 -0.45593999997E+02  0.45594000000E+02  0.51100000000E-03 0.  1.
    9900012    2    1    2    0    0  0.66549992849E+01 -0.36524837936E+02 -0.16577713191E+02  0.50528765177E+02  0.29999712231E+02 0.  0.
         12    1    1    2    0    0 -0.66549992849E+01  0.36524837936E+02  0.16577713191E+02  0.40659234823E+02  0.00000000000E+00 0. -1.
         11    1    3    3    0    0 -0.24758648665E+01 -0.26200455269E+02 -0.81998746313E+00  0.26329947642E+02  0.51100000000E-03 0. -1.
        -11    1    3    3    0    0  0.17216943842E+00 -0.91869940229E+01 -0.94680808935E+01  0.13193750701E+02  0.51100000000E-03 0.  1.
         12    1    3    3    0    0  0.89586947130E+01 -0.11373886445E+01 -0.62896448342E+01  0.11005066834E+02  0.00000000000E+00 0. -1.
</event>
<event>
 7    1  0.2639126E-011  0.5052886E+02  0.7816164E-02  0.1300439E+00
        -11   -1    0    0    0    0  0.00000000000E+00  0.00000000000E+00  0.45593999997E+02  0.45594000000E+02  0.51100000000E-03 0.  1.
         11   -1    0    0    0    0 -0.00000000000E+00 -0.00000000000E+00 -0.45593999997E+02  0.45594000000E+02  0.51100000000E-03 0. -1.
    9900012    2    1    2    0    0 -0.38129368556E+02  0.16245175706E+01  0.14024195794E+02  0.50528857468E+02  0.29999992759E+02 0.  0.
         12    1    1    2    0    0  0.38129368556E+02 -0.16245175706E+01 -0.14024195794E+02  0.40659142532E+02  0.00000000000E+00 0. -1.
         11    1    3    3    0    0 -0.11809933834E+02 -0.51343552183E+01 -0.10500132276E+01  0.12920474786E+02  0.51100000000E-03 0. -1.
        -11    1    3    3    0    0 -0.25729318483E+02  0.19682866121E+01  0.47865537952E+01  0.26244677161E+02  0.51100000000E-03 0.  1.
         12    1    3    3    0    0 -0.59011623872E+00  0.47905861768E+01  0.10287655226E+02  0.11363705520E+02  0.00000000000E+00 0. -1.
</event>
<event>
 7    1  0.2639126E-011  0.5052884E+02  0.7816164E-02  0.1300439E+00
        -11   -1    0    0    0    0  0.00000000000E+00  0.00000000000E+00  0.45593999997E+02  0.45594000000E+02  0.51100000000E-03 0.  1.
         11   -1    0    0    0    0 -0.00000000000E+00 -0.00000000000E+00 -0.45593999997E+02  0.45594000000E+02  0.51100000000E-03 0. -1.
    9900012    2    1    2    0    0 -0.26123877805E+02 -0.29449886936E+02  0.10169276641E+02  0.50528843350E+02  0.29999949846E+02 0.  0.
         12    1    1    2    0    0  0.26123877805E+02  0.29449886936E+02 -0.10169276641E+02  0.40659156650E+02  0.00000000000E+00 0. -1.
         11    1    3    3    0    0 -0.19774508322E+02 -0.11919876608E+02  0.13889928276E+02  0.26945217489E+02  0.51100000000E-03 0. -1.
        -11    1    3    3    0    0 -0.33761716822E+01  0.53078185376E+00  0.25187619008E+01  0.42455183874E+01  0.51100000000E-03 0.  1.
         12    1    3    3    0    0 -0.29731978002E+01 -0.18060792182E+02 -0.62394135352E+01  0.19338107474E+02  0.00000000000E+00 0. -1.
</event>
<event>
 7    1  0.2639126E-011  0.5052887E+02  0.7816164E-02  0.1300439E+00
        -11   -1    0    0    0    0  0.00000000000E+00  0.00000000000E+00  0.45593999997E+02  0.45594000000E+02  0.51100000000E-03 0.  1.
         11   -1    0    0    0    0 -0.00000000000E+00 -0.00000000000E+00 -0.45593999997E+02  0.45594000000E+02  0.51100000000E-03 0. -1.
    9900012    2    1    2    0    0 -0.35483140653E+02 -0.39263284127E+01  0.19460107624E+02  0.50528866781E+02  0.30000021068E+02 0.  0.
         12    1    1    2    0    0  0.35483140653E+02  0.39263284127E+01 -0.19460107624E+02  0.40659133219E+02  0.00000000000E+00 0. -1.
         11    1    3    3    0    0 -0.86905578063E+01 -0.11832232025E+02  0.59843766147E+01  0.15853714814E+02  0.51100000000E-03 0. -1.
        -11    1    3    3    0    0 -0.88457440626E+01 -0.47007202156E+01  0.42880954331E+01  0.10896408641E+02  0.51100000000E-03 0.  1.
         12    1    3    3    0    0 -0.17946838784E+02  0.12606623828E+02  0.91876355760E+01  0.23778743326E+02  0.00000000000E+00 0. -1.
</event>
<event>
 7    1  0.2639126E-011  0.5052884E+02  0.7816164E-02  0.1300439E+00
        -11   -1    0    0    0    0  0.00000000000E+00  0.00000000000E+00  0.45593999997E+02  0.45594000000E+02  0.51100000000E-03 0.  1.
         11   -1    0    0    0    0 -0.00000000000E+00 -0.00000000000E+00 -0.45593999997E+02  0.45594000000E+02  0.51100000000E-03 0. -1.
    9900012    2    1    2    0    0 -0.48216342192E+01 -0.24519104150E+02  0.32073860139E+02  0.50528842003E+02  0.29999945752E+02 0.  0.
         12    1    1    2    0    0  0.48216342192E+01  0.24519104150E+02 -0.32073860139E+02  0.40659157997E+02  0.00000000000E+00 0. -1.
         11    1    3    3    0    0  0.47539346414E+01 -0.14953573733E+02  0.29977106230E+01  0.15974840569E+02  0.51100000000E-03 0. -1.
        -11    1    3    3    0    0  0.86732647327E+00 -0.80253315871E+01  0.13752663974E+02  0.15946597409E+02  0.51100000000E-03 0.  1.
        -12    1    3    3    0    0 -0.10442895334E+02 -0.15401988295E+01  0.15323485542E+02  0.18607404025E+02  0.00000000000E+00 0.  1.
</event>
<event>
 7    1  0.2639126E-011  0.5052886E+02  0.7816164E-02  0.1300439E+00
        -11   -1    0    0    0    0  0.00000000000E+00  0.00000000000E+00  0.45593999997E+02  0.45594000000E+02  0.51100000000E-03 0. -1.
         11   -1    0    0    0    0 -0.00000000000E+00 -0.00000000000E+00 -0.45593999997E+02  0.45594000000E+02  0.51100000000E-03 0.  1.
    9900012    2    1    2    0    0 -0.27068343751E+02  0.25421136085E+02 -0.16560079048E+02  0.50528860666E+02  0.30000002482E+02 0.  0.
         12    1    1    2    0    0  0.27068343751E+02 -0.25421136085E+02  0.16560079048E+02  0.40659139334E+02  0.00000000000E+00 0. -1.
         11    1    3    3    0    0 -0.59542987637E+01  0.49044909670E+01 -0.78798397857E+01  0.11027219991E+02  0.51100000000E-03 0. -1.
        -11    1    3    3    0    0 -0.17732152989E+02  0.25270353894E+02 -0.11599204333E+02  0.32978198510E+02  0.51100000000E-03 0.  1.
         12    1    3    3    0    0 -0.33818919984E+01 -0.47537087757E+01  0.29189650702E+01  0.65234421660E+01  0.00000000000E+00 0. -1.
</event>
<event>
 7    1  0.2639126E-011  0.5052884E+02  0.7816164E-02  0.1300439E+00
        -11   -1    0    0    0    0  0.00000000000E+00  0.00000000000E+00  0.45593999997E+02  0.45594000000E+02  0.51100000000E-03 0.  1.
         11   -1    0    0    0    0 -0.00000000000E+00 -0.00000000000E+00 -0.45593999997E+02  0.45594000000E+02  0.51100000000E-03 0. -1.
    9900012    2    1    2    0    0 -0.75204737845E+01  0.26573979494E+02  0.29840125331E+02  0.50528843690E+02  0.29999950879E+02 0.  0.
         12    1    1    2    0    0  0.75204737845E+01 -0.26573979494E+02 -0.29840125331E+02  0.40659156310E+02  0.00000000000E+00 0. -1.
         11    1    3    3    0    0 -0.94979887187E+00  0.57570772344E+01  0.17016928201E+02  0.17989494208E+02  0.51100000000E-03 0. -1.
        -11    1    3    3    0    0 -0.15876045487E+01  0.10714003469E+00  0.11050952238E+02  0.11164923323E+02  0.51100000000E-03 0.  1.
         12    1    3    3    0    0 -0.49830703639E+01  0.20709762225E+02  0.17722448921E+01  0.21374426159E+02  0.00000000000E+00 0. -1.
</event>
<event>
 7    1  0.2639126E-011  0.5052886E+02  0.7816164E-02  0.1300439E+00
        -11   -1    0    0    0    0  0.00000000000E+00  0.00000000000E+00  0.45593999997E+02  0.45594000000E+02  0.51100000000E-03 0. -1.
         11   -1    0    0    0    0 -0.00000000000E+00 -0.00000000000E+00 -0.45593999997E+02  0.45594000000E+02  0.51100000000E-03 0.  1.
    9900012    2    1    2    0    0  0.67426961147E+01 -0.39735449444E+02 -0.53661686741E+01  0.50528860073E+02  0.30000000677E+02 0.  0.
         12    1    1    2    0    0 -0.67426961147E+01  0.39735449444E+02  0.53661686741E+01  0.40659139927E+02  0.00000000000E+00 0. -1.
         11    1    3    3    0    0  0.20754657795E+01  0.70782516673E-01 -0.54482200362E+01  0.58305806049E+01  0.51100000000E-03 0. -1.
        -11    1    3    3    0    0  0.45002343440E+01 -0.70801296631E+01  0.73737520594E+01  0.11169268772E+02  0.51100000000E-03 0.  1.
        -12    1    3    3    0    0  0.16699599122E+00 -0.32726102297E+02 -0.72917006973E+01  0.33529010696E+02  0.00000000000E+00 0.  1.
</event>
<event>
 7    1  0.2639126E-011  0.5052886E+02  0.7816164E-02  0.1300439E+00
        -11   -1    0    0    0    0  0.00000000000E+00  0.00000000000E+00  0.45593999997E+02  0.45594000000E+02  0.51100000000E-03 0.  1.
         11   -1    0    0    0    0 -0.00000000000E+00 -0.00000000000E+00 -0.45593999997E+02  0.45594000000E+02  0.51100000000E-03 0. -1.
    9900012    2    1    2    0    0 -0.36490669575E+01 -0.38314503470E+00  0.40493244433E+02  0.50528864071E+02  0.30000012830E+02 0.  0.
         12    1    1    2    0    0  0.36490669575E+01  0.38314503470E+00 -0.40493244433E+02  0.40659135929E+02  0.00000000000E+00 0. -1.
         11    1    3    3    0    0 -0.15159165790E+02 -0.14055531247E+01  0.25488050734E+02  0.29688661430E+02  0.51100000000E-03 0. -1.
        -11    1    3    3    0    0  0.50530082906E+01 -0.23580438214E+01  0.11439750442E+02  0.12726395950E+02  0.51100000000E-03 0.  1.
        -12    1    3    3    0    0  0.64570905420E+01  0.33804519114E+01  0.35654432573E+01  0.81138066907E+01  0.00000000000E+00 0.  1.
</event>
<event>
 7    1  0.2639126E-011  0.5052886E+02  0.7816164E-02  0.1300439E+00
        -11   -1    0    0    0    0  0.00000000000E+00  0.00000000000E+00  0.45593999997E+02  0.45594000000E+02  0.51100000000E-03 0.  1.
         11   -1    0    0    0    0 -0.00000000000E+00 -0.00000000000E+00 -0.45593999997E+02  0.45594000000E+02  0.51100000000E-03 0. -1.
    9900012    2    1    2    0    0 -0.21022202177E+02  0.93938223521E+01  0.33511021784E+02  0.50528862481E+02  0.30000007997E+02 0.  0.
         12    1    1    2    0    0  0.21022202177E+02 -0.93938223521E+01 -0.33511021784E+02  0.40659137519E+02  0.00000000000E+00 0. -1.
         11    1    3    3    0    0 -0.12456102407E+02  0.26229404340E+00  0.21679738966E+02  0.25004686905E+02  0.51100000000E-03 0.  1.
        -11    1    3    3    0    0 -0.20009230534E+01 -0.22754573703E+01  0.11984830487E+02  0.12361940033E+02  0.51100000000E-03 0. -1.
         12    1    3    3    0    0 -0.65651767169E+01  0.11406985679E+02 -0.15354766872E+00  0.13162235543E+02  0.00000000000E+00 0. -1.
</event>
<event>
 7    1  0.2639126E-011  0.5052886E+02  0.7816164E-02  0.1300439E+00
        -11   -1    0    0    0    0  0.00000000000E+00  0.00000000000E+00  0.45593999997E+02  0.45594000000E+02  0.51100000000E-03 0.  1.
         11   -1    0    0    0    0 -0.00000000000E+00 -0.00000000000E+00 -0.45593999997E+02  0.45594000000E+02  0.51100000000E-03 0. -1.
    9900012    2    1    2    0    0  0.12453247422E+02  0.29935569674E+02  0.24534547972E+02  0.50528858995E+02  0.29999997402E+02 0.  0.
         12    1    1    2    0    0 -0.12453247422E+02 -0.29935569674E+02 -0.24534547972E+02  0.40659141005E+02  0.00000000000E+00 0. -1.
         11    1    3    3    0    0 -0.32009747868E+01 -0.29123807313E+01  0.18541156693E+01  0.47080724597E+01  0.51100000000E-03 0. -1.
        -11    1    3    3    0    0 -0.55521491074E-01  0.18224503975E+02  0.12241167794E+02  0.21954084290E+02  0.51100000000E-03 0.  1.
         12    1    3    3    0    0  0.15709743700E+02  0.14623446429E+02  0.10439264509E+02  0.23866702246E+02  0.00000000000E+00 0. -1.
</event>
<event>
 7    1  0.2639126E-011  0.5052886E+02  0.7816164E-02  0.1300439E+00
        -11   -1    0    0    0    0  0.00000000000E+00  0.00000000000E+00  0.45593999997E+02  0.45594000000E+02  0.51100000000E-03 0.  1.
         11   -1    0    0    0    0 -0.00000000000E+00 -0.00000000000E+00 -0.45593999997E+02  0.45594000000E+02  0.51100000000E-03 0. -1.
    9900012    2    1    2    0    0  0.21476381259E+02  0.25680632288E+02  0.23074577462E+02  0.50528856481E+02  0.29999989759E+02 0.  0.
         12    1    1    2    0    0 -0.21476381259E+02 -0.25680632288E+02 -0.23074577462E+02  0.40659143519E+02  0.00000000000E+00 0. -1.
         11    1    3    3    0    0  0.86439704799E+00 -0.57615162922E+00 -0.37456090940E+01  0.38869937873E+01  0.51100000000E-03 0. -1.
        -11    1    3    3    0    0  0.18223761044E+02  0.85174919590E+01  0.12164822733E+02  0.23508212358E+02  0.51100000000E-03 0.  1.
         12    1    3    3    0    0  0.23882231664E+01  0.17739291958E+02  0.14655363823E+02  0.23133650335E+02  0.00000000000E+00 0. -1.
</event>
<event>
 7    1  0.2639126E-011  0.5052886E+02  0.7816164E-02  0.1300439E+00
        -11   -1    0    0    0    0  0.00000000000E+00  0.00000000000E+00  0.45593999997E+02  0.45594000000E+02  0.51100000000E-03 0. -1.
         11   -1    0    0    0    0 -0.00000000000E+00 -0.00000000000E+00 -0.45593999997E+02  0.45594000000E+02  0.51100000000E-03 0.  1.
    9900012    2    1    2    0    0  0.31937546055E+02  0.25013914890E+02 -0.27318300140E+01  0.50528859806E+02  0.29999999865E+02 0.  0.
         12    1    1    2    0    0 -0.31937546055E+02 -0.25013914890E+02  0.27318300140E+01  0.40659140194E+02  0.00000000000E+00 0. -1.
         11    1    3    3    0    0 -0.16571748900E+01  0.24582924115E+00 -0.56206320756E+00  0.17670811928E+01  0.51100000000E-03 0. -1.
        -11    1    3    3    0    0  0.12743379444E+02  0.68031946770E+01 -0.12757484477E+02  0.19272534549E+02  0.51100000000E-03 0.  1.
         12    1    3    3    0    0  0.20851341501E+02  0.17964890972E+02  0.10587717671E+02  0.29489244064E+02  0.00000000000E+00 0. -1.
</event>
<event>
 7    1  0.2639126E-011  0.5052886E+02  0.7816164E-02  0.1300439E+00
        -11   -1    0    0    0    0  0.00000000000E+00  0.00000000000E+00  0.45593999997E+02  0.45594000000E+02  0.51100000000E-03 0.  1.
         11   -1    0    0    0    0 -0.00000000000E+00 -0.00000000000E+00 -0.45593999997E+02  0.45594000000E+02  0.51100000000E-03 0. -1.
    9900012    2    1    2    0    0 -0.33506453429E+02  0.22007083175E+02  0.67949795897E+01  0.50528857377E+02  0.29999992483E+02 0.  0.
         12    1    1    2    0    0  0.33506453429E+02 -0.22007083175E+02 -0.67949795897E+01  0.40659142623E+02  0.00000000000E+00 0. -1.
         11    1    3    3    0    0  0.35579298361E+01  0.58072514172E+01 -0.37934258233E+01  0.77957112234E+01  0.51100000000E-03 0. -1.
        -11    1    3    3    0    0 -0.54790225836E+01  0.44280969472E+01 -0.94307619883E+00  0.71075399417E+01  0.51100000000E-03 0.  1.
        -12    1    3    3    0    0 -0.31585360681E+02  0.11771734810E+02  0.11531481612E+02  0.35625606212E+02  0.00000000000E+00 0.  1.
</event>
<event>
 7    1  0.2639126E-011  0.5052889E+02  0.7816164E-02  0.1300439E+00
        -11   -1    0    0    0    0  0.00000000000E+00  0.00000000000E+00  0.45593999997E+02  0.45594000000E+02  0.51100000000E-03 0. -1.
         11   -1    0    0    0    0 -0.00000000000E+00 -0.00000000000E+00 -0.45593999997E+02  0.45594000000E+02  0.51100000000E-03 0.  1.
    9900012    2    1    2    0    0  0.20061719022E+02 -0.32876263886E+02  0.13032331281E+02  0.50528893322E+02  0.30000101741E+02 0.  0.
         12    1    1    2    0    0 -0.20061719022E+02  0.32876263886E+02 -0.13032331281E+02  0.40659106678E+02  0.00000000000E+00 0. -1.
         11    1    3    3    0    0  0.23135936311E+01 -0.56026743152E+01  0.80591468936E+01  0.10084271113E+02  0.51100000000E-03 0.  1.
        -11    1    3    3    0    0 -0.40987573199E+01 -0.11021728364E+01  0.47261384966E+01  0.63522422717E+01  0.51100000000E-03 0. -1.
         12    1    3    3    0    0  0.21846882711E+02 -0.26171416735E+02  0.24704589109E+00  0.34092379937E+02  0.00000000000E+00 0. -1.
</event>
<event>
 7    1  0.2639126E-011  0.5052886E+02  0.7816164E-02  0.1300439E+00
        -11   -1    0    0    0    0  0.00000000000E+00  0.00000000000E+00  0.45593999997E+02  0.45594000000E+02  0.51100000000E-03 0. -1.
         11   -1    0    0    0    0 -0.00000000000E+00 -0.00000000000E+00 -0.45593999997E+02  0.45594000000E+02  0.51100000000E-03 0.  1.
    9900012    2    1    2    0    0 -0.16600243745E+02 -0.33051688813E+02 -0.16887377015E+02  0.50528859229E+02  0.29999998113E+02 0.  0.
         12    1    1    2    0    0  0.16600243745E+02  0.33051688813E+02  0.16887377015E+02  0.40659140771E+02  0.00000000000E+00 0. -1.
         11    1    3    3    0    0 -0.15478659546E+01  0.30517694074E+01 -0.20408068895E+01  0.39842287272E+01  0.51100000000E-03 0. -1.
        -11    1    3    3    0    0 -0.21326186916E+01  0.25042521582E+01 -0.26472623714E+00  0.32999123621E+01  0.51100000000E-03 0.  1.
        -12    1    3    3    0    0 -0.12919759099E+02 -0.38607710378E+02 -0.14581843889E+02  0.43244718140E+02  0.00000000000E+00 0.  1.
</event>
<event>
 7    1  0.2639126E-011  0.5052886E+02  0.7816164E-02  0.1300439E+00
        -11   -1    0    0    0    0  0.00000000000E+00  0.00000000000E+00  0.45593999997E+02  0.45594000000E+02  0.51100000000E-03 0.  1.
         11   -1    0    0    0    0 -0.00000000000E+00 -0.00000000000E+00 -0.45593999997E+02  0.45594000000E+02  0.51100000000E-03 0. -1.
    9900012    2    1    2    0    0 -0.53258206042E+01  0.20509843470E+02  0.34700834788E+02  0.50528856142E+02  0.29999988730E+02 0.  0.
         12    1    1    2    0    0  0.53258206042E+01 -0.20509843470E+02 -0.34700834788E+02  0.40659143858E+02  0.00000000000E+00 0. -1.
         11    1    3    3    0    0 -0.63661089947E+01  0.22096673131E+00  0.83843386120E+01  0.10529639322E+02  0.51100000000E-03 0. -1.
        -11    1    3    3    0    0 -0.80828241255E+01  0.26555396529E+01  0.14734134956E+02  0.17014072701E+02  0.51100000000E-03 0.  1.
        -12    1    3    3    0    0  0.91231125160E+01  0.17633337086E+02  0.11582361219E+02  0.22985144119E+02  0.00000000000E+00 0.  1.
</event>
<event>
 7    1  0.2639126E-011  0.5052886E+02  0.7816164E-02  0.1300439E+00
        -11   -1    0    0    0    0  0.00000000000E+00  0.00000000000E+00  0.45593999997E+02  0.45594000000E+02  0.51100000000E-03 0. -1.
         11   -1    0    0    0    0 -0.00000000000E+00 -0.00000000000E+00 -0.45593999997E+02  0.45594000000E+02  0.51100000000E-03 0.  1.
    9900012    2    1    2    0    0 -0.22194349271E+02  0.27801249089E+02 -0.19689272164E+02  0.50528855533E+02  0.29999986877E+02 0.  0.
         12    1    1    2    0    0  0.22194349271E+02 -0.27801249089E+02  0.19689272164E+02  0.40659144467E+02  0.00000000000E+00 0. -1.
         11    1    3    3    0    0 -0.30506352185E+01  0.37341040077E+01  0.13796370856E+01  0.50153072414E+01  0.51100000000E-03 0. -1.
        -11    1    3    3    0    0 -0.24108583189E+02  0.19514233634E+02 -0.10060174603E+02  0.32607303032E+02  0.51100000000E-03 0.  1.
        -12    1    3    3    0    0  0.49648691365E+01  0.45529114471E+01 -0.11008734646E+02  0.12906245260E+02  0.00000000000E+00 0.  1.
</event>
<event>
 7    1  0.2639126E-011  0.5052886E+02  0.7816164E-02  0.1300439E+00
        -11   -1    0    0    0    0  0.00000000000E+00  0.00000000000E+00  0.45593999997E+02  0.45594000000E+02  0.51100000000E-03 0. -1.
         11   -1    0    0    0    0 -0.00000000000E+00 -0.00000000000E+00 -0.45593999997E+02  0.45594000000E+02  0.51100000000E-03 0.  1.
    9900012    2    1    2    0    0 -0.28370728465E+02  0.47511620414E+01 -0.28734892108E+02  0.50528858361E+02  0.29999995474E+02 0.  0.
         12    1    1    2    0    0  0.28370728465E+02 -0.47511620414E+01  0.28734892108E+02  0.40659141639E+02  0.00000000000E+00 0. -1.
         11    1    3    3    0    0 -0.49979724055E+01 -0.91854752760E+01 -0.11825244833E+02  0.15785724558E+02  0.51100000000E-03 0. -1.
        -11    1    3    3    0    0 -0.36758139137E+01  0.36752336538E+00  0.20471608889E+01  0.42234522986E+01  0.51100000000E-03 0.  1.
        -12    1    3    3    0    0 -0.19696942146E+02  0.13569113952E+02 -0.18956808164E+02  0.30519681504E+02  0.00000000000E+00 0.  1.
</event>
<event>
 7    1  0.2639126E-011  0.5052886E+02  0.7816164E-02  0.1300439E+00
        -11   -1    0    0    0    0  0.00000000000E+00  0.00000000000E+00  0.45593999997E+02  0.45594000000E+02  0.51100000000E-03 0.  1.
         11   -1    0    0    0    0 -0.00000000000E+00 -0.00000000000E+00 -0.45593999997E+02  0.45594000000E+02  0.51100000000E-03 0. -1.
    9900012    2    1    2    0    0 -0.38605001527E+02 -0.95379616938E+01  0.84762475088E+01  0.50528860461E+02  0.30000001858E+02 0.  0.
         12    1    1    2    0    0  0.38605001527E+02  0.95379616938E+01 -0.84762475088E+01  0.40659139539E+02  0.00000000000E+00 0. -1.
         11    1    3    3    0    0 -0.19732692108E+02 -0.27727330884E+01 -0.31998341180E+01  0.20181826608E+02  0.51100000000E-03 0. -1.
        -11    1    3    3    0    0 -0.16483830553E+02  0.31496193869E+01  0.31962955524E+01  0.17083707955E+02  0.51100000000E-03 0.  1.
        -12    1    3    3    0    0 -0.23884788669E+01 -0.99148479924E+01  0.84797860744E+01  0.13263325898E+02  0.00000000000E+00 0.  1.
</event>
<event>
 7    1  0.2639126E-011  0.5052886E+02  0.7816164E-02  0.1300439E+00
        -11   -1    0    0    0    0  0.00000000000E+00  0.00000000000E+00  0.45593999997E+02  0.45594000000E+02  0.51100000000E-03 0. -1.
         11   -1    0    0    0    0 -0.00000000000E+00 -0.00000000000E+00 -0.45593999997E+02  0.45594000000E+02  0.51100000000E-03 0.  1.
    9900012    2    1    2    0    0  0.20149118764E+02 -0.27013585550E+02 -0.22747414368E+02  0.50528860171E+02  0.30000000976E+02 0.  0.
         12    1    1    2    0    0 -0.20149118764E+02  0.27013585550E+02  0.22747414368E+02  0.40659139829E+02  0.00000000000E+00 0. -1.
         11    1    3    3    0    0  0.14298645219E+02 -0.10743246680E+02 -0.18464629826E+02  0.25706247474E+02  0.51100000000E-03 0. -1.
        -11    1    3    3    0    0  0.42233353863E+01 -0.84551464549E+01 -0.10919271346E+02  0.14441487124E+02  0.51100000000E-03 0.  1.
         12    1    3    3    0    0  0.16271381582E+01 -0.78151924147E+01  0.66364868041E+01  0.10381125573E+02  0.00000000000E+00 0. -1.
</event>
<event>
 7    1  0.2639126E-011  0.5052888E+02  0.7816164E-02  0.1300439E+00
        -11   -1    0    0    0    0  0.00000000000E+00  0.00000000000E+00  0.45593999997E+02  0.45594000000E+02  0.51100000000E-03 0. -1.
         11   -1    0    0    0    0 -0.00000000000E+00 -0.00000000000E+00 -0.45593999997E+02  0.45594000000E+02  0.51100000000E-03 0.  1.
    9900012    2    1    2    0    0  0.20610456349E+02  0.31429837067E+02  0.15509303053E+02  0.50528879864E+02  0.30000060836E+02 0.  0.
         12    1    1    2    0    0 -0.20610456349E+02 -0.31429837067E+02 -0.15509303053E+02  0.40659120136E+02  0.00000000000E+00 0. -1.
         11    1    3    3    0    0  0.78432719962E+01  0.63177314912E+01 -0.11239306068E+01  0.10133798255E+02  0.51100000000E-03 0. -1.
        -11    1    3    3    0    0  0.16697205064E+01  0.17357975534E+02 -0.17930970051E+01  0.17530045018E+02  0.51100000000E-03 0.  1.
         12    1    3    3    0    0  0.11097463847E+02  0.77541300420E+01  0.18426330665E+02  0.22865036591E+02  0.00000000000E+00 0. -1.
</event>
<event>
 7    1  0.2639126E-011  0.5052885E+02  0.7816164E-02  0.1300439E+00
        -11   -1    0    0    0    0  0.00000000000E+00  0.00000000000E+00  0.45593999997E+02  0.45594000000E+02  0.51100000000E-03 0. -1.
         11   -1    0    0    0    0 -0.00000000000E+00 -0.00000000000E+00 -0.45593999997E+02  0.45594000000E+02  0.51100000000E-03 0.  1.
    9900012    2    1    2    0    0  0.31827601264E+02 -0.16039424083E+02 -0.19568009592E+02  0.50528851872E+02  0.29999975749E+02 0.  0.
         12    1    1    2    0    0 -0.31827601264E+02  0.16039424083E+02  0.19568009592E+02  0.40659148128E+02  0.00000000000E+00 0. -1.
         11    1    3    3    0    0  0.47714234494E+01 -0.38003429906E+00 -0.10615917428E+02  0.11645111030E+02  0.51100000000E-03 0. -1.
        -11    1    3    3    0    0  0.45036255810E+01  0.38351583101E+01  0.31603526727E+01  0.67066319352E+01  0.51100000000E-03 0.  1.
        -12    1    3    3    0    0  0.22552552234E+02 -0.19494548094E+02 -0.12112444836E+02  0.32177108906E+02  0.00000000000E+00 0.  1.
</event>
<event>
 7    1  0.2639126E-011  0.5052886E+02  0.7816164E-02  0.1300439E+00
        -11   -1    0    0    0    0  0.00000000000E+00  0.00000000000E+00  0.45593999997E+02  0.45594000000E+02  0.51100000000E-03 0.  1.
         11   -1    0    0    0    0 -0.00000000000E+00 -0.00000000000E+00 -0.45593999997E+02  0.45594000000E+02  0.51100000000E-03 0. -1.
    9900012    2    1    2    0    0  0.11419347145E+02 -0.39020631020E+02  0.39347844304E+00  0.50528856382E+02  0.29999989460E+02 0.  0.
         12    1    1    2    0    0 -0.11419347145E+02  0.39020631020E+02 -0.39347844304E+00  0.40659143618E+02  0.00000000000E+00 0. -1.
         11    1    3    3    0    0 -0.33729437555E+01 -0.72023890978E+01 -0.90189752897E+01  0.12024686018E+02  0.51100000000E-03 0. -1.
        -11    1    3    3    0    0  0.97553383449E+01 -0.29235881898E+02  0.47781405955E+01  0.31188684557E+02  0.51100000000E-03 0.  1.
        -12    1    3    3    0    0  0.50369525559E+01 -0.25823600239E+01  0.46343131372E+01  0.73154858073E+01  0.00000000000E+00 0.  1.
</event>
<event>
 7    1  0.2639126E-011  0.5052885E+02  0.7816164E-02  0.1300439E+00
        -11   -1    0    0    0    0  0.00000000000E+00  0.00000000000E+00  0.45593999997E+02  0.45594000000E+02  0.51100000000E-03 0.  1.
         11   -1    0    0    0    0 -0.00000000000E+00 -0.00000000000E+00 -0.45593999997E+02  0.45594000000E+02  0.51100000000E-03 0. -1.
    9900012    2    1    2    0    0 -0.29718259765E+02 -0.22910707933E+02 -0.15655370988E+02  0.50528854138E+02  0.29999982638E+02 0.  0.
         12    1    1    2    0    0  0.29718259765E+02  0.22910707933E+02  0.15655370988E+02  0.40659145862E+02  0.00000000000E+00 0. -1.
         11    1    3    3    0    0 -0.11381432164E+02 -0.32909489450E+01 -0.15114190205E+02  0.19204324744E+02  0.51100000000E-03 0. -1.
        -11    1    3    3    0    0  0.14601507768E+01  0.51242169408E+00 -0.25879028828E+01  0.30152707798E+01  0.51100000000E-03 0.  1.
        -12    1    3    3    0    0 -0.19796978378E+02 -0.20132180682E+02  0.20467221003E+01  0.28309258614E+02  0.00000000000E+00 0.  1.
</event>
<event>
 7    1  0.2639126E-011  0.5052877E+02  0.7816164E-02  0.1300439E+00
        -11   -1    0    0    0    0  0.00000000000E+00  0.00000000000E+00  0.45593999997E+02  0.45594000000E+02  0.51100000000E-03 0.  1.
         11   -1    0    0    0    0 -0.00000000000E+00 -0.00000000000E+00 -0.45593999997E+02  0.45594000000E+02  0.51100000000E-03 0. -1.
    9900012    2    1    2    0    0  0.11677217643E+02  0.26188743887E+02  0.28826462675E+02  0.50528773880E+02  0.29999738685E+02 0.  0.
         12    1    1    2    0    0 -0.11677217643E+02 -0.26188743887E+02 -0.28826462675E+02  0.40659226120E+02  0.00000000000E+00 0. -1.
         11    1    3    3    0    0 -0.18715784803E+01  0.78974432433E+01  0.22723800220E+02  0.24129722594E+02  0.51100000000E-03 0. -1.
        -11    1    3    3    0    0  0.45516648918E+01  0.40340317638E+01  0.72954495129E+01  0.94981392607E+01  0.51100000000E-03 0.  1.
         12    1    3    3    0    0  0.89971312317E+01  0.14257268880E+02 -0.11927870574E+01  0.16900912025E+02  0.00000000000E+00 0. -1.
</event>
<event>
 7    1  0.2639126E-011  0.5052898E+02  0.7816164E-02  0.1300438E+00
        -11   -1    0    0    0    0  0.00000000000E+00  0.00000000000E+00  0.45593999997E+02  0.45594000000E+02  0.51100000000E-03 0.  1.
         11   -1    0    0    0    0 -0.00000000000E+00 -0.00000000000E+00 -0.45593999997E+02  0.45594000000E+02  0.51100000000E-03 0. -1.
    9900012    2    1    2    0    0 -0.15329691016E+02  0.18460194382E+02  0.32823426526E+02  0.50528984614E+02  0.30000379229E+02 0.  0.
         12    1    1    2    0    0  0.15329691016E+02 -0.18460194382E+02 -0.32823426526E+02  0.40659015386E+02  0.00000000000E+00 0. -1.
         11    1    3    3    0    0  0.57081638549E+01  0.37485108139E+01  0.14658536064E+02  0.16171182632E+02  0.51100000000E-03 0. -1.
        -11    1    3    3    0    0 -0.34894292907E+01 -0.27086331568E+01  0.32078873765E+01  0.54592446395E+01  0.51100000000E-03 0.  1.
        -12    1    3    3    0    0 -0.17548425581E+02  0.17420316725E+02  0.14957003086E+02  0.28898557342E+02  0.00000000000E+00 0.  1.
</event>
<event>
 7    1  0.2639126E-011  0.5052883E+02  0.7816164E-02  0.1300439E+00
        -11   -1    0    0    0    0  0.00000000000E+00  0.00000000000E+00  0.45593999997E+02  0.45594000000E+02  0.51100000000E-03 0.  1.
         11   -1    0    0    0    0 -0.00000000000E+00 -0.00000000000E+00 -0.45593999997E+02  0.45594000000E+02  0.51100000000E-03 0. -1.
    9900012    2    1    2    0    0  0.29075027576E+02 -0.23363435583E+02  0.16185208697E+02  0.50528827218E+02  0.29999900812E+02 0.  0.
         12    1    1    2    0    0 -0.29075027576E+02  0.23363435583E+02 -0.16185208697E+02  0.40659172782E+02  0.00000000000E+00 0. -1.
         11    1    3    3    0    0  0.44503878826E+01  0.92181988507E+00  0.78971789345E+01  0.91115936911E+01  0.51100000000E-03 0. -1.
        -11    1    3    3    0    0  0.12380664174E+02  0.40312723881E+00  0.60022408635E+01  0.13764819382E+02  0.51100000000E-03 0.  1.
         12    1    3    3    0    0  0.12243975519E+02 -0.24688382707E+02  0.22857888990E+01  0.27652414145E+02  0.00000000000E+00 0. -1.
</event>
<event>
 7    1  0.2639126E-011  0.5052885E+02  0.7816164E-02  0.1300439E+00
        -11   -1    0    0    0    0  0.00000000000E+00  0.00000000000E+00  0.45593999997E+02  0.45594000000E+02  0.51100000000E-03 0. -1.
         11   -1    0    0    0    0 -0.00000000000E+00 -0.00000000000E+00 -0.45593999997E+02  0.45594000000E+02  0.51100000000E-03 0.  1.
    9900012    2    1    2    0    0  0.35877091388E+02  0.95061275275E+01 -0.16602230866E+02  0.50528853222E+02  0.29999979853E+02 0.  0.
         12    1    1    2    0    0 -0.35877091388E+02 -0.95061275275E+01  0.16602230866E+02  0.40659146778E+02  0.00000000000E+00 0. -1.
         11    1    3    3    0    0  0.15366574588E+02  0.85579472234E+01 -0.14400547152E+02  0.22732044206E+02  0.51100000000E-03 0. -1.
        -11    1    3    3    0    0  0.98132246071E+01 -0.12905448187E+01 -0.10231166421E+02  0.14235225665E+02  0.51100000000E-03 0.  1.
         12    1    3    3    0    0  0.10697292193E+02  0.22387251228E+01  0.80294827077E+01  0.13561583351E+02  0.00000000000E+00 0. -1.
</event>
<event>
 7    1  0.2639126E-011  0.5052885E+02  0.7816164E-02  0.1300439E+00
        -11   -1    0    0    0    0  0.00000000000E+00  0.00000000000E+00  0.45593999997E+02  0.45594000000E+02  0.51100000000E-03 0. -1.
         11   -1    0    0    0    0 -0.00000000000E+00 -0.00000000000E+00 -0.45593999997E+02  0.45594000000E+02  0.51100000000E-03 0.  1.
    9900012    2    1    2    0    0 -0.89003361081E+01  0.39488399476E+02 -0.38231584688E+01  0.50528853222E+02  0.29999979854E+02 0.  0.
         12    1    1    2    0    0  0.89003361081E+01 -0.39488399476E+02  0.38231584688E+01  0.40659146778E+02  0.00000000000E+00 0. -1.
         11    1    3    3    0    0 -0.59798463699E+01  0.10899139024E+02 -0.36221959523E+01  0.12948748891E+02  0.51100000000E-03 0. -1.
        -11    1    3    3    0    0  0.39457227477E+01  0.28318964795E+02  0.49167737923E+01  0.29012189849E+02  0.51100000000E-03 0.  1.
         12    1    3    3    0    0 -0.68662124858E+01  0.27029565733E+00 -0.51177363089E+01  0.85679144820E+01  0.00000000000E+00 0. -1.
</event>
<event>
 7    1  0.2639126E-011  0.5052890E+02  0.7816164E-02  0.1300439E+00
        -11   -1    0    0    0    0  0.00000000000E+00  0.00000000000E+00  0.45593999997E+02  0.45594000000E+02  0.51100000000E-03 0.  1.
         11   -1    0    0    0    0 -0.00000000000E+00 -0.00000000000E+00 -0.45593999997E+02  0.45594000000E+02  0.51100000000E-03 0. -1.
    9900012    2    1    2    0    0 -0.22236473775E+02 -0.33389583715E+02 -0.66209640967E+01  0.50528902221E+02  0.30000128791E+02 0.  0.
         12    1    1    2    0    0  0.22236473775E+02  0.33389583715E+02  0.66209640967E+01  0.40659097779E+02  0.00000000000E+00 0. -1.
         11    1    3    3    0    0 -0.32111089539E+01 -0.99805433816E+01 -0.10495356584E+02  0.14834924233E+02  0.51100000000E-03 0. -1.
        -11    1    3    3    0    0 -0.88678030188E+01 -0.23273652106E+01 -0.52639406882E+01  0.10571831962E+02  0.51100000000E-03 0.  1.
         12    1    3    3    0    0 -0.10157561802E+02 -0.21081675123E+02  0.91383331752E+01  0.25122146027E+02  0.00000000000E+00 0. -1.
</event>
<event>
 7    1  0.2639126E-011  0.5052886E+02  0.7816164E-02  0.1300439E+00
        -11   -1    0    0    0    0  0.00000000000E+00  0.00000000000E+00  0.45593999997E+02  0.45594000000E+02  0.51100000000E-03 0.  1.
         11   -1    0    0    0    0 -0.00000000000E+00 -0.00000000000E+00 -0.45593999997E+02  0.45594000000E+02  0.51100000000E-03 0. -1.
    9900012    2    1    2    0    0  0.93936999575E+01  0.37615434044E+02  0.12247579172E+02  0.50528859911E+02  0.30000000186E+02 0.  0.
         12    1    1    2    0    0 -0.93936999575E+01 -0.37615434044E+02 -0.12247579172E+02  0.40659140089E+02  0.00000000000E+00 0. -1.
         11    1    3    3    0    0  0.24166833734E+00  0.36248016331E+01 -0.46844999924E+01  0.59280798666E+01  0.51100000000E-03 0. -1.
        -11    1    3    3    0    0  0.59736908547E+01  0.19261515658E+02 -0.21565493054E+01  0.20281559926E+02  0.51100000000E-03 0.  1.
         12    1    3    3    0    0  0.31783407654E+01  0.14729116753E+02  0.19088628470E+02  0.24319220119E+02  0.00000000000E+00 0. -1.
</event>
<event>
 7    1  0.2639126E-011  0.5052886E+02  0.7816164E-02  0.1300439E+00
        -11   -1    0    0    0    0  0.00000000000E+00  0.00000000000E+00  0.45593999997E+02  0.45594000000E+02  0.51100000000E-03 0. -1.
         11   -1    0    0    0    0 -0.00000000000E+00 -0.00000000000E+00 -0.45593999997E+02  0.45594000000E+02  0.51100000000E-03 0.  1.
    9900012    2    1    2    0    0 -0.38303939691E+02 -0.43269864293E+01 -0.12932572664E+02  0.50528855357E+02  0.29999986344E+02 0.  0.
         12    1    1    2    0    0  0.38303939691E+02  0.43269864293E+01  0.12932572664E+02  0.40659144643E+02  0.00000000000E+00 0. -1.
         11    1    3    3    0    0 -0.15459817825E+02 -0.44112430409E+01 -0.54178394438E+00  0.16085974090E+02  0.51100000000E-03 0. -1.
        -11    1    3    3    0    0 -0.14460000692E+01 -0.64241844874E+01 -0.99671365761E+01  0.11945914545E+02  0.51100000000E-03 0.  1.
         12    1    3    3    0    0 -0.21398121797E+02  0.65084410990E+01 -0.24236521431E+01  0.22496966722E+02  0.00000000000E+00 0. -1.
</event>
<event>
 7    1  0.2639126E-011  0.5052888E+02  0.7816164E-02  0.1300439E+00
        -11   -1    0    0    0    0  0.00000000000E+00  0.00000000000E+00  0.45593999997E+02  0.45594000000E+02  0.51100000000E-03 0. -1.
         11   -1    0    0    0    0 -0.00000000000E+00 -0.00000000000E+00 -0.45593999997E+02  0.45594000000E+02  0.51100000000E-03 0.  1.
    9900012    2    1    2    0    0 -0.38145878855E+02  0.27313203402E+01 -0.13805648587E+02  0.50528879039E+02  0.30000058326E+02 0.  0.
         12    1    1    2    0    0  0.38145878855E+02 -0.27313203402E+01  0.13805648587E+02  0.40659120961E+02  0.00000000000E+00 0. -1.
         11    1    3    3    0    0 -0.23114188019E+02  0.42345581253E+01  0.86697534189E+00  0.23514863742E+02  0.51100000000E-03 0. -1.
        -11    1    3    3    0    0 -0.13342992449E+02 -0.28648079648E+01 -0.15746379059E+01  0.13737614675E+02  0.51100000000E-03 0.  1.
        -12    1    3    3    0    0 -0.16886983872E+01  0.13615701797E+01 -0.13097986023E+02  0.13276400622E+02  0.00000000000E+00 0.  1.
</event>
<event>
 7    1  0.2639126E-011  0.5052886E+02  0.7816164E-02  0.1300439E+00
        -11   -1    0    0    0    0  0.00000000000E+00  0.00000000000E+00  0.45593999997E+02  0.45594000000E+02  0.51100000000E-03 0. -1.
         11   -1    0    0    0    0 -0.00000000000E+00 -0.00000000000E+00 -0.45593999997E+02  0.45594000000E+02  0.51100000000E-03 0.  1.
    9900012    2    1    2    0    0 -0.16406264258E+02 -0.17210577687E+02 -0.32981757841E+02  0.50528857836E+02  0.29999993879E+02 0.  0.
         12    1    1    2    0    0  0.16406264258E+02  0.17210577687E+02  0.32981757841E+02  0.40659142164E+02  0.00000000000E+00 0. -1.
         11    1    3    3    0    0 -0.64058520710E+01  0.14086618994E+01 -0.76900363817E+01  0.10107221622E+02  0.51100000000E-03 0.  1.
        -11    1    3    3    0    0 -0.49164347948E+00  0.25141723117E+01 -0.14735504581E+02  0.14956532728E+02  0.51100000000E-03 0. -1.
         12    1    3    3    0    0 -0.95087687072E+01 -0.21133411899E+02 -0.10556216878E+02  0.25465103486E+02  0.00000000000E+00 0. -1.
</event>
<event>
 7    1  0.2639126E-011  0.5052886E+02  0.7816164E-02  0.1300439E+00
        -11   -1    0    0    0    0  0.00000000000E+00  0.00000000000E+00  0.45593999997E+02  0.45594000000E+02  0.51100000000E-03 0.  1.
         11   -1    0    0    0    0 -0.00000000000E+00 -0.00000000000E+00 -0.45593999997E+02  0.45594000000E+02  0.51100000000E-03 0. -1.
    9900012    2    1    2    0    0 -0.24937302177E+02 -0.24191322391E+02  0.21120520973E+02  0.50528861727E+02  0.30000005706E+02 0.  0.
         12    1    1    2    0    0  0.24937302177E+02  0.24191322391E+02 -0.21120520973E+02  0.40659138273E+02  0.00000000000E+00 0. -1.
         11    1    3    3    0    0 -0.25213634823E+01 -0.10249738847E+02  0.31096702924E+01  0.11003838868E+02  0.51100000000E-03 0. -1.
        -11    1    3    3    0    0 -0.45356845244E+01 -0.15416016787E+02  0.34900153327E+01  0.16444032807E+02  0.51100000000E-03 0.  1.
         12    1    3    3    0    0 -0.17880254170E+02  0.14744332429E+01  0.14520835348E+02  0.23080990052E+02  0.00000000000E+00 0. -1.
</event>
<event>
 7    1  0.2639126E-011  0.5052886E+02  0.7816164E-02  0.1300439E+00
        -11   -1    0    0    0    0  0.00000000000E+00  0.00000000000E+00  0.45593999997E+02  0.45594000000E+02  0.51100000000E-03 0.  1.
         11   -1    0    0    0    0 -0.00000000000E+00 -0.00000000000E+00 -0.45593999997E+02  0.45594000000E+02  0.51100000000E-03 0. -1.
    9900012    2    1    2    0    0 -0.35361514303E+02 -0.18971098771E+02  0.65441763931E+01  0.50528861703E+02  0.30000005633E+02 0.  0.
         12    1    1    2    0    0  0.35361514303E+02  0.18971098771E+02 -0.65441763931E+01  0.40659138297E+02  0.00000000000E+00 0. -1.
         11    1    3    3    0    0 -0.35826238916E+00  0.12972674221E+01 -0.40604284641E+01  0.42776552312E+01  0.51100000000E-03 0. -1.
        -11    1    3    3    0    0 -0.12897541746E+02  0.19089857511E+01 -0.44574817830E+00  0.13045669833E+02  0.51100000000E-03 0.  1.
         12    1    3    3    0    0 -0.22105710168E+02 -0.22177351944E+02  0.11050353036E+02  0.33205536639E+02  0.00000000000E+00 0. -1.
</event>
<event>
 7    1  0.2639126E-011  0.5052886E+02  0.7816164E-02  0.1300439E+00
        -11   -1    0    0    0    0  0.00000000000E+00  0.00000000000E+00  0.45593999997E+02  0.45594000000E+02  0.51100000000E-03 0.  1.
         11   -1    0    0    0    0 -0.00000000000E+00 -0.00000000000E+00 -0.45593999997E+02  0.45594000000E+02  0.51100000000E-03 0. -1.
    9900012    2    1    2    0    0 -0.14094595606E+02  0.34953643269E+02  0.15256168481E+02  0.50528862284E+02  0.30000007399E+02 0.  0.
         12    1    1    2    0    0  0.14094595606E+02 -0.34953643269E+02 -0.15256168481E+02  0.40659137716E+02  0.00000000000E+00 0. -1.
         11    1    3    3    0    0  0.65112246225E+01  0.13499418278E+02  0.65038509573E+01  0.16338005309E+02  0.51100000000E-03 0. -1.
        -11    1    3    3    0    0 -0.54439651642E+00  0.87114441151E+01 -0.36410170934E+00  0.87360286432E+01  0.51100000000E-03 0.  1.
         12    1    3    3    0    0 -0.20061423712E+02  0.12742780876E+02  0.91164192326E+01  0.25454828332E+02  0.00000000000E+00 0. -1.
</event>
<event>
 7    1  0.2639126E-011  0.5052886E+02  0.7816164E-02  0.1300439E+00
        -11   -1    0    0    0    0  0.00000000000E+00  0.00000000000E+00  0.45593999997E+02  0.45594000000E+02  0.51100000000E-03 0. -1.
         11   -1    0    0    0    0 -0.00000000000E+00 -0.00000000000E+00 -0.45593999997E+02  0.45594000000E+02  0.51100000000E-03 0.  1.
    9900012    2    1    2    0    0  0.57923982723E+00  0.19889082461E+02 -0.35457786309E+02  0.50528859209E+02  0.29999998053E+02 0.  0.
         12    1    1    2    0    0 -0.57923982723E+00 -0.19889082461E+02  0.35457786309E+02  0.40659140791E+02  0.00000000000E+00 0. -1.
         11    1    3    3    0    0  0.13339018908E+01 -0.12804438102E+01  0.98010819492E+00  0.20927118627E+01  0.51100000000E-03 0.  1.
        -11    1    3    3    0    0 -0.69685170598E+01 -0.19888582242E+01 -0.46161570848E+01  0.85921297442E+01  0.51100000000E-03 0. -1.
        -12    1    3    3    0    0  0.62138549962E+01  0.23158384495E+02 -0.31821737419E+02  0.39844017602E+02  0.00000000000E+00 0.  1.
</event>
<event>
 7    1  0.2639126E-011  0.5052887E+02  0.7816164E-02  0.1300439E+00
        -11   -1    0    0    0    0  0.00000000000E+00  0.00000000000E+00  0.45593999997E+02  0.45594000000E+02  0.51100000000E-03 0. -1.
         11   -1    0    0    0    0 -0.00000000000E+00 -0.00000000000E+00 -0.45593999997E+02  0.45594000000E+02  0.51100000000E-03 0.  1.
    9900012    2    1    2    0    0  0.23982967710E+02  0.32495437781E+02 -0.46934935545E+01  0.50528866973E+02  0.30000021652E+02 0.  0.
         12    1    1    2    0    0 -0.23982967710E+02 -0.32495437781E+02  0.46934935545E+01  0.40659133027E+02  0.00000000000E+00 0. -1.
         11    1    3    3    0    0 -0.94458611437E+00  0.98326251212E+00  0.26458395293E+01  0.29764937714E+01  0.51100000000E-03 0. -1.
        -11    1    3    3    0    0  0.24072981586E+02  0.28256069990E+02  0.24493698564E+01  0.37200985829E+02  0.51100000000E-03 0.  1.
         12    1    3    3    0    0  0.85457223871E+00  0.32561052784E+01 -0.97887029402E+01  0.10351387373E+02  0.00000000000E+00 0. -1.
</event>
<event>
 7    1  0.2639126E-011  0.5052888E+02  0.7816164E-02  0.1300439E+00
        -11   -1    0    0    0    0  0.00000000000E+00  0.00000000000E+00  0.45593999997E+02  0.45594000000E+02  0.51100000000E-03 0.  1.
         11   -1    0    0    0    0 -0.00000000000E+00 -0.00000000000E+00 -0.45593999997E+02  0.45594000000E+02  0.51100000000E-03 0. -1.
    9900012    2    1    2    0    0 -0.12525596862E+02 -0.26939456550E+01  0.38587773017E+02  0.50528878682E+02  0.30000057241E+02 0.  0.
         12    1    1    2    0    0  0.12525596862E+02  0.26939456550E+01 -0.38587773017E+02  0.40659121318E+02  0.00000000000E+00 0. -1.
         11    1    3    3    0    0 -0.18610504842E+01  0.14972561445E+01  0.59307678150E+00  0.24611024352E+01  0.51100000000E-03 0. -1.
        -11    1    3    3    0    0  0.77875141904E+01 -0.12717284176E+01  0.30822473528E+01  0.84712997491E+01  0.51100000000E-03 0.  1.
        -12    1    3    3    0    0 -0.18452060568E+02 -0.29194733818E+01  0.34912448883E+02  0.39596476498E+02  0.00000000000E+00 0.  1.
</event>
<event>
 7    1  0.2639126E-011  0.5052886E+02  0.7816164E-02  0.1300439E+00
        -11   -1    0    0    0    0  0.00000000000E+00  0.00000000000E+00  0.45593999997E+02  0.45594000000E+02  0.51100000000E-03 0.  1.
         11   -1    0    0    0    0 -0.00000000000E+00 -0.00000000000E+00 -0.45593999997E+02  0.45594000000E+02  0.51100000000E-03 0. -1.
    9900012    2    1    2    0    0 -0.16726402181E+01 -0.57409114757E+01  0.40217035845E+02  0.50528858813E+02  0.29999996848E+02 0.  0.
         12    1    1    2    0    0  0.16726402181E+01  0.57409114757E+01 -0.40217035845E+02  0.40659141187E+02  0.00000000000E+00 0. -1.
         11    1    3    3    0    0 -0.23010475593E+01  0.84720858512E+00 -0.14511805466E+01  0.28492994748E+01  0.51100000000E-03 0. -1.
        -11    1    3    3    0    0  0.55811395990E+01 -0.11210163068E+02  0.12347039193E+02  0.17585967483E+02  0.51100000000E-03 0.  1.
         12    1    3    3    0    0 -0.49527322578E+01  0.46220430072E+01  0.29321177199E+02  0.30093591855E+02  0.00000000000E+00 0. -1.
</event>
<event>
 7    1  0.2639126E-011  0.5052891E+02  0.7816164E-02  0.1300439E+00
        -11   -1    0    0    0    0  0.00000000000E+00  0.00000000000E+00  0.45593999997E+02  0.45594000000E+02  0.51100000000E-03 0.  1.
         11   -1    0    0    0    0 -0.00000000000E+00 -0.00000000000E+00 -0.45593999997E+02  0.45594000000E+02  0.51100000000E-03 0. -1.
    9900012    2    1    2    0    0  0.38802624123E+02 -0.10426658391E+02  0.62291935700E+01  0.50528908808E+02  0.30000148812E+02 0.  0.
         12    1    1    2    0    0 -0.38802624123E+02  0.10426658391E+02 -0.62291935700E+01  0.40659091192E+02  0.00000000000E+00 0. -1.
         11    1    3    3    0    0  0.13675641865E+02 -0.74763273583E+01 -0.61476691180E+01  0.16754476627E+02  0.51100000000E-03 0. -1.
        -11    1    3    3    0    0  0.20960434849E+02 -0.48249140933E+01  0.10197274794E+01  0.21532753411E+02  0.51100000000E-03 0.  1.
        -12    1    3    3    0    0  0.41665474092E+01  0.18745830609E+01  0.11357135209E+02  0.12241678770E+02  0.00000000000E+00 0.  1.
</event>
<event>
 7    1  0.2639126E-011  0.5052887E+02  0.7816164E-02  0.1300439E+00
        -11   -1    0    0    0    0  0.00000000000E+00  0.00000000000E+00  0.45593999997E+02  0.45594000000E+02  0.51100000000E-03 0.  1.
         11   -1    0    0    0    0 -0.00000000000E+00 -0.00000000000E+00 -0.45593999997E+02  0.45594000000E+02  0.51100000000E-03 0. -1.
    9900012    2    1    2    0    0 -0.40054523471E+02  0.35583277772E+01  0.60115301671E+01  0.50528867668E+02  0.30000023764E+02 0.  0.
         12    1    1    2    0    0  0.40054523471E+02 -0.35583277772E+01 -0.60115301671E+01  0.40659132332E+02  0.00000000000E+00 0. -1.
         11    1    3    3    0    0 -0.10688652781E+02 -0.27464480928E+01 -0.44423091312E+01  0.11896402232E+02  0.51100000000E-03 0. -1.
        -11    1    3    3    0    0 -0.14849659053E+02  0.64616136003E+01 -0.54615800726E+01  0.17090748417E+02  0.51100000000E-03 0.  1.
        -12    1    3    3    0    0 -0.14516211637E+02 -0.15683773028E+00  0.15915419371E+02  0.21541717019E+02  0.00000000000E+00 0.  1.
</event>
<event>
 7    1  0.2639126E-011  0.5052886E+02  0.7816164E-02  0.1300439E+00
        -11   -1    0    0    0    0  0.00000000000E+00  0.00000000000E+00  0.45593999997E+02  0.45594000000E+02  0.51100000000E-03 0. -1.
         11   -1    0    0    0    0 -0.00000000000E+00 -0.00000000000E+00 -0.45593999997E+02  0.45594000000E+02  0.51100000000E-03 0.  1.
    9900012    2    1    2    0    0  0.22496265037E+01  0.38783002705E+02 -0.11999324880E+02  0.50528856923E+02  0.29999991103E+02 0.  0.
         12    1    1    2    0    0 -0.22496265037E+01 -0.38783002705E+02  0.11999324880E+02  0.40659143077E+02  0.00000000000E+00 0. -1.
         11    1    3    3    0    0 -0.54738133148E+01  0.62614953440E+01 -0.51984881888E+01  0.98078150399E+01  0.51100000000E-03 0. -1.
        -11    1    3    3    0    0 -0.58730988765E+01  0.18664057110E+02 -0.82904025575E+01  0.21250202189E+02  0.51100000000E-03 0.  1.
         12    1    3    3    0    0  0.13596538695E+02  0.13857450250E+02  0.14895658664E+01  0.19470839694E+02  0.00000000000E+00 0. -1.
</event>
<event>
 7    1  0.2639126E-011  0.5052885E+02  0.7816164E-02  0.1300439E+00
        -11   -1    0    0    0    0  0.00000000000E+00  0.00000000000E+00  0.45593999997E+02  0.45594000000E+02  0.51100000000E-03 0.  1.
         11   -1    0    0    0    0 -0.00000000000E+00 -0.00000000000E+00 -0.45593999997E+02  0.45594000000E+02  0.51100000000E-03 0. -1.
    9900012    2    1    2    0    0 -0.14160210943E+02 -0.22548053342E+02  0.30728492301E+02  0.50528849461E+02  0.29999968421E+02 0.  0.
         12    1    1    2    0    0  0.14160210943E+02  0.22548053342E+02 -0.30728492301E+02  0.40659150539E+02  0.00000000000E+00 0. -1.
         11    1    3    3    0    0  0.62481187781E+01 -0.13353590604E+01  0.70105427968E+01  0.94852455241E+01  0.51100000000E-03 0. -1.
        -11    1    3    3    0    0 -0.84168399751E+01 -0.42337184602E+01  0.16572000278E+02  0.19063020764E+02  0.51100000000E-03 0.  1.
         12    1    3    3    0    0 -0.11991489746E+02 -0.16978975822E+02  0.71459492262E+01  0.21980583173E+02  0.00000000000E+00 0. -1.
</event>
<event>
 7    1  0.2639126E-011  0.5052886E+02  0.7816164E-02  0.1300439E+00
        -11   -1    0    0    0    0  0.00000000000E+00  0.00000000000E+00  0.45593999997E+02  0.45594000000E+02  0.51100000000E-03 0. -1.
         11   -1    0    0    0    0 -0.00000000000E+00 -0.00000000000E+00 -0.45593999997E+02  0.45594000000E+02  0.51100000000E-03 0.  1.
    9900012    2    1    2    0    0 -0.35505565793E+02 -0.18146184076E+02 -0.79521439189E+01  0.50528858448E+02  0.29999995739E+02 0.  0.
         12    1    1    2    0    0  0.35505565793E+02  0.18146184076E+02  0.79521439189E+01  0.40659141552E+02  0.00000000000E+00 0. -1.
         11    1    3    3    0    0 -0.30910419794E+01  0.23424305432E+01 -0.61087961390E+01  0.72359458190E+01  0.51100000000E-03 0. -1.
        -11    1    3    3    0    0 -0.19837303640E+02 -0.97090267698E+00  0.10805356011E+01  0.19890420437E+02  0.51100000000E-03 0.  1.
        -12    1    3    3    0    0 -0.12577220174E+02 -0.19517711942E+02 -0.29238833810E+01  0.23402492192E+02  0.00000000000E+00 0.  1.
</event>
<event>
 7    1  0.2639126E-011  0.5052886E+02  0.7816164E-02  0.1300439E+00
        -11   -1    0    0    0    0  0.00000000000E+00  0.00000000000E+00  0.45593999997E+02  0.45594000000E+02  0.51100000000E-03 0.  1.
         11   -1    0    0    0    0 -0.00000000000E+00 -0.00000000000E+00 -0.45593999997E+02  0.45594000000E+02  0.51100000000E-03 0. -1.
    9900012    2    1    2    0    0  0.73484386840E+01  0.39410543836E+02  0.67804955949E+01  0.50528860351E+02  0.30000001522E+02 0.  0.
         12    1    1    2    0    0 -0.73484386840E+01 -0.39410543836E+02 -0.67804955949E+01  0.40659139649E+02  0.00000000000E+00 0. -1.
         11    1    3    3    0    0  0.11357981687E+02  0.12934076445E+02  0.78234219010E+01  0.18907670719E+02  0.51100000000E-03 0.  1.
        -11    1    3    3    0    0  0.52523456481E+01  0.25350581858E+01  0.78984601849E+00  0.58853642034E+01  0.51100000000E-03 0. -1.
         12    1    3    3    0    0 -0.92618886515E+01  0.23941409205E+02 -0.18327723246E+01  0.25735825429E+02  0.00000000000E+00 0. -1.
</event>
<event>
 7    1  0.2639126E-011  0.5052887E+02  0.7816164E-02  0.1300439E+00
        -11   -1    0    0    0    0  0.00000000000E+00  0.00000000000E+00  0.45593999997E+02  0.45594000000E+02  0.51100000000E-03 0.  1.
         11   -1    0    0    0    0 -0.00000000000E+00 -0.00000000000E+00 -0.45593999997E+02  0.45594000000E+02  0.51100000000E-03 0. -1.
    9900012    2    1    2    0    0 -0.15186896085E+02  0.13254171696E+02  0.35310768592E+02  0.50528865004E+02  0.30000015666E+02 0.  0.
         12    1    1    2    0    0  0.15186896085E+02 -0.13254171696E+02 -0.35310768592E+02  0.40659134996E+02  0.00000000000E+00 0. -1.
         11    1    3    3    0    0 -0.15011329490E+02  0.17765543368E+02  0.24379988635E+02  0.33694782835E+02  0.51100000000E-03 0. -1.
        -11    1    3    3    0    0 -0.54300893902E+01 -0.18683524856E+01  0.89381955882E+01  0.10623933002E+02  0.51100000000E-03 0.  1.
         12    1    3    3    0    0  0.52545227944E+01 -0.26430191856E+01  0.19925843692E+01  0.62101491673E+01  0.00000000000E+00 0. -1.
</event>
<event>
 7    1  0.2639126E-011  0.5052886E+02  0.7816164E-02  0.1300439E+00
        -11   -1    0    0    0    0  0.00000000000E+00  0.00000000000E+00  0.45593999997E+02  0.45594000000E+02  0.51100000000E-03 0.  1.
         11   -1    0    0    0    0 -0.00000000000E+00 -0.00000000000E+00 -0.45593999997E+02  0.45594000000E+02  0.51100000000E-03 0. -1.
    9900012    2    1    2    0    0  0.32216883314E+02  0.23546033260E+02  0.77988900925E+01  0.50528856632E+02  0.29999990219E+02 0.  0.
         12    1    1    2    0    0 -0.32216883314E+02 -0.23546033260E+02 -0.77988900925E+01  0.40659143368E+02  0.00000000000E+00 0. -1.
         11    1    3    3    0    0  0.58417899022E+01  0.12909942282E+02 -0.43325460371E+01  0.14817694639E+02  0.51100000000E-03 0. -1.
        -11    1    3    3    0    0 -0.25888736305E+01  0.22555629379E+01  0.13518667656E+01  0.36901727405E+01  0.51100000000E-03 0.  1.
        -12    1    3    3    0    0  0.28963967042E+02  0.83805280400E+01  0.10779569364E+02  0.32020989253E+02  0.00000000000E+00 0.  1.
</event>
<event>
 7    1  0.2639126E-011  0.5052886E+02  0.7816164E-02  0.1300439E+00
        -11   -1    0    0    0    0  0.00000000000E+00  0.00000000000E+00  0.45593999997E+02  0.45594000000E+02  0.51100000000E-03 0.  1.
         11   -1    0    0    0    0 -0.00000000000E+00 -0.00000000000E+00 -0.45593999997E+02  0.45594000000E+02  0.51100000000E-03 0. -1.
    9900012    2    1    2    0    0 -0.20505617527E+01  0.31284130959E+02  0.25889462469E+02  0.50528856867E+02  0.29999990932E+02 0.  0.
         12    1    1    2    0    0  0.20505617527E+01 -0.31284130959E+02 -0.25889462469E+02  0.40659143133E+02  0.00000000000E+00 0. -1.
         11    1    3    3    0    0 -0.54937288220E+01  0.67478608724E+01  0.14705761842E+02  0.17087250052E+02  0.51100000000E-03 0. -1.
        -11    1    3    3    0    0 -0.70443585256E+01  0.34541538898E+01  0.41010143829E+01  0.88528235813E+01  0.51100000000E-03 0.  1.
        -12    1    3    3    0    0  0.10487525595E+02  0.21082116197E+02  0.70826862438E+01  0.24588783233E+02  0.00000000000E+00 0.  1.
</event>
<event>
 7    1  0.2639126E-011  0.5052887E+02  0.7816164E-02  0.1300439E+00
        -11   -1    0    0    0    0  0.00000000000E+00  0.00000000000E+00  0.45593999997E+02  0.45594000000E+02  0.51100000000E-03 0.  1.
         11   -1    0    0    0    0 -0.00000000000E+00 -0.00000000000E+00 -0.45593999997E+02  0.45594000000E+02  0.51100000000E-03 0. -1.
    9900012    2    1    2    0    0 -0.12606295078E+02  0.17474693442E+02  0.34480152461E+02  0.50528874330E+02  0.30000044015E+02 0.  0.
         12    1    1    2    0    0  0.12606295078E+02 -0.17474693442E+02 -0.34480152461E+02  0.40659125670E+02  0.00000000000E+00 0. -1.
         11    1    3    3    0    0  0.76550347566E+01  0.33822065188E+01  0.54646630293E+01  0.99950698020E+01  0.51100000000E-03 0.  1.
        -11    1    3    3    0    0  0.67340048337E+00 -0.16108469521E+01  0.47058945335E+00  0.18082452291E+01  0.51100000000E-03 0. -1.
        -12    1    3    3    0    0 -0.20934730318E+02  0.15703333875E+02  0.28544899978E+02  0.38725559299E+02  0.00000000000E+00 0.  1.
</event>
<event>
 7    1  0.2639126E-011  0.5052888E+02  0.7816164E-02  0.1300439E+00
        -11   -1    0    0    0    0  0.00000000000E+00  0.00000000000E+00  0.45593999997E+02  0.45594000000E+02  0.51100000000E-03 0.  1.
         11   -1    0    0    0    0 -0.00000000000E+00 -0.00000000000E+00 -0.45593999997E+02  0.45594000000E+02  0.51100000000E-03 0. -1.
    9900012    2    1    2    0    0 -0.36709717296E+02 -0.12609083644E+02  0.12106690791E+02  0.50528876839E+02  0.30000051640E+02 0.  0.
         12    1    1    2    0    0  0.36709717296E+02  0.12609083644E+02 -0.12106690791E+02  0.40659123161E+02  0.00000000000E+00 0. -1.
         11    1    3    3    0    0 -0.52886698292E+01 -0.71909901083E+01  0.70023477963E+00  0.89538090390E+01  0.51100000000E-03 0.  1.
        -11    1    3    3    0    0 -0.18113357844E+01 -0.87908632306E+01 -0.14984130407E+01  0.90997503024E+01  0.51100000000E-03 0. -1.
        -12    1    3    3    0    0 -0.29609711683E+02  0.33727696948E+01  0.12904869052E+02  0.32475317498E+02  0.00000000000E+00 0.  1.
</event>
<event>
 7    1  0.2639126E-011  0.5052886E+02  0.7816164E-02  0.1300439E+00
        -11   -1    0    0    0    0  0.00000000000E+00  0.00000000000E+00  0.45593999997E+02  0.45594000000E+02  0.51100000000E-03 0. -1.
         11   -1    0    0    0    0 -0.00000000000E+00 -0.00000000000E+00 -0.45593999997E+02  0.45594000000E+02  0.51100000000E-03 0.  1.
    9900012    2    1    2    0    0  0.24896648471E+02 -0.30406916318E+02  0.10427959909E+02  0.50528855728E+02  0.29999987470E+02 0.  0.
         12    1    1    2    0    0 -0.24896648471E+02  0.30406916318E+02 -0.10427959909E+02  0.40659144272E+02  0.00000000000E+00 0. -1.
         11    1    3    3    0    0 -0.24297885312E+01  0.65702132106E+00  0.65559143855E+01  0.70225040415E+01  0.51100000000E-03 0. -1.
        -11    1    3    3    0    0  0.12981159997E+02 -0.10908743696E+02 -0.42274614741E+01  0.17475200561E+02  0.51100000000E-03 0.  1.
        -12    1    3    3    0    0  0.14345277006E+02 -0.20155193944E+02  0.80995069981E+01  0.26031151125E+02  0.00000000000E+00 0.  1.
</event>
<event>
 7    1  0.2639126E-011  0.5052886E+02  0.7816164E-02  0.1300439E+00
        -11   -1    0    0    0    0  0.00000000000E+00  0.00000000000E+00  0.45593999997E+02  0.45594000000E+02  0.51100000000E-03 0.  1.
         11   -1    0    0    0    0 -0.00000000000E+00 -0.00000000000E+00 -0.45593999997E+02  0.45594000000E+02  0.51100000000E-03 0. -1.
    9900012    2    1    2    0    0  0.37864323592E+02  0.37010563446E+01  0.14344361089E+02  0.50528861861E+02  0.30000006113E+02 0.  0.
         12    1    1    2    0    0 -0.37864323592E+02 -0.37010563446E+01 -0.14344361089E+02  0.40659138139E+02  0.00000000000E+00 0. -1.
         11    1    3    3    0    0  0.46864703626E+01 -0.81721721767E+01 -0.34230563503E+01  0.10023208946E+02  0.51100000000E-03 0. -1.
        -11    1    3    3    0    0  0.75802625779E+01  0.63699428576E+01  0.25591774964E+01  0.10226726870E+02  0.51100000000E-03 0.  1.
        -12    1    3    3    0    0  0.25597590651E+02  0.55032856637E+01  0.15208239943E+02  0.30278926045E+02  0.00000000000E+00 0.  1.
</event>
<event>
 7    1  0.2639126E-011  0.5052886E+02  0.7816164E-02  0.1300439E+00
        -11   -1    0    0    0    0  0.00000000000E+00  0.00000000000E+00  0.45593999997E+02  0.45594000000E+02  0.51100000000E-03 0.  1.
         11   -1    0    0    0    0 -0.00000000000E+00 -0.00000000000E+00 -0.45593999997E+02  0.45594000000E+02  0.51100000000E-03 0. -1.
    9900012    2    1    2    0    0  0.38584580138E+02  0.45991376301E+01  0.11968447854E+02  0.50528860371E+02  0.30000001582E+02 0.  0.
         12    1    1    2    0    0 -0.38584580138E+02 -0.45991376301E+01 -0.11968447854E+02  0.40659139629E+02  0.00000000000E+00 0. -1.
         11    1    3    3    0    0  0.54222714310E+01  0.90579693389E+01  0.36315792824E+01  0.11164058597E+02  0.51100000000E-03 0.  1.
        -11    1    3    3    0    0  0.92785928125E+01  0.30328683207E+01  0.10381719279E+02  0.14250286674E+02  0.51100000000E-03 0. -1.
         12    1    3    3    0    0  0.23883715894E+02 -0.74917000295E+01 -0.20448507076E+01  0.25114515099E+02  0.00000000000E+00 0. -1.
</event>
<event>
 7    1  0.2639126E-011  0.5052886E+02  0.7816164E-02  0.1300439E+00
        -11   -1    0    0    0    0  0.00000000000E+00  0.00000000000E+00  0.45593999997E+02  0.45594000000E+02  0.51100000000E-03 0.  1.
         11   -1    0    0    0    0 -0.00000000000E+00 -0.00000000000E+00 -0.45593999997E+02  0.45594000000E+02  0.51100000000E-03 0. -1.
    9900012    2    1    2    0    0  0.53220476584E+01 -0.11055924059E+02  0.38763490941E+02  0.50528857388E+02  0.29999992515E+02 0.  0.
         12    1    1    2    0    0 -0.53220476584E+01  0.11055924059E+02 -0.38763490941E+02  0.40659142612E+02  0.00000000000E+00 0. -1.
         11    1    3    3    0    0 -0.64857724907E+01  0.15504921823E+01  0.12742551570E+02  0.14381998873E+02  0.51100000000E-03 0. -1.
        -11    1    3    3    0    0  0.44497224956E+01 -0.16103568453E+02  0.15082684292E+02  0.22508049958E+02  0.51100000000E-03 0.  1.
        -12    1    3    3    0    0  0.73580976534E+01  0.34971522120E+01  0.10938255079E+02  0.13638808557E+02  0.00000000000E+00 0.  1.
</event>
<event>
 7    1  0.2639126E-011  0.5052886E+02  0.7816164E-02  0.1300439E+00
        -11   -1    0    0    0    0  0.00000000000E+00  0.00000000000E+00  0.45593999997E+02  0.45594000000E+02  0.51100000000E-03 0. -1.
         11   -1    0    0    0    0 -0.00000000000E+00 -0.00000000000E+00 -0.45593999997E+02  0.45594000000E+02  0.51100000000E-03 0.  1.
    9900012    2    1    2    0    0 -0.33496190557E+01 -0.36104417019E+02 -0.18396107485E+02  0.50528860232E+02  0.30000001161E+02 0.  0.
         12    1    1    2    0    0  0.33496190557E+01  0.36104417019E+02  0.18396107485E+02  0.40659139768E+02  0.00000000000E+00 0. -1.
         11    1    3    3    0    0  0.14764548252E+01 -0.31182106236E+01  0.12153086507E+01  0.36578862368E+01  0.51100000000E-03 0. -1.
        -11    1    3    3    0    0 -0.11843426648E+01 -0.34543705500E+02 -0.92529896892E+01  0.35781113393E+02  0.51100000000E-03 0.  1.
        -12    1    3    3    0    0 -0.36417312161E+01  0.15574991051E+01 -0.10358426447E+02  0.11089860602E+02  0.00000000000E+00 0.  1.
</event>
<event>
 7    1  0.2639126E-011  0.5052886E+02  0.7816164E-02  0.1300439E+00
        -11   -1    0    0    0    0  0.00000000000E+00  0.00000000000E+00  0.45593999997E+02  0.45594000000E+02  0.51100000000E-03 0. -1.
         11   -1    0    0    0    0 -0.00000000000E+00 -0.00000000000E+00 -0.45593999997E+02  0.45594000000E+02  0.51100000000E-03 0.  1.
    9900012    2    1    2    0    0  0.20512674085E+02 -0.23633273881E+02 -0.25958893134E+02  0.50528861234E+02  0.30000004206E+02 0.  0.
         12    1    1    2    0    0 -0.20512674085E+02  0.23633273881E+02  0.25958893134E+02  0.40659138766E+02  0.00000000000E+00 0. -1.
         11    1    3    3    0    0  0.34098429023E+01  0.10212537246E+01 -0.10344898633E+02  0.10940151543E+02  0.51100000000E-03 0. -1.
        -11    1    3    3    0    0  0.80436871738E+01  0.12577963571E+01 -0.72254764287E+01  0.10885332558E+02  0.51100000000E-03 0.  1.
         12    1    3    3    0    0  0.90591440090E+01 -0.25912323963E+02 -0.83885180721E+01  0.28703377132E+02  0.00000000000E+00 0. -1.
</event>
<event>
 7    1  0.2639126E-011  0.5052886E+02  0.7816164E-02  0.1300439E+00
        -11   -1    0    0    0    0  0.00000000000E+00  0.00000000000E+00  0.45593999997E+02  0.45594000000E+02  0.51100000000E-03 0.  1.
         11   -1    0    0    0    0 -0.00000000000E+00 -0.00000000000E+00 -0.45593999997E+02  0.45594000000E+02  0.51100000000E-03 0. -1.
    9900012    2    1    2    0    0  0.72665565571E+01 -0.12359380340E+02  0.38047452337E+02  0.50528858889E+02  0.29999997079E+02 0.  0.
         12    1    1    2    0    0 -0.72665565571E+01  0.12359380340E+02 -0.38047452337E+02  0.40659141111E+02  0.00000000000E+00 0. -1.
         11    1    3    3    0    0  0.43362782063E+01  0.69355743950E+00  0.16694937984E+01  0.46980358032E+01  0.51100000000E-03 0. -1.
        -11    1    3    3    0    0  0.90787520517E+01  0.26035596518E+01  0.62499791595E+01  0.11325391889E+02  0.51100000000E-03 0.  1.
         12    1    3    3    0    0 -0.61484737008E+01 -0.15656497431E+02  0.30127979379E+02  0.34505431197E+02  0.00000000000E+00 0. -1.
</event>
<event>
 7    1  0.2639126E-011  0.5052886E+02  0.7816164E-02  0.1300439E+00
        -11   -1    0    0    0    0  0.00000000000E+00  0.00000000000E+00  0.45593999997E+02  0.45594000000E+02  0.51100000000E-03 0.  1.
         11   -1    0    0    0    0 -0.00000000000E+00 -0.00000000000E+00 -0.45593999997E+02  0.45594000000E+02  0.51100000000E-03 0. -1.
    9900012    2    1    2    0    0 -0.45608996825E+01 -0.28680008380E+02  0.28457359835E+02  0.50528855698E+02  0.29999987379E+02 0.  0.
         12    1    1    2    0    0  0.45608996825E+01  0.28680008380E+02 -0.28457359835E+02  0.40659144302E+02  0.00000000000E+00 0. -1.
         11    1    3    3    0    0 -0.30373927874E+01  0.19742341824E+01  0.10761929587E+01  0.37790934227E+01  0.51100000000E-03 0. -1.
        -11    1    3    3    0    0 -0.48563693304E+01  0.17368258636E+01  0.53725275266E+01  0.74474787303E+01  0.51100000000E-03 0.  1.
        -12    1    3    3    0    0  0.33328624353E+01 -0.32391068426E+02  0.22008639350E+02  0.39302283545E+02  0.00000000000E+00 0.  1.
</event>
<event>
 7    1  0.2639126E-011  0.5052886E+02  0.7816164E-02  0.1300439E+00
        -11   -1    0    0    0    0  0.00000000000E+00  0.00000000000E+00  0.45593999997E+02  0.45594000000E+02  0.51100000000E-03 0.  1.
         11   -1    0    0    0    0 -0.00000000000E+00 -0.00000000000E+00 -0.45593999997E+02  0.45594000000E+02  0.51100000000E-03 0. -1.
    9900012    2    1    2    0    0  0.14579824644E+02 -0.31679443240E+02  0.20904712968E+02  0.50528862836E+02  0.30000009076E+02 0.  0.
         12    1    1    2    0    0 -0.14579824644E+02  0.31679443240E+02 -0.20904712968E+02  0.40659137164E+02  0.00000000000E+00 0. -1.
         11    1    3    3    0    0 -0.15502434600E+01  0.11005831955E+01  0.31133914989E+01  0.36479782129E+01  0.51100000000E-03 0. -1.
        -11    1    3    3    0    0  0.10595208520E+02 -0.72115814774E+01  0.16220748450E+02  0.20673123410E+02  0.51100000000E-03 0.  1.
         12    1    3    3    0    0  0.55348595838E+01 -0.25568444958E+02  0.15705730193E+01  0.26207761213E+02  0.00000000000E+00 0. -1.
</event>
<event>
 7    1  0.2639126E-011  0.5052886E+02  0.7816164E-02  0.1300439E+00
        -11   -1    0    0    0    0  0.00000000000E+00  0.00000000000E+00  0.45593999997E+02  0.45594000000E+02  0.51100000000E-03 0.  1.
         11   -1    0    0    0    0 -0.00000000000E+00 -0.00000000000E+00 -0.45593999997E+02  0.45594000000E+02  0.51100000000E-03 0. -1.
    9900012    2    1    2    0    0  0.29100985073E+02  0.11640390200E+02  0.25899804335E+02  0.50528857353E+02  0.29999992409E+02 0.  0.
         12    1    1    2    0    0 -0.29100985073E+02 -0.11640390200E+02 -0.25899804335E+02  0.40659142647E+02  0.00000000000E+00 0. -1.
         11    1    3    3    0    0  0.45503810532E+01 -0.81453315916E+01  0.21119189911E+00  0.93325771760E+01  0.51100000000E-03 0. -1.
        -11    1    3    3    0    0  0.14888614734E+02  0.90202295827E+01  0.11065154573E+02  0.20626997755E+02  0.51100000000E-03 0.  1.
        -12    1    3    3    0    0  0.96619892859E+01  0.10765492209E+02  0.14623457863E+02  0.20569282421E+02  0.00000000000E+00 0.  1.
</event>
<event>
 7    1  0.2639126E-011  0.5052882E+02  0.7816164E-02  0.1300439E+00
        -11   -1    0    0    0    0  0.00000000000E+00  0.00000000000E+00  0.45593999997E+02  0.45594000000E+02  0.51100000000E-03 0. -1.
         11   -1    0    0    0    0 -0.00000000000E+00 -0.00000000000E+00 -0.45593999997E+02  0.45594000000E+02  0.51100000000E-03 0.  1.
    9900012    2    1    2    0    0 -0.23206613654E+02  0.30717550844E+02 -0.13078773062E+02  0.50528817126E+02  0.29999870136E+02 0.  0.
         12    1    1    2    0    0  0.23206613654E+02 -0.30717550844E+02  0.13078773062E+02  0.40659182874E+02  0.00000000000E+00 0. -1.
         11    1    3    3    0    0  0.28465525924E+01  0.80387763439E+01  0.25210828984E+01  0.88927299526E+01  0.51100000000E-03 0. -1.
        -11    1    3    3    0    0 -0.98512490098E+00  0.43025643901E+01  0.30712413728E+01  0.53772720996E+01  0.51100000000E-03 0.  1.
        -12    1    3    3    0    0 -0.25068041346E+02  0.18376210110E+02 -0.18671097334E+02  0.36258815074E+02  0.00000000000E+00 0.  1.
</event>
<event>
 7    1  0.2639126E-011  0.5052885E+02  0.7816164E-02  0.1300439E+00
        -11   -1    0    0    0    0  0.00000000000E+00  0.00000000000E+00  0.45593999997E+02  0.45594000000E+02  0.51100000000E-03 0. -1.
         11   -1    0    0    0    0 -0.00000000000E+00 -0.00000000000E+00 -0.45593999997E+02  0.45594000000E+02  0.51100000000E-03 0.  1.
    9900012    2    1    2    0    0 -0.11187592205E+02  0.32845469228E+02 -0.21193844399E+02  0.50528854552E+02  0.29999983895E+02 0.  0.
         12    1    1    2    0    0  0.11187592205E+02 -0.32845469228E+02  0.21193844399E+02  0.40659145448E+02  0.00000000000E+00 0. -1.
         11    1    3    3    0    0 -0.99543211777E-01  0.18691230543E+01  0.37956500110E+00  0.19098690254E+01  0.51100000000E-03 0. -1.
        -11    1    3    3    0    0 -0.12830448839E+02  0.19539843664E+02 -0.27107928712E+02  0.35794772065E+02  0.51100000000E-03 0.  1.
        -12    1    3    3    0    0  0.17423998458E+01  0.11436502510E+02  0.55345193121E+01  0.12824213462E+02  0.00000000000E+00 0.  1.
</event>
<event>
 7    1  0.2639126E-011  0.5052886E+02  0.7816164E-02  0.1300439E+00
        -11   -1    0    0    0    0  0.00000000000E+00  0.00000000000E+00  0.45593999997E+02  0.45594000000E+02  0.51100000000E-03 0.  1.
         11   -1    0    0    0    0 -0.00000000000E+00 -0.00000000000E+00 -0.45593999997E+02  0.45594000000E+02  0.51100000000E-03 0. -1.
    9900012    2    1    2    0    0 -0.29652601589E+02 -0.23931539160E+02  0.14183453585E+02  0.50528859537E+02  0.29999999050E+02 0.  0.
         12    1    1    2    0    0  0.29652601589E+02  0.23931539160E+02 -0.14183453585E+02  0.40659140463E+02  0.00000000000E+00 0. -1.
         11    1    3    3    0    0 -0.12390256534E+01  0.38603177364E+00 -0.27086611385E+01  0.30035063717E+01  0.51100000000E-03 0. -1.
        -11    1    3    3    0    0 -0.31188674249E+02 -0.14906761937E+02  0.14012379948E+02  0.37300023390E+02  0.51100000000E-03 0.  1.
         12    1    3    3    0    0  0.27750983139E+01 -0.94108089973E+01  0.28797347764E+01  0.10225329776E+02  0.00000000000E+00 0. -1.
</event>
<event>
 7    1  0.2639126E-011  0.5052886E+02  0.7816164E-02  0.1300439E+00
        -11   -1    0    0    0    0  0.00000000000E+00  0.00000000000E+00  0.45593999997E+02  0.45594000000E+02  0.51100000000E-03 0.  1.
         11   -1    0    0    0    0 -0.00000000000E+00 -0.00000000000E+00 -0.45593999997E+02  0.45594000000E+02  0.51100000000E-03 0. -1.
    9900012    2    1    2    0    0  0.10672278299E+02  0.39127886224E+02  0.28768530249E+01  0.50528864645E+02  0.30000014575E+02 0.  0.
         12    1    1    2    0    0 -0.10672278299E+02 -0.39127886224E+02 -0.28768530249E+01  0.40659135355E+02  0.00000000000E+00 0. -1.
         11    1    3    3    0    0  0.13185845052E+02  0.88313962911E+01  0.81751669526E+00  0.15891142312E+02  0.51100000000E-03 0. -1.
        -11    1    3    3    0    0  0.45712279966E+01  0.17662363744E+02  0.66873985244E+01  0.19431328254E+02  0.51100000000E-03 0.  1.
         12    1    3    3    0    0 -0.70847947494E+01  0.12634126189E+02 -0.46280621947E+01  0.15206394079E+02  0.00000000000E+00 0. -1.
</event>
<event>
 7    1  0.2639126E-011  0.5052886E+02  0.7816164E-02  0.1300439E+00
        -11   -1    0    0    0    0  0.00000000000E+00  0.00000000000E+00  0.45593999997E+02  0.45594000000E+02  0.51100000000E-03 0.  1.
         11   -1    0    0    0    0 -0.00000000000E+00 -0.00000000000E+00 -0.45593999997E+02  0.45594000000E+02  0.51100000000E-03 0. -1.
    9900012    2    1    2    0    0  0.11231553202E+02 -0.26844283914E+02  0.28397218368E+02  0.50528863545E+02  0.30000011232E+02 0.  0.
         12    1    1    2    0    0 -0.11231553202E+02  0.26844283914E+02 -0.28397218368E+02  0.40659136455E+02  0.00000000000E+00 0. -1.
         11    1    3    3    0    0 -0.15156909735E+01  0.26501726060E+01  0.32608223643E+01  0.44669560913E+01  0.51100000000E-03 0. -1.
        -11    1    3    3    0    0  0.99888791699E+01 -0.13293168461E+02  0.24506891211E+02  0.29615430976E+02  0.51100000000E-03 0.  1.
         12    1    3    3    0    0  0.27583650058E+01 -0.16201288059E+02  0.62950479324E+00  0.16446476478E+02  0.00000000000E+00 0. -1.
</event>
<event>
 7    1  0.2639126E-011  0.5052887E+02  0.7816164E-02  0.1300439E+00
        -11   -1    0    0    0    0  0.00000000000E+00  0.00000000000E+00  0.45593999997E+02  0.45594000000E+02  0.51100000000E-03 0.  1.
         11   -1    0    0    0    0 -0.00000000000E+00 -0.00000000000E+00 -0.45593999997E+02  0.45594000000E+02  0.51100000000E-03 0. -1.
    9900012    2    1    2    0    0 -0.12979685494E+02  0.36322347384E+02  0.12860012951E+02  0.50528867101E+02  0.30000022039E+02 0.  0.
         12    1    1    2    0    0  0.12979685494E+02 -0.36322347384E+02 -0.12860012951E+02  0.40659132899E+02  0.00000000000E+00 0. -1.
         11    1    3    3    0    0 -0.22009216952E+01 -0.23498667180E+01 -0.13264237041E+01  0.34821444549E+01  0.51100000000E-03 0. -1.
        -11    1    3    3    0    0  0.56110127324E-01  0.92032482603E+01 -0.47742945960E+01  0.10368067131E+02  0.51100000000E-03 0.  1.
        -12    1    3    3    0    0 -0.10834873926E+02  0.29468965842E+02  0.18960731251E+02  0.36678655515E+02  0.00000000000E+00 0.  1.
</event>
<event>
 7    1  0.2639126E-011  0.5052887E+02  0.7816164E-02  0.1300439E+00
        -11   -1    0    0    0    0  0.00000000000E+00  0.00000000000E+00  0.45593999997E+02  0.45594000000E+02  0.51100000000E-03 0.  1.
         11   -1    0    0    0    0 -0.00000000000E+00 -0.00000000000E+00 -0.45593999997E+02  0.45594000000E+02  0.51100000000E-03 0. -1.
    9900012    2    1    2    0    0  0.23497286837E+02 -0.29119091804E+02  0.15909774726E+02  0.50528869070E+02  0.30000028024E+02 0.  0.
         12    1    1    2    0    0 -0.23497286837E+02  0.29119091804E+02 -0.15909774726E+02  0.40659130930E+02  0.00000000000E+00 0. -1.
         11    1    3    3    0    0  0.95804317875E+01 -0.14880325901E+01  0.79638043132E+01  0.12546756299E+02  0.51100000000E-03 0. -1.
        -11    1    3    3    0    0  0.11022273263E+02 -0.12464515402E+02  0.13650355830E+02  0.21521776568E+02  0.51100000000E-03 0.  1.
         12    1    3    3    0    0  0.28945817867E+01 -0.15166543812E+02 -0.57043854178E+01  0.16460336203E+02  0.00000000000E+00 0. -1.
</event>
<event>
 7    1  0.2639126E-011  0.5052889E+02  0.7816164E-02  0.1300439E+00
        -11   -1    0    0    0    0  0.00000000000E+00  0.00000000000E+00  0.45593999997E+02  0.45594000000E+02  0.51100000000E-03 0. -1.
         11   -1    0    0    0    0 -0.00000000000E+00 -0.00000000000E+00 -0.45593999997E+02  0.45594000000E+02  0.51100000000E-03 0.  1.
    9900012    2    1    2    0    0 -0.17462156648E+02  0.26571463468E+02  0.25341538574E+02  0.50528890776E+02  0.30000094002E+02 0.  0.
         12    1    1    2    0    0  0.17462156648E+02 -0.26571463468E+02 -0.25341538574E+02  0.40659109224E+02  0.00000000000E+00 0. -1.
         11    1    3    3    0    0 -0.89973303578E+00  0.20465364935E+02  0.10341894057E+02  0.22947667734E+02  0.51100000000E-03 0. -1.
        -11    1    3    3    0    0  0.21118116066E+00  0.57031710110E+01  0.68871281312E+01  0.89444558929E+01  0.51100000000E-03 0.  1.
         12    1    3    3    0    0 -0.16773604773E+02  0.40292752140E+00  0.81125163853E+01  0.18636767149E+02  0.00000000000E+00 0. -1.
</event>
<event>
 7    1  0.2639126E-011  0.5052887E+02  0.7816164E-02  0.1300439E+00
        -11   -1    0    0    0    0  0.00000000000E+00  0.00000000000E+00  0.45593999997E+02  0.45594000000E+02  0.51100000000E-03 0.  1.
         11   -1    0    0    0    0 -0.00000000000E+00 -0.00000000000E+00 -0.45593999997E+02  0.45594000000E+02  0.51100000000E-03 0. -1.
    9900012    2    1    2    0    0  0.32020248476E+01  0.25810411255E+02  0.31252755825E+02  0.50528867706E+02  0.30000023878E+02 0.  0.
         12    1    1    2    0    0 -0.32020248476E+01 -0.25810411255E+02 -0.31252755825E+02  0.40659132294E+02  0.00000000000E+00 0. -1.
         11    1    3    3    0    0  0.75567747443E+01  0.61877248576E+01  0.37883886746E+01  0.10475909147E+02  0.51100000000E-03 0. -1.
        -11    1    3    3    0    0  0.84380542519E+01  0.55040839566E+01  0.86868536547E+01  0.13302523311E+02  0.51100000000E-03 0.  1.
        -12    1    3    3    0    0 -0.12792804149E+02  0.14118602441E+02  0.18777513496E+02  0.26750435248E+02  0.00000000000E+00 0.  1.
</event>
<event>
 7    1  0.2639126E-011  0.5052885E+02  0.7816164E-02  0.1300439E+00
        -11   -1    0    0    0    0  0.00000000000E+00  0.00000000000E+00  0.45593999997E+02  0.45594000000E+02  0.51100000000E-03 0. -1.
         11   -1    0    0    0    0 -0.00000000000E+00 -0.00000000000E+00 -0.45593999997E+02  0.45594000000E+02  0.51100000000E-03 0.  1.
    9900012    2    1    2    0    0 -0.32469685939E+02 -0.19251264477E+02 -0.15108756537E+02  0.50528853268E+02  0.29999979993E+02 0.  0.
         12    1    1    2    0    0  0.32469685939E+02  0.19251264477E+02  0.15108756537E+02  0.40659146732E+02  0.00000000000E+00 0. -1.
         11    1    3    3    0    0 -0.10044027774E+02  0.31352138394E+01 -0.90675511576E+01  0.13890015983E+02  0.51100000000E-03 0. -1.
        -11    1    3    3    0    0  0.20149957020E+01 -0.35949144689E+00 -0.29520988464E+01  0.35922596843E+01  0.51100000000E-03 0.  1.
        -12    1    3    3    0    0 -0.24440653867E+02 -0.22026986869E+02 -0.30891065326E+01  0.33046577601E+02  0.00000000000E+00 0.  1.
</event>
<event>
 7    1  0.2639126E-011  0.5052885E+02  0.7816164E-02  0.1300439E+00
        -11   -1    0    0    0    0  0.00000000000E+00  0.00000000000E+00  0.45593999997E+02  0.45594000000E+02  0.51100000000E-03 0.  1.
         11   -1    0    0    0    0 -0.00000000000E+00 -0.00000000000E+00 -0.45593999997E+02  0.45594000000E+02  0.51100000000E-03 0. -1.
    9900012    2    1    2    0    0  0.25067859920E+02  0.36210301225E+01  0.31806559096E+02  0.50528847751E+02  0.29999963223E+02 0.  0.
         12    1    1    2    0    0 -0.25067859920E+02 -0.36210301225E+01 -0.31806559096E+02  0.40659152249E+02  0.00000000000E+00 0. -1.
         11    1    3    3    0    0  0.93056356607E+01  0.71148403168E+01  0.27712559532E+02  0.30086571155E+02  0.51100000000E-03 0. -1.
        -11    1    3    3    0    0  0.27719209766E+01  0.65796834224E+00  0.60288210740E+01  0.66680695890E+01  0.51100000000E-03 0.  1.
         12    1    3    3    0    0  0.12990303283E+02 -0.41517785366E+01 -0.19348215101E+01  0.13774207007E+02  0.00000000000E+00 0. -1.
</event>
<event>
 7    1  0.2639126E-011  0.5052886E+02  0.7816164E-02  0.1300439E+00
        -11   -1    0    0    0    0  0.00000000000E+00  0.00000000000E+00  0.45593999997E+02  0.45594000000E+02  0.51100000000E-03 0. -1.
         11   -1    0    0    0    0 -0.00000000000E+00 -0.00000000000E+00 -0.45593999997E+02  0.45594000000E+02  0.51100000000E-03 0.  1.
    9900012    2    1    2    0    0  0.15230976962E+02  0.18378235541E+02 -0.32915403991E+02  0.50528855633E+02  0.29999987181E+02 0.  0.
         12    1    1    2    0    0 -0.15230976962E+02 -0.18378235541E+02  0.32915403991E+02  0.40659144367E+02  0.00000000000E+00 0. -1.
         11    1    3    3    0    0  0.10237691911E+01 -0.11092032982E+01  0.16496467691E+01  0.22360165557E+01  0.51100000000E-03 0. -1.
        -11    1    3    3    0    0  0.14891420439E+02  0.27653859896E+01 -0.86458742193E+01  0.17439980036E+02  0.51100000000E-03 0.  1.
         12    1    3    3    0    0 -0.68421266808E+00  0.16722052850E+02 -0.25919176541E+02  0.30852859041E+02  0.00000000000E+00 0. -1.
</event>
<event>
 7    1  0.2639126E-011  0.5052886E+02  0.7816164E-02  0.1300439E+00
        -11   -1    0    0    0    0  0.00000000000E+00  0.00000000000E+00  0.45593999997E+02  0.45594000000E+02  0.51100000000E-03 0. -1.
         11   -1    0    0    0    0 -0.00000000000E+00 -0.00000000000E+00 -0.45593999997E+02  0.45594000000E+02  0.51100000000E-03 0.  1.
    9900012    2    1    2    0    0  0.31712611997E+02  0.25412721029E+02  0.12919972848E+01  0.50528863183E+02  0.30000010130E+02 0.  0.
         12    1    1    2    0    0 -0.31712611997E+02 -0.25412721029E+02 -0.12919972848E+01  0.40659136817E+02  0.00000000000E+00 0. -1.
         11    1    3    3    0    0  0.24643510479E+02  0.23955798527E+01 -0.44839605308E+01  0.25162418681E+02  0.51100000000E-03 0. -1.
        -11    1    3    3    0    0 -0.49337779759E+00  0.33316829983E+00 -0.33962678223E+00  0.68539724212E+00  0.51100000000E-03 0.  1.
         12    1    3    3    0    0  0.75624793148E+01  0.22683972876E+02  0.61155845979E+01  0.24681047259E+02  0.00000000000E+00 0. -1.
</event>
<event>
 7    1  0.2639126E-011  0.5052886E+02  0.7816164E-02  0.1300439E+00
        -11   -1    0    0    0    0  0.00000000000E+00  0.00000000000E+00  0.45593999997E+02  0.45594000000E+02  0.51100000000E-03 0. -1.
         11   -1    0    0    0    0 -0.00000000000E+00 -0.00000000000E+00 -0.45593999997E+02  0.45594000000E+02  0.51100000000E-03 0.  1.
    9900012    2    1    2    0    0 -0.18646745133E+02  0.45376155039E+01 -0.35845144039E+02  0.50528863146E+02  0.30000010019E+02 0.  0.
         12    1    1    2    0    0  0.18646745133E+02 -0.45376155039E+01  0.35845144039E+02  0.40659136854E+02  0.00000000000E+00 0. -1.
         11    1    3    3    0    0 -0.38396449045E+01 -0.59545929202E+01 -0.52212798353E+01  0.88012393001E+01  0.51100000000E-03 0. -1.
        -11    1    3    3    0    0  0.23963108516E+01 -0.27132273073E+01 -0.13836394079E+02  0.14302087592E+02  0.51100000000E-03 0.  1.
        -12    1    3    3    0    0 -0.17203411080E+02  0.13205435731E+02 -0.16787470125E+02  0.27425536255E+02  0.00000000000E+00 0.  1.
</event>
<event>
 7    1  0.2639126E-011  0.5052884E+02  0.7816164E-02  0.1300439E+00
        -11   -1    0    0    0    0  0.00000000000E+00  0.00000000000E+00  0.45593999997E+02  0.45594000000E+02  0.51100000000E-03 0.  1.
         11   -1    0    0    0    0 -0.00000000000E+00 -0.00000000000E+00 -0.45593999997E+02  0.45594000000E+02  0.51100000000E-03 0. -1.
    9900012    2    1    2    0    0  0.11895573609E+02 -0.78499266933E+01  0.38079408338E+02  0.50528839163E+02  0.29999937121E+02 0.  0.
         12    1    1    2    0    0 -0.11895573609E+02  0.78499266933E+01 -0.38079408338E+02  0.40659160837E+02  0.00000000000E+00 0. -1.
         11    1    3    3    0    0  0.75898593778E+00  0.30378883024E+01  0.37168209603E+01  0.48599982823E+01  0.51100000000E-03 0. -1.
        -11    1    3    3    0    0  0.24556550072E+01  0.67606298703E+00  0.30629289692E+02  0.30735007565E+02  0.51100000000E-03 0.  1.
         12    1    3    3    0    0  0.86809326642E+01 -0.11563877983E+02  0.37332976852E+01  0.14933833317E+02  0.00000000000E+00 0. -1.
</event>
<event>
 7    1  0.2639126E-011  0.5052888E+02  0.7816164E-02  0.1300439E+00
        -11   -1    0    0    0    0  0.00000000000E+00  0.00000000000E+00  0.45593999997E+02  0.45594000000E+02  0.51100000000E-03 0. -1.
         11   -1    0    0    0    0 -0.00000000000E+00 -0.00000000000E+00 -0.45593999997E+02  0.45594000000E+02  0.51100000000E-03 0.  1.
    9900012    2    1    2    0    0 -0.26081233691E+02  0.30518805959E+02 -0.64448164519E+01  0.50528881378E+02  0.30000065436E+02 0.  0.
         12    1    1    2    0    0  0.26081233691E+02 -0.30518805959E+02  0.64448164519E+01  0.40659118622E+02  0.00000000000E+00 0. -1.
         11    1    3    3    0    0  0.79589177891E+00  0.12773090173E+02 -0.54903657493E+01  0.13925853389E+02  0.51100000000E-03 0.  1.
        -11    1    3    3    0    0 -0.39928150717E+01 -0.32447918985E+01 -0.20308010503E+01  0.55313108598E+01  0.51100000000E-03 0. -1.
         12    1    3    3    0    0 -0.22884310398E+02  0.20990507685E+02  0.10763503477E+01  0.31071717129E+02  0.00000000000E+00 0. -1.
</event>
<event>
 7    1  0.2639126E-011  0.5052885E+02  0.7816164E-02  0.1300439E+00
        -11   -1    0    0    0    0  0.00000000000E+00  0.00000000000E+00  0.45593999997E+02  0.45594000000E+02  0.51100000000E-03 0. -1.
         11   -1    0    0    0    0 -0.00000000000E+00 -0.00000000000E+00 -0.45593999997E+02  0.45594000000E+02  0.51100000000E-03 0.  1.
    9900012    2    1    2    0    0  0.28845640588E+02  0.24037602018E+02  0.15597741324E+02  0.50528845728E+02  0.29999957075E+02 0.  0.
         12    1    1    2    0    0 -0.28845640588E+02 -0.24037602018E+02 -0.15597741324E+02  0.40659154272E+02  0.00000000000E+00 0. -1.
         11    1    3    3    0    0  0.10323735344E+02 -0.45794885576E+01 -0.81071605764E+00  0.11322918691E+02  0.51100000000E-03 0. -1.
        -11    1    3    3    0    0 -0.43526041051E+00  0.53494075896E+01  0.41583210864E+01  0.67894953939E+01  0.51100000000E-03 0.  1.
        -12    1    3    3    0    0  0.18957165654E+02  0.23267682986E+02  0.12250136296E+02  0.32416431643E+02  0.00000000000E+00 0.  1.
</event>
<event>
 7    1  0.2639126E-011  0.5052886E+02  0.7816164E-02  0.1300439E+00
        -11   -1    0    0    0    0  0.00000000000E+00  0.00000000000E+00  0.45593999997E+02  0.45594000000E+02  0.51100000000E-03 0.  1.
         11   -1    0    0    0    0 -0.00000000000E+00 -0.00000000000E+00 -0.45593999997E+02  0.45594000000E+02  0.51100000000E-03 0. -1.
    9900012    2    1    2    0    0 -0.38512724008E+02  0.11750287191E+01  0.12982872581E+02  0.50528861009E+02  0.30000003524E+02 0.  0.
         12    1    1    2    0    0  0.38512724008E+02 -0.11750287191E+01 -0.12982872581E+02  0.40659138991E+02  0.00000000000E+00 0. -1.
         11    1    3    3    0    0 -0.17424181630E+02 -0.11621484401E+02  0.22921867852E+01  0.21069293431E+02  0.51100000000E-03 0. -1.
        -11    1    3    3    0    0  0.62460327862E+00  0.16930775717E+01  0.36570946858E+01  0.40781101899E+01  0.51100000000E-03 0.  1.
        -12    1    3    3    0    0 -0.21713145657E+02  0.11103435548E+02  0.70335911097E+01  0.25381457389E+02  0.00000000000E+00 0.  1.
</event>
<event>
 7    1  0.2639126E-011  0.5052886E+02  0.7816164E-02  0.1300439E+00
        -11   -1    0    0    0    0  0.00000000000E+00  0.00000000000E+00  0.45593999997E+02  0.45594000000E+02  0.51100000000E-03 0. -1.
         11   -1    0    0    0    0 -0.00000000000E+00 -0.00000000000E+00 -0.45593999997E+02  0.45594000000E+02  0.51100000000E-03 0.  1.
    9900012    2    1    2    0    0 -0.35686806167E+02  0.16962458893E+02  0.95860453642E+01  0.50528863120E+02  0.30000009940E+02 0.  0.
         12    1    1    2    0    0  0.35686806167E+02 -0.16962458893E+02 -0.95860453642E+01  0.40659136880E+02  0.00000000000E+00 0. -1.
         11    1    3    3    0    0 -0.12269769932E+02  0.99019184639E+01  0.13964728298E+02  0.21062024597E+02  0.51100000000E-03 0. -1.
        -11    1    3    3    0    0 -0.44863576960E+00  0.59327394807E+01  0.45923225037E+00  0.59673751617E+01  0.51100000000E-03 0.  1.
        -12    1    3    3    0    0 -0.22968400466E+02  0.11278009481E+01 -0.48379151840E+01  0.23499463361E+02  0.00000000000E+00 0.  1.
</event>
<event>
 7    1  0.2639126E-011  0.5052887E+02  0.7816164E-02  0.1300439E+00
        -11   -1    0    0    0    0  0.00000000000E+00  0.00000000000E+00  0.45593999997E+02  0.45594000000E+02  0.51100000000E-03 0.  1.
         11   -1    0    0    0    0 -0.00000000000E+00 -0.00000000000E+00 -0.45593999997E+02  0.45594000000E+02  0.51100000000E-03 0. -1.
    9900012    2    1    2    0    0  0.35219333138E+02 -0.95886107895E+01  0.17911512756E+02  0.50528866060E+02  0.30000018877E+02 0.  0.
         12    1    1    2    0    0 -0.35219333138E+02  0.95886107895E+01 -0.17911512756E+02  0.40659133940E+02  0.00000000000E+00 0. -1.
         11    1    3    3    0    0 -0.95855353395E+00  0.47049088412E+00 -0.19434700246E+01  0.22174901459E+01  0.51100000000E-03 0. -1.
        -11    1    3    3    0    0 -0.11294481520E+01  0.30156781629E+01 -0.13024014739E+01  0.34736461781E+01  0.51100000000E-03 0.  1.
        -12    1    3    3    0    0  0.37307334824E+02 -0.13074779836E+02  0.21157384254E+02  0.44837729736E+02  0.00000000000E+00 0.  1.
</event>
<event>
 7    1  0.2639126E-011  0.5052886E+02  0.7816164E-02  0.1300439E+00
        -11   -1    0    0    0    0  0.00000000000E+00  0.00000000000E+00  0.45593999997E+02  0.45594000000E+02  0.51100000000E-03 0. -1.
         11   -1    0    0    0    0 -0.00000000000E+00 -0.00000000000E+00 -0.45593999997E+02  0.45594000000E+02  0.51100000000E-03 0.  1.
    9900012    2    1    2    0    0  0.95668133035E+01  0.14713082234E+01 -0.39490215344E+02  0.50528858683E+02  0.29999996454E+02 0.  0.
         12    1    1    2    0    0 -0.95668133035E+01 -0.14713082234E+01  0.39490215344E+02  0.40659141317E+02  0.00000000000E+00 0. -1.
         11    1    3    3    0    0  0.33587506955E+01 -0.19309181845E+01 -0.70017050236E+01  0.80020950237E+01  0.51100000000E-03 0. -1.
        -11    1    3    3    0    0  0.41650775917E+01 -0.14063032686E+01 -0.35977022493E+02  0.36244609364E+02  0.51100000000E-03 0.  1.
         12    1    3    3    0    0  0.20429850164E+01  0.48085296764E+01  0.34885121721E+01  0.62821542962E+01  0.00000000000E+00 0. -1.
</event>
<event>
 7    1  0.2639126E-011  0.5052886E+02  0.7816164E-02  0.1300439E+00
        -11   -1    0    0    0    0  0.00000000000E+00  0.00000000000E+00  0.45593999997E+02  0.45594000000E+02  0.51100000000E-03 0.  1.
         11   -1    0    0    0    0 -0.00000000000E+00 -0.00000000000E+00 -0.45593999997E+02  0.45594000000E+02  0.51100000000E-03 0. -1.
    9900012    2    1    2    0    0 -0.24660218270E+02  0.93596623010E+01  0.30942462394E+02  0.50528860529E+02  0.30000002064E+02 0.  0.
         12    1    1    2    0    0  0.24660218270E+02 -0.93596623010E+01 -0.30942462394E+02  0.40659139471E+02  0.00000000000E+00 0. -1.
         11    1    3    3    0    0 -0.56167932473E+01  0.82029799753E+01  0.52206128956E+01  0.11229071472E+02  0.51100000000E-03 0. -1.
        -11    1    3    3    0    0 -0.11185347171E+02  0.11902314452E+02  0.12850412946E+02  0.20782449177E+02  0.51100000000E-03 0.  1.
        -12    1    3    3    0    0 -0.78580778516E+01 -0.10745632126E+02  0.12871436553E+02  0.18517339880E+02  0.00000000000E+00 0.  1.
</event>
<event>
 7    1  0.2639126E-011  0.5052885E+02  0.7816164E-02  0.1300439E+00
        -11   -1    0    0    0    0  0.00000000000E+00  0.00000000000E+00  0.45593999997E+02  0.45594000000E+02  0.51100000000E-03 0.  1.
         11   -1    0    0    0    0 -0.00000000000E+00 -0.00000000000E+00 -0.45593999997E+02  0.45594000000E+02  0.51100000000E-03 0. -1.
    9900012    2    1    2    0    0 -0.80994205093E+00 -0.34508972164E+02  0.21485839035E+02  0.50528850415E+02  0.29999971320E+02 0.  0.
         12    1    1    2    0    0  0.80994205093E+00  0.34508972164E+02 -0.21485839035E+02  0.40659149585E+02  0.00000000000E+00 0. -1.
         11    1    3    3    0    0  0.13139673559E+01  0.29786630989E+01  0.68785386033E+01  0.76100747465E+01  0.51100000000E-03 0. -1.
        -11    1    3    3    0    0 -0.11515417115E+01 -0.30919592711E+01  0.69123765816E+01  0.76594523770E+01  0.51100000000E-03 0.  1.
         12    1    3    3    0    0 -0.97236769533E+00 -0.34395675992E+02  0.76949238503E+01  0.35259323291E+02  0.00000000000E+00 0. -1.
</event>
<event>
 7    1  0.2639126E-011  0.5052883E+02  0.7816164E-02  0.1300439E+00
        -11   -1    0    0    0    0  0.00000000000E+00  0.00000000000E+00  0.45593999997E+02  0.45594000000E+02  0.51100000000E-03 0. -1.
         11   -1    0    0    0    0 -0.00000000000E+00 -0.00000000000E+00 -0.45593999997E+02  0.45594000000E+02  0.51100000000E-03 0.  1.
    9900012    2    1    2    0    0 -0.83820619144E+01 -0.17600666335E+02 -0.35680892130E+02  0.50528825382E+02  0.29999895232E+02 0.  0.
         12    1    1    2    0    0  0.83820619144E+01  0.17600666335E+02  0.35680892130E+02  0.40659174618E+02  0.00000000000E+00 0. -1.
         11    1    3    3    0    0  0.55779204871E+00  0.68338761076E+01 -0.38852655211E+01  0.78808808553E+01  0.51100000000E-03 0. -1.
        -11    1    3    3    0    0 -0.81447595369E+01 -0.68286905956E+01 -0.14271717555E+02  0.17794663397E+02  0.51100000000E-03 0.  1.
        -12    1    3    3    0    0 -0.79509442613E+00 -0.17605851847E+02 -0.17523909054E+02  0.24853281130E+02  0.00000000000E+00 0.  1.
</event>
<event>
 7    1  0.2639126E-011  0.5052885E+02  0.7816164E-02  0.1300439E+00
        -11   -1    0    0    0    0  0.00000000000E+00  0.00000000000E+00  0.45593999997E+02  0.45594000000E+02  0.51100000000E-03 0. -1.
         11   -1    0    0    0    0 -0.00000000000E+00 -0.00000000000E+00 -0.45593999997E+02  0.45594000000E+02  0.51100000000E-03 0.  1.
    9900012    2    1    2    0    0  0.18593870185E+02  0.26433229790E+02 -0.24672224909E+02  0.50528851859E+02  0.29999975711E+02 0.  0.
         12    1    1    2    0    0 -0.18593870185E+02 -0.26433229790E+02  0.24672224909E+02  0.40659148141E+02  0.00000000000E+00 0. -1.
         11    1    3    3    0    0  0.19053016479E+02  0.48336452596E+01 -0.81719697075E+01  0.21287617354E+02  0.51100000000E-03 0. -1.
        -11    1    3    3    0    0  0.46105561327E+01  0.15530797875E+02 -0.10366572051E+02  0.19233531315E+02  0.51100000000E-03 0.  1.
        -12    1    3    3    0    0 -0.50697024268E+01  0.60687866556E+01 -0.61336831499E+01  0.10007703191E+02  0.00000000000E+00 0.  1.
</event>
<event>
 7    1  0.2639126E-011  0.5052885E+02  0.7816164E-02  0.1300439E+00
        -11   -1    0    0    0    0  0.00000000000E+00  0.00000000000E+00  0.45593999997E+02  0.45594000000E+02  0.51100000000E-03 0.  1.
         11   -1    0    0    0    0 -0.00000000000E+00 -0.00000000000E+00 -0.45593999997E+02  0.45594000000E+02  0.51100000000E-03 0. -1.
    9900012    2    1    2    0    0  0.56782010812E+01 -0.39678095563E+02  0.68244803203E+01  0.50528846459E+02  0.29999959296E+02 0.  0.
         12    1    1    2    0    0 -0.56782010812E+01  0.39678095563E+02 -0.68244803203E+01  0.40659153541E+02  0.00000000000E+00 0. -1.
         11    1    3    3    0    0  0.43942043706E+01 -0.93411978238E+01 -0.14122467275E+01  0.10419282601E+02  0.51100000000E-03 0. -1.
        -11    1    3    3    0    0  0.11417549426E+02 -0.14594916847E+02 -0.22246611029E+01  0.18663363843E+02  0.51100000000E-03 0.  1.
         12    1    3    3    0    0 -0.10133552715E+02 -0.15741980892E+02  0.10461388151E+02  0.21446200015E+02  0.00000000000E+00 0. -1.
</event>
<event>
 7    1  0.2639126E-011  0.5052886E+02  0.7816164E-02  0.1300439E+00
        -11   -1    0    0    0    0  0.00000000000E+00  0.00000000000E+00  0.45593999997E+02  0.45594000000E+02  0.51100000000E-03 0.  1.
         11   -1    0    0    0    0 -0.00000000000E+00 -0.00000000000E+00 -0.45593999997E+02  0.45594000000E+02  0.51100000000E-03 0. -1.
    9900012    2    1    2    0    0  0.26317024896E+02 -0.40601313652E+01  0.30726125771E+02  0.50528864852E+02  0.30000015206E+02 0.  0.
         12    1    1    2    0    0 -0.26317024896E+02  0.40601313652E+01 -0.30726125771E+02  0.40659135148E+02  0.00000000000E+00 0. -1.
         11    1    3    3    0    0  0.56394245174E+01  0.40668259698E+01  0.37417191065E+01  0.78957358422E+01  0.51100000000E-03 0. -1.
        -11    1    3    3    0    0  0.11906125869E+01  0.68376554492E+01  0.12484520063E+01  0.70519304482E+01  0.51100000000E-03 0.  1.
        -12    1    3    3    0    0  0.19486987792E+02 -0.14964612784E+02  0.25735954658E+02  0.35581198562E+02  0.00000000000E+00 0.  1.
</event>
<event>
 7    1  0.2639126E-011  0.5052886E+02  0.7816164E-02  0.1300439E+00
        -11   -1    0    0    0    0  0.00000000000E+00  0.00000000000E+00  0.45593999997E+02  0.45594000000E+02  0.51100000000E-03 0.  1.
         11   -1    0    0    0    0 -0.00000000000E+00 -0.00000000000E+00 -0.45593999997E+02  0.45594000000E+02  0.51100000000E-03 0. -1.
    9900012    2    1    2    0    0  0.74796605165E+01 -0.37087497555E+02  0.14890863141E+02  0.50528860788E+02  0.30000002852E+02 0.  0.
         12    1    1    2    0    0 -0.74796605165E+01  0.37087497555E+02 -0.14890863141E+02  0.40659139212E+02  0.00000000000E+00 0. -1.
         11    1    3    3    0    0 -0.31078149597E-01 -0.24762735072E+01 -0.20434726107E+01  0.32107128345E+01  0.51100000000E-03 0. -1.
        -11    1    3    3    0    0  0.57935892262E+01  0.18726528774E+01 -0.16908426493E+01  0.63191339634E+01  0.51100000000E-03 0.  1.
        -12    1    3    3    0    0  0.17171494399E+01 -0.36483876926E+02  0.18625178401E+02  0.40999013990E+02  0.00000000000E+00 0.  1.
</event>
<event>
 7    1  0.2639126E-011  0.5052886E+02  0.7816164E-02  0.1300439E+00
        -11   -1    0    0    0    0  0.00000000000E+00  0.00000000000E+00  0.45593999997E+02  0.45594000000E+02  0.51100000000E-03 0. -1.
         11   -1    0    0    0    0 -0.00000000000E+00 -0.00000000000E+00 -0.45593999997E+02  0.45594000000E+02  0.51100000000E-03 0.  1.
    9900012    2    1    2    0    0 -0.18533051792E+02  0.16216334390E+00 -0.36189304563E+02  0.50528855021E+02  0.29999985322E+02 0.  0.
         12    1    1    2    0    0  0.18533051792E+02 -0.16216334390E+00  0.36189304563E+02  0.40659144979E+02  0.00000000000E+00 0. -1.
         11    1    3    3    0    0 -0.51058852481E+01  0.95353221586E+01 -0.11338504768E+02  0.15670166670E+02  0.51100000000E-03 0. -1.
        -11    1    3    3    0    0 -0.60611378831E+01  0.41671209248E+01 -0.26227606550E+01  0.78090436646E+01  0.51100000000E-03 0.  1.
        -12    1    3    3    0    0 -0.73660286603E+01 -0.13540279740E+02 -0.22228039140E+02  0.27049644686E+02  0.00000000000E+00 0.  1.
</event>
<event>
 7    1  0.2639126E-011  0.5052885E+02  0.7816164E-02  0.1300439E+00
        -11   -1    0    0    0    0  0.00000000000E+00  0.00000000000E+00  0.45593999997E+02  0.45594000000E+02  0.51100000000E-03 0.  1.
         11   -1    0    0    0    0 -0.00000000000E+00 -0.00000000000E+00 -0.45593999997E+02  0.45594000000E+02  0.51100000000E-03 0. -1.
    9900012    2    1    2    0    0  0.35082437343E+02 -0.19229153181E+02  0.72545385946E+01  0.50528854999E+02  0.29999985256E+02 0.  0.
         12    1    1    2    0    0 -0.35082437343E+02  0.19229153181E+02 -0.72545385946E+01  0.40659145001E+02  0.00000000000E+00 0. -1.
         11    1    3    3    0    0  0.12168693738E+02  0.14657394649E+01  0.40626585732E+01  0.12912424033E+02  0.51100000000E-03 0. -1.
        -11    1    3    3    0    0  0.43672709025E+01 -0.67836427593E+01  0.10560514458E+02  0.13289670053E+02  0.51100000000E-03 0.  1.
        -12    1    3    3    0    0  0.18546472702E+02 -0.13911249886E+02 -0.73686344369E+01  0.24326760914E+02  0.00000000000E+00 0.  1.
</event>
<event>
 7    1  0.2639126E-011  0.5052887E+02  0.7816164E-02  0.1300439E+00
        -11   -1    0    0    0    0  0.00000000000E+00  0.00000000000E+00  0.45593999997E+02  0.45594000000E+02  0.51100000000E-03 0.  1.
         11   -1    0    0    0    0 -0.00000000000E+00 -0.00000000000E+00 -0.45593999997E+02  0.45594000000E+02  0.51100000000E-03 0. -1.
    9900012    2    1    2    0    0 -0.25727873553E+02 -0.11332674498E+02  0.29373663615E+02  0.50528866918E+02  0.30000021484E+02 0.  0.
         12    1    1    2    0    0  0.25727873553E+02  0.11332674498E+02 -0.29373663615E+02  0.40659133082E+02  0.00000000000E+00 0. -1.
         11    1    3    3    0    0 -0.65535170003E+01  0.33967798927E+01  0.86859653530E+01  0.11398802265E+02  0.51100000000E-03 0. -1.
        -11    1    3    3    0    0  0.19333016726E+01  0.16754974407E+01  0.10029564446E+02  0.10350705786E+02  0.51100000000E-03 0.  1.
        -12    1    3    3    0    0 -0.21107658225E+02 -0.16404951832E+02  0.10658133816E+02  0.28779358867E+02  0.00000000000E+00 0.  1.
</event>
<event>
 7    1  0.2639126E-011  0.5052886E+02  0.7816164E-02  0.1300439E+00
        -11   -1    0    0    0    0  0.00000000000E+00  0.00000000000E+00  0.45593999997E+02  0.45594000000E+02  0.51100000000E-03 0.  1.
         11   -1    0    0    0    0 -0.00000000000E+00 -0.00000000000E+00 -0.45593999997E+02  0.45594000000E+02  0.51100000000E-03 0. -1.
    9900012    2    1    2    0    0 -0.13324856112E+02 -0.26773723071E+02  0.27545990982E+02  0.50528860109E+02  0.30000000787E+02 0.  0.
         12    1    1    2    0    0  0.13324856112E+02  0.26773723071E+02 -0.27545990982E+02  0.40659139891E+02  0.00000000000E+00 0. -1.
         11    1    3    3    0    0 -0.58253900436E+01  0.20264553170E+01  0.42650249570E+00  0.61825233482E+01  0.51100000000E-03 0. -1.
        -11    1    3    3    0    0 -0.37808344253E+01 -0.20181987268E+02  0.62499987125E+01  0.21463219777E+02  0.51100000000E-03 0.  1.
        -12    1    3    3    0    0 -0.37186316427E+01 -0.86181911208E+01  0.20869489774E+02  0.22883116984E+02  0.00000000000E+00 0.  1.
</event>
<event>
 7    1  0.2639126E-011  0.5052885E+02  0.7816164E-02  0.1300439E+00
        -11   -1    0    0    0    0  0.00000000000E+00  0.00000000000E+00  0.45593999997E+02  0.45594000000E+02  0.51100000000E-03 0.  1.
         11   -1    0    0    0    0 -0.00000000000E+00 -0.00000000000E+00 -0.45593999997E+02  0.45594000000E+02  0.51100000000E-03 0. -1.
    9900012    2    1    2    0    0 -0.31282154050E+02 -0.20790007694E+02  0.15568189409E+02  0.50528854616E+02  0.29999984090E+02 0.  0.
         12    1    1    2    0    0  0.31282154050E+02  0.20790007694E+02 -0.15568189409E+02  0.40659145384E+02  0.00000000000E+00 0. -1.
         11    1    3    3    0    0 -0.83091829044E+01 -0.43304399690E+01  0.13208493912E+02  0.16194429368E+02  0.51100000000E-03 0. -1.
        -11    1    3    3    0    0 -0.93063280899E+01  0.15150193973E+01  0.63998827394E+01  0.11395680130E+02  0.51100000000E-03 0.  1.
         12    1    3    3    0    0 -0.13666643055E+02 -0.17974587122E+02 -0.40401872424E+01  0.22938745118E+02  0.00000000000E+00 0. -1.
</event>
<event>
 7    1  0.2639126E-011  0.5052885E+02  0.7816164E-02  0.1300439E+00
        -11   -1    0    0    0    0  0.00000000000E+00  0.00000000000E+00  0.45593999997E+02  0.45594000000E+02  0.51100000000E-03 0.  1.
         11   -1    0    0    0    0 -0.00000000000E+00 -0.00000000000E+00 -0.45593999997E+02  0.45594000000E+02  0.51100000000E-03 0. -1.
    9900012    2    1    2    0    0  0.86460672394E+01 -0.14944237068E+02  0.36811430735E+02  0.50528854251E+02  0.29999982982E+02 0.  0.
         12    1    1    2    0    0 -0.86460672394E+01  0.14944237068E+02 -0.36811430735E+02  0.40659145749E+02  0.00000000000E+00 0. -1.
         11    1    3    3    0    0  0.27916288936E+01  0.60317529347E+01  0.11904590169E+02  0.13634313430E+02  0.51100000000E-03 0. -1.
        -11    1    3    3    0    0  0.36822900648E+01 -0.11422474701E+02  0.24271622765E+02  0.27076629412E+02  0.51100000000E-03 0.  1.
        -12    1    3    3    0    0  0.21721482810E+01 -0.95535153023E+01  0.63521780081E+00  0.98179114093E+01  0.00000000000E+00 0.  1.
</event>
<event>
 7    1  0.2639126E-011  0.5052886E+02  0.7816164E-02  0.1300439E+00
        -11   -1    0    0    0    0  0.00000000000E+00  0.00000000000E+00  0.45593999997E+02  0.45594000000E+02  0.51100000000E-03 0.  1.
         11   -1    0    0    0    0 -0.00000000000E+00 -0.00000000000E+00 -0.45593999997E+02  0.45594000000E+02  0.51100000000E-03 0. -1.
    9900012    2    1    2    0    0  0.14882809668E+02  0.31984533934E+02  0.20215272879E+02  0.50528859673E+02  0.29999999461E+02 0.  0.
         12    1    1    2    0    0 -0.14882809668E+02 -0.31984533934E+02 -0.20215272879E+02  0.40659140327E+02  0.00000000000E+00 0. -1.
         11    1    3    3    0    0  0.31122685693E+01 -0.56543325119E+00 -0.19783220898E+00  0.31693955659E+01  0.51100000000E-03 0. -1.
        -11    1    3    3    0    0 -0.27360888868E+01  0.16994260332E+02  0.19583511859E+02  0.26073070468E+02  0.51100000000E-03 0.  1.
         12    1    3    3    0    0  0.14506629986E+02  0.15555706853E+02  0.82959322909E+00  0.21286393639E+02  0.00000000000E+00 0. -1.
</event>
<event>
 7    1  0.2639126E-011  0.5052885E+02  0.7816164E-02  0.1300439E+00
        -11   -1    0    0    0    0  0.00000000000E+00  0.00000000000E+00  0.45593999997E+02  0.45594000000E+02  0.51100000000E-03 0.  1.
         11   -1    0    0    0    0 -0.00000000000E+00 -0.00000000000E+00 -0.45593999997E+02  0.45594000000E+02  0.51100000000E-03 0. -1.
    9900012    2    1    2    0    0 -0.22853424463E+02  0.93466224135E+01  0.32303681240E+02  0.50528853650E+02  0.29999981155E+02 0.  0.
         12    1    1    2    0    0  0.22853424463E+02 -0.93466224135E+01 -0.32303681240E+02  0.40659146350E+02  0.00000000000E+00 0. -1.
         11    1    3    3    0    0  0.20156834592E+00  0.63049713399E+01  0.68532902046E+01  0.93145520711E+01  0.51100000000E-03 0. -1.
        -11    1    3    3    0    0 -0.14216072703E+02  0.22392084948E-01  0.28112018929E+02  0.31502108391E+02  0.51100000000E-03 0.  1.
        -12    1    3    3    0    0 -0.88389201062E+01  0.30192589887E+01 -0.26616278938E+01  0.97121931884E+01  0.00000000000E+00 0.  1.
</event>
<event>
 7    1  0.2639126E-011  0.5052886E+02  0.7816164E-02  0.1300439E+00
        -11   -1    0    0    0    0  0.00000000000E+00  0.00000000000E+00  0.45593999997E+02  0.45594000000E+02  0.51100000000E-03 0. -1.
         11   -1    0    0    0    0 -0.00000000000E+00 -0.00000000000E+00 -0.45593999997E+02  0.45594000000E+02  0.51100000000E-03 0.  1.
    9900012    2    1    2    0    0 -0.27359395690E+02 -0.29367398289E+02 -0.64950163400E+01  0.50528857706E+02  0.29999993484E+02 0.  0.
         12    1    1    2    0    0  0.27359395690E+02  0.29367398289E+02  0.64950163400E+01  0.40659142294E+02  0.00000000000E+00 0. -1.
         11    1    3    3    0    0 -0.95716337083E+01 -0.42951283773E+01 -0.27385929700E+01  0.10842702216E+02  0.51100000000E-03 0. -1.
        -11    1    3    3    0    0 -0.23018414979E+02 -0.16621052066E+02 -0.69801438023E+01  0.29237462402E+02  0.51100000000E-03 0.  1.
        -12    1    3    3    0    0  0.52306529968E+01 -0.84512178453E+01  0.32237204323E+01  0.10448693089E+02  0.00000000000E+00 0.  1.
</event>
<event>
 7    1  0.2639126E-011  0.5052885E+02  0.7816164E-02  0.1300439E+00
        -11   -1    0    0    0    0  0.00000000000E+00  0.00000000000E+00  0.45593999997E+02  0.45594000000E+02  0.51100000000E-03 0. -1.
         11   -1    0    0    0    0 -0.00000000000E+00 -0.00000000000E+00 -0.45593999997E+02  0.45594000000E+02  0.51100000000E-03 0.  1.
    9900012    2    1    2    0    0  0.27261615080E+02 -0.27522603093E+02 -0.12348152904E+02  0.50528853207E+02  0.29999979807E+02 0.  0.
         12    1    1    2    0    0 -0.27261615080E+02  0.27522603093E+02  0.12348152904E+02  0.40659146793E+02  0.00000000000E+00 0. -1.
         11    1    3    3    0    0  0.84744244456E+01 -0.53524660752E+01 -0.51887635172E+01  0.11286630581E+02  0.51100000000E-03 0. -1.
        -11    1    3    3    0    0  0.22072124742E+02 -0.18431561807E+02  0.19923536727E+01  0.28824826707E+02  0.51100000000E-03 0.  1.
         12    1    3    3    0    0 -0.32849341073E+01 -0.37385752111E+01 -0.91517430595E+01  0.10417395919E+02  0.00000000000E+00 0. -1.
</event>
<event>
 7    1  0.2639126E-011  0.5052884E+02  0.7816164E-02  0.1300439E+00
        -11   -1    0    0    0    0  0.00000000000E+00  0.00000000000E+00  0.45593999997E+02  0.45594000000E+02  0.51100000000E-03 0.  1.
         11   -1    0    0    0    0 -0.00000000000E+00 -0.00000000000E+00 -0.45593999997E+02  0.45594000000E+02  0.51100000000E-03 0. -1.
    9900012    2    1    2    0    0  0.21199855070E+01 -0.26244646861E+02  0.30982114487E+02  0.50528840571E+02  0.29999941399E+02 0.  0.
         12    1    1    2    0    0 -0.21199855070E+01  0.26244646861E+02 -0.30982114487E+02  0.40659159429E+02  0.00000000000E+00 0. -1.
         11    1    3    3    0    0  0.10841113319E+02 -0.77558363311E+01  0.89990199821E+01  0.16083068616E+02  0.51100000000E-03 0. -1.
        -11    1    3    3    0    0 -0.60221879062E+01 -0.17186891825E+02  0.75659952497E+01  0.19720554814E+02  0.51100000000E-03 0.  1.
        -12    1    3    3    0    0 -0.26989399061E+01 -0.13019187049E+01  0.14417099255E+02  0.14725217141E+02  0.00000000000E+00 0.  1.
</event>
<event>
 7    1  0.2639126E-011  0.5052886E+02  0.7816164E-02  0.1300439E+00
        -11   -1    0    0    0    0  0.00000000000E+00  0.00000000000E+00  0.45593999997E+02  0.45594000000E+02  0.51100000000E-03 0. -1.
         11   -1    0    0    0    0 -0.00000000000E+00 -0.00000000000E+00 -0.45593999997E+02  0.45594000000E+02  0.51100000000E-03 0.  1.
    9900012    2    1    2    0    0  0.70373730183E+00  0.28557030978E+02  0.28933834656E+02  0.50528855243E+02  0.29999985996E+02 0.  0.
         12    1    1    2    0    0 -0.70373730183E+00 -0.28557030978E+02 -0.28933834656E+02  0.40659144757E+02  0.00000000000E+00 0. -1.
         11    1    3    3    0    0 -0.14519101410E+01  0.73674869313E+01  0.11346209205E+02  0.13606041684E+02  0.51100000000E-03 0. -1.
        -11    1    3    3    0    0 -0.88000227152E+01  0.16717824736E+01  0.96702881167E+01  0.13181416045E+02  0.51100000000E-03 0.  1.
        -12    1    3    3    0    0  0.10955670158E+02  0.19517761573E+02  0.79173373351E+01  0.23741397514E+02  0.00000000000E+00 0.  1.
</event>
<event>
 7    1  0.2639126E-011  0.5052887E+02  0.7816164E-02  0.1300439E+00
        -11   -1    0    0    0    0  0.00000000000E+00  0.00000000000E+00  0.45593999997E+02  0.45594000000E+02  0.51100000000E-03 0. -1.
         11   -1    0    0    0    0 -0.00000000000E+00 -0.00000000000E+00 -0.45593999997E+02  0.45594000000E+02  0.51100000000E-03 0.  1.
    9900012    2    1    2    0    0 -0.23386075880E+02 -0.23467586151E+02 -0.23569653627E+02  0.50528871666E+02  0.30000035915E+02 0.  0.
         12    1    1    2    0    0  0.23386075880E+02  0.23467586151E+02  0.23569653627E+02  0.40659128334E+02  0.00000000000E+00 0. -1.
         11    1    3    3    0    0 -0.11789897758E+02  0.12214310156E+01  0.19683407041E+01  0.12015321396E+02  0.51100000000E-03 0. -1.
        -11    1    3    3    0    0  0.10044451235E+01 -0.54892130349E+01 -0.29966922334E+01  0.63340772297E+01  0.51100000000E-03 0.  1.
        -12    1    3    3    0    0 -0.12600623246E+02 -0.19199804132E+02 -0.22541302097E+02  0.32179473040E+02  0.00000000000E+00 0.  1.
</event>
<event>
 7    1  0.2639126E-011  0.5052885E+02  0.7816164E-02  0.1300439E+00
        -11   -1    0    0    0    0  0.00000000000E+00  0.00000000000E+00  0.45593999997E+02  0.45594000000E+02  0.51100000000E-03 0.  1.
         11   -1    0    0    0    0 -0.00000000000E+00 -0.00000000000E+00 -0.45593999997E+02  0.45594000000E+02  0.51100000000E-03 0. -1.
    9900012    2    1    2    0    0 -0.16426901594E+02  0.10549961693E+02  0.35665408031E+02  0.50528854439E+02  0.29999983554E+02 0.  0.
         12    1    1    2    0    0  0.16426901594E+02 -0.10549961693E+02 -0.35665408031E+02  0.40659145561E+02  0.00000000000E+00 0. -1.
         11    1    3    3    0    0 -0.93650180481E+01  0.38496329999E+01  0.42244833403E+01  0.10971303342E+02  0.51100000000E-03 0. -1.
        -11    1    3    3    0    0 -0.10247619354E+01  0.13043808390E+02  0.10225289196E+02  0.16605650055E+02  0.51100000000E-03 0.  1.
         12    1    3    3    0    0 -0.60371216104E+01 -0.63434796968E+01  0.21215635494E+02  0.22951901042E+02  0.00000000000E+00 0. -1.
</event>
<event>
 7    1  0.2639126E-011  0.5052886E+02  0.7816164E-02  0.1300439E+00
        -11   -1    0    0    0    0  0.00000000000E+00  0.00000000000E+00  0.45593999997E+02  0.45594000000E+02  0.51100000000E-03 0.  1.
         11   -1    0    0    0    0 -0.00000000000E+00 -0.00000000000E+00 -0.45593999997E+02  0.45594000000E+02  0.51100000000E-03 0. -1.
    9900012    2    1    2    0    0  0.12509508810E+02 -0.27852009129E+02  0.26850391863E+02  0.50528858760E+02  0.29999996688E+02 0.  0.
         12    1    1    2    0    0 -0.12509508810E+02  0.27852009129E+02 -0.26850391863E+02  0.40659141240E+02  0.00000000000E+00 0. -1.
         11    1    3    3    0    0  0.61324643784E+01  0.34540362636E+01 -0.10168082126E+00  0.70390216020E+01  0.51100000000E-03 0. -1.
        -11    1    3    3    0    0 -0.22951489660E+01 -0.12507635679E+01  0.84977704609E+00  0.27484976930E+01  0.51100000000E-03 0.  1.
        -12    1    3    3    0    0  0.86721933976E+01 -0.30055281824E+02  0.26102295638E+02  0.40741339465E+02  0.00000000000E+00 0.  1.
</event>
<event>
 7    1  0.2639126E-011  0.5052886E+02  0.7816164E-02  0.1300439E+00
        -11   -1    0    0    0    0  0.00000000000E+00  0.00000000000E+00  0.45593999997E+02  0.45594000000E+02  0.51100000000E-03 0.  1.
         11   -1    0    0    0    0 -0.00000000000E+00 -0.00000000000E+00 -0.45593999997E+02  0.45594000000E+02  0.51100000000E-03 0. -1.
    9900012    2    1    2    0    0 -0.10160636872E+02 -0.15910721597E+01  0.39336945873E+02  0.50528863722E+02  0.30000011771E+02 0.  0.
         12    1    1    2    0    0  0.10160636872E+02  0.15910721597E+01 -0.39336945873E+02  0.40659136278E+02  0.00000000000E+00 0. -1.
         11    1    3    3    0    0 -0.35935014117E+01  0.56606458395E+01  0.54960124333E+01  0.86696203288E+01  0.51100000000E-03 0. -1.
        -11    1    3    3    0    0  0.62587333208E+01 -0.25309758110E+01  0.17425755539E+01  0.69723848975E+01  0.51100000000E-03 0.  1.
         12    1    3    3    0    0 -0.12825868781E+02 -0.47207421883E+01  0.32098357885E+02  0.34886858496E+02  0.00000000000E+00 0. -1.
</event>
<event>
 7    1  0.2639126E-011  0.5052886E+02  0.7816164E-02  0.1300439E+00
        -11   -1    0    0    0    0  0.00000000000E+00  0.00000000000E+00  0.45593999997E+02  0.45594000000E+02  0.51100000000E-03 0.  1.
         11   -1    0    0    0    0 -0.00000000000E+00 -0.00000000000E+00 -0.45593999997E+02  0.45594000000E+02  0.51100000000E-03 0. -1.
    9900012    2    1    2    0    0 -0.27449932828E+02  0.22688196377E+02 -0.19619187032E+02  0.50528861213E+02  0.30000004144E+02 0.  0.
         12    1    1    2    0    0  0.27449932828E+02 -0.22688196377E+02  0.19619187032E+02  0.40659138787E+02  0.00000000000E+00 0. -1.
         11    1    3    3    0    0 -0.65818997163E+01  0.20014622686E+02 -0.15504085243E+02  0.26158807018E+02  0.51100000000E-03 0. -1.
        -11    1    3    3    0    0 -0.45374256767E+01 -0.38051039116E+01 -0.33072872766E+01  0.67827130959E+01  0.51100000000E-03 0.  1.
        -12    1    3    3    0    0 -0.16330607435E+02  0.64786776027E+01 -0.80781451271E+00  0.17587341100E+02  0.00000000000E+00 0.  1.
</event>
<event>
 7    1  0.2639126E-011  0.5052891E+02  0.7816164E-02  0.1300439E+00
        -11   -1    0    0    0    0  0.00000000000E+00  0.00000000000E+00  0.45593999997E+02  0.45594000000E+02  0.51100000000E-03 0.  1.
         11   -1    0    0    0    0 -0.00000000000E+00 -0.00000000000E+00 -0.45593999997E+02  0.45594000000E+02  0.51100000000E-03 0. -1.
    9900012    2    1    2    0    0 -0.10840486633E+02  0.17435665012E+02  0.35094776536E+02  0.50528906245E+02  0.30000141023E+02 0.  0.
         12    1    1    2    0    0  0.10840486633E+02 -0.17435665012E+02 -0.35094776536E+02  0.40659093755E+02  0.00000000000E+00 0. -1.
         11    1    3    3    0    0 -0.14025665449E+01  0.92684794290E+01 -0.22937282888E+01  0.96505488736E+01  0.51100000000E-03 0. -1.
        -11    1    3    3    0    0  0.16165346293E+01  0.30768283688E+01  0.14983793888E+02  0.15381616838E+02  0.51100000000E-03 0.  1.
        -12    1    3    3    0    0 -0.11054454717E+02  0.50903572137E+01  0.22404710937E+02  0.25496740533E+02  0.00000000000E+00 0.  1.
</event>
<event>
 7    1  0.2639126E-011  0.5052886E+02  0.7816164E-02  0.1300439E+00
        -11   -1    0    0    0    0  0.00000000000E+00  0.00000000000E+00  0.45593999997E+02  0.45594000000E+02  0.51100000000E-03 0.  1.
         11   -1    0    0    0    0 -0.00000000000E+00 -0.00000000000E+00 -0.45593999997E+02  0.45594000000E+02  0.51100000000E-03 0. -1.
    9900012    2    1    2    0    0  0.10980531523E+02  0.20157654650E+02  0.33559839188E+02  0.50528856873E+02  0.29999990950E+02 0.  0.
         12    1    1    2    0    0 -0.10980531523E+02 -0.20157654650E+02 -0.33559839188E+02  0.40659143127E+02  0.00000000000E+00 0. -1.
         11    1    3    3    0    0  0.88925366248E+01  0.99092070587E+01  0.83009969608E+01  0.15690001369E+02  0.51100000000E-03 0. -1.
        -11    1    3    3    0    0  0.11185463202E+02  0.33428806884E+01  0.80350014445E+01  0.14172180031E+02  0.51100000000E-03 0.  1.
        -12    1    3    3    0    0 -0.90974683043E+01  0.69055669029E+01  0.17223840783E+02  0.20666675473E+02  0.00000000000E+00 0.  1.
</event>
<event>
 7    1  0.2639126E-011  0.5052885E+02  0.7816164E-02  0.1300439E+00
        -11   -1    0    0    0    0  0.00000000000E+00  0.00000000000E+00  0.45593999997E+02  0.45594000000E+02  0.51100000000E-03 0. -1.
         11   -1    0    0    0    0 -0.00000000000E+00 -0.00000000000E+00 -0.45593999997E+02  0.45594000000E+02  0.51100000000E-03 0.  1.
    9900012    2    1    2    0    0 -0.30380301084E+02  0.21736801872E+02 -0.16053502160E+02  0.50528853660E+02  0.29999981184E+02 0.  0.
         12    1    1    2    0    0  0.30380301084E+02 -0.21736801872E+02  0.16053502160E+02  0.40659146340E+02  0.00000000000E+00 0. -1.
         11    1    3    3    0    0 -0.77530433364E+01 -0.16944899155E+00 -0.56841557355E+00  0.77756987122E+01  0.51100000000E-03 0. -1.
        -11    1    3    3    0    0 -0.50677732049E+01 -0.28724998880E+01 -0.10456886860E+02  0.11969965076E+02  0.51100000000E-03 0.  1.
         12    1    3    3    0    0 -0.17559484542E+02  0.24778750751E+02 -0.50281997269E+01  0.30783189872E+02  0.00000000000E+00 0. -1.
</event>
<event>
 7    1  0.2639126E-011  0.5052885E+02  0.7816164E-02  0.1300439E+00
        -11   -1    0    0    0    0  0.00000000000E+00  0.00000000000E+00  0.45593999997E+02  0.45594000000E+02  0.51100000000E-03 0.  1.
         11   -1    0    0    0    0 -0.00000000000E+00 -0.00000000000E+00 -0.45593999997E+02  0.45594000000E+02  0.51100000000E-03 0. -1.
    9900012    2    1    2    0    0 -0.40026033650E+01 -0.23552100912E+02  0.32900517489E+02  0.50528851679E+02  0.29999975165E+02 0.  0.
         12    1    1    2    0    0  0.40026033650E+01  0.23552100912E+02 -0.32900517489E+02  0.40659148321E+02  0.00000000000E+00 0. -1.
         11    1    3    3    0    0  0.71157500378E+01 -0.56220476379E+01  0.14060808874E+02  0.16731636641E+02  0.51100000000E-03 0.  1.
        -11    1    3    3    0    0  0.31162306541E+01 -0.11442934084E+02  0.11492944803E+02  0.16514824082E+02  0.51100000000E-03 0. -1.
        -12    1    3    3    0    0 -0.14234584057E+02 -0.64871191902E+01  0.73467638124E+01  0.17282390956E+02  0.00000000000E+00 0.  1.
</event>
<event>
 7    1  0.2639126E-011  0.5052886E+02  0.7816164E-02  0.1300439E+00
        -11   -1    0    0    0    0  0.00000000000E+00  0.00000000000E+00  0.45593999997E+02  0.45594000000E+02  0.51100000000E-03 0. -1.
         11   -1    0    0    0    0 -0.00000000000E+00 -0.00000000000E+00 -0.45593999997E+02  0.45594000000E+02  0.51100000000E-03 0.  1.
    9900012    2    1    2    0    0  0.35795120605E+02  0.63398398764E+01 -0.18212125821E+02  0.50528858891E+02  0.29999997085E+02 0.  0.
         12    1    1    2    0    0 -0.35795120605E+02 -0.63398398764E+01  0.18212125821E+02  0.40659141109E+02  0.00000000000E+00 0. -1.
         11    1    3    3    0    0  0.12233082593E+02  0.13131008964E+02 -0.15245598113E+01  0.18010996336E+02  0.51100000000E-03 0. -1.
        -11    1    3    3    0    0  0.52517160472E+01  0.32248424912E+01 -0.65012576280E+00  0.61969988141E+01  0.51100000000E-03 0.  1.
        -12    1    3    3    0    0  0.18310321965E+02 -0.10016011578E+02 -0.16037440247E+02  0.26320863741E+02  0.00000000000E+00 0.  1.
</event>
<event>
 7    1  0.2639126E-011  0.5052885E+02  0.7816164E-02  0.1300439E+00
        -11   -1    0    0    0    0  0.00000000000E+00  0.00000000000E+00  0.45593999997E+02  0.45594000000E+02  0.51100000000E-03 0.  1.
         11   -1    0    0    0    0 -0.00000000000E+00 -0.00000000000E+00 -0.45593999997E+02  0.45594000000E+02  0.51100000000E-03 0. -1.
    9900012    2    1    2    0    0  0.11732218261E+02  0.35720170161E+02  0.15478719885E+02  0.50528852555E+02  0.29999977826E+02 0.  0.
         12    1    1    2    0    0 -0.11732218261E+02 -0.35720170161E+02 -0.15478719885E+02  0.40659147445E+02  0.00000000000E+00 0. -1.
         11    1    3    3    0    0  0.59855070108E+00  0.24708640440E+02  0.31612455303E+01  0.24917235981E+02  0.51100000000E-03 0. -1.
        -11    1    3    3    0    0  0.64029750152E+01  0.11359695196E+02  0.15226535593E+02  0.20047148186E+02  0.51100000000E-03 0.  1.
        -12    1    3    3    0    0  0.47306925449E+01 -0.34816547467E+00 -0.29090612379E+01  0.55644683878E+01  0.00000000000E+00 0.  1.
</event>
<event>
 7    1  0.2639126E-011  0.5052886E+02  0.7816164E-02  0.1300439E+00
        -11   -1    0    0    0    0  0.00000000000E+00  0.00000000000E+00  0.45593999997E+02  0.45594000000E+02  0.51100000000E-03 0. -1.
         11   -1    0    0    0    0 -0.00000000000E+00 -0.00000000000E+00 -0.45593999997E+02  0.45594000000E+02  0.51100000000E-03 0.  1.
    9900012    2    1    2    0    0 -0.12663204818E+00  0.30466487473E+02 -0.26924763416E+02  0.50528858597E+02  0.29999996193E+02 0.  0.
         12    1    1    2    0    0  0.12663204818E+00 -0.30466487473E+02  0.26924763416E+02  0.40659141403E+02  0.00000000000E+00 0. -1.
         11    1    3    3    0    0  0.34938189388E+00 -0.36248418166E+01 -0.59926428735E+00  0.36906183561E+01  0.51100000000E-03 0. -1.
        -11    1    3    3    0    0 -0.37043100198E+01 -0.68620296062E+00 -0.19128025414E+01  0.42251155072E+01  0.51100000000E-03 0.  1.
        -12    1    3    3    0    0  0.32282960777E+01  0.34777532250E+02 -0.24412696587E+02  0.42613124734E+02  0.00000000000E+00 0.  1.
</event>
<event>
 7    1  0.2639126E-011  0.5052886E+02  0.7816164E-02  0.1300439E+00
        -11   -1    0    0    0    0  0.00000000000E+00  0.00000000000E+00  0.45593999997E+02  0.45594000000E+02  0.51100000000E-03 0. -1.
         11   -1    0    0    0    0 -0.00000000000E+00 -0.00000000000E+00 -0.45593999997E+02  0.45594000000E+02  0.51100000000E-03 0.  1.
    9900012    2    1    2    0    0 -0.24741295311E+02  0.28880298799E+02 -0.14386189845E+02  0.50528858215E+02  0.29999995032E+02 0.  0.
         12    1    1    2    0    0  0.24741295311E+02 -0.28880298799E+02  0.14386189845E+02  0.40659141785E+02  0.00000000000E+00 0. -1.
         11    1    3    3    0    0 -0.72565790940E+01  0.11486811053E+02 -0.45445349661E+01  0.14326812857E+02  0.51100000000E-03 0. -1.
        -11    1    3    3    0    0 -0.12452956411E+02  0.14822484625E+02 -0.17895670491E+02  0.26363558114E+02  0.51100000000E-03 0.  1.
         12    1    3    3    0    0 -0.50317598057E+01  0.25710031204E+01  0.80540156116E+01  0.98384872444E+01  0.00000000000E+00 0. -1.
</event>
<event>
 7    1  0.2639126E-011  0.5052886E+02  0.7816164E-02  0.1300439E+00
        -11   -1    0    0    0    0  0.00000000000E+00  0.00000000000E+00  0.45593999997E+02  0.45594000000E+02  0.51100000000E-03 0. -1.
         11   -1    0    0    0    0 -0.00000000000E+00 -0.00000000000E+00 -0.45593999997E+02  0.45594000000E+02  0.51100000000E-03 0.  1.
    9900012    2    1    2    0    0  0.21754134974E+02 -0.31511362947E+02 -0.13673239612E+02  0.50528857551E+02  0.29999993011E+02 0.  0.
         12    1    1    2    0    0 -0.21754134974E+02  0.31511362947E+02  0.13673239612E+02  0.40659142449E+02  0.00000000000E+00 0. -1.
         11    1    3    3    0    0  0.69255831257E+01 -0.30632495087E+01 -0.13014502791E+02  0.15057373023E+02  0.51100000000E-03 0. -1.
        -11    1    3    3    0    0  0.35410014478E+01 -0.10735845699E+02 -0.72839543101E+01  0.13448162134E+02  0.51100000000E-03 0.  1.
         12    1    3    3    0    0  0.11287550400E+02 -0.17712267739E+02  0.66252174889E+01  0.22023322394E+02  0.00000000000E+00 0. -1.
</event>
<event>
 7    1  0.2639126E-011  0.5052886E+02  0.7816164E-02  0.1300439E+00
        -11   -1    0    0    0    0  0.00000000000E+00  0.00000000000E+00  0.45593999997E+02  0.45594000000E+02  0.51100000000E-03 0. -1.
         11   -1    0    0    0    0 -0.00000000000E+00 -0.00000000000E+00 -0.45593999997E+02  0.45594000000E+02  0.51100000000E-03 0.  1.
    9900012    2    1    2    0    0 -0.29964063547E+02 -0.23502766045E+02 -0.14245717137E+02  0.50528861141E+02  0.30000003924E+02 0.  0.
         12    1    1    2    0    0  0.29964063547E+02  0.23502766045E+02  0.14245717137E+02  0.40659138859E+02  0.00000000000E+00 0. -1.
         11    1    3    3    0    0 -0.43902564787E+01 -0.52212753150E+01 -0.84221939246E+01  0.10838330989E+02  0.51100000000E-03 0.  1.
        -11    1    3    3    0    0  0.24167498272E+01 -0.67151028551E+01 -0.61221609422E+01  0.94028793965E+01  0.51100000000E-03 0. -1.
        -12    1    3    3    0    0 -0.27990556896E+02 -0.11566387875E+02  0.29863773011E+00  0.30287650755E+02  0.00000000000E+00 0.  1.
</event>
<event>
 7    1  0.2639126E-011  0.5052886E+02  0.7816164E-02  0.1300439E+00
        -11   -1    0    0    0    0  0.00000000000E+00  0.00000000000E+00  0.45593999997E+02  0.45594000000E+02  0.51100000000E-03 0.  1.
         11   -1    0    0    0    0 -0.00000000000E+00 -0.00000000000E+00 -0.45593999997E+02  0.45594000000E+02  0.51100000000E-03 0. -1.
    9900012    2    1    2    0    0 -0.37709932109E+02  0.79745284113E+01  0.12943478214E+02  0.50528859437E+02  0.29999998744E+02 0.  0.
         12    1    1    2    0    0  0.37709932109E+02 -0.79745284113E+01 -0.12943478214E+02  0.40659140563E+02  0.00000000000E+00 0. -1.
         11    1    3    3    0    0 -0.19359657213E+02 -0.58317632326E+00  0.12386139558E+02  0.22990277846E+02  0.51100000000E-03 0. -1.
        -11    1    3    3    0    0 -0.15294513335E+02  0.73142776681E+01  0.84803308812E+01  0.18956181263E+02  0.51100000000E-03 0.  1.
         12    1    3    3    0    0 -0.30557615615E+01  0.12434270665E+01 -0.79229922253E+01  0.85824003282E+01  0.00000000000E+00 0. -1.
</event>
<event>
 7    1  0.2639126E-011  0.5052884E+02  0.7816164E-02  0.1300439E+00
        -11   -1    0    0    0    0  0.00000000000E+00  0.00000000000E+00  0.45593999997E+02  0.45594000000E+02  0.51100000000E-03 0. -1.
         11   -1    0    0    0    0 -0.00000000000E+00 -0.00000000000E+00 -0.45593999997E+02  0.45594000000E+02  0.51100000000E-03 0.  1.
    9900012    2    1    2    0    0 -0.10135274625E+02  0.27376928423E+01 -0.39280381115E+02  0.50528842430E+02  0.29999947049E+02 0.  0.
         12    1    1    2    0    0  0.10135274625E+02 -0.27376928423E+01  0.39280381115E+02  0.40659157570E+02  0.00000000000E+00 0. -1.
         11    1    3    3    0    0  0.19401679176E+01 -0.27059811048E+01 -0.25132727445E+02  0.25352328777E+02  0.51100000000E-03 0. -1.
        -11    1    3    3    0    0  0.35869602399E+01 -0.64861568918E+00 -0.45266328189E+01  0.58118319842E+01  0.51100000000E-03 0.  1.
        -12    1    3    3    0    0 -0.15662402782E+02  0.60922896363E+01 -0.96210208506E+01  0.19364681669E+02  0.00000000000E+00 0.  1.
</event>
<event>
 7    1  0.2639126E-011  0.5052886E+02  0.7816164E-02  0.1300439E+00
        -11   -1    0    0    0    0  0.00000000000E+00  0.00000000000E+00  0.45593999997E+02  0.45594000000E+02  0.51100000000E-03 0.  1.
         11   -1    0    0    0    0 -0.00000000000E+00 -0.00000000000E+00 -0.45593999997E+02  0.45594000000E+02  0.51100000000E-03 0. -1.
    9900012    2    1    2    0    0 -0.15540525552E+02  0.10502575358E+02  0.36074280364E+02  0.50528859239E+02  0.29999998143E+02 0.  0.
         12    1    1    2    0    0  0.15540525552E+02 -0.10502575358E+02 -0.36074280364E+02  0.40659140761E+02  0.00000000000E+00 0. -1.
         11    1    3    3    0    0  0.21633456695E+01  0.46541946037E+01 -0.93509335121E-01  0.51332578497E+01  0.51100000000E-03 0. -1.
        -11    1    3    3    0    0 -0.32308091221E+01 -0.22753103670E+01 -0.15052626280E+01  0.42285908634E+01  0.51100000000E-03 0.  1.
        -12    1    3    3    0    0 -0.14473062100E+02  0.81236911214E+01  0.37673052328E+02  0.41167010526E+02  0.00000000000E+00 0.  1.
</event>
<event>
 7    1  0.2639126E-011  0.5052887E+02  0.7816164E-02  0.1300439E+00
        -11   -1    0    0    0    0  0.00000000000E+00  0.00000000000E+00  0.45593999997E+02  0.45594000000E+02  0.51100000000E-03 0. -1.
         11   -1    0    0    0    0 -0.00000000000E+00 -0.00000000000E+00 -0.45593999997E+02  0.45594000000E+02  0.51100000000E-03 0.  1.
    9900012    2    1    2    0    0 -0.77375845832E+01 -0.25433578833E+02 -0.30764066728E+02  0.50528868811E+02  0.30000027237E+02 0.  0.
         12    1    1    2    0    0  0.77375845832E+01  0.25433578833E+02  0.30764066728E+02  0.40659131189E+02  0.00000000000E+00 0. -1.
         11    1    3    3    0    0  0.18291118734E+01 -0.99043118921E+01 -0.13782391893E+02  0.17070306701E+02  0.51100000000E-03 0. -1.
        -11    1    3    3    0    0 -0.15901039249E+02 -0.15765410131E+02 -0.14349080878E+02  0.26594874095E+02  0.51100000000E-03 0.  1.
         12    1    3    3    0    0  0.63343427929E+01  0.23614319059E+00 -0.26325939573E+01  0.68636880151E+01  0.00000000000E+00 0. -1.
</event>
<event>
 7    1  0.2639126E-011  0.5052887E+02  0.7816164E-02  0.1300439E+00
        -11   -1    0    0    0    0  0.00000000000E+00  0.00000000000E+00  0.45593999997E+02  0.45594000000E+02  0.51100000000E-03 0. -1.
         11   -1    0    0    0    0 -0.00000000000E+00 -0.00000000000E+00 -0.45593999997E+02  0.45594000000E+02  0.51100000000E-03 0.  1.
    9900012    2    1    2    0    0 -0.39083093725E+02 -0.94191828761E+01 -0.60790896836E+01  0.50528873687E+02  0.30000042058E+02 0.  0.
         12    1    1    2    0    0  0.39083093725E+02  0.94191828761E+01  0.60790896836E+01  0.40659126313E+02  0.00000000000E+00 0. -1.
         11    1    3    3    0    0 -0.10025296132E+02  0.15974260135E+01 -0.80583044796E+01  0.12961273230E+02  0.51100000000E-03 0. -1.
        -11    1    3    3    0    0 -0.20590501874E+02 -0.52755470957E+01 -0.85282241114E+01  0.22902636777E+02  0.51100000000E-03 0.  1.
         12    1    3    3    0    0 -0.84672957192E+01 -0.57410617939E+01  0.10507438907E+02  0.14664963679E+02  0.00000000000E+00 0. -1.
</event>
<event>
 7    1  0.2639126E-011  0.5052886E+02  0.7816164E-02  0.1300439E+00
        -11   -1    0    0    0    0  0.00000000000E+00  0.00000000000E+00  0.45593999997E+02  0.45594000000E+02  0.51100000000E-03 0.  1.
         11   -1    0    0    0    0 -0.00000000000E+00 -0.00000000000E+00 -0.45593999997E+02  0.45594000000E+02  0.51100000000E-03 0. -1.
    9900012    2    1    2    0    0 -0.34303260923E+02 -0.97969454156E+01  0.19505682641E+02  0.50528861977E+02  0.30000006467E+02 0.  0.
         12    1    1    2    0    0  0.34303260923E+02  0.97969454156E+01 -0.19505682641E+02  0.40659138023E+02  0.00000000000E+00 0. -1.
         11    1    3    3    0    0  0.37153736717E-01 -0.94185160882E-01  0.12151790627E+02  0.12152212431E+02  0.51100000000E-03 0. -1.
        -11    1    3    3    0    0 -0.51114598300E+01 -0.50005127564E+01  0.49039099250E+01  0.86706679232E+01  0.51100000000E-03 0.  1.
        -12    1    3    3    0    0 -0.29228954830E+02 -0.47022474982E+01  0.24499820884E+01  0.29705981624E+02  0.00000000000E+00 0.  1.
</event>
<event>
 7    1  0.2639126E-011  0.5052886E+02  0.7816164E-02  0.1300439E+00
        -11   -1    0    0    0    0  0.00000000000E+00  0.00000000000E+00  0.45593999997E+02  0.45594000000E+02  0.51100000000E-03 0.  1.
         11   -1    0    0    0    0 -0.00000000000E+00 -0.00000000000E+00 -0.45593999997E+02  0.45594000000E+02  0.51100000000E-03 0. -1.
    9900012    2    1    2    0    0  0.33230311114E+01 -0.38963044489E+02  0.11135708828E+02  0.50528863478E+02  0.30000011029E+02 0.  0.
         12    1    1    2    0    0 -0.33230311114E+01  0.38963044489E+02 -0.11135708828E+02  0.40659136522E+02  0.00000000000E+00 0. -1.
         11    1    3    3    0    0  0.10443639799E+02 -0.12583350929E+02 -0.19988501377E+01  0.16474396347E+02  0.51100000000E-03 0. -1.
        -11    1    3    3    0    0 -0.40957983307E+01 -0.52003508679E+01 -0.29906855941E+01  0.72638429016E+01  0.51100000000E-03 0.  1.
        -12    1    3    3    0    0 -0.30248103566E+01 -0.21179342691E+02  0.16125244560E+02  0.26790624230E+02  0.00000000000E+00 0.  1.
</event>
<event>
 7    1  0.2639126E-011  0.5052885E+02  0.7816164E-02  0.1300439E+00
        -11   -1    0    0    0    0  0.00000000000E+00  0.00000000000E+00  0.45593999997E+02  0.45594000000E+02  0.51100000000E-03 0.  1.
         11   -1    0    0    0    0 -0.00000000000E+00 -0.00000000000E+00 -0.45593999997E+02  0.45594000000E+02  0.51100000000E-03 0. -1.
    9900012    2    1    2    0    0 -0.11609723120E+02 -0.58938773539E+01  0.38518087913E+02  0.50528849029E+02  0.29999967109E+02 0.  0.
         12    1    1    2    0    0  0.11609723120E+02  0.58938773539E+01 -0.38518087913E+02  0.40659150971E+02  0.00000000000E+00 0. -1.
         11    1    3    3    0    0  0.17658033104E+01  0.28229071910E+01  0.36177510893E+00  0.33492906459E+01  0.51100000000E-03 0. -1.
        -11    1    3    3    0    0 -0.61548075091E+01  0.10764071760E+01 -0.86265953535E+00  0.63074947180E+01  0.51100000000E-03 0.  1.
        -12    1    3    3    0    0 -0.72207189213E+01 -0.97931917209E+01  0.39018972340E+02  0.40872063665E+02  0.00000000000E+00 0.  1.
</event>
<event>
 7    1  0.2639126E-011  0.5052889E+02  0.7816164E-02  0.1300439E+00
        -11   -1    0    0    0    0  0.00000000000E+00  0.00000000000E+00  0.45593999997E+02  0.45594000000E+02  0.51100000000E-03 0.  1.
         11   -1    0    0    0    0 -0.00000000000E+00 -0.00000000000E+00 -0.45593999997E+02  0.45594000000E+02  0.51100000000E-03 0. -1.
    9900012    2    1    2    0    0  0.25787888153E+02  0.86070193215E+01 -0.30233540339E+02  0.50528893782E+02  0.30000103140E+02 0.  0.
         12    1    1    2    0    0 -0.25787888153E+02 -0.86070193215E+01  0.30233540339E+02  0.40659106218E+02  0.00000000000E+00 0. -1.
         11    1    3    3    0    0  0.17437131704E+02  0.11208966503E+02 -0.25453457428E+02  0.32826406862E+02  0.51100000000E-03 0. -1.
        -11    1    3    3    0    0  0.10907245159E+02 -0.54090440060E+01 -0.61829486766E+01  0.13654838286E+02  0.51100000000E-03 0.  1.
         12    1    3    3    0    0 -0.25564887112E+01  0.28070968243E+01  0.14028657650E+01  0.40476486343E+01  0.00000000000E+00 0. -1.
</event>
<event>
 7    1  0.2639126E-011  0.5052888E+02  0.7816164E-02  0.1300439E+00
        -11   -1    0    0    0    0  0.00000000000E+00  0.00000000000E+00  0.45593999997E+02  0.45594000000E+02  0.51100000000E-03 0.  1.
         11   -1    0    0    0    0 -0.00000000000E+00 -0.00000000000E+00 -0.45593999997E+02  0.45594000000E+02  0.51100000000E-03 0. -1.
    9900012    2    1    2    0    0  0.16435741177E+02  0.30124408210E+00  0.37187896346E+02  0.50528880843E+02  0.30000063809E+02 0.  0.
         12    1    1    2    0    0 -0.16435741177E+02 -0.30124408210E+00 -0.37187896346E+02  0.40659119157E+02  0.00000000000E+00 0. -1.
         11    1    3    3    0    0  0.57363691639E+01 -0.12194294543E+01  0.17576738748E+02  0.18529292610E+02  0.51100000000E-03 0. -1.
        -11    1    3    3    0    0  0.10522224454E+02  0.25559399627E+01  0.24612511485E+02  0.26889138298E+02  0.51100000000E-03 0.  1.
         12    1    3    3    0    0  0.17714755931E+00 -0.10352664263E+01 -0.50013538866E+01  0.51104499343E+01  0.00000000000E+00 0. -1.
</event>
<event>
 7    1  0.2639126E-011  0.5052885E+02  0.7816164E-02  0.1300439E+00
        -11   -1    0    0    0    0  0.00000000000E+00  0.00000000000E+00  0.45593999997E+02  0.45594000000E+02  0.51100000000E-03 0. -1.
         11   -1    0    0    0    0 -0.00000000000E+00 -0.00000000000E+00 -0.45593999997E+02  0.45594000000E+02  0.51100000000E-03 0.  1.
    9900012    2    1    2    0    0  0.37748385751E+02  0.93634082861E+01 -0.11855480789E+02  0.50528850153E+02  0.29999970524E+02 0.  0.
         12    1    1    2    0    0 -0.37748385751E+02 -0.93634082861E+01  0.11855480789E+02  0.40659149847E+02  0.00000000000E+00 0. -1.
         11    1    3    3    0    0  0.15955363753E+02 -0.73572773684E+01 -0.11890487218E+01  0.17610139122E+02  0.51100000000E-03 0. -1.
        -11    1    3    3    0    0  0.12594094334E+02  0.64634274371E+00 -0.38793915656E+01  0.13193886850E+02  0.51100000000E-03 0.  1.
         12    1    3    3    0    0  0.91989276644E+01  0.16074342911E+02 -0.67870405013E+01  0.19724824181E+02  0.00000000000E+00 0. -1.
</event>
<event>
 7    1  0.2639126E-011  0.5052885E+02  0.7816164E-02  0.1300439E+00
        -11   -1    0    0    0    0  0.00000000000E+00  0.00000000000E+00  0.45593999997E+02  0.45594000000E+02  0.51100000000E-03 0.  1.
         11   -1    0    0    0    0 -0.00000000000E+00 -0.00000000000E+00 -0.45593999997E+02  0.45594000000E+02  0.51100000000E-03 0. -1.
    9900012    2    1    2    0    0 -0.78704839167E+01  0.12457201204E+02  0.37895118757E+02  0.50528850913E+02  0.29999972834E+02 0.  0.
         12    1    1    2    0    0  0.78704839167E+01 -0.12457201204E+02 -0.37895118757E+02  0.40659149087E+02  0.00000000000E+00 0. -1.
         11    1    3    3    0    0 -0.81453944420E+01  0.13561840705E+02  0.20690940336E+02  0.26045843933E+02  0.51100000000E-03 0. -1.
        -11    1    3    3    0    0 -0.28742842168E+01 -0.76699255101E+01  0.14617101587E+02  0.16755564036E+02  0.51100000000E-03 0.  1.
         12    1    3    3    0    0  0.31491947421E+01  0.65652860093E+01  0.25870768335E+01  0.77274429438E+01  0.00000000000E+00 0. -1.
</event>
<event>
 7    1  0.2639126E-011  0.5052886E+02  0.7816164E-02  0.1300439E+00
        -11   -1    0    0    0    0  0.00000000000E+00  0.00000000000E+00  0.45593999997E+02  0.45594000000E+02  0.51100000000E-03 0.  1.
         11   -1    0    0    0    0 -0.00000000000E+00 -0.00000000000E+00 -0.45593999997E+02  0.45594000000E+02  0.51100000000E-03 0. -1.
    9900012    2    1    2    0    0 -0.10914532447E+02 -0.29419135438E+01  0.39056162866E+02  0.50528859187E+02  0.29999997984E+02 0.  0.
         12    1    1    2    0    0  0.10914532447E+02  0.29419135438E+01 -0.39056162866E+02  0.40659140813E+02  0.00000000000E+00 0. -1.
         11    1    3    3    0    0  0.87738445329E+00 -0.12217509625E+01  0.29533146657E+01  0.33142942942E+01  0.51100000000E-03 0. -1.
        -11    1    3    3    0    0 -0.15674612247E+02 -0.61432995682E+01  0.37552041241E+02  0.41153242889E+02  0.51100000000E-03 0.  1.
        -12    1    3    3    0    0  0.38826953462E+01  0.44231369869E+01 -0.14491930405E+01  0.60613220031E+01  0.00000000000E+00 0.  1.
</event>
<event>
 7    1  0.2639126E-011  0.5052885E+02  0.7816164E-02  0.1300439E+00
        -11   -1    0    0    0    0  0.00000000000E+00  0.00000000000E+00  0.45593999997E+02  0.45594000000E+02  0.51100000000E-03 0. -1.
         11   -1    0    0    0    0 -0.00000000000E+00 -0.00000000000E+00 -0.45593999997E+02  0.45594000000E+02  0.51100000000E-03 0.  1.
    9900012    2    1    2    0    0 -0.28771115548E+01  0.15898596630E+01 -0.40526050392E+02  0.50528853612E+02  0.29999981039E+02 0.  0.
         12    1    1    2    0    0  0.28771115548E+01 -0.15898596630E+01  0.40526050392E+02  0.40659146388E+02  0.00000000000E+00 0. -1.
         11    1    3    3    0    0  0.36275089012E+01  0.10006968559E+02 -0.11286735642E+02  0.15514143298E+02  0.51100000000E-03 0. -1.
        -11    1    3    3    0    0  0.52181335974E+01 -0.36677107825E+01 -0.12509960914E+02  0.14042084708E+02  0.51100000000E-03 0.  1.
         12    1    3    3    0    0 -0.11722754053E+02 -0.47493981132E+01 -0.16729353836E+02  0.20972625606E+02  0.00000000000E+00 0. -1.
</event>
<event>
 7    1  0.2639126E-011  0.5052886E+02  0.7816164E-02  0.1300439E+00
        -11   -1    0    0    0    0  0.00000000000E+00  0.00000000000E+00  0.45593999997E+02  0.45594000000E+02  0.51100000000E-03 0.  1.
         11   -1    0    0    0    0 -0.00000000000E+00 -0.00000000000E+00 -0.45593999997E+02  0.45594000000E+02  0.51100000000E-03 0. -1.
    9900012    2    1    2    0    0  0.28154813959E+02 -0.42061596245E+00  0.29330794403E+02  0.50528856291E+02  0.29999989182E+02 0.  0.
         12    1    1    2    0    0 -0.28154813959E+02  0.42061596245E+00 -0.29330794403E+02  0.40659143709E+02  0.00000000000E+00 0. -1.
         11    1    3    3    0    0  0.86662985640E+01 -0.74413221434E+01  0.16100635186E+02  0.19741034919E+02  0.51100000000E-03 0. -1.
        -11    1    3    3    0    0  0.46349569597E+01  0.46790843105E+00  0.13777570238E+02  0.14543837397E+02  0.51100000000E-03 0.  1.
         12    1    3    3    0    0  0.14853558435E+02  0.65527977499E+01 -0.54741102075E+00  0.16243983974E+02  0.00000000000E+00 0. -1.
</event>
<event>
 7    1  0.2639126E-011  0.5052886E+02  0.7816164E-02  0.1300439E+00
        -11   -1    0    0    0    0  0.00000000000E+00  0.00000000000E+00  0.45593999997E+02  0.45594000000E+02  0.51100000000E-03 0.  1.
         11   -1    0    0    0    0 -0.00000000000E+00 -0.00000000000E+00 -0.45593999997E+02  0.45594000000E+02  0.51100000000E-03 0. -1.
    9900012    2    1    2    0    0  0.43737320889E+01 -0.18481845963E+02  0.35950762400E+02  0.50528862285E+02  0.30000007402E+02 0.  0.
         12    1    1    2    0    0 -0.43737320889E+01  0.18481845963E+02 -0.35950762400E+02  0.40659137715E+02  0.00000000000E+00 0. -1.
         11    1    3    3    0    0 -0.13522313244E+01 -0.68564675453E+01  0.18624426339E+02  0.19892434076E+02  0.51100000000E-03 0. -1.
        -11    1    3    3    0    0 -0.33483201589E+00  0.57732597164E+01  0.83108137471E+01  0.10124834104E+02  0.51100000000E-03 0.  1.
         12    1    3    3    0    0  0.60607954292E+01 -0.17398638134E+02  0.90155223133E+01  0.20511594105E+02  0.00000000000E+00 0. -1.
</event>
<event>
 7    1  0.2639126E-011  0.5052886E+02  0.7816164E-02  0.1300439E+00
        -11   -1    0    0    0    0  0.00000000000E+00  0.00000000000E+00  0.45593999997E+02  0.45594000000E+02  0.51100000000E-03 0.  1.
         11   -1    0    0    0    0 -0.00000000000E+00 -0.00000000000E+00 -0.45593999997E+02  0.45594000000E+02  0.51100000000E-03 0. -1.
    9900012    2    1    2    0    0  0.12306156150E+02 -0.38751876375E+02 -0.12863053367E+00  0.50528856532E+02  0.29999989913E+02 0.  0.
         12    1    1    2    0    0 -0.12306156150E+02  0.38751876375E+02  0.12863053367E+00  0.40659143468E+02  0.00000000000E+00 0. -1.
         11    1    3    3    0    0  0.15184716831E+02 -0.15260873972E+02 -0.91770982580E+01  0.23402756939E+02  0.51100000000E-03 0. -1.
        -11    1    3    3    0    0 -0.92463870920E+00 -0.53646788955E+01 -0.20100908472E+01  0.58030338505E+01  0.51100000000E-03 0.  1.
        -12    1    3    3    0    0 -0.19539219723E+01 -0.18126323508E+02  0.11058558571E+02  0.21323065742E+02  0.00000000000E+00 0.  1.
</event>
<event>
 7    1  0.2639126E-011  0.5052887E+02  0.7816164E-02  0.1300439E+00
        -11   -1    0    0    0    0  0.00000000000E+00  0.00000000000E+00  0.45593999997E+02  0.45594000000E+02  0.51100000000E-03 0. -1.
         11   -1    0    0    0    0 -0.00000000000E+00 -0.00000000000E+00 -0.45593999997E+02  0.45594000000E+02  0.51100000000E-03 0.  1.
    9900012    2    1    2    0    0 -0.31406708018E+02  0.19233676634E+02  0.17229314378E+02  0.50528869423E+02  0.30000029097E+02 0.  0.
         12    1    1    2    0    0  0.31406708018E+02 -0.19233676634E+02 -0.17229314378E+02  0.40659130577E+02  0.00000000000E+00 0. -1.
         11    1    3    3    0    0 -0.15119986640E+02  0.13910459806E+02  0.75842633997E+00  0.20559428464E+02  0.51100000000E-03 0. -1.
        -11    1    3    3    0    0 -0.80233421030E+01 -0.30758241874E+01 -0.12559794883E+01  0.86840196723E+01  0.51100000000E-03 0.  1.
         12    1    3    3    0    0 -0.82633792754E+01  0.83990410149E+01  0.17726867526E+02  0.21285421286E+02  0.00000000000E+00 0. -1.
</event>
<event>
 7    1  0.2639126E-011  0.5052886E+02  0.7816164E-02  0.1300439E+00
        -11   -1    0    0    0    0  0.00000000000E+00  0.00000000000E+00  0.45593999997E+02  0.45594000000E+02  0.51100000000E-03 0.  1.
         11   -1    0    0    0    0 -0.00000000000E+00 -0.00000000000E+00 -0.45593999997E+02  0.45594000000E+02  0.51100000000E-03 0. -1.
    9900012    2    1    2    0    0  0.25552129794E+01  0.38581490252E+02  0.12573989685E+02  0.50528859329E+02  0.29999998417E+02 0.  0.
         12    1    1    2    0    0 -0.25552129794E+01 -0.38581490252E+02 -0.12573989685E+02  0.40659140671E+02  0.00000000000E+00 0. -1.
         11    1    3    3    0    0 -0.14408602937E+01 -0.31049262181E+01  0.32168512968E+01  0.46973160137E+01  0.51100000000E-03 0. -1.
        -11    1    3    3    0    0  0.48524477203E+01  0.20722316135E+02  0.12398085084E+02  0.24630735858E+02  0.51100000000E-03 0.  1.
        -12    1    3    3    0    0 -0.85637444722E+00  0.20964100336E+02 -0.30409466950E+01  0.21200807458E+02  0.00000000000E+00 0.  1.
</event>
<event>
 7    1  0.2639126E-011  0.5052885E+02  0.7816164E-02  0.1300439E+00
        -11   -1    0    0    0    0  0.00000000000E+00  0.00000000000E+00  0.45593999997E+02  0.45594000000E+02  0.51100000000E-03 0. -1.
         11   -1    0    0    0    0 -0.00000000000E+00 -0.00000000000E+00 -0.45593999997E+02  0.45594000000E+02  0.51100000000E-03 0.  1.
    9900012    2    1    2    0    0 -0.32037777255E+01 -0.38402360699E+02 -0.12967680430E+02  0.50528853000E+02  0.29999979180E+02 0.  0.
         12    1    1    2    0    0  0.32037777255E+01  0.38402360699E+02  0.12967680430E+02  0.40659147000E+02  0.00000000000E+00 0. -1.
         11    1    3    3    0    0  0.21844529764E+01 -0.16078822013E+01  0.25215243629E+01  0.37034045624E+01  0.51100000000E-03 0. -1.
        -11    1    3    3    0    0  0.61138972803E+01 -0.10257455568E+02  0.32340715645E+01  0.12371513805E+02  0.51100000000E-03 0.  1.
        -12    1    3    3    0    0 -0.11502127982E+02 -0.26537022930E+02 -0.18723276358E+02  0.34453934633E+02  0.00000000000E+00 0.  1.
</event>
<event>
 7    1  0.2639126E-011  0.5052885E+02  0.7816164E-02  0.1300439E+00
        -11   -1    0    0    0    0  0.00000000000E+00  0.00000000000E+00  0.45593999997E+02  0.45594000000E+02  0.51100000000E-03 0.  1.
         11   -1    0    0    0    0 -0.00000000000E+00 -0.00000000000E+00 -0.45593999997E+02  0.45594000000E+02  0.51100000000E-03 0. -1.
    9900012    2    1    2    0    0  0.26572309858E+02  0.80705731814E+01  0.29697546536E+02  0.50528854990E+02  0.29999985227E+02 0.  0.
         12    1    1    2    0    0 -0.26572309858E+02 -0.80705731814E+01 -0.29697546536E+02  0.40659145010E+02  0.00000000000E+00 0. -1.
         11    1    3    3    0    0 -0.53882976460E+00  0.65056235418E+01  0.16767714682E+02  0.17993602505E+02  0.51100000000E-03 0. -1.
        -11    1    3    3    0    0  0.65232029124E+01  0.41660121193E+01  0.81512233955E+01  0.11240563879E+02  0.51100000000E-03 0.  1.
         12    1    3    3    0    0  0.20587936710E+02 -0.26010624798E+01  0.47786084589E+01  0.21294688606E+02  0.00000000000E+00 0. -1.
</event>
<event>
 7    1  0.2639126E-011  0.5052886E+02  0.7816164E-02  0.1300439E+00
        -11   -1    0    0    0    0  0.00000000000E+00  0.00000000000E+00  0.45593999997E+02  0.45594000000E+02  0.51100000000E-03 0.  1.
         11   -1    0    0    0    0 -0.00000000000E+00 -0.00000000000E+00 -0.45593999997E+02  0.45594000000E+02  0.51100000000E-03 0. -1.
    9900012    2    1    2    0    0  0.20837724291E+02  0.21172706587E+02  0.27760975888E+02  0.50528855394E+02  0.29999986455E+02 0.  0.
         12    1    1    2    0    0 -0.20837724291E+02 -0.21172706587E+02 -0.27760975888E+02  0.40659144606E+02  0.00000000000E+00 0. -1.
         11    1    3    3    0    0  0.40229509556E+01  0.21320634215E+02  0.11146849359E+02  0.24392741310E+02  0.51100000000E-03 0. -1.
        -11    1    3    3    0    0  0.62657226863E+01  0.52433566199E+01  0.51960130814E+01  0.96824904663E+01  0.51100000000E-03 0.  1.
         12    1    3    3    0    0  0.10549050649E+02 -0.53912842483E+01  0.11418113448E+02  0.16453623617E+02  0.00000000000E+00 0. -1.
</event>
<event>
 7    1  0.2639126E-011  0.5052885E+02  0.7816164E-02  0.1300439E+00
        -11   -1    0    0    0    0  0.00000000000E+00  0.00000000000E+00  0.45593999997E+02  0.45594000000E+02  0.51100000000E-03 0.  1.
         11   -1    0    0    0    0 -0.00000000000E+00 -0.00000000000E+00 -0.45593999997E+02  0.45594000000E+02  0.51100000000E-03 0. -1.
    9900012    2    1    2    0    0 -0.24557652656E+02  0.16080488845E+02  0.28133722588E+02  0.50528846392E+02  0.29999959092E+02 0.  0.
         12    1    1    2    0    0  0.24557652656E+02 -0.16080488845E+02 -0.28133722588E+02  0.40659153608E+02  0.00000000000E+00 0. -1.
         11    1    3    3    0    0  0.94102412542E+00  0.46394332088E+01  0.14285832984E+02  0.15049747214E+02  0.51100000000E-03 0.  1.
        -11    1    3    3    0    0 -0.11873476684E+02  0.14955252101E+01 -0.22325217746E+01  0.12173750365E+02  0.51100000000E-03 0. -1.
         12    1    3    3    0    0 -0.13625200098E+02  0.99455304261E+01  0.16080411379E+02  0.23305348813E+02  0.00000000000E+00 0. -1.
</event>
<event>
 7    1  0.2639126E-011  0.5052886E+02  0.7816164E-02  0.1300439E+00
        -11   -1    0    0    0    0  0.00000000000E+00  0.00000000000E+00  0.45593999997E+02  0.45594000000E+02  0.51100000000E-03 0. -1.
         11   -1    0    0    0    0 -0.00000000000E+00 -0.00000000000E+00 -0.45593999997E+02  0.45594000000E+02  0.51100000000E-03 0.  1.
    9900012    2    1    2    0    0  0.18640172414E+02  0.35896753345E+02 -0.41391331051E+01  0.50528863865E+02  0.30000012205E+02 0.  0.
         12    1    1    2    0    0 -0.18640172414E+02 -0.35896753345E+02  0.41391331051E+01  0.40659136135E+02  0.00000000000E+00 0. -1.
         11    1    3    3    0    0  0.78581508820E+01  0.25295877165E+02  0.53383222239E+01  0.27020910815E+02  0.51100000000E-03 0. -1.
        -11    1    3    3    0    0  0.55005919019E+01  0.10144930079E+02  0.11845422352E+01  0.11600830063E+02  0.51100000000E-03 0.  1.
        -12    1    3    3    0    0  0.52814296302E+01  0.45594610146E+00 -0.10661997564E+02  0.11907122988E+02  0.00000000000E+00 0.  1.
</event>
<event>
 7    1  0.2639126E-011  0.5052887E+02  0.7816164E-02  0.1300439E+00
        -11   -1    0    0    0    0  0.00000000000E+00  0.00000000000E+00  0.45593999997E+02  0.45594000000E+02  0.51100000000E-03 0. -1.
         11   -1    0    0    0    0 -0.00000000000E+00 -0.00000000000E+00 -0.45593999997E+02  0.45594000000E+02  0.51100000000E-03 0.  1.
    9900012    2    1    2    0    0  0.27663149218E+02 -0.13820448644E+02 -0.26399064117E+02  0.50528865582E+02  0.30000017423E+02 0.  0.
         12    1    1    2    0    0 -0.27663149218E+02  0.13820448644E+02  0.26399064117E+02  0.40659134418E+02  0.00000000000E+00 0. -1.
         11    1    3    3    0    0  0.87771236697E+01 -0.10093757386E+02 -0.12878529616E+02  0.18568208406E+02  0.51100000000E-03 0.  1.
        -11    1    3    3    0    0  0.23408639088E+02 -0.53836019160E+00 -0.11288994122E+02  0.25994145575E+02  0.51100000000E-03 0. -1.
         12    1    3    3    0    0 -0.45226135395E+01 -0.31883310666E+01 -0.22315403792E+01  0.59665116008E+01  0.00000000000E+00 0. -1.
</event>
<event>
 7    1  0.2639126E-011  0.5052887E+02  0.7816164E-02  0.1300439E+00
        -11   -1    0    0    0    0  0.00000000000E+00  0.00000000000E+00  0.45593999997E+02  0.45594000000E+02  0.51100000000E-03 0.  1.
         11   -1    0    0    0    0 -0.00000000000E+00 -0.00000000000E+00 -0.45593999997E+02  0.45594000000E+02  0.51100000000E-03 0. -1.
    9900012    2    1    2    0    0 -0.10504360017E+02  0.28011632526E+02  0.27534919827E+02  0.50528868848E+02  0.30000027351E+02 0.  0.
         12    1    1    2    0    0  0.10504360017E+02 -0.28011632526E+02 -0.27534919827E+02  0.40659131152E+02  0.00000000000E+00 0. -1.
         11    1    3    3    0    0  0.38546801113E+00  0.10762331557E+02  0.14519045931E+02  0.18077031315E+02  0.51100000000E-03 0. -1.
        -11    1    3    3    0    0 -0.44166045826E+01  0.85597966338E+01  0.18084273217E+02  0.20489447345E+02  0.51100000000E-03 0.  1.
         12    1    3    3    0    0 -0.64732234457E+01  0.86895043342E+01 -0.50683993206E+01  0.11962390189E+02  0.00000000000E+00 0. -1.
</event>
<event>
 7    1  0.2639126E-011  0.5052886E+02  0.7816164E-02  0.1300439E+00
        -11   -1    0    0    0    0  0.00000000000E+00  0.00000000000E+00  0.45593999997E+02  0.45594000000E+02  0.51100000000E-03 0.  1.
         11   -1    0    0    0    0 -0.00000000000E+00 -0.00000000000E+00 -0.45593999997E+02  0.45594000000E+02  0.51100000000E-03 0. -1.
    9900012    2    1    2    0    0 -0.20367423595E+02  0.18142232133E+02  0.30152832920E+02  0.50528857562E+02  0.29999993046E+02 0.  0.
         12    1    1    2    0    0  0.20367423595E+02 -0.18142232133E+02 -0.30152832920E+02  0.40659142438E+02  0.00000000000E+00 0. -1.
         11    1    3    3    0    0 -0.29813371950E+01  0.27326251513E+01  0.10408013037E+02  0.11166124991E+02  0.51100000000E-03 0.  1.
        -11    1    3    3    0    0 -0.77863646946E-02 -0.57063389755E+01  0.74350360894E+01  0.93724130854E+01  0.51100000000E-03 0. -1.
         12    1    3    3    0    0 -0.17378300036E+02  0.21115945957E+02  0.12309783794E+02  0.29990319486E+02  0.00000000000E+00 0. -1.
</event>
<event>
 7    1  0.2639126E-011  0.5052886E+02  0.7816164E-02  0.1300439E+00
        -11   -1    0    0    0    0  0.00000000000E+00  0.00000000000E+00  0.45593999997E+02  0.45594000000E+02  0.51100000000E-03 0. -1.
         11   -1    0    0    0    0 -0.00000000000E+00 -0.00000000000E+00 -0.45593999997E+02  0.45594000000E+02  0.51100000000E-03 0.  1.
    9900012    2    1    2    0    0  0.26539456991E+01  0.35664203517E+02 -0.19343910997E+02  0.50528859171E+02  0.29999997935E+02 0.  0.
         12    1    1    2    0    0 -0.26539456991E+01 -0.35664203517E+02  0.19343910997E+02  0.40659140829E+02  0.00000000000E+00 0. -1.
         11    1    3    3    0    0  0.39094168503E+01 -0.29853757653E+01 -0.25932870436E+01  0.55606786026E+01  0.51100000000E-03 0. -1.
        -11    1    3    3    0    0  0.59970610165E+01  0.70185343099E+01 -0.28213756854E+01  0.96532235918E+01  0.51100000000E-03 0.  1.
        -12    1    3    3    0    0 -0.72525321676E+01  0.31631044973E+02 -0.13929248268E+02  0.35314956976E+02  0.00000000000E+00 0.  1.
</event>
<event>
 7    1  0.2639126E-011  0.5052887E+02  0.7816164E-02  0.1300439E+00
        -11   -1    0    0    0    0  0.00000000000E+00  0.00000000000E+00  0.45593999997E+02  0.45594000000E+02  0.51100000000E-03 0.  1.
         11   -1    0    0    0    0 -0.00000000000E+00 -0.00000000000E+00 -0.45593999997E+02  0.45594000000E+02  0.51100000000E-03 0. -1.
    9900012    2    1    2    0    0 -0.47988658353E+00 -0.32376411778E+02 -0.24590707474E+02  0.50528865419E+02  0.30000016928E+02 0.  0.
         12    1    1    2    0    0  0.47988658353E+00  0.32376411778E+02  0.24590707474E+02  0.40659134581E+02  0.00000000000E+00 0. -1.
         11    1    3    3    0    0 -0.76158106804E+01 -0.21366891019E+02 -0.19804802546E+02  0.30112701776E+02  0.51100000000E-03 0. -1.
        -11    1    3    3    0    0 -0.25533932710E+01 -0.97236743537E+01 -0.19721132635E+01  0.10244944662E+02  0.51100000000E-03 0.  1.
         12    1    3    3    0    0  0.96893173679E+01 -0.12858464060E+01 -0.28137916647E+01  0.10171218981E+02  0.00000000000E+00 0. -1.
</event>
<event>
 7    1  0.2639126E-011  0.5052886E+02  0.7816164E-02  0.1300439E+00
        -11   -1    0    0    0    0  0.00000000000E+00  0.00000000000E+00  0.45593999997E+02  0.45594000000E+02  0.51100000000E-03 0.  1.
         11   -1    0    0    0    0 -0.00000000000E+00 -0.00000000000E+00 -0.45593999997E+02  0.45594000000E+02  0.51100000000E-03 0. -1.
    9900012    2    1    2    0    0 -0.34842590987E+02 -0.19444887434E+02  0.78138444257E+01  0.50528856395E+02  0.29999989498E+02 0.  0.
         12    1    1    2    0    0  0.34842590987E+02  0.19444887434E+02 -0.78138444257E+01  0.40659143605E+02  0.00000000000E+00 0. -1.
         11    1    3    3    0    0 -0.11788900904E+01  0.21579885146E+01 -0.34631999488E+01  0.42474051397E+01  0.51100000000E-03 0. -1.
        -11    1    3    3    0    0 -0.75601783075E+01  0.70016106186E+00 -0.41367062127E+01  0.86463206108E+01  0.51100000000E-03 0.  1.
         12    1    3    3    0    0 -0.26103522589E+02 -0.22303037011E+02  0.15413750587E+02  0.37635130644E+02  0.00000000000E+00 0. -1.
</event>
<event>
 7    1  0.2639126E-011  0.5052884E+02  0.7816164E-02  0.1300439E+00
        -11   -1    0    0    0    0  0.00000000000E+00  0.00000000000E+00  0.45593999997E+02  0.45594000000E+02  0.51100000000E-03 0. -1.
         11   -1    0    0    0    0 -0.00000000000E+00 -0.00000000000E+00 -0.45593999997E+02  0.45594000000E+02  0.51100000000E-03 0.  1.
    9900012    2    1    2    0    0 -0.10418568088E+02 -0.30735042030E+02 -0.24494444152E+02  0.50528841574E+02  0.29999944449E+02 0.  0.
         12    1    1    2    0    0  0.10418568088E+02  0.30735042030E+02  0.24494444152E+02  0.40659158426E+02  0.00000000000E+00 0. -1.
         11    1    3    3    0    0  0.54213354489E+01 -0.65826874679E+01  0.19213227654E+01  0.87415178190E+01  0.51100000000E-03 0. -1.
        -11    1    3    3    0    0 -0.11785181918E+02 -0.11676010989E+02 -0.62460371933E+01  0.17726610684E+02  0.51100000000E-03 0.  1.
         12    1    3    3    0    0 -0.40547216183E+01 -0.12476343573E+02 -0.20169729724E+02  0.24060713071E+02  0.00000000000E+00 0. -1.
</event>
<event>
 7    1  0.2639126E-011  0.5052888E+02  0.7816164E-02  0.1300439E+00
        -11   -1    0    0    0    0  0.00000000000E+00  0.00000000000E+00  0.45593999997E+02  0.45594000000E+02  0.51100000000E-03 0. -1.
         11   -1    0    0    0    0 -0.00000000000E+00 -0.00000000000E+00 -0.45593999997E+02  0.45594000000E+02  0.51100000000E-03 0.  1.
    9900012    2    1    2    0    0  0.14080876455E+02  0.38116947155E+02  0.14110091655E+01  0.50528884306E+02  0.30000074338E+02 0.  0.
         12    1    1    2    0    0 -0.14080876455E+02 -0.38116947155E+02 -0.14110091655E+01  0.40659115694E+02  0.00000000000E+00 0. -1.
         11    1    3    3    0    0  0.96451664592E+01  0.97078940109E+01  0.19695675213E-02  0.13684752329E+02  0.51100000000E-03 0. -1.
        -11    1    3    3    0    0  0.18227164339E-01  0.55330782101E+01 -0.95961969449E+01  0.11077106246E+02  0.51100000000E-03 0.  1.
        -12    1    3    3    0    0  0.44174828311E+01  0.22875974934E+02  0.11005236543E+02  0.25767025732E+02  0.00000000000E+00 0.  1.
</event>
<event>
 7    1  0.2639126E-011  0.5052886E+02  0.7816164E-02  0.1300439E+00
        -11   -1    0    0    0    0  0.00000000000E+00  0.00000000000E+00  0.45593999997E+02  0.45594000000E+02  0.51100000000E-03 0. -1.
         11   -1    0    0    0    0 -0.00000000000E+00 -0.00000000000E+00 -0.45593999997E+02  0.45594000000E+02  0.51100000000E-03 0.  1.
    9900012    2    1    2    0    0 -0.37752484261E+02  0.14993663092E+02 -0.17623009281E+01  0.50528859510E+02  0.29999998968E+02 0.  0.
         12    1    1    2    0    0  0.37752484261E+02 -0.14993663092E+02  0.17623009281E+01  0.40659140490E+02  0.00000000000E+00 0. -1.
         11    1    3    3    0    0 -0.64455554674E+01  0.63481423342E+01  0.17458518998E+01  0.92136906555E+01  0.51100000000E-03 0. -1.
        -11    1    3    3    0    0 -0.56525881422E+00  0.87316995694E+01 -0.57845828842E+01  0.10489208469E+02  0.51100000000E-03 0.  1.
         12    1    3    3    0    0 -0.30741669980E+02 -0.86178811864E-01  0.22764300563E+01  0.30825960386E+02  0.00000000000E+00 0. -1.
</event>
<event>
 7    1  0.2639126E-011  0.5052876E+02  0.7816164E-02  0.1300439E+00
        -11   -1    0    0    0    0  0.00000000000E+00  0.00000000000E+00  0.45593999997E+02  0.45594000000E+02  0.51100000000E-03 0. -1.
         11   -1    0    0    0    0 -0.00000000000E+00 -0.00000000000E+00 -0.45593999997E+02  0.45594000000E+02  0.51100000000E-03 0.  1.
    9900012    2    1    2    0    0  0.42893487806E+00 -0.39204352613E+02 -0.10770710246E+02  0.50528764295E+02  0.29999709550E+02 0.  0.
         12    1    1    2    0    0 -0.42893487806E+00  0.39204352613E+02  0.10770710246E+02  0.40659235705E+02  0.00000000000E+00 0. -1.
         11    1    3    3    0    0  0.90810560692E+01 -0.19133865689E+01 -0.56219887296E+01  0.10850501603E+02  0.51100000000E-03 0. -1.
        -11    1    3    3    0    0  0.53186930990E+00 -0.57041635926E+01 -0.35602896057E+01  0.67450744690E+01  0.51100000000E-03 0.  1.
        -12    1    3    3    0    0 -0.91839905010E+01 -0.31586802451E+02 -0.15884319104E+01  0.32933188223E+02  0.00000000000E+00 0.  1.
</event>
<event>
 7    1  0.2639126E-011  0.5052887E+02  0.7816164E-02  0.1300439E+00
        -11   -1    0    0    0    0  0.00000000000E+00  0.00000000000E+00  0.45593999997E+02  0.45594000000E+02  0.51100000000E-03 0.  1.
         11   -1    0    0    0    0 -0.00000000000E+00 -0.00000000000E+00 -0.45593999997E+02  0.45594000000E+02  0.51100000000E-03 0. -1.
    9900012    2    1    2    0    0  0.27365135427E+02 -0.96214688675E+01  0.28491078455E+02  0.50528870009E+02  0.30000030879E+02 0.  0.
         12    1    1    2    0    0 -0.27365135427E+02  0.96214688675E+01 -0.28491078455E+02  0.40659129991E+02  0.00000000000E+00 0. -1.
         11    1    3    3    0    0  0.53179776576E+01 -0.14553162400E+01 -0.55438496172E+01  0.78187659234E+01  0.51100000000E-03 0. -1.
        -11    1    3    3    0    0  0.23327142509E+01 -0.53586203419E+01  0.88110132371E+01  0.10573094262E+02  0.51100000000E-03 0.  1.
        -12    1    3    3    0    0  0.19714443518E+02 -0.28075322855E+01  0.25223914835E+02  0.32137009824E+02  0.00000000000E+00 0.  1.
</event>
<event>
 7    1  0.2639126E-011  0.5052887E+02  0.7816164E-02  0.1300439E+00
        -11   -1    0    0    0    0  0.00000000000E+00  0.00000000000E+00  0.45593999997E+02  0.45594000000E+02  0.51100000000E-03 0. -1.
         11   -1    0    0    0    0 -0.00000000000E+00 -0.00000000000E+00 -0.45593999997E+02  0.45594000000E+02  0.51100000000E-03 0.  1.
    9900012    2    1    2    0    0 -0.15820890763E+02 -0.11146784485E+02 -0.35757703474E+02  0.50528871300E+02  0.30000034803E+02 0.  0.
         12    1    1    2    0    0  0.15820890763E+02  0.11146784485E+02  0.35757703474E+02  0.40659128700E+02  0.00000000000E+00 0. -1.
         11    1    3    3    0    0 -0.90538311552E+01 -0.87164375675E+01 -0.60752630833E+01  0.13959117603E+02  0.51100000000E-03 0. -1.
        -11    1    3    3    0    0 -0.12444697499E+02 -0.22421069706E+01 -0.10110652722E+02  0.16190208097E+02  0.51100000000E-03 0.  1.
         12    1    3    3    0    0  0.56776378906E+01 -0.18823994649E+00 -0.19571787669E+02  0.20379545600E+02  0.00000000000E+00 0. -1.
</event>
<event>
 7    1  0.2639126E-011  0.5052886E+02  0.7816164E-02  0.1300439E+00
        -11   -1    0    0    0    0  0.00000000000E+00  0.00000000000E+00  0.45593999997E+02  0.45594000000E+02  0.51100000000E-03 0.  1.
         11   -1    0    0    0    0 -0.00000000000E+00 -0.00000000000E+00 -0.45593999997E+02  0.45594000000E+02  0.51100000000E-03 0. -1.
    9900012    2    1    2    0    0  0.24073266496E+02  0.49054879648E+01  0.32397220519E+02  0.50528857494E+02  0.29999992838E+02 0.  0.
         12    1    1    2    0    0 -0.24073266496E+02 -0.49054879648E+01 -0.32397220519E+02  0.40659142506E+02  0.00000000000E+00 0. -1.
         11    1    3    3    0    0  0.12578604406E+02  0.69213936661E+01  0.15241257464E+02  0.20938550772E+02  0.51100000000E-03 0. -1.
        -11    1    3    3    0    0  0.15002805854E+02  0.20726233617E+01  0.18625631761E+02  0.24006126507E+02  0.51100000000E-03 0.  1.
         12    1    3    3    0    0 -0.35081437641E+01 -0.40885290630E+01 -0.14696687055E+01  0.55841802149E+01  0.00000000000E+00 0. -1.
</event>
<event>
 7    1  0.2639126E-011  0.5052886E+02  0.7816164E-02  0.1300439E+00
        -11   -1    0    0    0    0  0.00000000000E+00  0.00000000000E+00  0.45593999997E+02  0.45594000000E+02  0.51100000000E-03 0.  1.
         11   -1    0    0    0    0 -0.00000000000E+00 -0.00000000000E+00 -0.45593999997E+02  0.45594000000E+02  0.51100000000E-03 0. -1.
    9900012    2    1    2    0    0 -0.20013277331E+02  0.27250035404E+02  0.22584728919E+02  0.50528859830E+02  0.29999999939E+02 0.  0.
         12    1    1    2    0    0  0.20013277331E+02 -0.27250035404E+02 -0.22584728919E+02  0.40659140170E+02  0.00000000000E+00 0. -1.
         11    1    3    3    0    0  0.67045901524E+00  0.41281235392E+01  0.44288453314E+00  0.42055993885E+01  0.51100000000E-03 0. -1.
        -11    1    3    3    0    0 -0.43664208994E+01 -0.18127165557E+01 -0.43696429255E+01  0.64378064850E+01  0.51100000000E-03 0.  1.
        -12    1    3    3    0    0 -0.16317315447E+02  0.24934628420E+02  0.26511487311E+02  0.39885453956E+02  0.00000000000E+00 0.  1.
</event>
<event>
 7    1  0.2639126E-011  0.5052886E+02  0.7816164E-02  0.1300439E+00
        -11   -1    0    0    0    0  0.00000000000E+00  0.00000000000E+00  0.45593999997E+02  0.45594000000E+02  0.51100000000E-03 0. -1.
         11   -1    0    0    0    0 -0.00000000000E+00 -0.00000000000E+00 -0.45593999997E+02  0.45594000000E+02  0.51100000000E-03 0.  1.
    9900012    2    1    2    0    0  0.34383509359E+02  0.98787069195E+01 -0.19322301713E+02  0.50528856997E+02  0.29999991329E+02 0.  0.
         12    1    1    2    0    0 -0.34383509359E+02 -0.98787069195E+01  0.19322301713E+02  0.40659143003E+02  0.00000000000E+00 0. -1.
         11    1    3    3    0    0  0.19505058402E+02  0.57395427894E+01 -0.41587582789E+01  0.20752949800E+02  0.51100000000E-03 0. -1.
        -11    1    3    3    0    0  0.54413344790E+01 -0.44699905544E+01 -0.15470877510E+02  0.16998146595E+02  0.51100000000E-03 0.  1.
         12    1    3    3    0    0  0.94371164778E+01  0.86091546844E+01  0.30733407550E+00  0.12777760603E+02  0.00000000000E+00 0. -1.
</event>
<event>
 7    1  0.2639126E-011  0.5052886E+02  0.7816164E-02  0.1300439E+00
        -11   -1    0    0    0    0  0.00000000000E+00  0.00000000000E+00  0.45593999997E+02  0.45594000000E+02  0.51100000000E-03 0.  1.
         11   -1    0    0    0    0 -0.00000000000E+00 -0.00000000000E+00 -0.45593999997E+02  0.45594000000E+02  0.51100000000E-03 0. -1.
    9900012    2    1    2    0    0 -0.38488625038E+02  0.70199624461E+00 -0.13088104051E+02  0.50528861744E+02  0.30000005757E+02 0.  0.
         12    1    1    2    0    0  0.38488625038E+02 -0.70199624461E+00  0.13088104051E+02  0.40659138256E+02  0.00000000000E+00 0. -1.
         11    1    3    3    0    0 -0.32321347435E+02  0.96696443836E+01 -0.88685768644E+01  0.34882992681E+02  0.51100000000E-03 0. -1.
        -11    1    3    3    0    0 -0.74770360009E+01 -0.17069514304E+01 -0.25417637595E+01  0.80796233708E+01  0.51100000000E-03 0.  1.
         12    1    3    3    0    0  0.13097583979E+01 -0.72606967086E+01 -0.16777634268E+01  0.75662456920E+01  0.00000000000E+00 0. -1.
</event>
<event>
 7    1  0.2639126E-011  0.5052886E+02  0.7816164E-02  0.1300439E+00
        -11   -1    0    0    0    0  0.00000000000E+00  0.00000000000E+00  0.45593999997E+02  0.45594000000E+02  0.51100000000E-03 0.  1.
         11   -1    0    0    0    0 -0.00000000000E+00 -0.00000000000E+00 -0.45593999997E+02  0.45594000000E+02  0.51100000000E-03 0. -1.
    9900012    2    1    2    0    0  0.16498860030E+02 -0.81408567115E+01  0.36258515353E+02  0.50528857536E+02  0.29999992967E+02 0.  0.
         12    1    1    2    0    0 -0.16498860030E+02  0.81408567115E+01 -0.36258515353E+02  0.40659142464E+02  0.00000000000E+00 0. -1.
         11    1    3    3    0    0 -0.18313105602E+01 -0.80806117236E+01  0.10278324848E+01  0.83490373142E+01  0.51100000000E-03 0. -1.
        -11    1    3    3    0    0  0.75550046997E+01 -0.46726460520E+01  0.25311509101E+02  0.26825066829E+02  0.51100000000E-03 0.  1.
        -12    1    3    3    0    0  0.10775165890E+02  0.46124010641E+01  0.99191737667E+01  0.15354753393E+02  0.00000000000E+00 0.  1.
</event>
<event>
 7    1  0.2639126E-011  0.5052886E+02  0.7816164E-02  0.1300439E+00
        -11   -1    0    0    0    0  0.00000000000E+00  0.00000000000E+00  0.45593999997E+02  0.45594000000E+02  0.51100000000E-03 0.  1.
         11   -1    0    0    0    0 -0.00000000000E+00 -0.00000000000E+00 -0.45593999997E+02  0.45594000000E+02  0.51100000000E-03 0. -1.
    9900012    2    1    2    0    0  0.35050396694E+02 -0.20435222072E+02  0.26527681738E+01  0.50528858487E+02  0.29999995858E+02 0.  0.
         12    1    1    2    0    0 -0.35050396694E+02  0.20435222072E+02 -0.26527681738E+01  0.40659141513E+02  0.00000000000E+00 0. -1.
         11    1    3    3    0    0  0.85785354129E+01  0.59692613557E+01 -0.28110387003E+01  0.10822443800E+02  0.51100000000E-03 0. -1.
        -11    1    3    3    0    0  0.92652279174E+01 -0.23775155304E+01 -0.41598431072E+00  0.95744488962E+01  0.51100000000E-03 0.  1.
        -12    1    3    3    0    0  0.17206633364E+02 -0.24026967898E+02  0.58797911848E+01  0.30131965791E+02  0.00000000000E+00 0.  1.
</event>
<event>
 7    1  0.2639126E-011  0.5052885E+02  0.7816164E-02  0.1300439E+00
        -11   -1    0    0    0    0  0.00000000000E+00  0.00000000000E+00  0.45593999997E+02  0.45594000000E+02  0.51100000000E-03 0. -1.
         11   -1    0    0    0    0 -0.00000000000E+00 -0.00000000000E+00 -0.45593999997E+02  0.45594000000E+02  0.51100000000E-03 0.  1.
    9900012    2    1    2    0    0  0.39783336527E+02 -0.30037880726E+01  0.78377153404E+01  0.50528851094E+02  0.29999973386E+02 0.  0.
         12    1    1    2    0    0 -0.39783336527E+02  0.30037880726E+01 -0.78377153404E+01  0.40659148906E+02  0.00000000000E+00 0. -1.
         11    1    3    3    0    0  0.46954991236E+01  0.20569524662E+01  0.28871519910E+01  0.58834014267E+01  0.51100000000E-03 0. -1.
        -11    1    3    3    0    0  0.35353455186E+02 -0.74731046902E+01  0.11289995396E+02  0.37857338570E+02  0.51100000000E-03 0.  1.
        -12    1    3    3    0    0 -0.26561778280E+00  0.24123641513E+01 -0.63394320465E+01  0.67881110979E+01  0.00000000000E+00 0.  1.
</event>
<event>
 7    1  0.2639126E-011  0.5052884E+02  0.7816164E-02  0.1300439E+00
        -11   -1    0    0    0    0  0.00000000000E+00  0.00000000000E+00  0.45593999997E+02  0.45594000000E+02  0.51100000000E-03 0. -1.
         11   -1    0    0    0    0 -0.00000000000E+00 -0.00000000000E+00 -0.45593999997E+02  0.45594000000E+02  0.51100000000E-03 0.  1.
    9900012    2    1    2    0    0  0.24130673611E+02  0.30428511334E+02 -0.12040927341E+02  0.50528835693E+02  0.29999926572E+02 0.  0.
         12    1    1    2    0    0 -0.24130673611E+02 -0.30428511334E+02  0.12040927341E+02  0.40659164307E+02  0.00000000000E+00 0. -1.
         11    1    3    3    0    0  0.10964565069E+01  0.43035464083E+00  0.28995817960E+01  0.31296959663E+01  0.51100000000E-03 0. -1.
        -11    1    3    3    0    0 -0.18559436618E+01  0.15966433590E+02 -0.26323952203E+01  0.16288064136E+02  0.51100000000E-03 0.  1.
         12    1    3    3    0    0  0.24890160766E+02  0.14031723103E+02 -0.12308113917E+02  0.31111075590E+02  0.00000000000E+00 0. -1.
</event>
<event>
 7    1  0.2639126E-011  0.5052886E+02  0.7816164E-02  0.1300439E+00
        -11   -1    0    0    0    0  0.00000000000E+00  0.00000000000E+00  0.45593999997E+02  0.45594000000E+02  0.51100000000E-03 0. -1.
         11   -1    0    0    0    0 -0.00000000000E+00 -0.00000000000E+00 -0.45593999997E+02  0.45594000000E+02  0.51100000000E-03 0.  1.
    9900012    2    1    2    0    0  0.37314907014E+02 -0.75338026442E+01  0.14283033424E+02  0.50528861894E+02  0.30000006213E+02 0.  0.
         12    1    1    2    0    0 -0.37314907014E+02  0.75338026442E+01 -0.14283033424E+02  0.40659138106E+02  0.00000000000E+00 0. -1.
         11    1    3    3    0    0  0.74985520163E+01 -0.98235750475E+01  0.46380574612E+01  0.13200094179E+02  0.51100000000E-03 0. -1.
        -11    1    3    3    0    0  0.48259642954E+01 -0.52333928546E+01  0.86620658393E+01  0.11212034473E+02  0.51100000000E-03 0.  1.
        -12    1    3    3    0    0  0.24990390702E+02  0.75231652579E+01  0.98291012393E+00  0.26116733242E+02  0.00000000000E+00 0.  1.
</event>
<event>
 7    1  0.2639126E-011  0.5052886E+02  0.7816164E-02  0.1300439E+00
        -11   -1    0    0    0    0  0.00000000000E+00  0.00000000000E+00  0.45593999997E+02  0.45594000000E+02  0.51100000000E-03 0. -1.
         11   -1    0    0    0    0 -0.00000000000E+00 -0.00000000000E+00 -0.45593999997E+02  0.45594000000E+02  0.51100000000E-03 0.  1.
    9900012    2    1    2    0    0  0.15414189761E+02 -0.19743644549E+02 -0.32027436964E+02  0.50528862472E+02  0.30000007969E+02 0.  0.
         12    1    1    2    0    0 -0.15414189761E+02  0.19743644549E+02  0.32027436964E+02  0.40659137528E+02  0.00000000000E+00 0. -1.
         11    1    3    3    0    0  0.14309090330E+02 -0.23397726073E+02 -0.14803443232E+02  0.31166417556E+02  0.51100000000E-03 0. -1.
        -11    1    3    3    0    0 -0.26440760861E+01  0.14433635302E+00 -0.20675993240E+01  0.33596039287E+01  0.51100000000E-03 0.  1.
        -12    1    3    3    0    0  0.37491755178E+01  0.35097451712E+01 -0.15156394408E+02  0.16002840987E+02  0.00000000000E+00 0.  1.
</event>
<event>
 7    1  0.2639126E-011  0.5052886E+02  0.7816164E-02  0.1300439E+00
        -11   -1    0    0    0    0  0.00000000000E+00  0.00000000000E+00  0.45593999997E+02  0.45594000000E+02  0.51100000000E-03 0.  1.
         11   -1    0    0    0    0 -0.00000000000E+00 -0.00000000000E+00 -0.45593999997E+02  0.45594000000E+02  0.51100000000E-03 0. -1.
    9900012    2    1    2    0    0 -0.20126400139E+02 -0.11841637631E+02  0.33284672963E+02  0.50528858118E+02  0.29999994735E+02 0.  0.
         12    1    1    2    0    0  0.20126400139E+02  0.11841637631E+02 -0.33284672963E+02  0.40659141882E+02  0.00000000000E+00 0. -1.
         11    1    3    3    0    0 -0.41908031643E+01  0.55471183248E+01  0.74715943151E+01  0.10205786336E+02  0.51100000000E-03 0. -1.
        -11    1    3    3    0    0 -0.17175667706E+02 -0.18328249571E+02  0.14704033340E+02  0.29105616128E+02  0.51100000000E-03 0.  1.
         12    1    3    3    0    0  0.12400707317E+01  0.93949361507E+00  0.11109045308E+02  0.11217455653E+02  0.00000000000E+00 0. -1.
</event>
<event>
 7    1  0.2639126E-011  0.5052886E+02  0.7816164E-02  0.1300439E+00
        -11   -1    0    0    0    0  0.00000000000E+00  0.00000000000E+00  0.45593999997E+02  0.45594000000E+02  0.51100000000E-03 0.  1.
         11   -1    0    0    0    0 -0.00000000000E+00 -0.00000000000E+00 -0.45593999997E+02  0.45594000000E+02  0.51100000000E-03 0. -1.
    9900012    2    1    2    0    0 -0.30703367767E+02 -0.10679846014E+02  0.24421500541E+02  0.50528860907E+02  0.30000003213E+02 0.  0.
         12    1    1    2    0    0  0.30703367767E+02  0.10679846014E+02 -0.24421500541E+02  0.40659139093E+02  0.00000000000E+00 0. -1.
         11    1    3    3    0    0 -0.13787217233E+02 -0.72075021136E+01  0.44623347979E+01  0.16184803918E+02  0.51100000000E-03 0. -1.
        -11    1    3    3    0    0 -0.18295296577E+02 -0.10291589110E+02  0.15067906336E+02  0.25839436620E+02  0.51100000000E-03 0.  1.
         12    1    3    3    0    0  0.13791460433E+01  0.68192452089E+01  0.48912594071E+01  0.85046203687E+01  0.00000000000E+00 0. -1.
</event>
<event>
 7    1  0.2639126E-011  0.5052895E+02  0.7816164E-02  0.1300438E+00
        -11   -1    0    0    0    0  0.00000000000E+00  0.00000000000E+00  0.45593999997E+02  0.45594000000E+02  0.51100000000E-03 0. -1.
         11   -1    0    0    0    0 -0.00000000000E+00 -0.00000000000E+00 -0.45593999997E+02  0.45594000000E+02  0.51100000000E-03 0.  1.
    9900012    2    1    2    0    0  0.28823625606E+02  0.47856470925E+01 -0.28274631181E+02  0.50528947138E+02  0.30000265320E+02 0.  0.
         12    1    1    2    0    0 -0.28823625606E+02 -0.47856470925E+01  0.28274631181E+02  0.40659052862E+02  0.00000000000E+00 0. -1.
         11    1    3    3    0    0  0.30966814805E+01 -0.52303186582E+01 -0.15227541800E+02  0.16395843955E+02  0.51100000000E-03 0. -1.
        -11    1    3    3    0    0  0.55811747401E+01  0.31759961940E+01 -0.11029091345E+02  0.12762339890E+02  0.51100000000E-03 0.  1.
         12    1    3    3    0    0  0.20145769386E+02  0.68399695567E+01 -0.20179980359E+01  0.21370763294E+02  0.00000000000E+00 0. -1.
</event>
<event>
 7    1  0.2639126E-011  0.5052885E+02  0.7816164E-02  0.1300439E+00
        -11   -1    0    0    0    0  0.00000000000E+00  0.00000000000E+00  0.45593999997E+02  0.45594000000E+02  0.51100000000E-03 0. -1.
         11   -1    0    0    0    0 -0.00000000000E+00 -0.00000000000E+00 -0.45593999997E+02  0.45594000000E+02  0.51100000000E-03 0.  1.
    9900012    2    1    2    0    0 -0.11218069964E+02 -0.34525577212E+02 -0.18311356852E+02  0.50528851395E+02  0.29999974300E+02 0.  0.
         12    1    1    2    0    0  0.11218069964E+02  0.34525577212E+02  0.18311356852E+02  0.40659148605E+02  0.00000000000E+00 0. -1.
         11    1    3    3    0    0 -0.82118196279E+01 -0.89651106423E+01 -0.11016576956E+02  0.16406466972E+02  0.51100000000E-03 0. -1.
        -11    1    3    3    0    0 -0.91742256731E+01 -0.24922631960E+02 -0.83351499834E+01  0.27834847332E+02  0.51100000000E-03 0.  1.
         12    1    3    3    0    0  0.61679753368E+01 -0.63783460962E+00  0.10403700870E+01  0.62875370903E+01  0.00000000000E+00 0. -1.
</event>
<event>
 7    1  0.2639126E-011  0.5052886E+02  0.7816164E-02  0.1300439E+00
        -11   -1    0    0    0    0  0.00000000000E+00  0.00000000000E+00  0.45593999997E+02  0.45594000000E+02  0.51100000000E-03 0. -1.
         11   -1    0    0    0    0 -0.00000000000E+00 -0.00000000000E+00 -0.45593999997E+02  0.45594000000E+02  0.51100000000E-03 0.  1.
    9900012    2    1    2    0    0 -0.27610604181E+02  0.34442074379E+01 -0.29647213037E+02  0.50528864877E+02  0.30000015279E+02 0.  0.
         12    1    1    2    0    0  0.27610604181E+02 -0.34442074379E+01  0.29647213037E+02  0.40659135123E+02  0.00000000000E+00 0. -1.
         11    1    3    3    0    0 -0.26085297206E+01 -0.16438718705E+01 -0.19105057746E+02  0.19352260172E+02  0.51100000000E-03 0. -1.
        -11    1    3    3    0    0  0.12165006552E+01  0.48409106863E+00  0.14730922528E+01  0.19708422193E+01  0.51100000000E-03 0.  1.
        -12    1    3    3    0    0 -0.26218575116E+02  0.46039882398E+01 -0.12015247544E+02  0.29205762485E+02  0.00000000000E+00 0.  1.
</event>
<event>
 7    1  0.2639126E-011  0.5052885E+02  0.7816164E-02  0.1300439E+00
        -11   -1    0    0    0    0  0.00000000000E+00  0.00000000000E+00  0.45593999997E+02  0.45594000000E+02  0.51100000000E-03 0. -1.
         11   -1    0    0    0    0 -0.00000000000E+00 -0.00000000000E+00 -0.45593999997E+02  0.45594000000E+02  0.51100000000E-03 0.  1.
    9900012    2    1    2    0    0  0.34392296185E+02 -0.19544240866E+02 -0.93999453341E+01  0.50528851458E+02  0.29999974491E+02 0.  0.
         12    1    1    2    0    0 -0.34392296185E+02  0.19544240866E+02  0.93999453341E+01  0.40659148542E+02  0.00000000000E+00 0. -1.
         11    1    3    3    0    0  0.12174930000E+02  0.57962592519E+01 -0.50146090394E+01  0.14386516114E+02  0.51100000000E-03 0. -1.
        -11    1    3    3    0    0  0.17860843282E+01 -0.10429895023E+02 -0.13167078159E+01  0.10663326270E+02  0.51100000000E-03 0.  1.
        -12    1    3    3    0    0  0.20431281857E+02 -0.14910605095E+02 -0.30686284788E+01  0.25479009073E+02  0.00000000000E+00 0.  1.
</event>
<event>
 7    1  0.2639126E-011  0.5052886E+02  0.7816164E-02  0.1300439E+00
        -11   -1    0    0    0    0  0.00000000000E+00  0.00000000000E+00  0.45593999997E+02  0.45594000000E+02  0.51100000000E-03 0.  1.
         11   -1    0    0    0    0 -0.00000000000E+00 -0.00000000000E+00 -0.45593999997E+02  0.45594000000E+02  0.51100000000E-03 0. -1.
    9900012    2    1    2    0    0  0.24540401394E+02  0.27896469639E+01  0.32297871558E+02  0.50528856650E+02  0.29999990274E+02 0.  0.
         12    1    1    2    0    0 -0.24540401394E+02 -0.27896469639E+01 -0.32297871558E+02  0.40659143350E+02  0.00000000000E+00 0. -1.
         11    1    3    3    0    0  0.97880169781E+01 -0.53917410320E+01  0.79903651259E+01  0.13737615617E+02  0.51100000000E-03 0. -1.
        -11    1    3    3    0    0  0.18476888568E+02  0.24512920811E+00  0.19188702150E+02  0.26639478034E+02  0.51100000000E-03 0.  1.
         12    1    3    3    0    0 -0.37245041520E+01  0.79362587878E+01  0.51188042823E+01  0.10151763000E+02  0.00000000000E+00 0. -1.
</event>
<event>
 7    1  0.2639126E-011  0.5052886E+02  0.7816164E-02  0.1300439E+00
        -11   -1    0    0    0    0  0.00000000000E+00  0.00000000000E+00  0.45593999997E+02  0.45594000000E+02  0.51100000000E-03 0.  1.
         11   -1    0    0    0    0 -0.00000000000E+00 -0.00000000000E+00 -0.45593999997E+02  0.45594000000E+02  0.51100000000E-03 0. -1.
    9900012    2    1    2    0    0  0.47060163108E+01 -0.39379041987E+01  0.40193430587E+02  0.50528861527E+02  0.30000005097E+02 0.  0.
         12    1    1    2    0    0 -0.47060163108E+01  0.39379041987E+01 -0.40193430587E+02  0.40659138473E+02  0.00000000000E+00 0. -1.
         11    1    3    3    0    0  0.18050945688E+01  0.36366996386E+01  0.41482598122E+00  0.40811801626E+01  0.51100000000E-03 0. -1.
        -11    1    3    3    0    0 -0.17057820183E+00  0.75156635209E+01  0.71839303783E+01  0.10398228264E+02  0.51100000000E-03 0.  1.
        -12    1    3    3    0    0  0.30714999439E+01 -0.15090267358E+02  0.32594674228E+02  0.36049453101E+02  0.00000000000E+00 0.  1.
</event>
<event>
 7    1  0.2639126E-011  0.5052886E+02  0.7816164E-02  0.1300439E+00
        -11   -1    0    0    0    0  0.00000000000E+00  0.00000000000E+00  0.45593999997E+02  0.45594000000E+02  0.51100000000E-03 0.  1.
         11   -1    0    0    0    0 -0.00000000000E+00 -0.00000000000E+00 -0.45593999997E+02  0.45594000000E+02  0.51100000000E-03 0. -1.
    9900012    2    1    2    0    0 -0.14391858291E+02 -0.26447005195E+02  0.27323913004E+02  0.50528857231E+02  0.29999992040E+02 0.  0.
         12    1    1    2    0    0  0.14391858291E+02  0.26447005195E+02 -0.27323913004E+02  0.40659142769E+02  0.00000000000E+00 0. -1.
         11    1    3    3    0    0 -0.96792760805E+00 -0.12440801859E+01  0.10832894447E+02  0.10946973177E+02  0.51100000000E-03 0. -1.
        -11    1    3    3    0    0 -0.24793318402E+01 -0.19976423197E+02  0.18438482264E+02  0.27298025544E+02  0.51100000000E-03 0.  1.
        -12    1    3    3    0    0 -0.10944598843E+02 -0.52265018118E+01 -0.19474637071E+01  0.12283858511E+02  0.00000000000E+00 0.  1.
</event>
<event>
 7    1  0.2639126E-011  0.5052886E+02  0.7816164E-02  0.1300439E+00
        -11   -1    0    0    0    0  0.00000000000E+00  0.00000000000E+00  0.45593999997E+02  0.45594000000E+02  0.51100000000E-03 0. -1.
         11   -1    0    0    0    0 -0.00000000000E+00 -0.00000000000E+00 -0.45593999997E+02  0.45594000000E+02  0.51100000000E-03 0.  1.
    9900012    2    1    2    0    0 -0.31298791381E+02 -0.20506440542E+02 -0.15907152576E+02  0.50528856518E+02  0.29999989872E+02 0.  0.
         12    1    1    2    0    0  0.31298791381E+02  0.20506440542E+02  0.15907152576E+02  0.40659143482E+02  0.00000000000E+00 0. -1.
         11    1    3    3    0    0 -0.46479397976E+00  0.23023374070E+01  0.16040411996E+01  0.28442467211E+01  0.51100000000E-03 0.  1.
        -11    1    3    3    0    0  0.92101770967E+00  0.12137056495E+01 -0.60661365658E+01  0.62545477951E+01  0.51100000000E-03 0. -1.
        -12    1    3    3    0    0 -0.31755015111E+02 -0.24022483599E+02 -0.11445057210E+02  0.41430062002E+02  0.00000000000E+00 0.  1.
</event>
<event>
 7    1  0.2639126E-011  0.5052875E+02  0.7816164E-02  0.1300439E+00
        -11   -1    0    0    0    0  0.00000000000E+00  0.00000000000E+00  0.45593999997E+02  0.45594000000E+02  0.51100000000E-03 0.  1.
         11   -1    0    0    0    0 -0.00000000000E+00 -0.00000000000E+00 -0.45593999997E+02  0.45594000000E+02  0.51100000000E-03 0. -1.
    9900012    2    1    2    0    0  0.21327872117E+02  0.31589907761E+02  0.14155356862E+02  0.50528750999E+02  0.29999669136E+02 0.  0.
         12    1    1    2    0    0 -0.21327872117E+02 -0.31589907761E+02 -0.14155356862E+02  0.40659249001E+02  0.00000000000E+00 0. -1.
         11    1    3    3    0    0  0.81004152981E+01  0.48993055753E+01  0.86717629906E+01  0.12838200682E+02  0.51100000000E-03 0. -1.
        -11    1    3    3    0    0 -0.61711969917E+01  0.90602467731E+01  0.29670878243E+01  0.11356731674E+02  0.51100000000E-03 0.  1.
         12    1    3    3    0    0  0.19398653811E+02  0.17630355413E+02  0.25165060473E+01  0.26333818643E+02  0.00000000000E+00 0. -1.
</event>
<event>
 7    1  0.2639126E-011  0.5052888E+02  0.7816164E-02  0.1300439E+00
        -11   -1    0    0    0    0  0.00000000000E+00  0.00000000000E+00  0.45593999997E+02  0.45594000000E+02  0.51100000000E-03 0. -1.
         11   -1    0    0    0    0 -0.00000000000E+00 -0.00000000000E+00 -0.45593999997E+02  0.45594000000E+02  0.51100000000E-03 0.  1.
    9900012    2    1    2    0    0 -0.22133482137E+02 -0.25539117630E+02 -0.22605896257E+02  0.50528879173E+02  0.30000058734E+02 0.  0.
         12    1    1    2    0    0  0.22133482137E+02  0.25539117630E+02  0.22605896257E+02  0.40659120827E+02  0.00000000000E+00 0. -1.
         11    1    3    3    0    0 -0.16501313576E+02 -0.95385256619E+01 -0.21536943362E+02  0.28759637535E+02  0.51100000000E-03 0. -1.
        -11    1    3    3    0    0 -0.10799033153E+01 -0.58461282377E+01 -0.69799561728E+01  0.91685983104E+01  0.51100000000E-03 0.  1.
        -12    1    3    3    0    0 -0.45522652460E+01 -0.10154463730E+02  0.59110032771E+01  0.12600643327E+02  0.00000000000E+00 0.  1.
</event>
<event>
 7    1  0.2639126E-011  0.5052887E+02  0.7816164E-02  0.1300439E+00
        -11   -1    0    0    0    0  0.00000000000E+00  0.00000000000E+00  0.45593999997E+02  0.45594000000E+02  0.51100000000E-03 0. -1.
         11   -1    0    0    0    0 -0.00000000000E+00 -0.00000000000E+00 -0.45593999997E+02  0.45594000000E+02  0.51100000000E-03 0.  1.
    9900012    2    1    2    0    0 -0.37498571257E+01  0.16057650519E+02 -0.37165240623E+02  0.50528872129E+02  0.30000037323E+02 0.  0.
         12    1    1    2    0    0  0.37498571257E+01 -0.16057650519E+02  0.37165240623E+02  0.40659127871E+02  0.00000000000E+00 0. -1.
         11    1    3    3    0    0 -0.12726920260E+02  0.25993943012E+01 -0.22697934281E+02  0.26152008927E+02  0.51100000000E-03 0. -1.
        -11    1    3    3    0    0 -0.97591984073E+00  0.36439013749E+01 -0.82639142046E+01  0.90842013962E+01  0.51100000000E-03 0.  1.
         12    1    3    3    0    0  0.99529829753E+01  0.98143548433E+01 -0.62033921377E+01  0.15292661806E+02  0.00000000000E+00 0. -1.
</event>
<event>
 7    1  0.2639126E-011  0.5052885E+02  0.7816164E-02  0.1300439E+00
        -11   -1    0    0    0    0  0.00000000000E+00  0.00000000000E+00  0.45593999997E+02  0.45594000000E+02  0.51100000000E-03 0. -1.
         11   -1    0    0    0    0 -0.00000000000E+00 -0.00000000000E+00 -0.45593999997E+02  0.45594000000E+02  0.51100000000E-03 0.  1.
    9900012    2    1    2    0    0 -0.29031615711E+02 -0.78465404167E+01 -0.27363550688E+02  0.50528845882E+02  0.29999957544E+02 0.  0.
         12    1    1    2    0    0  0.29031615711E+02  0.78465404167E+01  0.27363550688E+02  0.40659154118E+02  0.00000000000E+00 0. -1.
         11    1    3    3    0    0 -0.49816257989E+00  0.67739722921E+01 -0.12160154429E+00  0.67933536466E+01  0.51100000000E-03 0. -1.
        -11    1    3    3    0    0 -0.11713670808E+02 -0.79665131390E+01 -0.49004633377E+01  0.14989661656E+02  0.51100000000E-03 0.  1.
        -12    1    3    3    0    0 -0.16819782324E+02 -0.66539995699E+01 -0.22341485806E+02  0.28745830579E+02  0.00000000000E+00 0.  1.
</event>
<event>
 7    1  0.2639126E-011  0.5052886E+02  0.7816164E-02  0.1300439E+00
        -11   -1    0    0    0    0  0.00000000000E+00  0.00000000000E+00  0.45593999997E+02  0.45594000000E+02  0.51100000000E-03 0.  1.
         11   -1    0    0    0    0 -0.00000000000E+00 -0.00000000000E+00 -0.45593999997E+02  0.45594000000E+02  0.51100000000E-03 0. -1.
    9900012    2    1    2    0    0  0.21921219537E+02 -0.32550947317E+02  0.10633041649E+02  0.50528860659E+02  0.30000002459E+02 0.  0.
         12    1    1    2    0    0 -0.21921219537E+02  0.32550947317E+02 -0.10633041649E+02  0.40659139341E+02  0.00000000000E+00 0. -1.
         11    1    3    3    0    0  0.12225669103E+02 -0.24494973289E+02  0.82965020939E+01  0.28605989735E+02  0.51100000000E-03 0. -1.
        -11    1    3    3    0    0 -0.12583319960E+01 -0.59058847519E+01  0.74957116709E+01  0.96254126056E+01  0.51100000000E-03 0.  1.
         12    1    3    3    0    0  0.10953882430E+02 -0.21500892763E+01 -0.51591721156E+01  0.12297458319E+02  0.00000000000E+00 0. -1.
</event>
<event>
 7    1  0.2639126E-011  0.5052886E+02  0.7816164E-02  0.1300439E+00
        -11   -1    0    0    0    0  0.00000000000E+00  0.00000000000E+00  0.45593999997E+02  0.45594000000E+02  0.51100000000E-03 0.  1.
         11   -1    0    0    0    0 -0.00000000000E+00 -0.00000000000E+00 -0.45593999997E+02  0.45594000000E+02  0.51100000000E-03 0. -1.
    9900012    2    1    2    0    0  0.26325674532E+02  0.26726002688E+02  0.15679459911E+02  0.50528858072E+02  0.29999994597E+02 0.  0.
         12    1    1    2    0    0 -0.26325674532E+02 -0.26726002688E+02 -0.15679459911E+02  0.40659141928E+02  0.00000000000E+00 0. -1.
         11    1    3    3    0    0  0.78895218864E+01 -0.10223429621E+01  0.40568901043E+01  0.89301790748E+01  0.51100000000E-03 0. -1.
        -11    1    3    3    0    0  0.13185240060E+02  0.18579668598E+02  0.18193935901E+02  0.29156027584E+02  0.51100000000E-03 0.  1.
        -12    1    3    3    0    0  0.52509125846E+01  0.91686770513E+01 -0.65713660944E+01  0.12442651413E+02  0.00000000000E+00 0.  1.
</event>
<event>
 7    1  0.2639126E-011  0.5052886E+02  0.7816164E-02  0.1300439E+00
        -11   -1    0    0    0    0  0.00000000000E+00  0.00000000000E+00  0.45593999997E+02  0.45594000000E+02  0.51100000000E-03 0. -1.
         11   -1    0    0    0    0 -0.00000000000E+00 -0.00000000000E+00 -0.45593999997E+02  0.45594000000E+02  0.51100000000E-03 0.  1.
    9900012    2    1    2    0    0 -0.36461393017E+02 -0.10787464367E+02 -0.14400112108E+02  0.50528858384E+02  0.29999995544E+02 0.  0.
         12    1    1    2    0    0  0.36461393017E+02  0.10787464367E+02  0.14400112108E+02  0.40659141616E+02  0.00000000000E+00 0. -1.
         11    1    3    3    0    0 -0.12268390360E+00 -0.21406872438E+01  0.10290360692E+00  0.21466677967E+01  0.51100000000E-03 0. -1.
        -11    1    3    3    0    0 -0.21368911650E+02 -0.15571827971E+02 -0.17376963851E+02  0.31639707401E+02  0.51100000000E-03 0.  1.
         12    1    3    3    0    0 -0.14969797464E+02  0.69250508481E+01  0.28739481368E+01  0.16742483187E+02  0.00000000000E+00 0. -1.
</event>
<event>
 7    1  0.2639126E-011  0.5052885E+02  0.7816164E-02  0.1300439E+00
        -11   -1    0    0    0    0  0.00000000000E+00  0.00000000000E+00  0.45593999997E+02  0.45594000000E+02  0.51100000000E-03 0.  1.
         11   -1    0    0    0    0 -0.00000000000E+00 -0.00000000000E+00 -0.45593999997E+02  0.45594000000E+02  0.51100000000E-03 0. -1.
    9900012    2    1    2    0    0  0.33481834418E+02 -0.18790854985E+02  0.13380466632E+02  0.50528851529E+02  0.29999974708E+02 0.  0.
         12    1    1    2    0    0 -0.33481834418E+02  0.18790854985E+02 -0.13380466632E+02  0.40659148471E+02  0.00000000000E+00 0. -1.
         11    1    3    3    0    0  0.18677255122E+02  0.14453319870E+01  0.77753844624E+01  0.20282639060E+02  0.51100000000E-03 0. -1.
        -11    1    3    3    0    0  0.14399117166E+02 -0.77538994107E+01  0.67765515986E+01  0.17702519116E+02  0.51100000000E-03 0.  1.
         12    1    3    3    0    0  0.40546212981E+00 -0.12482287561E+02 -0.11714694291E+01  0.12543693353E+02  0.00000000000E+00 0. -1.
</event>
<event>
 7    1  0.2639126E-011  0.5052886E+02  0.7816164E-02  0.1300439E+00
        -11   -1    0    0    0    0  0.00000000000E+00  0.00000000000E+00  0.45593999997E+02  0.45594000000E+02  0.51100000000E-03 0.  1.
         11   -1    0    0    0    0 -0.00000000000E+00 -0.00000000000E+00 -0.45593999997E+02  0.45594000000E+02  0.51100000000E-03 0. -1.
    9900012    2    1    2    0    0 -0.25015401891E+02  0.21069995548E+02  0.24154724543E+02  0.50528858816E+02  0.29999996856E+02 0.  0.
         12    1    1    2    0    0  0.25015401891E+02 -0.21069995548E+02 -0.24154724543E+02  0.40659141184E+02  0.00000000000E+00 0. -1.
         11    1    3    3    0    0 -0.12238968728E+02  0.77126106601E+01  0.12127840052E+02  0.18877532236E+02  0.51100000000E-03 0.  1.
        -11    1    3    3    0    0  0.30250379832E+01  0.19914381146E+01  0.11631922325E+02  0.12182704864E+02  0.51100000000E-03 0. -1.
         12    1    3    3    0    0 -0.15801471146E+02  0.11365946773E+02  0.39496216575E+00  0.19468621716E+02  0.00000000000E+00 0. -1.
</event>
<event>
 7    1  0.2639126E-011  0.5052889E+02  0.7816164E-02  0.1300439E+00
        -11   -1    0    0    0    0  0.00000000000E+00  0.00000000000E+00  0.45593999997E+02  0.45594000000E+02  0.51100000000E-03 0.  1.
         11   -1    0    0    0    0 -0.00000000000E+00 -0.00000000000E+00 -0.45593999997E+02  0.45594000000E+02  0.51100000000E-03 0. -1.
    9900012    2    1    2    0    0  0.16501695203E+02 -0.18582719091E+02  0.32179810376E+02  0.50528885533E+02  0.30000078067E+02 0.  0.
         12    1    1    2    0    0 -0.16501695203E+02  0.18582719091E+02 -0.32179810376E+02  0.40659114467E+02  0.00000000000E+00 0. -1.
         11    1    3    3    0    0 -0.17959535635E+01 -0.22394024437E+01  0.29661724939E+01  0.41277780987E+01  0.51100000000E-03 0. -1.
        -11    1    3    3    0    0  0.48048656988E+01 -0.11778090961E+02  0.29530188929E+02  0.32153416918E+02  0.51100000000E-03 0.  1.
        -12    1    3    3    0    0  0.13492783068E+02 -0.45652256857E+01 -0.31655104681E+00  0.14247690516E+02  0.00000000000E+00 0.  1.
</event>
<event>
 7    1  0.2639126E-011  0.5052886E+02  0.7816164E-02  0.1300439E+00
        -11   -1    0    0    0    0  0.00000000000E+00  0.00000000000E+00  0.45593999997E+02  0.45594000000E+02  0.51100000000E-03 0.  1.
         11   -1    0    0    0    0 -0.00000000000E+00 -0.00000000000E+00 -0.45593999997E+02  0.45594000000E+02  0.51100000000E-03 0. -1.
    9900012    2    1    2    0    0  0.40361192850E+02  0.49012626607E+01  0.34236344772E+00  0.50528862322E+02  0.30000007514E+02 0.  0.
         12    1    1    2    0    0 -0.40361192850E+02 -0.49012626607E+01 -0.34236344772E+00  0.40659137678E+02  0.00000000000E+00 0. -1.
         11    1    3    3    0    0 -0.85459559812E+00  0.15787401084E+00  0.90796137507E-01  0.87378603750E+00  0.51100000000E-03 0. -1.
        -11    1    3    3    0    0  0.78308960069E+01  0.10666446407E+02  0.71701579263E+01  0.15050155354E+02  0.51100000000E-03 0.  1.
        -12    1    3    3    0    0  0.33384892442E+02 -0.59230577568E+01 -0.69185906161E+01  0.34604920931E+02  0.00000000000E+00 0.  1.
</event>
<event>
 7    1  0.2639126E-011  0.5052887E+02  0.7816164E-02  0.1300439E+00
        -11   -1    0    0    0    0  0.00000000000E+00  0.00000000000E+00  0.45593999997E+02  0.45594000000E+02  0.51100000000E-03 0.  1.
         11   -1    0    0    0    0 -0.00000000000E+00 -0.00000000000E+00 -0.45593999997E+02  0.45594000000E+02  0.51100000000E-03 0. -1.
    9900012    2    1    2    0    0  0.48394060951E+01  0.19661535520E+01  0.40322195370E+02  0.50528867562E+02  0.30000023442E+02 0.  0.
         12    1    1    2    0    0 -0.48394060951E+01 -0.19661535520E+01 -0.40322195370E+02  0.40659132438E+02  0.00000000000E+00 0. -1.
         11    1    3    3    0    0 -0.30809593315E+01 -0.83413221637E+01  0.14054863594E+02  0.16631571085E+02  0.51100000000E-03 0. -1.
        -11    1    3    3    0    0 -0.17842862287E+01 -0.72130500607E+00  0.15659032418E+02  0.15776858204E+02  0.51100000000E-03 0.  1.
         12    1    3    3    0    0  0.97046516554E+01  0.11028780722E+02  0.10608299358E+02  0.18120438274E+02  0.00000000000E+00 0. -1.
</event>
<event>
 7    1  0.2639126E-011  0.5052886E+02  0.7816164E-02  0.1300439E+00
        -11   -1    0    0    0    0  0.00000000000E+00  0.00000000000E+00  0.45593999997E+02  0.45594000000E+02  0.51100000000E-03 0.  1.
         11   -1    0    0    0    0 -0.00000000000E+00 -0.00000000000E+00 -0.45593999997E+02  0.45594000000E+02  0.51100000000E-03 0. -1.
    9900012    2    1    2    0    0  0.12847781531E+02 -0.44829041638E+01  0.38314537719E+02  0.50528859323E+02  0.29999998398E+02 0.  0.
         12    1    1    2    0    0 -0.12847781531E+02  0.44829041638E+01 -0.38314537719E+02  0.40659140677E+02  0.00000000000E+00 0. -1.
         11    1    3    3    0    0 -0.35091346133E+01 -0.74246364995E+01  0.37818671991E+01  0.90411156755E+01  0.51100000000E-03 0. -1.
        -11    1    3    3    0    0  0.18158563160E+01 -0.42870706742E+01  0.18819340765E+01  0.50217512140E+01  0.51100000000E-03 0.  1.
        -12    1    3    3    0    0  0.14541059828E+02  0.72288030099E+01  0.32650736443E+02  0.36465992433E+02  0.00000000000E+00 0.  1.
</event>
<event>
 7    1  0.2639126E-011  0.5052885E+02  0.7816164E-02  0.1300439E+00
        -11   -1    0    0    0    0  0.00000000000E+00  0.00000000000E+00  0.45593999997E+02  0.45594000000E+02  0.51100000000E-03 0.  1.
         11   -1    0    0    0    0 -0.00000000000E+00 -0.00000000000E+00 -0.45593999997E+02  0.45594000000E+02  0.51100000000E-03 0. -1.
    9900012    2    1    2    0    0  0.36958194524E+02  0.51276863453E+01  0.16154427910E+02  0.50528845424E+02  0.29999956151E+02 0.  0.
         12    1    1    2    0    0 -0.36958194524E+02 -0.51276863453E+01 -0.16154427910E+02  0.40659154576E+02  0.00000000000E+00 0. -1.
         11    1    3    3    0    0  0.12055220329E+02  0.92803380941E+00 -0.51201212049E+01  0.13130317031E+02  0.51100000000E-03 0. -1.
        -11    1    3    3    0    0  0.17073440001E+02 -0.20334321652E+01  0.43488285370E+01  0.17735543684E+02  0.51100000000E-03 0.  1.
         12    1    3    3    0    0  0.78295341937E+01  0.62330847011E+01  0.16925720578E+02  0.19662984709E+02  0.00000000000E+00 0. -1.
</event>
<event>
 7    1  0.2639126E-011  0.5052885E+02  0.7816164E-02  0.1300439E+00
        -11   -1    0    0    0    0  0.00000000000E+00  0.00000000000E+00  0.45593999997E+02  0.45594000000E+02  0.51100000000E-03 0. -1.
         11   -1    0    0    0    0 -0.00000000000E+00 -0.00000000000E+00 -0.45593999997E+02  0.45594000000E+02  0.51100000000E-03 0.  1.
    9900012    2    1    2    0    0 -0.15979128060E+02  0.32397937084E+02 -0.18660311438E+02  0.50528854857E+02  0.29999984823E+02 0.  0.
         12    1    1    2    0    0  0.15979128060E+02 -0.32397937084E+02  0.18660311438E+02  0.40659145143E+02  0.00000000000E+00 0. -1.
         11    1    3    3    0    0 -0.23955733834E+01  0.31143527316E+02 -0.13595637089E+02  0.34066103588E+02  0.51100000000E-03 0. -1.
        -11    1    3    3    0    0 -0.18979918053E+01  0.32899175886E+01 -0.10570247896E+01  0.39424906214E+01  0.51100000000E-03 0.  1.
        -12    1    3    3    0    0 -0.11685562871E+02 -0.20355078210E+01 -0.40076495589E+01  0.12520260648E+02  0.00000000000E+00 0.  1.
</event>
<event>
 7    1  0.2639126E-011  0.5052887E+02  0.7816164E-02  0.1300439E+00
        -11   -1    0    0    0    0  0.00000000000E+00  0.00000000000E+00  0.45593999997E+02  0.45594000000E+02  0.51100000000E-03 0.  1.
         11   -1    0    0    0    0 -0.00000000000E+00 -0.00000000000E+00 -0.45593999997E+02  0.45594000000E+02  0.51100000000E-03 0. -1.
    9900012    2    1    2    0    0  0.32810570517E+02  0.10817271577E+02  0.21438699293E+02  0.50528871512E+02  0.30000035447E+02 0.  0.
         12    1    1    2    0    0 -0.32810570517E+02 -0.10817271577E+02 -0.21438699293E+02  0.40659128488E+02  0.00000000000E+00 0. -1.
         11    1    3    3    0    0  0.15139318236E+02 -0.69479890826E+01  0.45510410307E+01  0.17268048057E+02  0.51100000000E-03 0. -1.
        -11    1    3    3    0    0  0.10041977435E+02  0.34831280397E+01  0.11672758266E+01  0.10692802480E+02  0.51100000000E-03 0.  1.
         12    1    3    3    0    0  0.76292748456E+01  0.14282132620E+02  0.15720382435E+02  0.22568020976E+02  0.00000000000E+00 0. -1.
</event>
<event>
 7    1  0.2639126E-011  0.5052885E+02  0.7816164E-02  0.1300439E+00
        -11   -1    0    0    0    0  0.00000000000E+00  0.00000000000E+00  0.45593999997E+02  0.45594000000E+02  0.51100000000E-03 0.  1.
         11   -1    0    0    0    0 -0.00000000000E+00 -0.00000000000E+00 -0.45593999997E+02  0.45594000000E+02  0.51100000000E-03 0. -1.
    9900012    2    1    2    0    0 -0.17291665626E+02  0.36787830936E+02 -0.90559193760E+00  0.50528852175E+02  0.29999976671E+02 0.  0.
         12    1    1    2    0    0  0.17291665626E+02 -0.36787830936E+02  0.90559193760E+00  0.40659147825E+02  0.00000000000E+00 0. -1.
         11    1    3    3    0    0 -0.19977857509E+01 -0.34992321637E+01  0.16369477662E+01  0.43491806001E+01  0.51100000000E-03 0. -1.
        -11    1    3    3    0    0  0.25708031013E+01  0.27195097130E+01  0.21516605328E+01  0.43167586189E+01  0.51100000000E-03 0.  1.
         12    1    3    3    0    0 -0.17864682977E+02  0.37567553387E+02 -0.46942002366E+01  0.41862912956E+02  0.00000000000E+00 0. -1.
</event>
<event>
 7    1  0.2639126E-011  0.5052886E+02  0.7816164E-02  0.1300439E+00
        -11   -1    0    0    0    0  0.00000000000E+00  0.00000000000E+00  0.45593999997E+02  0.45594000000E+02  0.51100000000E-03 0. -1.
         11   -1    0    0    0    0 -0.00000000000E+00 -0.00000000000E+00 -0.45593999997E+02  0.45594000000E+02  0.51100000000E-03 0.  1.
    9900012    2    1    2    0    0  0.89869994383E+01 -0.17416698606E+02 -0.35623839016E+02  0.50528862583E+02  0.30000008309E+02 0.  0.
         12    1    1    2    0    0 -0.89869994383E+01  0.17416698606E+02  0.35623839016E+02  0.40659137417E+02  0.00000000000E+00 0. -1.
         11    1    3    3    0    0  0.65985231489E+01 -0.97261435416E+00 -0.33017623371E+01  0.74423196129E+01  0.51100000000E-03 0. -1.
        -11    1    3    3    0    0  0.94472510657E+01  0.87339875916E+00 -0.13953464344E+02  0.16873427203E+02  0.51100000000E-03 0.  1.
         12    1    3    3    0    0 -0.70587747764E+01 -0.17317483011E+02 -0.18368612335E+02  0.26213115768E+02  0.00000000000E+00 0. -1.
</event>
<event>
 7    1  0.2639126E-011  0.5052886E+02  0.7816164E-02  0.1300439E+00
        -11   -1    0    0    0    0  0.00000000000E+00  0.00000000000E+00  0.45593999997E+02  0.45594000000E+02  0.51100000000E-03 0.  1.
         11   -1    0    0    0    0 -0.00000000000E+00 -0.00000000000E+00 -0.45593999997E+02  0.45594000000E+02  0.51100000000E-03 0. -1.
    9900012    2    1    2    0    0  0.15230293097E+02  0.17359245528E+01  0.37658864382E+02  0.50528864146E+02  0.30000013057E+02 0.  0.
         12    1    1    2    0    0 -0.15230293097E+02 -0.17359245528E+01 -0.37658864382E+02  0.40659135854E+02  0.00000000000E+00 0. -1.
         11    1    3    3    0    0  0.10891218000E+02 -0.80823582286E+01  0.24454450725E+02  0.27963606788E+02  0.51100000000E-03 0. -1.
        -11    1    3    3    0    0  0.28504573748E+01 -0.30537521448E+01  0.71086726761E+01  0.82452250960E+01  0.51100000000E-03 0.  1.
        -12    1    3    3    0    0  0.14886177217E+01  0.12872034926E+02  0.60957409810E+01  0.14320032261E+02  0.00000000000E+00 0.  1.
</event>
<event>
 7    1  0.2639126E-011  0.5052887E+02  0.7816164E-02  0.1300439E+00
        -11   -1    0    0    0    0  0.00000000000E+00  0.00000000000E+00  0.45593999997E+02  0.45594000000E+02  0.51100000000E-03 0. -1.
         11   -1    0    0    0    0 -0.00000000000E+00 -0.00000000000E+00 -0.45593999997E+02  0.45594000000E+02  0.51100000000E-03 0.  1.
    9900012    2    1    2    0    0 -0.12525695141E+02  0.22803049863E+02 -0.31245689726E+02  0.50528865131E+02  0.30000016054E+02 0.  0.
         12    1    1    2    0    0  0.12525695141E+02 -0.22803049863E+02  0.31245689726E+02  0.40659134869E+02  0.00000000000E+00 0. -1.
         11    1    3    3    0    0 -0.46341580156E+01  0.17028020360E+01 -0.20609340947E+02  0.21192448887E+02  0.51100000000E-03 0. -1.
        -11    1    3    3    0    0  0.29455245734E+01  0.32463915103E+01 -0.68168200722E+01  0.81045795084E+01  0.51100000000E-03 0.  1.
        -12    1    3    3    0    0 -0.10837061699E+02  0.17853856317E+02 -0.38195287062E+01  0.21231836736E+02  0.00000000000E+00 0.  1.
</event>
<event>
 7    1  0.2639126E-011  0.5052886E+02  0.7816164E-02  0.1300439E+00
        -11   -1    0    0    0    0  0.00000000000E+00  0.00000000000E+00  0.45593999997E+02  0.45594000000E+02  0.51100000000E-03 0. -1.
         11   -1    0    0    0    0 -0.00000000000E+00 -0.00000000000E+00 -0.45593999997E+02  0.45594000000E+02  0.51100000000E-03 0.  1.
    9900012    2    1    2    0    0  0.11285515432E+01 -0.40625136308E+02 -0.12208190787E+01  0.50528859234E+02  0.29999998127E+02 0.  0.
         12    1    1    2    0    0 -0.11285515432E+01  0.40625136308E+02  0.12208190787E+01  0.40659140766E+02  0.00000000000E+00 0. -1.
         11    1    3    3    0    0  0.66317123292E+01 -0.29947813262E+02 -0.12259247982E+02  0.33032412702E+02  0.51100000000E-03 0. -1.
        -11    1    3    3    0    0 -0.66470469659E+00 -0.87226431893E+00 -0.81794407256E+00  0.13681045803E+01  0.51100000000E-03 0.  1.
         12    1    3    3    0    0 -0.48384560894E+01 -0.98050587271E+01  0.11856372976E+02  0.16128341952E+02  0.00000000000E+00 0. -1.
</event>
<event>
 7    1  0.2639126E-011  0.5052886E+02  0.7816164E-02  0.1300439E+00
        -11   -1    0    0    0    0  0.00000000000E+00  0.00000000000E+00  0.45593999997E+02  0.45594000000E+02  0.51100000000E-03 0.  1.
         11   -1    0    0    0    0 -0.00000000000E+00 -0.00000000000E+00 -0.45593999997E+02  0.45594000000E+02  0.51100000000E-03 0. -1.
    9900012    2    1    2    0    0  0.19879739564E+02 -0.24775818744E+02  0.25379524001E+02  0.50528862305E+02  0.30000007463E+02 0.  0.
         12    1    1    2    0    0 -0.19879739564E+02  0.24775818744E+02 -0.25379524001E+02  0.40659137695E+02  0.00000000000E+00 0. -1.
         11    1    3    3    0    0  0.44375876282E+01 -0.51846550634E+01  0.15257135249E+01  0.69928988342E+01  0.51100000000E-03 0. -1.
        -11    1    3    3    0    0  0.21393613697E+02 -0.97706703196E+01  0.10039882819E+02  0.25572484290E+02  0.51100000000E-03 0.  1.
         12    1    3    3    0    0 -0.59514617614E+01 -0.98204933612E+01  0.13813927657E+02  0.17963479181E+02  0.00000000000E+00 0. -1.
</event>
<event>
 7    1  0.2639126E-011  0.5052885E+02  0.7816164E-02  0.1300439E+00
        -11   -1    0    0    0    0  0.00000000000E+00  0.00000000000E+00  0.45593999997E+02  0.45594000000E+02  0.51100000000E-03 0.  1.
         11   -1    0    0    0    0 -0.00000000000E+00 -0.00000000000E+00 -0.45593999997E+02  0.45594000000E+02  0.51100000000E-03 0. -1.
    9900012    2    1    2    0    0  0.17068403610E+02  0.35308823842E+02  0.10729541395E+02  0.50528849720E+02  0.29999969209E+02 0.  0.
         12    1    1    2    0    0 -0.17068403610E+02 -0.35308823842E+02 -0.10729541395E+02  0.40659150280E+02  0.00000000000E+00 0. -1.
         11    1    3    3    0    0 -0.25394157421E+00  0.40934685194E+01  0.56010564897E-01  0.41017201620E+01  0.51100000000E-03 0. -1.
        -11    1    3    3    0    0 -0.50426209967E+01  0.16764749330E+02 -0.58742961307E+00  0.17516561318E+02  0.51100000000E-03 0.  1.
         12    1    3    3    0    0  0.22364966181E+02  0.14450605993E+02  0.11260960444E+02  0.28910568240E+02  0.00000000000E+00 0. -1.
</event>
<event>
 7    1  0.2639126E-011  0.5052885E+02  0.7816164E-02  0.1300439E+00
        -11   -1    0    0    0    0  0.00000000000E+00  0.00000000000E+00  0.45593999997E+02  0.45594000000E+02  0.51100000000E-03 0.  1.
         11   -1    0    0    0    0 -0.00000000000E+00 -0.00000000000E+00 -0.45593999997E+02  0.45594000000E+02  0.51100000000E-03 0. -1.
    9900012    2    1    2    0    0  0.76792447017E+01 -0.20618358731E+02  0.34191791656E+02  0.50528854257E+02  0.29999982998E+02 0.  0.
         12    1    1    2    0    0 -0.76792447017E+01  0.20618358731E+02 -0.34191791656E+02  0.40659145743E+02  0.00000000000E+00 0. -1.
         11    1    3    3    0    0 -0.36394911001E+01 -0.30657624041E+00  0.18504518831E+02  0.18861524379E+02  0.51100000000E-03 0. -1.
        -11    1    3    3    0    0  0.33506083287E+01 -0.35160234093E+01  0.11681059311E+02  0.12650539264E+02  0.51100000000E-03 0.  1.
         12    1    3    3    0    0  0.79681274731E+01 -0.16795759081E+02  0.40062135144E+01  0.19016790614E+02  0.00000000000E+00 0. -1.
</event>
<event>
 7    1  0.2639126E-011  0.5052886E+02  0.7816164E-02  0.1300439E+00
        -11   -1    0    0    0    0  0.00000000000E+00  0.00000000000E+00  0.45593999997E+02  0.45594000000E+02  0.51100000000E-03 0. -1.
         11   -1    0    0    0    0 -0.00000000000E+00 -0.00000000000E+00 -0.45593999997E+02  0.45594000000E+02  0.51100000000E-03 0.  1.
    9900012    2    1    2    0    0 -0.16735738966E+02  0.19456472737E+02 -0.31536108100E+02  0.50528863213E+02  0.30000010224E+02 0.  0.
         12    1    1    2    0    0  0.16735738966E+02 -0.19456472737E+02  0.31536108100E+02  0.40659136787E+02  0.00000000000E+00 0. -1.
         11    1    3    3    0    0 -0.47062802636E+01  0.23566844039E+01 -0.25891973813E+01  0.58657462134E+01  0.51100000000E-03 0. -1.
        -11    1    3    3    0    0 -0.16457055989E+02  0.13714292350E+02 -0.78066278791E+01  0.22800437399E+02  0.51100000000E-03 0.  1.
        -12    1    3    3    0    0  0.44275972864E+01  0.33854959833E+01 -0.21140282840E+02  0.21862679601E+02  0.00000000000E+00 0.  1.
</event>
<event>
 7    1  0.2639126E-011  0.5052885E+02  0.7816164E-02  0.1300439E+00
        -11   -1    0    0    0    0  0.00000000000E+00  0.00000000000E+00  0.45593999997E+02  0.45594000000E+02  0.51100000000E-03 0. -1.
         11   -1    0    0    0    0 -0.00000000000E+00 -0.00000000000E+00 -0.45593999997E+02  0.45594000000E+02  0.51100000000E-03 0.  1.
    9900012    2    1    2    0    0 -0.26768455426E+02 -0.52716689665E+00 -0.30599639924E+02  0.50528854973E+02  0.29999985175E+02 0.  0.
         12    1    1    2    0    0  0.26768455426E+02  0.52716689665E+00  0.30599639924E+02  0.40659145027E+02  0.00000000000E+00 0. -1.
         11    1    3    3    0    0 -0.33889613465E+01  0.97568203927E+01 -0.59818970884E+01  0.11935815691E+02  0.51100000000E-03 0. -1.
        -11    1    3    3    0    0 -0.28690324002E+01 -0.80921051338E+01 -0.10658277475E+02  0.13686211726E+02  0.51100000000E-03 0.  1.
        -12    1    3    3    0    0 -0.20510461680E+02 -0.21918821555E+01 -0.13959465361E+02  0.24906827555E+02  0.00000000000E+00 0.  1.
</event>
<event>
 7    1  0.2639126E-011  0.5052886E+02  0.7816164E-02  0.1300439E+00
        -11   -1    0    0    0    0  0.00000000000E+00  0.00000000000E+00  0.45593999997E+02  0.45594000000E+02  0.51100000000E-03 0.  1.
         11   -1    0    0    0    0 -0.00000000000E+00 -0.00000000000E+00 -0.45593999997E+02  0.45594000000E+02  0.51100000000E-03 0. -1.
    9900012    2    1    2    0    0  0.22274249700E+02  0.18065849692E+02  0.28820975853E+02  0.50528858667E+02  0.29999996405E+02 0.  0.
         12    1    1    2    0    0 -0.22274249700E+02 -0.18065849692E+02 -0.28820975853E+02  0.40659141333E+02  0.00000000000E+00 0. -1.
         11    1    3    3    0    0  0.17150178391E+02  0.17205466680E+02  0.11889668312E+02  0.27046643328E+02  0.51100000000E-03 0. -1.
        -11    1    3    3    0    0 -0.18317544017E+01  0.47388922904E+01  0.35618875850E+00  0.50930634220E+01  0.51100000000E-03 0.  1.
        -12    1    3    3    0    0  0.69558257110E+01 -0.38785092784E+01  0.16575118783E+02  0.18389151917E+02  0.00000000000E+00 0.  1.
</event>
<event>
 7    1  0.2639126E-011  0.5052888E+02  0.7816164E-02  0.1300439E+00
        -11   -1    0    0    0    0  0.00000000000E+00  0.00000000000E+00  0.45593999997E+02  0.45594000000E+02  0.51100000000E-03 0.  1.
         11   -1    0    0    0    0 -0.00000000000E+00 -0.00000000000E+00 -0.45593999997E+02  0.45594000000E+02  0.51100000000E-03 0. -1.
    9900012    2    1    2    0    0  0.25160622002E+02  0.42589332345E+01  0.31653889181E+02  0.50528879103E+02  0.30000058523E+02 0.  0.
         12    1    1    2    0    0 -0.25160622002E+02 -0.42589332345E+01 -0.31653889181E+02  0.40659120897E+02  0.00000000000E+00 0. -1.
         11    1    3    3    0    0  0.19490279377E+02 -0.23618397266E+01  0.20738006040E+02  0.28557208755E+02  0.51100000000E-03 0. -1.
        -11    1    3    3    0    0  0.75528507046E+01  0.50635942784E+01  0.14807563108E+02  0.17376693190E+02  0.51100000000E-03 0.  1.
         12    1    3    3    0    0 -0.18825080803E+01  0.15571786828E+01 -0.38916799666E+01  0.45949771582E+01  0.00000000000E+00 0. -1.
</event>
<event>
 7    1  0.2639126E-011  0.5052886E+02  0.7816164E-02  0.1300439E+00
        -11   -1    0    0    0    0  0.00000000000E+00  0.00000000000E+00  0.45593999997E+02  0.45594000000E+02  0.51100000000E-03 0.  1.
         11   -1    0    0    0    0 -0.00000000000E+00 -0.00000000000E+00 -0.45593999997E+02  0.45594000000E+02  0.51100000000E-03 0. -1.
    9900012    2    1    2    0    0  0.32604922865E+02 -0.15885763995E+02  0.18377361604E+02  0.50528856965E+02  0.29999991232E+02 0.  0.
         12    1    1    2    0    0 -0.32604922865E+02  0.15885763995E+02 -0.18377361604E+02  0.40659143035E+02  0.00000000000E+00 0. -1.
         11    1    3    3    0    0  0.37109793920E+01  0.53702507625E+01  0.10483164487E+01  0.66113484961E+01  0.51100000000E-03 0. -1.
        -11    1    3    3    0    0  0.13802775030E+02 -0.21939176774E+01 -0.14491409470E+00  0.13976797690E+02  0.51100000000E-03 0.  1.
        -12    1    3    3    0    0  0.15091168443E+02 -0.19062097081E+02  0.17473959250E+02  0.29940710779E+02  0.00000000000E+00 0.  1.
</event>
<event>
 7    1  0.2639126E-011  0.5052886E+02  0.7816164E-02  0.1300439E+00
        -11   -1    0    0    0    0  0.00000000000E+00  0.00000000000E+00  0.45593999997E+02  0.45594000000E+02  0.51100000000E-03 0.  1.
         11   -1    0    0    0    0 -0.00000000000E+00 -0.00000000000E+00 -0.45593999997E+02  0.45594000000E+02  0.51100000000E-03 0. -1.
    9900012    2    1    2    0    0  0.15832615713E+02  0.29169348366E+02  0.23487087419E+02  0.50528857365E+02  0.29999992447E+02 0.  0.
         12    1    1    2    0    0 -0.15832615713E+02 -0.29169348366E+02 -0.23487087419E+02  0.40659142635E+02  0.00000000000E+00 0. -1.
         11    1    3    3    0    0 -0.33848142635E+01 -0.20786418478E+01 -0.39210827700E+00  0.39914243938E+01  0.51100000000E-03 0. -1.
        -11    1    3    3    0    0  0.28032516512E+01  0.10428728137E+01  0.82480417503E+01  0.87735965545E+01  0.51100000000E-03 0.  1.
        -12    1    3    3    0    0  0.16414178326E+02  0.30205117400E+02  0.15631153945E+02  0.37763836417E+02  0.00000000000E+00 0.  1.
</event>
<event>
 7    1  0.2639126E-011  0.5052886E+02  0.7816164E-02  0.1300439E+00
        -11   -1    0    0    0    0  0.00000000000E+00  0.00000000000E+00  0.45593999997E+02  0.45594000000E+02  0.51100000000E-03 0.  1.
         11   -1    0    0    0    0 -0.00000000000E+00 -0.00000000000E+00 -0.45593999997E+02  0.45594000000E+02  0.51100000000E-03 0. -1.
    9900012    2    1    2    0    0  0.33067101099E+02 -0.21961637458E+02 -0.87987965353E+01  0.50528861846E+02  0.30000006068E+02 0.  0.
         12    1    1    2    0    0 -0.33067101099E+02  0.21961637458E+02  0.87987965353E+01  0.40659138154E+02  0.00000000000E+00 0. -1.
         11    1    3    3    0    0  0.43984661113E+01 -0.72217277815E+01 -0.80083327163E+01  0.11646168874E+02  0.51100000000E-03 0. -1.
        -11    1    3    3    0    0  0.22856757333E+02 -0.14891254044E+02 -0.90857178645E+01  0.28752931540E+02  0.51100000000E-03 0.  1.
         12    1    3    3    0    0  0.58118776546E+01  0.15134436711E+00  0.82952540455E+01  0.10129761432E+02  0.00000000000E+00 0. -1.
</event>
<event>
 7    1  0.2639126E-011  0.5052887E+02  0.7816164E-02  0.1300439E+00
        -11   -1    0    0    0    0  0.00000000000E+00  0.00000000000E+00  0.45593999997E+02  0.45594000000E+02  0.51100000000E-03 0.  1.
         11   -1    0    0    0    0 -0.00000000000E+00 -0.00000000000E+00 -0.45593999997E+02  0.45594000000E+02  0.51100000000E-03 0. -1.
    9900012    2    1    2    0    0  0.16528788780E+02 -0.25458735619E+02  0.27052116549E+02  0.50528867107E+02  0.30000022058E+02 0.  0.
         12    1    1    2    0    0 -0.16528788780E+02  0.25458735619E+02 -0.27052116549E+02  0.40659132893E+02  0.00000000000E+00 0. -1.
         11    1    3    3    0    0  0.12787860143E+02 -0.54056629598E+01  0.89533159876E+01  0.16520061335E+02  0.51100000000E-03 0.  1.
        -11    1    3    3    0    0  0.26490825003E+01 -0.24114555897E+02  0.13445063268E+02  0.27736242909E+02  0.51100000000E-03 0. -1.
         12    1    3    3    0    0  0.10918461364E+01  0.40614832371E+01  0.46537372934E+01  0.62725628627E+01  0.00000000000E+00 0. -1.
</event>
<event>
 7    1  0.2639126E-011  0.5052886E+02  0.7816164E-02  0.1300439E+00
        -11   -1    0    0    0    0  0.00000000000E+00  0.00000000000E+00  0.45593999997E+02  0.45594000000E+02  0.51100000000E-03 0.  1.
         11   -1    0    0    0    0 -0.00000000000E+00 -0.00000000000E+00 -0.45593999997E+02  0.45594000000E+02  0.51100000000E-03 0. -1.
    9900012    2    1    2    0    0  0.23817396679E+02  0.32943439416E+02  0.79186947650E+00  0.50528860285E+02  0.30000001321E+02 0.  0.
         12    1    1    2    0    0 -0.23817396679E+02 -0.32943439416E+02 -0.79186947650E+00  0.40659139715E+02  0.00000000000E+00 0. -1.
         11    1    3    3    0    0  0.30087295553E+01  0.78343750686E+01 -0.85323849364E+01  0.11967935462E+02  0.51100000000E-03 0. -1.
        -11    1    3    3    0    0 -0.20738756859E+01  0.17148419801E+01  0.48301053187E+01  0.55291555439E+01  0.51100000000E-03 0.  1.
        -12    1    3    3    0    0  0.22882542810E+02  0.23394222368E+02  0.44941490942E+01  0.33031769279E+02  0.00000000000E+00 0.  1.
</event>
<event>
 7    1  0.2639126E-011  0.5052886E+02  0.7816164E-02  0.1300439E+00
        -11   -1    0    0    0    0  0.00000000000E+00  0.00000000000E+00  0.45593999997E+02  0.45594000000E+02  0.51100000000E-03 0.  1.
         11   -1    0    0    0    0 -0.00000000000E+00 -0.00000000000E+00 -0.45593999997E+02  0.45594000000E+02  0.51100000000E-03 0. -1.
    9900012    2    1    2    0    0  0.90308080969E+01  0.38994030178E+02  0.71467104936E+01  0.50528863815E+02  0.30000012052E+02 0.  0.
         12    1    1    2    0    0 -0.90308080969E+01 -0.38994030178E+02 -0.71467104936E+01  0.40659136185E+02  0.00000000000E+00 0. -1.
         11    1    3    3    0    0  0.93627852289E+00  0.63909249690E+01 -0.23947193086E+01  0.68887749462E+01  0.51100000000E-03 0. -1.
        -11    1    3    3    0    0 -0.72555815558E+01  0.23537943153E+02  0.38724404573E+01  0.24933391806E+02  0.51100000000E-03 0.  1.
        -12    1    3    3    0    0  0.15350111130E+02  0.90651620558E+01  0.56689893449E+01  0.18706697063E+02  0.00000000000E+00 0.  1.
</event>
<event>
 7    1  0.2639126E-011  0.5052886E+02  0.7816164E-02  0.1300439E+00
        -11   -1    0    0    0    0  0.00000000000E+00  0.00000000000E+00  0.45593999997E+02  0.45594000000E+02  0.51100000000E-03 0.  1.
         11   -1    0    0    0    0 -0.00000000000E+00 -0.00000000000E+00 -0.45593999997E+02  0.45594000000E+02  0.51100000000E-03 0. -1.
    9900012    2    1    2    0    0  0.21120758761E+01 -0.14989296897E+02  0.37736264353E+02  0.50528861626E+02  0.30000005399E+02 0.  0.
         12    1    1    2    0    0 -0.21120758761E+01  0.14989296897E+02 -0.37736264353E+02  0.40659138374E+02  0.00000000000E+00 0. -1.
         11    1    3    3    0    0  0.91294124402E+01 -0.24999772554E+01  0.14254514498E+02  0.17111026901E+02  0.51100000000E-03 0.  1.
        -11    1    3    3    0    0  0.64308255305E+01 -0.20415979802E+01  0.65620562662E+01  0.94119191464E+01  0.51100000000E-03 0. -1.
         12    1    3    3    0    0 -0.13448162095E+02 -0.10447721661E+02  0.16919693589E+02  0.24005915579E+02  0.00000000000E+00 0. -1.
</event>
<event>
 7    1  0.2639126E-011  0.5052887E+02  0.7816164E-02  0.1300439E+00
        -11   -1    0    0    0    0  0.00000000000E+00  0.00000000000E+00  0.45593999997E+02  0.45594000000E+02  0.51100000000E-03 0.  1.
         11   -1    0    0    0    0 -0.00000000000E+00 -0.00000000000E+00 -0.45593999997E+02  0.45594000000E+02  0.51100000000E-03 0. -1.
    9900012    2    1    2    0    0 -0.77215982996E+01 -0.35957512038E+02  0.17337798046E+02  0.50528868266E+02  0.30000025582E+02 0.  0.
         12    1    1    2    0    0  0.77215982996E+01  0.35957512038E+02 -0.17337798046E+02  0.40659131734E+02  0.00000000000E+00 0. -1.
         11    1    3    3    0    0 -0.47752799462E+01 -0.65707464689E+01  0.54639018355E+01  0.97893938143E+01  0.51100000000E-03 0. -1.
        -11    1    3    3    0    0 -0.32904208379E+01 -0.29970803017E+01  0.13581675225E+02  0.14292349765E+02  0.51100000000E-03 0.  1.
         12    1    3    3    0    0  0.34410248452E+00 -0.26389685267E+02 -0.17077790151E+01  0.26447124687E+02  0.00000000000E+00 0. -1.
</event>
<event>
 7    1  0.2639126E-011  0.5052877E+02  0.7816164E-02  0.1300439E+00
        -11   -1    0    0    0    0  0.00000000000E+00  0.00000000000E+00  0.45593999997E+02  0.45594000000E+02  0.51100000000E-03 0. -1.
         11   -1    0    0    0    0 -0.00000000000E+00 -0.00000000000E+00 -0.45593999997E+02  0.45594000000E+02  0.51100000000E-03 0.  1.
    9900012    2    1    2    0    0  0.36742449614E+02  0.14286627193E+02 -0.99527869046E+01  0.50528766272E+02  0.29999715558E+02 0.  0.
         12    1    1    2    0    0 -0.36742449614E+02 -0.14286627193E+02  0.99527869046E+01  0.40659233728E+02  0.00000000000E+00 0. -1.
         11    1    3    3    0    0  0.22340502242E+02  0.84087410698E+01  0.61881577381E+01  0.24659648482E+02  0.51100000000E-03 0. -1.
        -11    1    3    3    0    0  0.10412751860E+02  0.62118743503E+01 -0.35155216673E+01  0.12624249566E+02  0.51100000000E-03 0.  1.
        -12    1    3    3    0    0  0.39891955125E+01 -0.33398822748E+00 -0.12625422975E+02  0.13244868224E+02  0.00000000000E+00 0.  1.
</event>
<event>
 7    1  0.2639126E-011  0.5052886E+02  0.7816164E-02  0.1300439E+00
        -11   -1    0    0    0    0  0.00000000000E+00  0.00000000000E+00  0.45593999997E+02  0.45594000000E+02  0.51100000000E-03 0.  1.
         11   -1    0    0    0    0 -0.00000000000E+00 -0.00000000000E+00 -0.45593999997E+02  0.45594000000E+02  0.51100000000E-03 0. -1.
    9900012    2    1    2    0    0 -0.38323603688E+02 -0.23138438751E+01  0.13383316660E+02  0.50528860339E+02  0.30000001488E+02 0.  0.
         12    1    1    2    0    0  0.38323603688E+02  0.23138438751E+01 -0.13383316660E+02  0.40659139661E+02  0.00000000000E+00 0. -1.
         11    1    3    3    0    0  0.50813770656E+00  0.90835388345E+00 -0.84648472292E+00  0.13415838974E+01  0.51100000000E-03 0. -1.
        -11    1    3    3    0    0 -0.14166523386E+02  0.77076591337E+01  0.15241188481E+02  0.22189912590E+02  0.51100000000E-03 0.  1.
        -12    1    3    3    0    0 -0.24665218009E+02 -0.10929856892E+02 -0.10113870984E+01  0.26997363852E+02  0.00000000000E+00 0.  1.
</event>
<event>
 7    1  0.2639126E-011  0.5052885E+02  0.7816164E-02  0.1300439E+00
        -11   -1    0    0    0    0  0.00000000000E+00  0.00000000000E+00  0.45593999997E+02  0.45594000000E+02  0.51100000000E-03 0.  1.
         11   -1    0    0    0    0 -0.00000000000E+00 -0.00000000000E+00 -0.45593999997E+02  0.45594000000E+02  0.51100000000E-03 0. -1.
    9900012    2    1    2    0    0 -0.28904510630E+02  0.10354107066E+02  0.26654978354E+02  0.50528854178E+02  0.29999982761E+02 0.  0.
         12    1    1    2    0    0  0.28904510630E+02 -0.10354107066E+02 -0.26654978354E+02  0.40659145822E+02  0.00000000000E+00 0. -1.
         11    1    3    3    0    0 -0.12079335994E+02  0.21931596565E+01  0.40542299338E+00  0.12283512340E+02  0.51100000000E-03 0. -1.
        -11    1    3    3    0    0 -0.12772389532E+02 -0.38235125534E+01  0.20246932047E+02  0.24242348075E+02  0.51100000000E-03 0.  1.
         12    1    3    3    0    0 -0.40527851033E+01  0.11984459963E+02  0.60026233137E+01  0.14002993764E+02  0.00000000000E+00 0. -1.
</event>
<event>
 7    1  0.2639126E-011  0.5052887E+02  0.7816164E-02  0.1300439E+00
        -11   -1    0    0    0    0  0.00000000000E+00  0.00000000000E+00  0.45593999997E+02  0.45594000000E+02  0.51100000000E-03 0.  1.
         11   -1    0    0    0    0 -0.00000000000E+00 -0.00000000000E+00 -0.45593999997E+02  0.45594000000E+02  0.51100000000E-03 0. -1.
    9900012    2    1    2    0    0 -0.26631267178E+02 -0.30356150778E+02 -0.47375654080E+01  0.50528870551E+02  0.30000032528E+02 0.  0.
         12    1    1    2    0    0  0.26631267178E+02  0.30356150778E+02  0.47375654080E+01  0.40659129449E+02  0.00000000000E+00 0. -1.
         11    1    3    3    0    0  0.14158723184E+01 -0.70180977543E+01 -0.71724943475E+01  0.10134252115E+02  0.51100000000E-03 0. -1.
        -11    1    3    3    0    0 -0.64759763331E+01 -0.15857509291E+01 -0.56186990437E+01  0.87190971254E+01  0.51100000000E-03 0.  1.
        -12    1    3    3    0    0 -0.21571163163E+02 -0.21752302094E+02  0.80536279833E+01  0.31675521311E+02  0.00000000000E+00 0.  1.
</event>
<event>
 7    1  0.2639126E-011  0.5052886E+02  0.7816164E-02  0.1300439E+00
        -11   -1    0    0    0    0  0.00000000000E+00  0.00000000000E+00  0.45593999997E+02  0.45594000000E+02  0.51100000000E-03 0. -1.
         11   -1    0    0    0    0 -0.00000000000E+00 -0.00000000000E+00 -0.45593999997E+02  0.45594000000E+02  0.51100000000E-03 0.  1.
    9900012    2    1    2    0    0 -0.28475915536E+02  0.28814326715E+02  0.34672986257E+01  0.50528863888E+02  0.30000012273E+02 0.  0.
         12    1    1    2    0    0  0.28475915536E+02 -0.28814326715E+02 -0.34672986257E+01  0.40659136112E+02  0.00000000000E+00 0. -1.
         11    1    3    3    0    0 -0.96911071735E+01  0.12590798229E+02  0.55249606049E+01  0.16821740345E+02  0.51100000000E-03 0. -1.
        -11    1    3    3    0    0  0.13791986529E+01  0.12569352788E+02 -0.36269585962E+01  0.13154681575E+02  0.51100000000E-03 0.  1.
         12    1    3    3    0    0 -0.20164007015E+02  0.36541756977E+01  0.15692966170E+01  0.20552441967E+02  0.00000000000E+00 0. -1.
</event>
<event>
 7    1  0.2639126E-011  0.5052886E+02  0.7816164E-02  0.1300439E+00
        -11   -1    0    0    0    0  0.00000000000E+00  0.00000000000E+00  0.45593999997E+02  0.45594000000E+02  0.51100000000E-03 0.  1.
         11   -1    0    0    0    0 -0.00000000000E+00 -0.00000000000E+00 -0.45593999997E+02  0.45594000000E+02  0.51100000000E-03 0. -1.
    9900012    2    1    2    0    0 -0.74369661163E+01  0.38382791309E+02 -0.11163273721E+02  0.50528858176E+02  0.29999994912E+02 0.  0.
         12    1    1    2    0    0  0.74369661163E+01 -0.38382791309E+02  0.11163273721E+02  0.40659141824E+02  0.00000000000E+00 0. -1.
         11    1    3    3    0    0  0.23169762626E+01  0.20977524972E+02  0.18683550534E+01  0.21187630443E+02  0.51100000000E-03 0. -1.
        -11    1    3    3    0    0  0.21724143771E+01  0.77850530250E+00  0.26847352493E+01  0.35402342227E+01  0.51100000000E-03 0.  1.
         12    1    3    3    0    0 -0.11926356756E+02  0.16626761035E+02 -0.15716364023E+02  0.25800993510E+02  0.00000000000E+00 0. -1.
</event>
<event>
 7    1  0.2639126E-011  0.5052885E+02  0.7816164E-02  0.1300439E+00
        -11   -1    0    0    0    0  0.00000000000E+00  0.00000000000E+00  0.45593999997E+02  0.45594000000E+02  0.51100000000E-03 0. -1.
         11   -1    0    0    0    0 -0.00000000000E+00 -0.00000000000E+00 -0.45593999997E+02  0.45594000000E+02  0.51100000000E-03 0.  1.
    9900012    2    1    2    0    0 -0.35503844870E+02 -0.13848068765E+02  0.14173026804E+02  0.50528847306E+02  0.29999961870E+02 0.  0.
         12    1    1    2    0    0  0.35503844870E+02  0.13848068765E+02 -0.14173026804E+02  0.40659152694E+02  0.00000000000E+00 0. -1.
         11    1    3    3    0    0 -0.10996389724E+02 -0.74847201545E+01 -0.58456472812E+01  0.14529735550E+02  0.51100000000E-03 0.  1.
        -11    1    3    3    0    0 -0.13685642831E+02 -0.11277716476E+02  0.94501094508E+01  0.20094483758E+02  0.51100000000E-03 0. -1.
        -12    1    3    3    0    0 -0.10821812315E+02  0.49143678662E+01  0.10568564634E+02  0.15904627997E+02  0.00000000000E+00 0.  1.
</event>
<event>
 7    1  0.2639126E-011  0.5052887E+02  0.7816164E-02  0.1300439E+00
        -11   -1    0    0    0    0  0.00000000000E+00  0.00000000000E+00  0.45593999997E+02  0.45594000000E+02  0.51100000000E-03 0.  1.
         11   -1    0    0    0    0 -0.00000000000E+00 -0.00000000000E+00 -0.45593999997E+02  0.45594000000E+02  0.51100000000E-03 0. -1.
    9900012    2    1    2    0    0 -0.10416164511E+01 -0.33666247153E+02  0.22774193388E+02  0.50528867611E+02  0.30000023589E+02 0.  0.
         12    1    1    2    0    0  0.10416164511E+01  0.33666247153E+02 -0.22774193388E+02  0.40659132389E+02  0.00000000000E+00 0. -1.
         11    1    3    3    0    0  0.84722180201E+01 -0.18105325718E+02  0.15693143091E+01  0.20051036013E+02  0.51100000000E-03 0. -1.
        -11    1    3    3    0    0  0.29079133053E+01 -0.22181945120E+01  0.37786498360E+01  0.52587585539E+01  0.51100000000E-03 0.  1.
         12    1    3    3    0    0 -0.12421747776E+02 -0.13342726923E+02  0.17426229243E+02  0.25219073044E+02  0.00000000000E+00 0. -1.
</event>
<event>
 7    1  0.2639126E-011  0.5052886E+02  0.7816164E-02  0.1300439E+00
        -11   -1    0    0    0    0  0.00000000000E+00  0.00000000000E+00  0.45593999997E+02  0.45594000000E+02  0.51100000000E-03 0.  1.
         11   -1    0    0    0    0 -0.00000000000E+00 -0.00000000000E+00 -0.45593999997E+02  0.45594000000E+02  0.51100000000E-03 0. -1.
    9900012    2    1    2    0    0 -0.34747635943E+02 -0.21068543322E+02 -0.13725077290E+01  0.50528862050E+02  0.30000006687E+02 0.  0.
         12    1    1    2    0    0  0.34747635943E+02  0.21068543322E+02  0.13725077290E+01  0.40659137950E+02  0.00000000000E+00 0. -1.
         11    1    3    3    0    0  0.30773136747E+01 -0.38063505466E+01 -0.24141704712E+01  0.54576902863E+01  0.51100000000E-03 0. -1.
        -11    1    3    3    0    0 -0.13307309898E+02  0.34095616017E+00 -0.51266966112E+01  0.14264773613E+02  0.51100000000E-03 0.  1.
        -12    1    3    3    0    0 -0.24517639720E+02 -0.17603148936E+02  0.61683593534E+01  0.30806398151E+02  0.00000000000E+00 0.  1.
</event>
<event>
 7    1  0.2639126E-011  0.5052886E+02  0.7816164E-02  0.1300439E+00
        -11   -1    0    0    0    0  0.00000000000E+00  0.00000000000E+00  0.45593999997E+02  0.45594000000E+02  0.51100000000E-03 0.  1.
         11   -1    0    0    0    0 -0.00000000000E+00 -0.00000000000E+00 -0.45593999997E+02  0.45594000000E+02  0.51100000000E-03 0. -1.
    9900012    2    1    2    0    0  0.20366073202E+01  0.24455042913E+02  0.32418653562E+02  0.50528855985E+02  0.29999988253E+02 0.  0.
         12    1    1    2    0    0 -0.20366073202E+01 -0.24455042913E+02 -0.32418653562E+02  0.40659144015E+02  0.00000000000E+00 0. -1.
         11    1    3    3    0    0  0.53202744433E+01  0.73637227613E+00  0.98606497806E+01  0.11228534127E+02  0.51100000000E-03 0. -1.
        -11    1    3    3    0    0  0.64083447609E+01  0.26305360401E+00  0.22524702662E+01  0.67977718654E+01  0.51100000000E-03 0.  1.
        -12    1    3    3    0    0 -0.96920118840E+01  0.23455617032E+02  0.20305533515E+02  0.32502549993E+02  0.00000000000E+00 0.  1.
</event>
<event>
 7    1  0.2639126E-011  0.5052885E+02  0.7816164E-02  0.1300439E+00
        -11   -1    0    0    0    0  0.00000000000E+00  0.00000000000E+00  0.45593999997E+02  0.45594000000E+02  0.51100000000E-03 0.  1.
         11   -1    0    0    0    0 -0.00000000000E+00 -0.00000000000E+00 -0.45593999997E+02  0.45594000000E+02  0.51100000000E-03 0. -1.
    9900012    2    1    2    0    0  0.27004803210E+02  0.95433965303E+01  0.28858804878E+02  0.50528850565E+02  0.29999971777E+02 0.  0.
         12    1    1    2    0    0 -0.27004803210E+02 -0.95433965303E+01 -0.28858804878E+02  0.40659149435E+02  0.00000000000E+00 0. -1.
         11    1    3    3    0    0  0.13788456456E+02  0.53109717524E+00  0.20762584008E+02  0.24929670888E+02  0.51100000000E-03 0. -1.
        -11    1    3    3    0    0  0.89271591642E+01 -0.33278551423E+01  0.81456424012E+01  0.12534762901E+02  0.51100000000E-03 0.  1.
         12    1    3    3    0    0  0.42891875904E+01  0.12340154497E+02 -0.49421530938E-01  0.13064416776E+02  0.00000000000E+00 0. -1.
</event>
<event>
 7    1  0.2639126E-011  0.5052885E+02  0.7816164E-02  0.1300439E+00
        -11   -1    0    0    0    0  0.00000000000E+00  0.00000000000E+00  0.45593999997E+02  0.45594000000E+02  0.51100000000E-03 0. -1.
         11   -1    0    0    0    0 -0.00000000000E+00 -0.00000000000E+00 -0.45593999997E+02  0.45594000000E+02  0.51100000000E-03 0.  1.
    9900012    2    1    2    0    0 -0.37891445774E+02 -0.13857499970E+02 -0.50373439827E+01  0.50528846017E+02  0.29999957953E+02 0.  0.
         12    1    1    2    0    0  0.37891445774E+02  0.13857499970E+02  0.50373439827E+01  0.40659153983E+02  0.00000000000E+00 0. -1.
         11    1    3    3    0    0  0.15839869101E+01  0.85903741299E+00 -0.24381242985E+01  0.30317338545E+01  0.51100000000E-03 0. -1.
        -11    1    3    3    0    0  0.16660875508E+01  0.23441311941E+01 -0.40688906986E+00  0.29045408860E+01  0.51100000000E-03 0.  1.
        -12    1    3    3    0    0 -0.41141520234E+02 -0.17060668577E+02 -0.21923306144E+01  0.44592571276E+02  0.00000000000E+00 0.  1.
</event>
<event>
 7    1  0.2639126E-011  0.5052885E+02  0.7816164E-02  0.1300439E+00
        -11   -1    0    0    0    0  0.00000000000E+00  0.00000000000E+00  0.45593999997E+02  0.45594000000E+02  0.51100000000E-03 0.  1.
         11   -1    0    0    0    0 -0.00000000000E+00 -0.00000000000E+00 -0.45593999997E+02  0.45594000000E+02  0.51100000000E-03 0. -1.
    9900012    2    1    2    0    0  0.32062934242E+02 -0.70722332381E+01  0.23981621781E+02  0.50528850742E+02  0.29999972314E+02 0.  0.
         12    1    1    2    0    0 -0.32062934242E+02  0.70722332381E+01 -0.23981621781E+02  0.40659149258E+02  0.00000000000E+00 0. -1.
         11    1    3    3    0    0 -0.17280762952E+00  0.20638956078E+01 -0.19498039211E+01  0.28445145716E+01  0.51100000000E-03 0. -1.
        -11    1    3    3    0    0  0.16022293813E+02  0.43872442750E+01  0.36884720518E+01  0.17016657654E+02  0.51100000000E-03 0.  1.
        -12    1    3    3    0    0  0.16213448058E+02 -0.13523373121E+02  0.22242953650E+02  0.30667678516E+02  0.00000000000E+00 0.  1.
</event>
<event>
 7    1  0.2639126E-011  0.5052888E+02  0.7816164E-02  0.1300439E+00
        -11   -1    0    0    0    0  0.00000000000E+00  0.00000000000E+00  0.45593999997E+02  0.45594000000E+02  0.51100000000E-03 0.  1.
         11   -1    0    0    0    0 -0.00000000000E+00 -0.00000000000E+00 -0.45593999997E+02  0.45594000000E+02  0.51100000000E-03 0. -1.
    9900012    2    1    2    0    0 -0.61087491406E+01 -0.11666844607E+02  0.38467283523E+02  0.50528880718E+02  0.30000063430E+02 0.  0.
         12    1    1    2    0    0  0.61087491406E+01  0.11666844607E+02 -0.38467283523E+02  0.40659119282E+02  0.00000000000E+00 0. -1.
         11    1    3    3    0    0  0.64718289619E+01 -0.23301434947E+01  0.65398964745E+01  0.94912794173E+01  0.51100000000E-03 0. -1.
        -11    1    3    3    0    0 -0.23832154289E+01 -0.11911592369E+02  0.70904136825E+01  0.14065550647E+02  0.51100000000E-03 0.  1.
        -12    1    3    3    0    0 -0.10197362674E+02  0.25748912563E+01  0.24836973366E+02  0.26972050654E+02  0.00000000000E+00 0.  1.
</event>
<event>
 7    1  0.2639126E-011  0.5052887E+02  0.7816164E-02  0.1300439E+00
        -11   -1    0    0    0    0  0.00000000000E+00  0.00000000000E+00  0.45593999997E+02  0.45594000000E+02  0.51100000000E-03 0. -1.
         11   -1    0    0    0    0 -0.00000000000E+00 -0.00000000000E+00 -0.45593999997E+02  0.45594000000E+02  0.51100000000E-03 0.  1.
    9900012    2    1    2    0    0 -0.15961493447E+02 -0.26372183156E+02 -0.26512327046E+02  0.50528870609E+02  0.30000032702E+02 0.  0.
         12    1    1    2    0    0  0.15961493447E+02  0.26372183156E+02  0.26512327046E+02  0.40659129391E+02  0.00000000000E+00 0. -1.
         11    1    3    3    0    0 -0.66336616338E+00 -0.79108761635E+00 -0.15014772605E+02  0.15050224946E+02  0.51100000000E-03 0. -1.
        -11    1    3    3    0    0 -0.56545863580E+01 -0.32650231647E+01 -0.88876262165E+01  0.11028355416E+02  0.51100000000E-03 0.  1.
        -12    1    3    3    0    0 -0.96435409255E+01 -0.22316072375E+02 -0.26099282241E+01  0.24450290247E+02  0.00000000000E+00 0.  1.
</event>
<event>
 7    1  0.2639126E-011  0.5052886E+02  0.7816164E-02  0.1300439E+00
        -11   -1    0    0    0    0  0.00000000000E+00  0.00000000000E+00  0.45593999997E+02  0.45594000000E+02  0.51100000000E-03 0.  1.
         11   -1    0    0    0    0 -0.00000000000E+00 -0.00000000000E+00 -0.45593999997E+02  0.45594000000E+02  0.51100000000E-03 0. -1.
    9900012    2    1    2    0    0  0.25662239916E+02 -0.22354168400E+02  0.22246497120E+02  0.50528855439E+02  0.29999986592E+02 0.  0.
         12    1    1    2    0    0 -0.25662239916E+02  0.22354168400E+02 -0.22246497120E+02  0.40659144561E+02  0.00000000000E+00 0. -1.
         11    1    3    3    0    0  0.23935734317E-01 -0.16151463945E+01 -0.28287980005E+01  0.32575096598E+01  0.51100000000E-03 0. -1.
        -11    1    3    3    0    0 -0.18997639395E+00 -0.97828074888E+01  0.21703566180E+00  0.97870587070E+01  0.51100000000E-03 0.  1.
         12    1    3    3    0    0  0.25828280575E+02 -0.10956214516E+02  0.24858259459E+02  0.37484287072E+02  0.00000000000E+00 0. -1.
</event>
<event>
 7    1  0.2639126E-011  0.5052886E+02  0.7816164E-02  0.1300439E+00
        -11   -1    0    0    0    0  0.00000000000E+00  0.00000000000E+00  0.45593999997E+02  0.45594000000E+02  0.51100000000E-03 0.  1.
         11   -1    0    0    0    0 -0.00000000000E+00 -0.00000000000E+00 -0.45593999997E+02  0.45594000000E+02  0.51100000000E-03 0. -1.
    9900012    2    1    2    0    0  0.84239185758E+01  0.33378625520E+02  0.21634943992E+02  0.50528857765E+02  0.29999993661E+02 0.  0.
         12    1    1    2    0    0 -0.84239185758E+01 -0.33378625520E+02 -0.21634943992E+02  0.40659142235E+02  0.00000000000E+00 0. -1.
         11    1    3    3    0    0  0.34488950817E+01  0.12389478422E+02 -0.17640353074E+01  0.12980981230E+02  0.51100000000E-03 0. -1.
        -11    1    3    3    0    0  0.25774185304E+01  0.76323019386E+01 -0.23930748966E+01  0.84036853157E+01  0.51100000000E-03 0.  1.
         12    1    3    3    0    0  0.23976049637E+01  0.13356845159E+02  0.25792054196E+02  0.29144191219E+02  0.00000000000E+00 0. -1.
</event>
<event>
 7    1  0.2639126E-011  0.5052886E+02  0.7816164E-02  0.1300439E+00
        -11   -1    0    0    0    0  0.00000000000E+00  0.00000000000E+00  0.45593999997E+02  0.45594000000E+02  0.51100000000E-03 0.  1.
         11   -1    0    0    0    0 -0.00000000000E+00 -0.00000000000E+00 -0.45593999997E+02  0.45594000000E+02  0.51100000000E-03 0. -1.
    9900012    2    1    2    0    0  0.32772875353E+02 -0.12380515073E+01  0.24032714930E+02  0.50528861822E+02  0.30000005994E+02 0.  0.
         12    1    1    2    0    0 -0.32772875353E+02  0.12380515073E+01 -0.24032714930E+02  0.40659138178E+02  0.00000000000E+00 0. -1.
         11    1    3    3    0    0  0.25251261874E+01  0.27189903797E+01  0.77657002326E+01  0.86066992111E+01  0.51100000000E-03 0. -1.
        -11    1    3    3    0    0  0.17815073009E+02  0.66516967389E+01  0.17076612804E+02  0.25558415462E+02  0.51100000000E-03 0.  1.
         12    1    3    3    0    0  0.12432676157E+02 -0.10608738626E+02 -0.80959810603E+00  0.16363747149E+02  0.00000000000E+00 0. -1.
</event>
<event>
 7    1  0.2639126E-011  0.5052883E+02  0.7816164E-02  0.1300439E+00
        -11   -1    0    0    0    0  0.00000000000E+00  0.00000000000E+00  0.45593999997E+02  0.45594000000E+02  0.51100000000E-03 0.  1.
         11   -1    0    0    0    0 -0.00000000000E+00 -0.00000000000E+00 -0.45593999997E+02  0.45594000000E+02  0.51100000000E-03 0. -1.
    9900012    2    1    2    0    0 -0.24472858392E+02 -0.46539397105E+00  0.32465834414E+02  0.50528833830E+02  0.29999920909E+02 0.  0.
         12    1    1    2    0    0  0.24472858392E+02  0.46539397105E+00 -0.32465834414E+02  0.40659166170E+02  0.00000000000E+00 0. -1.
         11    1    3    3    0    0 -0.35998788441E+01  0.39466425166E+00 -0.14642376055E+01  0.39062615875E+01  0.51100000000E-03 0. -1.
        -11    1    3    3    0    0 -0.90209798062E+01 -0.11461703400E+02  0.92777781630E+01  0.17286581194E+02  0.51100000000E-03 0.  1.
        -12    1    3    3    0    0 -0.11851999742E+02  0.10601645177E+02  0.24652293857E+02  0.29335991048E+02  0.00000000000E+00 0.  1.
</event>
<event>
 7    1  0.2639126E-011  0.5052887E+02  0.7816164E-02  0.1300439E+00
        -11   -1    0    0    0    0  0.00000000000E+00  0.00000000000E+00  0.45593999997E+02  0.45594000000E+02  0.51100000000E-03 0. -1.
         11   -1    0    0    0    0 -0.00000000000E+00 -0.00000000000E+00 -0.45593999997E+02  0.45594000000E+02  0.51100000000E-03 0.  1.
    9900012    2    1    2    0    0 -0.28831464794E+02 -0.16470270160E+02 -0.23465753689E+02  0.50528871167E+02  0.30000034398E+02 0.  0.
         12    1    1    2    0    0  0.28831464794E+02  0.16470270160E+02  0.23465753689E+02  0.40659128833E+02  0.00000000000E+00 0. -1.
         11    1    3    3    0    0 -0.94927817621E+01 -0.33351351564E+01 -0.12456796917E+02  0.16012739359E+02  0.51100000000E-03 0. -1.
        -11    1    3    3    0    0 -0.13533999079E+02 -0.53038613395E+01 -0.17541511799E+02  0.22781674930E+02  0.51100000000E-03 0.  1.
         12    1    3    3    0    0 -0.58046839535E+01 -0.78312736642E+01  0.65325550278E+01  0.11734456877E+02  0.00000000000E+00 0. -1.
</event>
<event>
 7    1  0.2639126E-011  0.5052886E+02  0.7816164E-02  0.1300439E+00
        -11   -1    0    0    0    0  0.00000000000E+00  0.00000000000E+00  0.45593999997E+02  0.45594000000E+02  0.51100000000E-03 0.  1.
         11   -1    0    0    0    0 -0.00000000000E+00 -0.00000000000E+00 -0.45593999997E+02  0.45594000000E+02  0.51100000000E-03 0. -1.
    9900012    2    1    2    0    0 -0.33128340353E+02  0.43620369748E+01  0.23165732744E+02  0.50528862347E+02  0.30000007591E+02 0.  0.
         12    1    1    2    0    0  0.33128340353E+02 -0.43620369748E+01 -0.23165732744E+02  0.40659137653E+02  0.00000000000E+00 0. -1.
         11    1    3    3    0    0 -0.39701610249E+01 -0.88802331194E+01  0.37146443085E+01  0.10412458952E+02  0.51100000000E-03 0. -1.
        -11    1    3    3    0    0 -0.11418836171E+02  0.41600256788E+01  0.15672207420E+02  0.19832138534E+02  0.51100000000E-03 0.  1.
         12    1    3    3    0    0 -0.17739343157E+02  0.90822444155E+01  0.37788810157E+01  0.20284264862E+02  0.00000000000E+00 0. -1.
</event>
<event>
 7    1  0.2639126E-011  0.5052899E+02  0.7816164E-02  0.1300438E+00
        -11   -1    0    0    0    0  0.00000000000E+00  0.00000000000E+00  0.45593999997E+02  0.45594000000E+02  0.51100000000E-03 0.  1.
         11   -1    0    0    0    0 -0.00000000000E+00 -0.00000000000E+00 -0.45593999997E+02  0.45594000000E+02  0.51100000000E-03 0. -1.
    9900012    2    1    2    0    0 -0.15376607315E+02 -0.25933360308E+02  0.27279587430E+02  0.50528989686E+02  0.30000394648E+02 0.  0.
         12    1    1    2    0    0  0.15376607315E+02  0.25933360308E+02 -0.27279587430E+02  0.40659010314E+02  0.00000000000E+00 0. -1.
         11    1    3    3    0    0 -0.39339115957E+01 -0.44676620712E+01  0.11037258668E+02  0.12540205101E+02  0.51100000000E-03 0. -1.
        -11    1    3    3    0    0 -0.16337052394E+02 -0.16789600559E+02  0.19496678123E+02  0.30478031859E+02  0.51100000000E-03 0.  1.
         12    1    3    3    0    0  0.48943566750E+01 -0.46760976774E+01 -0.32543493614E+01  0.75107527264E+01  0.00000000000E+00 0. -1.
</event>
<event>
 7    1  0.2639126E-011  0.5052886E+02  0.7816164E-02  0.1300439E+00
        -11   -1    0    0    0    0  0.00000000000E+00  0.00000000000E+00  0.45593999997E+02  0.45594000000E+02  0.51100000000E-03 0. -1.
         11   -1    0    0    0    0 -0.00000000000E+00 -0.00000000000E+00 -0.45593999997E+02  0.45594000000E+02  0.51100000000E-03 0.  1.
    9900012    2    1    2    0    0 -0.34034042623E+02  0.21621131668E+02 -0.52322275931E+01  0.50528860837E+02  0.30000003002E+02 0.  0.
         12    1    1    2    0    0  0.34034042623E+02 -0.21621131668E+02  0.52322275931E+01  0.40659139163E+02  0.00000000000E+00 0. -1.
         11    1    3    3    0    0  0.17234550226E+01 -0.61349341446E+00  0.35007978092E+01  0.39499692336E+01  0.51100000000E-03 0. -1.
        -11    1    3    3    0    0 -0.15458538262E+02  0.21643055721E+01  0.26769202153E+01  0.15837188068E+02  0.51100000000E-03 0.  1.
        -12    1    3    3    0    0 -0.20298959384E+02  0.20070319510E+02 -0.11409945618E+02  0.30741703536E+02  0.00000000000E+00 0.  1.
</event>
<event>
 7    1  0.2639126E-011  0.5052886E+02  0.7816164E-02  0.1300439E+00
        -11   -1    0    0    0    0  0.00000000000E+00  0.00000000000E+00  0.45593999997E+02  0.45594000000E+02  0.51100000000E-03 0.  1.
         11   -1    0    0    0    0 -0.00000000000E+00 -0.00000000000E+00 -0.45593999997E+02  0.45594000000E+02  0.51100000000E-03 0. -1.
    9900012    2    1    2    0    0 -0.71589677182E+01  0.85469457905E+01  0.39100699741E+02  0.50528858084E+02  0.29999994631E+02 0.  0.
         12    1    1    2    0    0  0.71589677182E+01 -0.85469457905E+01 -0.39100699741E+02  0.40659141916E+02  0.00000000000E+00 0. -1.
         11    1    3    3    0    0  0.56222606195E+01  0.77877026248E+01  0.76879659039E+01  0.12302964953E+02  0.51100000000E-03 0.  1.
        -11    1    3    3    0    0  0.42820159111E+01 -0.15630870164E+01  0.68413627198E+01  0.82208968737E+01  0.51100000000E-03 0. -1.
        -12    1    3    3    0    0 -0.17063244249E+02  0.23223301821E+01  0.24571371117E+02  0.30004996257E+02  0.00000000000E+00 0.  1.
</event>
<event>
 7    1  0.2639126E-011  0.5052889E+02  0.7816164E-02  0.1300439E+00
        -11   -1    0    0    0    0  0.00000000000E+00  0.00000000000E+00  0.45593999997E+02  0.45594000000E+02  0.51100000000E-03 0.  1.
         11   -1    0    0    0    0 -0.00000000000E+00 -0.00000000000E+00 -0.45593999997E+02  0.45594000000E+02  0.51100000000E-03 0. -1.
    9900012    2    1    2    0    0  0.25361301362E+02 -0.12462983635E+02  0.29234251992E+02  0.50528892074E+02  0.30000097947E+02 0.  0.
         12    1    1    2    0    0 -0.25361301362E+02  0.12462983635E+02 -0.29234251992E+02  0.40659107926E+02  0.00000000000E+00 0. -1.
         11    1    3    3    0    0  0.80087194793E+01  0.35832989945E+01  0.15982479221E+02  0.18232368515E+02  0.51100000000E-03 0.  1.
        -11    1    3    3    0    0  0.16182953455E+02 -0.35349906811E+01  0.98756731994E+01  0.19285047654E+02  0.51100000000E-03 0. -1.
        -12    1    3    3    0    0  0.11696284277E+01 -0.12511291949E+02  0.33760995718E+01  0.13011475904E+02  0.00000000000E+00 0.  1.
</event>
<event>
 7    1  0.2639126E-011  0.5052886E+02  0.7816164E-02  0.1300439E+00
        -11   -1    0    0    0    0  0.00000000000E+00  0.00000000000E+00  0.45593999997E+02  0.45594000000E+02  0.51100000000E-03 0.  1.
         11   -1    0    0    0    0 -0.00000000000E+00 -0.00000000000E+00 -0.45593999997E+02  0.45594000000E+02  0.51100000000E-03 0. -1.
    9900012    2    1    2    0    0 -0.30084900191E+02  0.72996135087E+01  0.26358679185E+02  0.50528861479E+02  0.30000004953E+02 0.  0.
         12    1    1    2    0    0  0.30084900191E+02 -0.72996135087E+01 -0.26358679185E+02  0.40659138521E+02  0.00000000000E+00 0. -1.
         11    1    3    3    0    0 -0.56459091473E+01 -0.39927361546E+01  0.31723778698E+01  0.76080361269E+01  0.51100000000E-03 0. -1.
        -11    1    3    3    0    0 -0.12090898385E+02 -0.70465574217E+01  0.83654048265E+01  0.16304103577E+02  0.51100000000E-03 0.  1.
         12    1    3    3    0    0 -0.12348092658E+02  0.18338907085E+02  0.14820896489E+02  0.26616721776E+02  0.00000000000E+00 0. -1.
</event>
<event>
 7    1  0.2639126E-011  0.5052886E+02  0.7816164E-02  0.1300439E+00
        -11   -1    0    0    0    0  0.00000000000E+00  0.00000000000E+00  0.45593999997E+02  0.45594000000E+02  0.51100000000E-03 0.  1.
         11   -1    0    0    0    0 -0.00000000000E+00 -0.00000000000E+00 -0.45593999997E+02  0.45594000000E+02  0.51100000000E-03 0. -1.
    9900012    2    1    2    0    0 -0.10214825689E+02 -0.33316928241E+02  0.20947682661E+02  0.50528858590E+02  0.29999996171E+02 0.  0.
         12    1    1    2    0    0  0.10214825689E+02  0.33316928241E+02 -0.20947682661E+02  0.40659141410E+02  0.00000000000E+00 0. -1.
         11    1    3    3    0    0 -0.10984230840E+01 -0.65030025623E+00 -0.42762620114E+01  0.44627167450E+01  0.51100000000E-03 0. -1.
        -11    1    3    3    0    0  0.47137597618E+01 -0.58075088637E+01  0.14410074585E+01  0.76172956521E+01  0.51100000000E-03 0.  1.
        -12    1    3    3    0    0 -0.13830162367E+02 -0.26859119121E+02  0.23782937214E+02  0.38448846193E+02  0.00000000000E+00 0.  1.
</event>
<event>
 7    1  0.2639126E-011  0.5052886E+02  0.7816164E-02  0.1300439E+00
        -11   -1    0    0    0    0  0.00000000000E+00  0.00000000000E+00  0.45593999997E+02  0.45594000000E+02  0.51100000000E-03 0. -1.
         11   -1    0    0    0    0 -0.00000000000E+00 -0.00000000000E+00 -0.45593999997E+02  0.45594000000E+02  0.51100000000E-03 0.  1.
    9900012    2    1    2    0    0 -0.37042381883E+02  0.16734829425E+02  0.98639999525E+00  0.50528861342E+02  0.30000004537E+02 0.  0.
         12    1    1    2    0    0  0.37042381883E+02 -0.16734829425E+02 -0.98639999525E+00  0.40659138658E+02  0.00000000000E+00 0. -1.
         11    1    3    3    0    0 -0.17652270963E+02 -0.44416702622E+01 -0.28381010912E+01  0.18422429887E+02  0.51100000000E-03 0. -1.
        -11    1    3    3    0    0  0.69014762172E+00 -0.14621667723E+01  0.19849836612E+00  0.16289988558E+01  0.51100000000E-03 0.  1.
        -12    1    3    3    0    0 -0.20080258541E+02  0.22638666459E+02  0.36260027203E+01  0.30477432600E+02  0.00000000000E+00 0.  1.
</event>
<event>
 7    1  0.2639126E-011  0.5052887E+02  0.7816164E-02  0.1300439E+00
        -11   -1    0    0    0    0  0.00000000000E+00  0.00000000000E+00  0.45593999997E+02  0.45594000000E+02  0.51100000000E-03 0.  1.
         11   -1    0    0    0    0 -0.00000000000E+00 -0.00000000000E+00 -0.45593999997E+02  0.45594000000E+02  0.51100000000E-03 0. -1.
    9900012    2    1    2    0    0  0.11449958436E+02 -0.30351248235E+02  0.24512545752E+02  0.50528871666E+02  0.30000035917E+02 0.  0.
         12    1    1    2    0    0 -0.11449958436E+02  0.30351248235E+02 -0.24512545752E+02  0.40659128334E+02  0.00000000000E+00 0. -1.
         11    1    3    3    0    0  0.12270260686E+01 -0.22552768753E+01  0.70626963600E+00  0.26628337945E+01  0.51100000000E-03 0. -1.
        -11    1    3    3    0    0  0.19669113264E+02 -0.15142968211E+02  0.10192890788E+02  0.26834278930E+02  0.51100000000E-03 0.  1.
         12    1    3    3    0    0 -0.94461808959E+01 -0.12953003149E+02  0.13613385328E+02  0.21031758942E+02  0.00000000000E+00 0. -1.
</event>
<event>
 7    1  0.2639126E-011  0.5052886E+02  0.7816164E-02  0.1300439E+00
        -11   -1    0    0    0    0  0.00000000000E+00  0.00000000000E+00  0.45593999997E+02  0.45594000000E+02  0.51100000000E-03 0. -1.
         11   -1    0    0    0    0 -0.00000000000E+00 -0.00000000000E+00 -0.45593999997E+02  0.45594000000E+02  0.51100000000E-03 0.  1.
    9900012    2    1    2    0    0 -0.23976472959E+02 -0.45453683116E+01 -0.32521286484E+02  0.50528859537E+02  0.29999999048E+02 0.  0.
         12    1    1    2    0    0  0.23976472959E+02  0.45453683116E+01  0.32521286484E+02  0.40659140463E+02  0.00000000000E+00 0. -1.
         11    1    3    3    0    0 -0.34683477175E+01  0.44109677171E+01 -0.54815164666E+00  0.56379555319E+01  0.51100000000E-03 0. -1.
        -11    1    3    3    0    0  0.12474436787E+01 -0.89679868014E+01 -0.53785010852E+01  0.10531342611E+02  0.51100000000E-03 0.  1.
        -12    1    3    3    0    0 -0.21755568920E+02  0.11650772741E-01 -0.26594633752E+02  0.34359561394E+02  0.00000000000E+00 0.  1.
</event>
<event>
 7    1  0.2639126E-011  0.5052882E+02  0.7816164E-02  0.1300439E+00
        -11   -1    0    0    0    0  0.00000000000E+00  0.00000000000E+00  0.45593999997E+02  0.45594000000E+02  0.51100000000E-03 0. -1.
         11   -1    0    0    0    0 -0.00000000000E+00 -0.00000000000E+00 -0.45593999997E+02  0.45594000000E+02  0.51100000000E-03 0.  1.
    9900012    2    1    2    0    0  0.74523453246E+01  0.63803077449E+01 -0.39457864587E+02  0.50528820772E+02  0.29999881217E+02 0.  0.
         12    1    1    2    0    0 -0.74523453246E+01 -0.63803077449E+01  0.39457864587E+02  0.40659179228E+02  0.00000000000E+00 0. -1.
         11    1    3    3    0    0  0.17187179978E+01 -0.19358234588E+01 -0.29208223097E+02  0.29322716463E+02  0.51100000000E-03 0. -1.
        -11    1    3    3    0    0  0.43152481851E+01  0.30720574744E+01 -0.13755768449E+02  0.14740422989E+02  0.51100000000E-03 0.  1.
         12    1    3    3    0    0  0.14183791417E+01  0.52440737293E+01  0.35061269590E+01  0.64656813191E+01  0.00000000000E+00 0. -1.
</event>
<event>
 7    1  0.2639126E-011  0.5052886E+02  0.7816164E-02  0.1300439E+00
        -11   -1    0    0    0    0  0.00000000000E+00  0.00000000000E+00  0.45593999997E+02  0.45594000000E+02  0.51100000000E-03 0.  1.
         11   -1    0    0    0    0 -0.00000000000E+00 -0.00000000000E+00 -0.45593999997E+02  0.45594000000E+02  0.51100000000E-03 0. -1.
    9900012    2    1    2    0    0  0.22838857052E+02  0.27965522901E+02  0.18694437128E+02  0.50528857829E+02  0.29999993857E+02 0.  0.
         12    1    1    2    0    0 -0.22838857052E+02 -0.27965522901E+02 -0.18694437128E+02  0.40659142171E+02  0.00000000000E+00 0. -1.
         11    1    3    3    0    0  0.57527956310E+00 -0.37707966407E+01  0.23493807343E+01  0.44798932998E+01  0.51100000000E-03 0. -1.
        -11    1    3    3    0    0  0.43740443071E+01 -0.79657914031E+00  0.60739754042E+01  0.75272823382E+01  0.51100000000E-03 0.  1.
        -12    1    3    3    0    0  0.17889533182E+02  0.32532898682E+02  0.10271080989E+02  0.38521682191E+02  0.00000000000E+00 0.  1.
</event>
<event>
 7    1  0.2639126E-011  0.5052882E+02  0.7816164E-02  0.1300439E+00
        -11   -1    0    0    0    0  0.00000000000E+00  0.00000000000E+00  0.45593999997E+02  0.45594000000E+02  0.51100000000E-03 0. -1.
         11   -1    0    0    0    0 -0.00000000000E+00 -0.00000000000E+00 -0.45593999997E+02  0.45594000000E+02  0.51100000000E-03 0.  1.
    9900012    2    1    2    0    0 -0.31223021178E+01 -0.33819442905E+02 -0.22353197572E+02  0.50528819849E+02  0.29999878411E+02 0.  0.
         12    1    1    2    0    0  0.31223021178E+01  0.33819442905E+02  0.22353197572E+02  0.40659180151E+02  0.00000000000E+00 0. -1.
         11    1    3    3    0    0  0.77809061460E+01 -0.10584182784E+02 -0.15100816637E+02  0.20015046566E+02  0.51100000000E-03 0. -1.
        -11    1    3    3    0    0  0.19249881847E+01  0.89090614632E+00  0.35335842492E+00  0.21503850144E+01  0.51100000000E-03 0.  1.
        -12    1    3    3    0    0 -0.12828196449E+02 -0.24126166267E+02 -0.76057393599E+01  0.28363388269E+02  0.00000000000E+00 0.  1.
</event>
<event>
 7    1  0.2639126E-011  0.5052886E+02  0.7816164E-02  0.1300439E+00
        -11   -1    0    0    0    0  0.00000000000E+00  0.00000000000E+00  0.45593999997E+02  0.45594000000E+02  0.51100000000E-03 0.  1.
         11   -1    0    0    0    0 -0.00000000000E+00 -0.00000000000E+00 -0.45593999997E+02  0.45594000000E+02  0.51100000000E-03 0. -1.
    9900012    2    1    2    0    0 -0.35607617150E+02 -0.12313034288E+02  0.15285696734E+02  0.50528859120E+02  0.29999997781E+02 0.  0.
         12    1    1    2    0    0  0.35607617150E+02  0.12313034288E+02 -0.15285696734E+02  0.40659140880E+02  0.00000000000E+00 0. -1.
         11    1    3    3    0    0 -0.16411116150E+02  0.26608634460E+01  0.20080604500E+01  0.16746260316E+02  0.51100000000E-03 0. -1.
        -11    1    3    3    0    0 -0.22491985481E+02 -0.91998206829E+01  0.11591656652E+02  0.26923829885E+02  0.51100000000E-03 0.  1.
        -12    1    3    3    0    0  0.32954844810E+01 -0.57740770510E+01  0.16859796324E+01  0.68587689184E+01  0.00000000000E+00 0.  1.
</event>
<event>
 7    1  0.2639126E-011  0.5052886E+02  0.7816164E-02  0.1300439E+00
        -11   -1    0    0    0    0  0.00000000000E+00  0.00000000000E+00  0.45593999997E+02  0.45594000000E+02  0.51100000000E-03 0. -1.
         11   -1    0    0    0    0 -0.00000000000E+00 -0.00000000000E+00 -0.45593999997E+02  0.45594000000E+02  0.51100000000E-03 0.  1.
    9900012    2    1    2    0    0  0.43548667720E+01 -0.16181193992E+02 -0.37045512386E+02  0.50528857220E+02  0.29999992006E+02 0.  0.
         12    1    1    2    0    0 -0.43548667720E+01  0.16181193992E+02  0.37045512386E+02  0.40659142780E+02  0.00000000000E+00 0. -1.
         11    1    3    3    0    0 -0.36007322488E+01 -0.14262722866E+02 -0.18507579370E+02  0.23641510753E+02  0.51100000000E-03 0. -1.
        -11    1    3    3    0    0 -0.43442194269E+01  0.15442620119E+00  0.22942502708E+00  0.43530134372E+01  0.51100000000E-03 0.  1.
        -12    1    3    3    0    0  0.12299818448E+02 -0.20728973274E+01 -0.18767358043E+02  0.22534333030E+02  0.00000000000E+00 0.  1.
</event>
<event>
 7    1  0.2639126E-011  0.5052885E+02  0.7816164E-02  0.1300439E+00
        -11   -1    0    0    0    0  0.00000000000E+00  0.00000000000E+00  0.45593999997E+02  0.45594000000E+02  0.51100000000E-03 0.  1.
         11   -1    0    0    0    0 -0.00000000000E+00 -0.00000000000E+00 -0.45593999997E+02  0.45594000000E+02  0.51100000000E-03 0. -1.
    9900012    2    1    2    0    0  0.10995918413E+02  0.35128454090E+02  0.17269861270E+02  0.50528848302E+02  0.29999964899E+02 0.  0.
         12    1    1    2    0    0 -0.10995918413E+02 -0.35128454090E+02 -0.17269861270E+02  0.40659151698E+02  0.00000000000E+00 0. -1.
         11    1    3    3    0    0 -0.19522421069E+01 -0.28452270552E+01 -0.16313324193E+01  0.38167803137E+01  0.51100000000E-03 0. -1.
        -11    1    3    3    0    0 -0.32917090558E+01  0.55204947032E+01  0.28883305263E+01  0.70465355861E+01  0.51100000000E-03 0.  1.
        -12    1    3    3    0    0  0.16239869575E+02  0.32453186442E+02  0.16012863163E+02  0.39665532402E+02  0.00000000000E+00 0.  1.
</event>
<event>
 7    1  0.2639126E-011  0.5052886E+02  0.7816164E-02  0.1300439E+00
        -11   -1    0    0    0    0  0.00000000000E+00  0.00000000000E+00  0.45593999997E+02  0.45594000000E+02  0.51100000000E-03 0. -1.
         11   -1    0    0    0    0 -0.00000000000E+00 -0.00000000000E+00 -0.45593999997E+02  0.45594000000E+02  0.51100000000E-03 0.  1.
    9900012    2    1    2    0    0  0.20834178815E+02 -0.17411946236E+02  0.30264285520E+02  0.50528857650E+02  0.29999993313E+02 0.  0.
         12    1    1    2    0    0 -0.20834178815E+02  0.17411946236E+02 -0.30264285520E+02  0.40659142350E+02  0.00000000000E+00 0. -1.
         11    1    3    3    0    0  0.72724285104E+01 -0.85540986610E+01  0.14855880556E+02  0.18621439463E+02  0.51100000000E-03 0. -1.
        -11    1    3    3    0    0  0.12535193888E+02  0.53879937639E+01  0.80237118668E+01  0.15828503246E+02  0.51100000000E-03 0.  1.
         12    1    3    3    0    0  0.10265564162E+01 -0.14245841339E+02  0.73846930975E+01  0.16078914941E+02  0.00000000000E+00 0. -1.
</event>
<event>
 7    1  0.2639126E-011  0.5052886E+02  0.7816164E-02  0.1300439E+00
        -11   -1    0    0    0    0  0.00000000000E+00  0.00000000000E+00  0.45593999997E+02  0.45594000000E+02  0.51100000000E-03 0.  1.
         11   -1    0    0    0    0 -0.00000000000E+00 -0.00000000000E+00 -0.45593999997E+02  0.45594000000E+02  0.51100000000E-03 0. -1.
    9900012    2    1    2    0    0  0.65897604521E+01 -0.12032601964E+02  0.38274761906E+02  0.50528857710E+02  0.29999993494E+02 0.  0.
         12    1    1    2    0    0 -0.65897604521E+01  0.12032601964E+02 -0.38274761906E+02  0.40659142290E+02  0.00000000000E+00 0. -1.
         11    1    3    3    0    0  0.27980564907E+01  0.57780308783E+00  0.59787411941E+00  0.29189776047E+01  0.51100000000E-03 0. -1.
        -11    1    3    3    0    0 -0.55572787597E+01  0.60406873564E+01  0.11704258427E+02  0.14295555831E+02  0.51100000000E-03 0.  1.
        -12    1    3    3    0    0  0.93489827212E+01 -0.18651092409E+02  0.25972629360E+02  0.33314324274E+02  0.00000000000E+00 0.  1.
</event>
<event>
 7    1  0.2639126E-011  0.5052887E+02  0.7816164E-02  0.1300439E+00
        -11   -1    0    0    0    0  0.00000000000E+00  0.00000000000E+00  0.45593999997E+02  0.45594000000E+02  0.51100000000E-03 0.  1.
         11   -1    0    0    0    0 -0.00000000000E+00 -0.00000000000E+00 -0.45593999997E+02  0.45594000000E+02  0.51100000000E-03 0. -1.
    9900012    2    1    2    0    0  0.24588465265E+02  0.85468245665E+01  0.31233379350E+02  0.50528870399E+02  0.30000032066E+02 0.  0.
         12    1    1    2    0    0 -0.24588465265E+02 -0.85468245665E+01 -0.31233379350E+02  0.40659129601E+02  0.00000000000E+00 0. -1.
         11    1    3    3    0    0 -0.29396220722E+01  0.52361885433E+01  0.71445183770E+01  0.93329090582E+01  0.51100000000E-03 0. -1.
        -11    1    3    3    0    0 -0.62346661264E+00 -0.28533896963E+01  0.72555138125E+01  0.78213185794E+01  0.51100000000E-03 0.  1.
         12    1    3    3    0    0  0.28151553950E+02  0.61640257195E+01  0.16833347161E+02  0.33374642762E+02  0.00000000000E+00 0. -1.
</event>
<event>
 7    1  0.2639126E-011  0.5052886E+02  0.7816164E-02  0.1300439E+00
        -11   -1    0    0    0    0  0.00000000000E+00  0.00000000000E+00  0.45593999997E+02  0.45594000000E+02  0.51100000000E-03 0. -1.
         11   -1    0    0    0    0 -0.00000000000E+00 -0.00000000000E+00 -0.45593999997E+02  0.45594000000E+02  0.51100000000E-03 0.  1.
    9900012    2    1    2    0    0 -0.38681688912E+02  0.10560557163E+02 -0.67355158699E+01  0.50528860821E+02  0.30000002953E+02 0.  0.
         12    1    1    2    0    0  0.38681688912E+02 -0.10560557163E+02  0.67355158699E+01  0.40659139179E+02  0.00000000000E+00 0. -1.
         11    1    3    3    0    0 -0.54942067072E+01  0.61684777816E+01 -0.38081017419E+01  0.90960466479E+01  0.51100000000E-03 0. -1.
        -11    1    3    3    0    0 -0.42455857418E+01  0.97831089669E+01 -0.52783622322E+01  0.11899383491E+02  0.51100000000E-03 0.  1.
        -12    1    3    3    0    0 -0.28941896463E+02 -0.53910295854E+01  0.23509481042E+01  0.29533430682E+02  0.00000000000E+00 0.  1.
</event>
<event>
 7    1  0.2639126E-011  0.5052884E+02  0.7816164E-02  0.1300439E+00
        -11   -1    0    0    0    0  0.00000000000E+00  0.00000000000E+00  0.45593999997E+02  0.45594000000E+02  0.51100000000E-03 0.  1.
         11   -1    0    0    0    0 -0.00000000000E+00 -0.00000000000E+00 -0.45593999997E+02  0.45594000000E+02  0.51100000000E-03 0. -1.
    9900012    2    1    2    0    0 -0.17354537436E+02  0.20122770098E+02  0.30774368254E+02  0.50528836366E+02  0.29999928618E+02 0.  0.
         12    1    1    2    0    0  0.17354537436E+02 -0.20122770098E+02 -0.30774368254E+02  0.40659163634E+02  0.00000000000E+00 0. -1.
         11    1    3    3    0    0 -0.14212187868E+02  0.19526807767E+02  0.60379554403E+01  0.24894565908E+02  0.51100000000E-03 0.  1.
        -11    1    3    3    0    0 -0.11225114054E+01 -0.24321340343E+01  0.63641611984E+01  0.69049153388E+01  0.51100000000E-03 0. -1.
        -12    1    3    3    0    0 -0.20198381622E+01  0.30280963645E+01  0.18372251615E+02  0.18729355120E+02  0.00000000000E+00 0.  1.
</event>
<event>
 7    1  0.2639126E-011  0.5052886E+02  0.7816164E-02  0.1300439E+00
        -11   -1    0    0    0    0  0.00000000000E+00  0.00000000000E+00  0.45593999997E+02  0.45594000000E+02  0.51100000000E-03 0.  1.
         11   -1    0    0    0    0 -0.00000000000E+00 -0.00000000000E+00 -0.45593999997E+02  0.45594000000E+02  0.51100000000E-03 0. -1.
    9900012    2    1    2    0    0 -0.15811191303E+01  0.66078658732E+01  0.40087430953E+02  0.50528856508E+02  0.29999989842E+02 0.  0.
         12    1    1    2    0    0  0.15811191303E+01 -0.66078658732E+01 -0.40087430953E+02  0.40659143492E+02  0.00000000000E+00 0. -1.
         11    1    3    3    0    0 -0.22319182926E+01  0.17415419164E+02  0.28870657356E+02  0.33790429716E+02  0.51100000000E-03 0. -1.
        -11    1    3    3    0    0 -0.70591924524E+00 -0.13357580857E+01  0.52475169392E+01  0.54606781569E+01  0.51100000000E-03 0.  1.
        -12    1    3    3    0    0  0.13567184075E+01 -0.94717952051E+01  0.59692566573E+01  0.11277748635E+02  0.00000000000E+00 0.  1.
</event>
<event>
 7    1  0.2639126E-011  0.5052887E+02  0.7816164E-02  0.1300439E+00
        -11   -1    0    0    0    0  0.00000000000E+00  0.00000000000E+00  0.45593999997E+02  0.45594000000E+02  0.51100000000E-03 0.  1.
         11   -1    0    0    0    0 -0.00000000000E+00 -0.00000000000E+00 -0.45593999997E+02  0.45594000000E+02  0.51100000000E-03 0. -1.
    9900012    2    1    2    0    0 -0.16572557331E+02  0.31550827754E+02  0.19571938946E+02  0.50528865940E+02  0.30000018510E+02 0.  0.
         12    1    1    2    0    0  0.16572557331E+02 -0.31550827754E+02 -0.19571938946E+02  0.40659134060E+02  0.00000000000E+00 0. -1.
         11    1    3    3    0    0 -0.81152935390E+01  0.79821025215E+01  0.17289088486E+02  0.20699867894E+02  0.51100000000E-03 0. -1.
        -11    1    3    3    0    0 -0.25161591288E+01  0.18295626670E+01  0.62168855835E+01  0.69518359398E+01  0.51100000000E-03 0.  1.
         12    1    3    3    0    0 -0.59411046635E+01  0.21739162565E+02 -0.39340351240E+01  0.22877162106E+02  0.00000000000E+00 0. -1.
</event>
<event>
 7    1  0.2702649E-011  0.5052884E+02  0.7816164E-02  0.1300439E+00
        -11   -1    0    0    0    0  0.00000000000E+00  0.00000000000E+00  0.45593999997E+02  0.45594000000E+02  0.51100000000E-03 0. -1.
         11   -1    0    0    0    0 -0.00000000000E+00 -0.00000000000E+00 -0.45593999997E+02  0.45594000000E+02  0.51100000000E-03 0.  1.
    9900012    2    1    2    0    0  0.17355954455E+02 -0.14272836698E+02 -0.33885452225E+02  0.50528844881E+02  0.29999954501E+02 0.  0.
         12    1    1    2    0    0 -0.17355954455E+02  0.14272836698E+02  0.33885452225E+02  0.40659155119E+02  0.00000000000E+00 0. -1.
         11    1    3    3    0    0 -0.18183529473E+01 -0.40866327433E+01 -0.13637781613E+01  0.46762020651E+01  0.51100000000E-03 0. -1.
        -11    1    3    3    0    0  0.13940901402E+01 -0.11064927534E+02 -0.23237625040E+02  0.25775246389E+02  0.51100000000E-03 0.  1.
         12    1    3    3    0    0  0.17780217262E+02  0.87872357945E+00 -0.92840490246E+01  0.20077396427E+02  0.00000000000E+00 0. -1.
</event>
<event>
 7    1  0.2639126E-011  0.5052886E+02  0.7816164E-02  0.1300439E+00
        -11   -1    0    0    0    0  0.00000000000E+00  0.00000000000E+00  0.45593999997E+02  0.45594000000E+02  0.51100000000E-03 0.  1.
         11   -1    0    0    0    0 -0.00000000000E+00 -0.00000000000E+00 -0.45593999997E+02  0.45594000000E+02  0.51100000000E-03 0. -1.
    9900012    2    1    2    0    0  0.13960452553E+02  0.12597798418E+02  0.36049501426E+02  0.50528864329E+02  0.30000013613E+02 0.  0.
         12    1    1    2    0    0 -0.13960452553E+02 -0.12597798418E+02 -0.36049501426E+02  0.40659135671E+02  0.00000000000E+00 0. -1.
         11    1    3    3    0    0  0.32880384594E+01 -0.69013418489E+01  0.58977049712E+01  0.96551872283E+01  0.51100000000E-03 0. -1.
        -11    1    3    3    0    0  0.24704520827E+01  0.98325733378E+01  0.25376628968E+02  0.27326835345E+02  0.51100000000E-03 0.  1.
        -12    1    3    3    0    0  0.82019620106E+01  0.96665669289E+01  0.47751674875E+01  0.13546841755E+02  0.00000000000E+00 0.  1.
</event>
<event>
 7    1  0.2639126E-011  0.5052886E+02  0.7816164E-02  0.1300439E+00
        -11   -1    0    0    0    0  0.00000000000E+00  0.00000000000E+00  0.45593999997E+02  0.45594000000E+02  0.51100000000E-03 0. -1.
         11   -1    0    0    0    0 -0.00000000000E+00 -0.00000000000E+00 -0.45593999997E+02  0.45594000000E+02  0.51100000000E-03 0.  1.
    9900012    2    1    2    0    0  0.24058388819E+02  0.31518471824E+02 -0.89969828675E+01  0.50528857862E+02  0.29999993957E+02 0.  0.
         12    1    1    2    0    0 -0.24058388819E+02 -0.31518471824E+02  0.89969828675E+01  0.40659142138E+02  0.00000000000E+00 0. -1.
         11    1    3    3    0    0  0.39556965406E+01  0.16860906702E+02 -0.12541678449E+02  0.21382970058E+02  0.51100000000E-03 0.  1.
        -11    1    3    3    0    0  0.50569264920E+01  0.12127625179E+02 -0.11315934990E+01  0.13188339628E+02  0.51100000000E-03 0. -1.
         12    1    3    3    0    0  0.15045765786E+02  0.25299399429E+01  0.46762890805E+01  0.15957548176E+02  0.00000000000E+00 0. -1.
</event>
<event>
 7    1  0.2639126E-011  0.5052885E+02  0.7816164E-02  0.1300439E+00
        -11   -1    0    0    0    0  0.00000000000E+00  0.00000000000E+00  0.45593999997E+02  0.45594000000E+02  0.51100000000E-03 0.  1.
         11   -1    0    0    0    0 -0.00000000000E+00 -0.00000000000E+00 -0.45593999997E+02  0.45594000000E+02  0.51100000000E-03 0. -1.
    9900012    2    1    2    0    0  0.36166312514E+02  0.74013413518E+01  0.17040672339E+02  0.50528849388E+02  0.29999968201E+02 0.  0.
         12    1    1    2    0    0 -0.36166312514E+02 -0.74013413518E+01 -0.17040672339E+02  0.40659150612E+02  0.00000000000E+00 0. -1.
         11    1    3    3    0    0  0.46032605756E+00  0.44304915450E+01  0.56080807922E+01  0.71618241979E+01  0.51100000000E-03 0. -1.
        -11    1    3    3    0    0  0.61343794699E+01  0.87393392998E+01 -0.11031301921E+01  0.10734223743E+02  0.51100000000E-03 0.  1.
         12    1    3    3    0    0  0.29571606987E+02 -0.57684894929E+01  0.12535721739E+02  0.32632801448E+02  0.00000000000E+00 0. -1.
</event>
<event>
 7    1  0.2639126E-011  0.5052886E+02  0.7816164E-02  0.1300439E+00
        -11   -1    0    0    0    0  0.00000000000E+00  0.00000000000E+00  0.45593999997E+02  0.45594000000E+02  0.51100000000E-03 0. -1.
         11   -1    0    0    0    0 -0.00000000000E+00 -0.00000000000E+00 -0.45593999997E+02  0.45594000000E+02  0.51100000000E-03 0.  1.
    9900012    2    1    2    0    0 -0.37181665752E+02  0.45701167666E+00  0.16446287922E+02  0.50528861861E+02  0.30000006114E+02 0.  0.
         12    1    1    2    0    0  0.37181665752E+02 -0.45701167666E+00 -0.16446287922E+02  0.40659138139E+02  0.00000000000E+00 0. -1.
         11    1    3    3    0    0 -0.35199200441E-01 -0.52022565107E+01 -0.15935573339E+01  0.54409683903E+01  0.51100000000E-03 0. -1.
        -11    1    3    3    0    0  0.18154893054E+01 -0.40649275173E+00  0.11819509110E+01  0.22041429156E+01  0.51100000000E-03 0.  1.
        -12    1    3    3    0    0 -0.38961955857E+02  0.60657609391E+01  0.16857894345E+02  0.42883750555E+02  0.00000000000E+00 0.  1.
</event>
<event>
 7    1  0.2639126E-011  0.5052886E+02  0.7816164E-02  0.1300439E+00
        -11   -1    0    0    0    0  0.00000000000E+00  0.00000000000E+00  0.45593999997E+02  0.45594000000E+02  0.51100000000E-03 0. -1.
         11   -1    0    0    0    0 -0.00000000000E+00 -0.00000000000E+00 -0.45593999997E+02  0.45594000000E+02  0.51100000000E-03 0.  1.
    9900012    2    1    2    0    0  0.70929518617E+01  0.38820817913E+02 -0.97877468873E+01  0.50528857625E+02  0.29999993237E+02 0.  0.
         12    1    1    2    0    0 -0.70929518617E+01 -0.38820817913E+02  0.97877468873E+01  0.40659142375E+02  0.00000000000E+00 0. -1.
         11    1    3    3    0    0  0.89220100671E+01  0.24068785437E+01  0.16865294923E+01  0.93935994140E+01  0.51100000000E-03 0. -1.
        -11    1    3    3    0    0  0.26594179188E+01  0.32036200747E+01 -0.58097277355E+01  0.71476305075E+01  0.51100000000E-03 0.  1.
         12    1    3    3    0    0 -0.44884761242E+01  0.33210319295E+02 -0.56645486441E+01  0.33987627703E+02  0.00000000000E+00 0. -1.
</event>
<event>
 7    1  0.2639126E-011  0.5052886E+02  0.7816164E-02  0.1300439E+00
        -11   -1    0    0    0    0  0.00000000000E+00  0.00000000000E+00  0.45593999997E+02  0.45594000000E+02  0.51100000000E-03 0. -1.
         11   -1    0    0    0    0 -0.00000000000E+00 -0.00000000000E+00 -0.45593999997E+02  0.45594000000E+02  0.51100000000E-03 0.  1.
    9900012    2    1    2    0    0 -0.27527868426E+02 -0.22649595117E+02 -0.19554491455E+02  0.50528857915E+02  0.29999994117E+02 0.  0.
         12    1    1    2    0    0  0.27527868426E+02  0.22649595117E+02  0.19554491455E+02  0.40659142085E+02  0.00000000000E+00 0. -1.
         11    1    3    3    0    0 -0.18871292499E+01 -0.10693826973E+02  0.40286499664E+01  0.11582280127E+02  0.51100000000E-03 0. -1.
        -11    1    3    3    0    0 -0.44833790545E+01 -0.82803722039E+01 -0.86897714899E+01  0.12813172144E+02  0.51100000000E-03 0.  1.
        -12    1    3    3    0    0 -0.21157360121E+02 -0.36753959410E+01 -0.14893369932E+02  0.26133405644E+02  0.00000000000E+00 0.  1.
</event>
<event>
 7    1  0.2639126E-011  0.5052886E+02  0.7816164E-02  0.1300439E+00
        -11   -1    0    0    0    0  0.00000000000E+00  0.00000000000E+00  0.45593999997E+02  0.45594000000E+02  0.51100000000E-03 0. -1.
         11   -1    0    0    0    0 -0.00000000000E+00 -0.00000000000E+00 -0.45593999997E+02  0.45594000000E+02  0.51100000000E-03 0.  1.
    9900012    2    1    2    0    0  0.35871925542E+02 -0.15251306476E+02 -0.11565828419E+02  0.50528858612E+02  0.29999996239E+02 0.  0.
         12    1    1    2    0    0 -0.35871925542E+02  0.15251306476E+02  0.11565828419E+02  0.40659141388E+02  0.00000000000E+00 0. -1.
         11    1    3    3    0    0  0.20558626426E+02 -0.15069765373E+02  0.31901095910E+01  0.25689136778E+02  0.51100000000E-03 0. -1.
        -11    1    3    3    0    0  0.39464500082E+01 -0.45235321532E+00  0.21109628653E+01  0.44983614326E+01  0.51100000000E-03 0.  1.
        -12    1    3    3    0    0  0.11366849109E+02  0.27081211316E+00 -0.16866900876E+02  0.20341360402E+02  0.00000000000E+00 0.  1.
</event>
<event>
 7    1  0.2639126E-011  0.5052886E+02  0.7816164E-02  0.1300439E+00
        -11   -1    0    0    0    0  0.00000000000E+00  0.00000000000E+00  0.45593999997E+02  0.45594000000E+02  0.51100000000E-03 0. -1.
         11   -1    0    0    0    0 -0.00000000000E+00 -0.00000000000E+00 -0.45593999997E+02  0.45594000000E+02  0.51100000000E-03 0.  1.
    9900012    2    1    2    0    0 -0.35199653010E+02  0.16108510843E+02 -0.12436492030E+02  0.50528855548E+02  0.29999986923E+02 0.  0.
         12    1    1    2    0    0  0.35199653010E+02 -0.16108510843E+02  0.12436492030E+02  0.40659144452E+02  0.00000000000E+00 0. -1.
         11    1    3    3    0    0 -0.38467486826E+01 -0.59289211835E+01 -0.40454691682E+01  0.81434269739E+01  0.51100000000E-03 0. -1.
        -11    1    3    3    0    0 -0.76149135497E+01 -0.17523128097E+01 -0.30877769149E+00  0.78200289306E+01  0.51100000000E-03 0.  1.
        -12    1    3    3    0    0 -0.23737990777E+02  0.23789744836E+02 -0.80822451703E+01  0.34565399643E+02  0.00000000000E+00 0.  1.
</event>
<event>
 7    1  0.2639126E-011  0.5052879E+02  0.7816164E-02  0.1300439E+00
        -11   -1    0    0    0    0  0.00000000000E+00  0.00000000000E+00  0.45593999997E+02  0.45594000000E+02  0.51100000000E-03 0. -1.
         11   -1    0    0    0    0 -0.00000000000E+00 -0.00000000000E+00 -0.45593999997E+02  0.45594000000E+02  0.51100000000E-03 0.  1.
    9900012    2    1    2    0    0  0.35927167176E+02  0.11084394924E+02 -0.15477279902E+02  0.50528790154E+02  0.29999788150E+02 0.  0.
         12    1    1    2    0    0 -0.35927167176E+02 -0.11084394924E+02  0.15477279902E+02  0.40659209846E+02  0.00000000000E+00 0. -1.
         11    1    3    3    0    0  0.19663022813E+02  0.62016230999E+01  0.11069894439E+01  0.20647518522E+02  0.51100000000E-03 0. -1.
        -11    1    3    3    0    0  0.13003028151E+02 -0.22171796516E+01 -0.17608629409E+02  0.22001328520E+02  0.51100000000E-03 0.  1.
         12    1    3    3    0    0  0.32611162123E+01  0.70999514756E+01  0.10243600633E+01  0.78799431119E+01  0.00000000000E+00 0. -1.
</event>
<event>
 7    1  0.2639126E-011  0.5052886E+02  0.7816164E-02  0.1300439E+00
        -11   -1    0    0    0    0  0.00000000000E+00  0.00000000000E+00  0.45593999997E+02  0.45594000000E+02  0.51100000000E-03 0.  1.
         11   -1    0    0    0    0 -0.00000000000E+00 -0.00000000000E+00 -0.45593999997E+02  0.45594000000E+02  0.51100000000E-03 0. -1.
    9900012    2    1    2    0    0  0.14547954884E+02  0.14363172343E+01  0.37940209230E+02  0.50528862344E+02  0.30000007580E+02 0.  0.
         12    1    1    2    0    0 -0.14547954884E+02 -0.14363172343E+01 -0.37940209230E+02  0.40659137656E+02  0.00000000000E+00 0. -1.
         11    1    3    3    0    0  0.77854630799E+01 -0.11448968324E+02  0.15898197875E+02  0.21081864409E+02  0.51100000000E-03 0. -1.
        -11    1    3    3    0    0  0.52673014112E+01 -0.11087268583E+01  0.72477384474E+01  0.90279262439E+01  0.51100000000E-03 0.  1.
        -12    1    3    3    0    0  0.14951903933E+01  0.13994012416E+02  0.14794272908E+02  0.20419071691E+02  0.00000000000E+00 0.  1.
</event>
<event>
 7    1  0.2639126E-011  0.5052885E+02  0.7816164E-02  0.1300439E+00
        -11   -1    0    0    0    0  0.00000000000E+00  0.00000000000E+00  0.45593999997E+02  0.45594000000E+02  0.51100000000E-03 0. -1.
         11   -1    0    0    0    0 -0.00000000000E+00 -0.00000000000E+00 -0.45593999997E+02  0.45594000000E+02  0.51100000000E-03 0.  1.
    9900012    2    1    2    0    0  0.11781126539E+02  0.38665480185E+02  0.43990949755E+01  0.50528851742E+02  0.29999975354E+02 0.  0.
         12    1    1    2    0    0 -0.11781126539E+02 -0.38665480185E+02 -0.43990949755E+01  0.40659148258E+02  0.00000000000E+00 0. -1.
         11    1    3    3    0    0 -0.16470377366E+01  0.14071458129E+02  0.32231515588E+01  0.14529534521E+02  0.51100000000E-03 0. -1.
        -11    1    3    3    0    0 -0.58706413215E+01  0.68095909025E+01 -0.28870843057E+01  0.94429981380E+01  0.51100000000E-03 0.  1.
         12    1    3    3    0    0  0.19298805597E+02  0.17784431154E+02  0.40630277225E+01  0.26556319082E+02  0.00000000000E+00 0. -1.
</event>
<event>
 7    1  0.2639126E-011  0.5052887E+02  0.7816164E-02  0.1300439E+00
        -11   -1    0    0    0    0  0.00000000000E+00  0.00000000000E+00  0.45593999997E+02  0.45594000000E+02  0.51100000000E-03 0. -1.
         11   -1    0    0    0    0 -0.00000000000E+00 -0.00000000000E+00 -0.45593999997E+02  0.45594000000E+02  0.51100000000E-03 0.  1.
    9900012    2    1    2    0    0  0.13530065067E+02 -0.22803249628E+02 -0.30823918433E+02  0.50528870621E+02  0.30000032739E+02 0.  0.
         12    1    1    2    0    0 -0.13530065067E+02  0.22803249628E+02  0.30823918433E+02  0.40659129379E+02  0.00000000000E+00 0. -1.
         11    1    3    3    0    0  0.68718793854E+00  0.13348848074E+01 -0.55632317002E+01  0.57622644788E+01  0.51100000000E-03 0. -1.
        -11    1    3    3    0    0 -0.41518313645E+01 -0.81245663267E+01 -0.18221220608E+02  0.20377908685E+02  0.51100000000E-03 0.  1.
        -12    1    3    3    0    0  0.16994708493E+02 -0.16013568109E+02 -0.70394661249E+01  0.24388697457E+02  0.00000000000E+00 0.  1.
</event>
<event>
 7    1  0.2639126E-011  0.5052886E+02  0.7816164E-02  0.1300439E+00
        -11   -1    0    0    0    0  0.00000000000E+00  0.00000000000E+00  0.45593999997E+02  0.45594000000E+02  0.51100000000E-03 0.  1.
         11   -1    0    0    0    0 -0.00000000000E+00 -0.00000000000E+00 -0.45593999997E+02  0.45594000000E+02  0.51100000000E-03 0. -1.
    9900012    2    1    2    0    0 -0.35633467726E+02 -0.81594482495E+01  0.17800134015E+02  0.50528863402E+02  0.30000010797E+02 0.  0.
         12    1    1    2    0    0  0.35633467726E+02  0.81594482495E+01 -0.17800134015E+02  0.40659136598E+02  0.00000000000E+00 0. -1.
         11    1    3    3    0    0 -0.84944274087E+01  0.10872126267E+01 -0.30382263289E+01  0.90867017000E+01  0.51100000000E-03 0. -1.
        -11    1    3    3    0    0 -0.18075911853E+02 -0.84811311867E+01  0.14414272871E+01  0.20018638525E+02  0.51100000000E-03 0.  1.
        -12    1    3    3    0    0 -0.90631284643E+01 -0.76552968944E+00  0.19396933057E+02  0.21423523177E+02  0.00000000000E+00 0.  1.
</event>
<event>
 7    1  0.2639126E-011  0.5052885E+02  0.7816164E-02  0.1300439E+00
        -11   -1    0    0    0    0  0.00000000000E+00  0.00000000000E+00  0.45593999997E+02  0.45594000000E+02  0.51100000000E-03 0. -1.
         11   -1    0    0    0    0 -0.00000000000E+00 -0.00000000000E+00 -0.45593999997E+02  0.45594000000E+02  0.51100000000E-03 0.  1.
    9900012    2    1    2    0    0 -0.84527031072E+01 -0.15779171596E+02 -0.36506658924E+02  0.50528848609E+02  0.29999965832E+02 0.  0.
         12    1    1    2    0    0  0.84527031072E+01  0.15779171596E+02  0.36506658924E+02  0.40659151391E+02  0.00000000000E+00 0. -1.
         11    1    3    3    0    0 -0.26255068201E+01  0.26031441447E+01 -0.27099378970E+01  0.45840385216E+01  0.51100000000E-03 0. -1.
        -11    1    3    3    0    0  0.22943209550E+01 -0.36695490915E+01  0.31518909981E+01  0.53538692834E+01  0.51100000000E-03 0.  1.
        -12    1    3    3    0    0 -0.81215172420E+01 -0.14712766649E+02 -0.36948612025E+02  0.40590940804E+02  0.00000000000E+00 0.  1.
</event>
<event>
 7    1  0.2639126E-011  0.5052885E+02  0.7816164E-02  0.1300439E+00
        -11   -1    0    0    0    0  0.00000000000E+00  0.00000000000E+00  0.45593999997E+02  0.45594000000E+02  0.51100000000E-03 0.  1.
         11   -1    0    0    0    0 -0.00000000000E+00 -0.00000000000E+00 -0.45593999997E+02  0.45594000000E+02  0.51100000000E-03 0. -1.
    9900012    2    1    2    0    0  0.20334366020E+02  0.28997209802E+02  0.19971020522E+02  0.50528852463E+02  0.29999977547E+02 0.  0.
         12    1    1    2    0    0 -0.20334366020E+02 -0.28997209802E+02 -0.19971020522E+02  0.40659147537E+02  0.00000000000E+00 0. -1.
         11    1    3    3    0    0  0.87036844328E+01  0.86867565531E+01  0.36121393374E+00  0.12302208659E+02  0.51100000000E-03 0. -1.
        -11    1    3    3    0    0  0.81208782433E+01  0.17940391992E+02  0.24710004566E+02  0.31597320364E+02  0.51100000000E-03 0.  1.
         12    1    3    3    0    0  0.35098033437E+01  0.23700612565E+01 -0.51001979774E+01  0.66293234406E+01  0.00000000000E+00 0. -1.
</event>
<event>
 7    1  0.2639126E-011  0.5052886E+02  0.7816164E-02  0.1300439E+00
        -11   -1    0    0    0    0  0.00000000000E+00  0.00000000000E+00  0.45593999997E+02  0.45594000000E+02  0.51100000000E-03 0.  1.
         11   -1    0    0    0    0 -0.00000000000E+00 -0.00000000000E+00 -0.45593999997E+02  0.45594000000E+02  0.51100000000E-03 0. -1.
    9900012    2    1    2    0    0  0.39539279676E+02  0.42288667113E+01 -0.84809974901E+01  0.50528864871E+02  0.30000015263E+02 0.  0.
         12    1    1    2    0    0 -0.39539279676E+02 -0.42288667113E+01  0.84809974901E+01  0.40659135129E+02  0.00000000000E+00 0. -1.
         11    1    3    3    0    0  0.18224697359E+02 -0.24724175245E+01  0.43460654316E+00  0.18396774863E+02  0.51100000000E-03 0.  1.
        -11    1    3    3    0    0  0.39464606414E+01 -0.16293882454E+01 -0.11897081129E+02  0.12640015716E+02  0.51100000000E-03 0. -1.
         12    1    3    3    0    0  0.17368121676E+02  0.83306724812E+01  0.29814770961E+01  0.19492074292E+02  0.00000000000E+00 0. -1.
</event>
<event>
 7    1  0.2639126E-011  0.5052886E+02  0.7816164E-02  0.1300439E+00
        -11   -1    0    0    0    0  0.00000000000E+00  0.00000000000E+00  0.45593999997E+02  0.45594000000E+02  0.51100000000E-03 0.  1.
         11   -1    0    0    0    0 -0.00000000000E+00 -0.00000000000E+00 -0.45593999997E+02  0.45594000000E+02  0.51100000000E-03 0. -1.
    9900012    2    1    2    0    0 -0.15749359677E+02  0.97509982668E+01  0.36194490563E+02  0.50528862718E+02  0.30000008718E+02 0.  0.
         12    1    1    2    0    0  0.15749359677E+02 -0.97509982668E+01 -0.36194490563E+02  0.40659137282E+02  0.00000000000E+00 0. -1.
         11    1    3    3    0    0 -0.93615587233E+01 -0.23182112089E+01  0.10455446048E+01  0.97008272184E+01  0.51100000000E-03 0. -1.
        -11    1    3    3    0    0  0.10327175624E+01 -0.26865300127E+01  0.12871621685E+01  0.31528932399E+01  0.51100000000E-03 0.  1.
        -12    1    3    3    0    0 -0.74205185159E+01  0.14755739488E+02  0.33861783789E+02  0.37675142260E+02  0.00000000000E+00 0.  1.
</event>
<event>
 7    1  0.2639126E-011  0.5052886E+02  0.7816164E-02  0.1300439E+00
        -11   -1    0    0    0    0  0.00000000000E+00  0.00000000000E+00  0.45593999997E+02  0.45594000000E+02  0.51100000000E-03 0. -1.
         11   -1    0    0    0    0 -0.00000000000E+00 -0.00000000000E+00 -0.45593999997E+02  0.45594000000E+02  0.51100000000E-03 0.  1.
    9900012    2    1    2    0    0 -0.36204657726E+02 -0.18445062574E+02  0.14723604893E+01  0.50528863022E+02  0.30000009642E+02 0.  0.
         12    1    1    2    0    0  0.36204657726E+02  0.18445062574E+02 -0.14723604893E+01  0.40659136978E+02  0.00000000000E+00 0. -1.
         11    1    3    3    0    0 -0.63492679557E+01  0.35621955848E+01  0.11716201450E+01  0.73739497546E+01  0.51100000000E-03 0. -1.
        -11    1    3    3    0    0 -0.91068547689E+01  0.37223033274E+01 -0.19331686746E+01  0.10026339673E+02  0.51100000000E-03 0.  1.
        -12    1    3    3    0    0 -0.20748535001E+02 -0.25729561486E+02  0.22339090189E+01  0.33128573595E+02  0.00000000000E+00 0.  1.
</event>
<event>
 7    1  0.2639126E-011  0.5052887E+02  0.7816164E-02  0.1300439E+00
        -11   -1    0    0    0    0  0.00000000000E+00  0.00000000000E+00  0.45593999997E+02  0.45594000000E+02  0.51100000000E-03 0. -1.
         11   -1    0    0    0    0 -0.00000000000E+00 -0.00000000000E+00 -0.45593999997E+02  0.45594000000E+02  0.51100000000E-03 0.  1.
    9900012    2    1    2    0    0  0.28035018501E+02 -0.29440953876E+02  0.65772551754E+00  0.50528872731E+02  0.30000039152E+02 0.  0.
         12    1    1    2    0    0 -0.28035018501E+02  0.29440953876E+02 -0.65772551754E+00  0.40659127269E+02  0.00000000000E+00 0. -1.
         11    1    3    3    0    0  0.11643750093E+02 -0.29085441919E+02  0.56634559427E-01  0.31329587542E+02  0.51100000000E-03 0. -1.
        -11    1    3    3    0    0  0.48963782855E+01  0.10438229623E+01 -0.43244439542E+01  0.66155047022E+01  0.51100000000E-03 0.  1.
        -12    1    3    3    0    0  0.11494890123E+02 -0.13993349193E+01  0.49255349123E+01  0.12583780486E+02  0.00000000000E+00 0.  1.
</event>
<event>
 7    1  0.2639126E-011  0.5052889E+02  0.7816164E-02  0.1300439E+00
        -11   -1    0    0    0    0  0.00000000000E+00  0.00000000000E+00  0.45593999997E+02  0.45594000000E+02  0.51100000000E-03 0.  1.
         11   -1    0    0    0    0 -0.00000000000E+00 -0.00000000000E+00 -0.45593999997E+02  0.45594000000E+02  0.51100000000E-03 0. -1.
    9900012    2    1    2    0    0 -0.34288929362E+02 -0.14127865380E+02  0.16668422354E+02  0.50528885883E+02  0.30000079130E+02 0.  0.
         12    1    1    2    0    0  0.34288929362E+02  0.14127865380E+02 -0.16668422354E+02  0.40659114117E+02  0.00000000000E+00 0. -1.
         11    1    3    3    0    0 -0.31743163177E+02 -0.19605812813E+02  0.15095915812E+02  0.40248018324E+02  0.51100000000E-03 0. -1.
        -11    1    3    3    0    0 -0.65088908463E-01 -0.14708600805E+01  0.24419899956E+01  0.28514875666E+01  0.51100000000E-03 0.  1.
         12    1    3    3    0    0 -0.24806772765E+01  0.69488075129E+01 -0.86948345326E+00  0.74293799928E+01  0.00000000000E+00 0. -1.
</event>
<event>
 7    1  0.2768973E-011  0.5052886E+02  0.7816164E-02  0.1300439E+00
        -11   -1    0    0    0    0  0.00000000000E+00  0.00000000000E+00  0.45593999997E+02  0.45594000000E+02  0.51100000000E-03 0. -1.
         11   -1    0    0    0    0 -0.00000000000E+00 -0.00000000000E+00 -0.45593999997E+02  0.45594000000E+02  0.51100000000E-03 0.  1.
    9900012    2    1    2    0    0  0.30348616016E+01  0.25261196101E+02 -0.31714773634E+02  0.50528864740E+02  0.30000014864E+02 0.  0.
         12    1    1    2    0    0 -0.30348616016E+01 -0.25261196101E+02  0.31714773634E+02  0.40659135260E+02  0.00000000000E+00 0. -1.
         11    1    3    3    0    0 -0.47309017878E+01  0.69152965457E+00 -0.30876781393E+01  0.56915201433E+01  0.51100000000E-03 0. -1.
        -11    1    3    3    0    0  0.85212907655E-01  0.15838883743E+01 -0.18505924884E+02  0.18573777744E+02  0.51100000000E-03 0.  1.
        -12    1    3    3    0    0  0.76805504818E+01  0.22985778072E+02 -0.10121170611E+02  0.26263566853E+02  0.00000000000E+00 0.  1.
</event>
<event>
 7    1  0.2639126E-011  0.5052885E+02  0.7816164E-02  0.1300439E+00
        -11   -1    0    0    0    0  0.00000000000E+00  0.00000000000E+00  0.45593999997E+02  0.45594000000E+02  0.51100000000E-03 0. -1.
         11   -1    0    0    0    0 -0.00000000000E+00 -0.00000000000E+00 -0.45593999997E+02  0.45594000000E+02  0.51100000000E-03 0.  1.
    9900012    2    1    2    0    0  0.22080973207E+02  0.26055069356E+02 -0.22061961472E+02  0.50528853908E+02  0.29999981939E+02 0.  0.
         12    1    1    2    0    0 -0.22080973207E+02 -0.26055069356E+02  0.22061961472E+02  0.40659146092E+02  0.00000000000E+00 0. -1.
         11    1    3    3    0    0  0.16655262579E+02  0.14421946325E+02 -0.10410451582E+02  0.24367351308E+02  0.51100000000E-03 0. -1.
        -11    1    3    3    0    0  0.12658345724E+02  0.96696193420E+01 -0.79658523127E+01  0.17809830376E+02  0.51100000000E-03 0.  1.
         12    1    3    3    0    0 -0.72326350954E+01  0.19635036887E+01 -0.36856575778E+01  0.83516722242E+01  0.00000000000E+00 0. -1.
</event>
<event>
 7    1  0.2639126E-011  0.5052886E+02  0.7816164E-02  0.1300439E+00
        -11   -1    0    0    0    0  0.00000000000E+00  0.00000000000E+00  0.45593999997E+02  0.45594000000E+02  0.51100000000E-03 0. -1.
         11   -1    0    0    0    0 -0.00000000000E+00 -0.00000000000E+00 -0.45593999997E+02  0.45594000000E+02  0.51100000000E-03 0.  1.
    9900012    2    1    2    0    0 -0.22312418046E+02  0.23216415747E+02 -0.24825783613E+02  0.50528862144E+02  0.30000006973E+02 0.  0.
         12    1    1    2    0    0  0.22312418046E+02 -0.23216415747E+02  0.24825783613E+02  0.40659137856E+02  0.00000000000E+00 0. -1.
         11    1    3    3    0    0  0.42189116977E+01  0.13704411463E+02 -0.11691929495E+02  0.18501657359E+02  0.51100000000E-03 0. -1.
        -11    1    3    3    0    0 -0.71784216963E+00  0.12484580428E+01 -0.25530834376E+01  0.29312420858E+01  0.51100000000E-03 0.  1.
        -12    1    3    3    0    0 -0.25813487574E+02  0.82635462415E+01 -0.10580770680E+02  0.29095962699E+02  0.00000000000E+00 0.  1.
</event>
<event>
 7    1  0.2639126E-011  0.5052886E+02  0.7816164E-02  0.1300439E+00
        -11   -1    0    0    0    0  0.00000000000E+00  0.00000000000E+00  0.45593999997E+02  0.45594000000E+02  0.51100000000E-03 0.  1.
         11   -1    0    0    0    0 -0.00000000000E+00 -0.00000000000E+00 -0.45593999997E+02  0.45594000000E+02  0.51100000000E-03 0. -1.
    9900012    2    1    2    0    0  0.31762469661E+02  0.20192203492E+02  0.15381345907E+02  0.50528863724E+02  0.30000011775E+02 0.  0.
         12    1    1    2    0    0 -0.31762469661E+02 -0.20192203492E+02 -0.15381345907E+02  0.40659136276E+02  0.00000000000E+00 0. -1.
         11    1    3    3    0    0 -0.35082534487E+01  0.53532546030E+01  0.28530009657E+01  0.70074811363E+01  0.51100000000E-03 0. -1.
        -11    1    3    3    0    0  0.43466399473E+01  0.45062626706E+01  0.86626499262E+01  0.10688366858E+02  0.51100000000E-03 0.  1.
        -12    1    3    3    0    0  0.30924083163E+02  0.10332686218E+02  0.38656950147E+01  0.32833015729E+02  0.00000000000E+00 0.  1.
</event>
<event>
 7    1  0.2639126E-011  0.5052885E+02  0.7816164E-02  0.1300439E+00
        -11   -1    0    0    0    0  0.00000000000E+00  0.00000000000E+00  0.45593999997E+02  0.45594000000E+02  0.51100000000E-03 0. -1.
         11   -1    0    0    0    0 -0.00000000000E+00 -0.00000000000E+00 -0.45593999997E+02  0.45594000000E+02  0.51100000000E-03 0.  1.
    9900012    2    1    2    0    0 -0.24040722334E+02  0.23154248739E+02 -0.23218323940E+02  0.50528854269E+02  0.29999983036E+02 0.  0.
         12    1    1    2    0    0  0.24040722334E+02 -0.23154248739E+02  0.23218323940E+02  0.40659145731E+02  0.00000000000E+00 0. -1.
         11    1    3    3    0    0 -0.75401833678E+01 -0.32327013783E+01 -0.23514332584E+01  0.85342815779E+01  0.51100000000E-03 0. -1.
        -11    1    3    3    0    0 -0.78411856281E+01  0.21806976633E+01 -0.12580524094E+02  0.14983631772E+02  0.51100000000E-03 0.  1.
        -12    1    3    3    0    0 -0.86593533379E+01  0.24206252454E+02 -0.82863665882E+01  0.27010940919E+02  0.00000000000E+00 0.  1.
</event>
<event>
 7    1  0.2639126E-011  0.5052886E+02  0.7816164E-02  0.1300439E+00
        -11   -1    0    0    0    0  0.00000000000E+00  0.00000000000E+00  0.45593999997E+02  0.45594000000E+02  0.51100000000E-03 0. -1.
         11   -1    0    0    0    0 -0.00000000000E+00 -0.00000000000E+00 -0.45593999997E+02  0.45594000000E+02  0.51100000000E-03 0.  1.
    9900012    2    1    2    0    0 -0.40275955508E+02  0.54220360437E+01  0.12706272661E+01  0.50528861290E+02  0.30000004378E+02 0.  0.
         12    1    1    2    0    0  0.40275955508E+02 -0.54220360437E+01 -0.12706272661E+01  0.40659138710E+02  0.00000000000E+00 0. -1.
         11    1    3    3    0    0 -0.16023634050E+02 -0.64733702697E+01 -0.89224329235E+01  0.19449194851E+02  0.51100000000E-03 0. -1.
        -11    1    3    3    0    0 -0.17526508235E+02  0.79261012862E+01  0.13515090350E+01  0.19282845989E+02  0.51100000000E-03 0.  1.
        -12    1    3    3    0    0 -0.67258132238E+01  0.39693050271E+01  0.88415511546E+01  0.11796820450E+02  0.00000000000E+00 0.  1.
</event>
<event>
 7    1  0.2639126E-011  0.5052886E+02  0.7816164E-02  0.1300439E+00
        -11   -1    0    0    0    0  0.00000000000E+00  0.00000000000E+00  0.45593999997E+02  0.45594000000E+02  0.51100000000E-03 0. -1.
         11   -1    0    0    0    0 -0.00000000000E+00 -0.00000000000E+00 -0.45593999997E+02  0.45594000000E+02  0.51100000000E-03 0.  1.
    9900012    2    1    2    0    0  0.40129415308E+02  0.51060268778E+01 -0.40895000378E+01  0.50528862110E+02  0.30000006869E+02 0.  0.
         12    1    1    2    0    0 -0.40129415308E+02 -0.51060268778E+01  0.40895000378E+01  0.40659137890E+02  0.00000000000E+00 0. -1.
         11    1    3    3    0    0  0.22192785340E+01 -0.27224863644E+01  0.89527099808E+00  0.36247261465E+01  0.51100000000E-03 0. -1.
        -11    1    3    3    0    0  0.29376272093E+02 -0.54709247862E+01 -0.77311203471E+01  0.30865297701E+02  0.51100000000E-03 0.  1.
         12    1    3    3    0    0  0.85338646810E+01  0.13299438028E+02  0.27463493113E+01  0.16038838262E+02  0.00000000000E+00 0. -1.
</event>
<event>
 7    1  0.2639126E-011  0.5052886E+02  0.7816164E-02  0.1300439E+00
        -11   -1    0    0    0    0  0.00000000000E+00  0.00000000000E+00  0.45593999997E+02  0.45594000000E+02  0.51100000000E-03 0.  1.
         11   -1    0    0    0    0 -0.00000000000E+00 -0.00000000000E+00 -0.45593999997E+02  0.45594000000E+02  0.51100000000E-03 0. -1.
    9900012    2    1    2    0    0  0.81120999032E+01 -0.21073511180E+02  0.33812222896E+02  0.50528862583E+02  0.30000008309E+02 0.  0.
         12    1    1    2    0    0 -0.81120999032E+01  0.21073511180E+02 -0.33812222896E+02  0.40659137417E+02  0.00000000000E+00 0. -1.
         11    1    3    3    0    0  0.23320135217E+01 -0.30548407502E+01  0.21237300695E+02  0.21582244557E+02  0.51100000000E-03 0.  1.
        -11    1    3    3    0    0 -0.32832670874E+01 -0.13127032389E+02  0.12826332727E+02  0.18644399523E+02  0.51100000000E-03 0. -1.
         12    1    3    3    0    0  0.90633534689E+01 -0.48916380413E+01 -0.25141052573E+00  0.10302218503E+02  0.00000000000E+00 0. -1.
</event>
<event>
 7    1  0.2639126E-011  0.5052888E+02  0.7816164E-02  0.1300439E+00
        -11   -1    0    0    0    0  0.00000000000E+00  0.00000000000E+00  0.45593999997E+02  0.45594000000E+02  0.51100000000E-03 0.  1.
         11   -1    0    0    0    0 -0.00000000000E+00 -0.00000000000E+00 -0.45593999997E+02  0.45594000000E+02  0.51100000000E-03 0. -1.
    9900012    2    1    2    0    0  0.12654327779E+02 -0.30530250838E+01  0.38518971995E+02  0.50528878302E+02  0.30000056087E+02 0.  0.
         12    1    1    2    0    0 -0.12654327779E+02  0.30530250838E+01 -0.38518971995E+02  0.40659121698E+02  0.00000000000E+00 0. -1.
         11    1    3    3    0    0  0.10622867443E+01 -0.77988077374E+01  0.25168960554E+02  0.26370939136E+02  0.51100000000E-03 0.  1.
        -11    1    3    3    0    0  0.23327907373E+01 -0.50361071842E+01  0.55095459366E+00  0.55774402212E+01  0.51100000000E-03 0. -1.
         12    1    3    3    0    0  0.92592502976E+01  0.97818898379E+01  0.12799056847E+02  0.18580498945E+02  0.00000000000E+00 0. -1.
</event>
<event>
 7    1  0.2639126E-011  0.5052889E+02  0.7816164E-02  0.1300439E+00
        -11   -1    0    0    0    0  0.00000000000E+00  0.00000000000E+00  0.45593999997E+02  0.45594000000E+02  0.51100000000E-03 0.  1.
         11   -1    0    0    0    0 -0.00000000000E+00 -0.00000000000E+00 -0.45593999997E+02  0.45594000000E+02  0.51100000000E-03 0. -1.
    9900012    2    1    2    0    0 -0.23059613645E+02  0.20687892826E+02  0.26333035534E+02  0.50528887227E+02  0.30000083215E+02 0.  0.
         12    1    1    2    0    0  0.23059613645E+02 -0.20687892826E+02 -0.26333035534E+02  0.40659112773E+02  0.00000000000E+00 0. -1.
         11    1    3    3    0    0 -0.12045442897E+01  0.90964603935E+01  0.72788074930E+01  0.11712282332E+02  0.51100000000E-03 0. -1.
        -11    1    3    3    0    0 -0.12535200953E+02  0.17859829267E+02  0.16344555517E+02  0.27262598183E+02  0.51100000000E-03 0.  1.
        -12    1    3    3    0    0 -0.93198684026E+01 -0.62683968345E+01  0.27096725237E+01  0.11554006712E+02  0.00000000000E+00 0.  1.
</event>
<event>
 7    1  0.2639126E-011  0.5052886E+02  0.7816164E-02  0.1300439E+00
        -11   -1    0    0    0    0  0.00000000000E+00  0.00000000000E+00  0.45593999997E+02  0.45594000000E+02  0.51100000000E-03 0. -1.
         11   -1    0    0    0    0 -0.00000000000E+00 -0.00000000000E+00 -0.45593999997E+02  0.45594000000E+02  0.51100000000E-03 0.  1.
    9900012    2    1    2    0    0 -0.54234050508E+01  0.21250224810E+02 -0.34237115051E+02  0.50528862972E+02  0.30000009489E+02 0.  0.
         12    1    1    2    0    0  0.54234050508E+01 -0.21250224810E+02  0.34237115051E+02  0.40659137028E+02  0.00000000000E+00 0. -1.
         11    1    3    3    0    0 -0.40685050513E+01 -0.17565040809E+01 -0.66627860929E+01  0.80019221890E+01  0.51100000000E-03 0. -1.
        -11    1    3    3    0    0 -0.11802267621E+02  0.97641974153E+01 -0.15432617142E+02  0.21743935805E+02  0.51100000000E-03 0.  1.
         12    1    3    3    0    0  0.10447367621E+02  0.13242531476E+02 -0.12141711816E+02  0.20783004978E+02  0.00000000000E+00 0. -1.
</event>
<event>
 7    1  0.2639126E-011  0.5052886E+02  0.7816164E-02  0.1300439E+00
        -11   -1    0    0    0    0  0.00000000000E+00  0.00000000000E+00  0.45593999997E+02  0.45594000000E+02  0.51100000000E-03 0.  1.
         11   -1    0    0    0    0 -0.00000000000E+00 -0.00000000000E+00 -0.45593999997E+02  0.45594000000E+02  0.51100000000E-03 0. -1.
    9900012    2    1    2    0    0  0.50356176708E+01 -0.38856872121E+02 -0.10860561877E+02  0.50528858831E+02  0.29999996902E+02 0.  0.
         12    1    1    2    0    0 -0.50356176708E+01  0.38856872121E+02  0.10860561877E+02  0.40659141169E+02  0.00000000000E+00 0. -1.
         11    1    3    3    0    0 -0.45808455248E+01 -0.22440521526E+02 -0.79958391920E+01  0.24258907575E+02  0.51100000000E-03 0. -1.
        -11    1    3    3    0    0  0.18008167045E+01 -0.91821061844E+01  0.70528718182E+01  0.11717380933E+02  0.51100000000E-03 0.  1.
         12    1    3    3    0    0  0.78156464912E+01 -0.72342444102E+01 -0.99175945031E+01  0.14552570322E+02  0.00000000000E+00 0. -1.
</event>
<event>
 7    1  0.2639126E-011  0.5052887E+02  0.7816164E-02  0.1300439E+00
        -11   -1    0    0    0    0  0.00000000000E+00  0.00000000000E+00  0.45593999997E+02  0.45594000000E+02  0.51100000000E-03 0.  1.
         11   -1    0    0    0    0 -0.00000000000E+00 -0.00000000000E+00 -0.45593999997E+02  0.45594000000E+02  0.51100000000E-03 0. -1.
    9900012    2    1    2    0    0 -0.37480541780E+01 -0.13294841892E+02  0.38240872098E+02  0.50528867817E+02  0.30000024217E+02 0.  0.
         12    1    1    2    0    0  0.37480541780E+01  0.13294841892E+02 -0.38240872098E+02  0.40659132183E+02  0.00000000000E+00 0. -1.
         11    1    3    3    0    0 -0.91529354688E+01 -0.13657798153E+02  0.14752355199E+02  0.22089446853E+02  0.51100000000E-03 0. -1.
        -11    1    3    3    0    0 -0.22003898640E+01 -0.52261789764E+01  0.13771458573E+02  0.14893210995E+02  0.51100000000E-03 0.  1.
         12    1    3    3    0    0  0.76052711548E+01  0.55891352372E+01  0.97170583257E+01  0.13546209970E+02  0.00000000000E+00 0. -1.
</event>
<event>
 7    1  0.2639126E-011  0.5052886E+02  0.7816164E-02  0.1300439E+00
        -11   -1    0    0    0    0  0.00000000000E+00  0.00000000000E+00  0.45593999997E+02  0.45594000000E+02  0.51100000000E-03 0.  1.
         11   -1    0    0    0    0 -0.00000000000E+00 -0.00000000000E+00 -0.45593999997E+02  0.45594000000E+02  0.51100000000E-03 0. -1.
    9900012    2    1    2    0    0  0.14360961546E+02 -0.30964937377E+02  0.22093015225E+02  0.50528857301E+02  0.29999992252E+02 0.  0.
         12    1    1    2    0    0 -0.14360961546E+02  0.30964937377E+02 -0.22093015225E+02  0.40659142699E+02  0.00000000000E+00 0. -1.
         11    1    3    3    0    0 -0.34222527007E+01 -0.45508707944E+01  0.20232260248E+01  0.60428207274E+01  0.51100000000E-03 0. -1.
        -11    1    3    3    0    0  0.17879667999E+01 -0.20944436345E+02  0.44852501134E+01  0.21493806269E+02  0.51100000000E-03 0.  1.
         12    1    3    3    0    0  0.15995247447E+02 -0.54696302376E+01  0.15584539087E+02  0.22992230305E+02  0.00000000000E+00 0. -1.
</event>
<event>
 7    1  0.2639126E-011  0.5052886E+02  0.7816164E-02  0.1300439E+00
        -11   -1    0    0    0    0  0.00000000000E+00  0.00000000000E+00  0.45593999997E+02  0.45594000000E+02  0.51100000000E-03 0.  1.
         11   -1    0    0    0    0 -0.00000000000E+00 -0.00000000000E+00 -0.45593999997E+02  0.45594000000E+02  0.51100000000E-03 0. -1.
    9900012    2    1    2    0    0 -0.80710211593E+01 -0.36094087378E+02  0.16889076613E+02  0.50528862835E+02  0.30000009073E+02 0.  0.
         12    1    1    2    0    0  0.80710211593E+01  0.36094087378E+02 -0.16889076613E+02  0.40659137165E+02  0.00000000000E+00 0. -1.
         11    1    3    3    0    0  0.45001647919E+01  0.20547499196E+01 -0.95467884567E+00  0.50383422220E+01  0.51100000000E-03 0. -1.
        -11    1    3    3    0    0  0.44204230625E+00 -0.16794493935E+02  0.81171307148E+01  0.18658462939E+02  0.51100000000E-03 0.  1.
        -12    1    3    3    0    0 -0.13013228257E+02 -0.21354343362E+02  0.97266247435E+01  0.26832057674E+02  0.00000000000E+00 0.  1.
</event>
<event>
 7    1  0.2639126E-011  0.5052886E+02  0.7816164E-02  0.1300439E+00
        -11   -1    0    0    0    0  0.00000000000E+00  0.00000000000E+00  0.45593999997E+02  0.45594000000E+02  0.51100000000E-03 0.  1.
         11   -1    0    0    0    0 -0.00000000000E+00 -0.00000000000E+00 -0.45593999997E+02  0.45594000000E+02  0.51100000000E-03 0. -1.
    9900012    2    1    2    0    0  0.28855530145E+02  0.23042133492E+02  0.17017169323E+02  0.50528860959E+02  0.30000003370E+02 0.  0.
         12    1    1    2    0    0 -0.28855530145E+02 -0.23042133492E+02 -0.17017169323E+02  0.40659139041E+02  0.00000000000E+00 0. -1.
         11    1    3    3    0    0  0.22085543523E+02  0.56713758922E+01  0.60969012394E+01  0.23603134161E+02  0.51100000000E-03 0. -1.
        -11    1    3    3    0    0  0.10607016503E+02  0.53155159740E+01  0.40970654900E+01  0.12551870580E+02  0.51100000000E-03 0.  1.
        -12    1    3    3    0    0 -0.38370298806E+01  0.12055241626E+02  0.68232025932E+01  0.14373856218E+02  0.00000000000E+00 0.  1.
</event>
<event>
 7    1  0.2639126E-011  0.5052885E+02  0.7816164E-02  0.1300439E+00
        -11   -1    0    0    0    0  0.00000000000E+00  0.00000000000E+00  0.45593999997E+02  0.45594000000E+02  0.51100000000E-03 0.  1.
         11   -1    0    0    0    0 -0.00000000000E+00 -0.00000000000E+00 -0.45593999997E+02  0.45594000000E+02  0.51100000000E-03 0. -1.
    9900012    2    1    2    0    0 -0.16690683274E+02  0.28647371438E+02 -0.23535410682E+02  0.50528851529E+02  0.29999974707E+02 0.  0.
         12    1    1    2    0    0  0.16690683274E+02 -0.28647371438E+02  0.23535410682E+02  0.40659148471E+02  0.00000000000E+00 0. -1.
         11    1    3    3    0    0 -0.96337068033E+01  0.19729716564E+02 -0.16243199057E+01  0.22016094973E+02  0.51100000000E-03 0. -1.
        -11    1    3    3    0    0 -0.50726949255E+01  0.36928740826E+01 -0.39974463352E+00  0.62872369790E+01  0.51100000000E-03 0.  1.
         12    1    3    3    0    0 -0.19842815448E+01  0.52247807918E+01 -0.21511346143E+02  0.22225519576E+02  0.00000000000E+00 0. -1.
</event>
<event>
 7    1  0.2639126E-011  0.5052885E+02  0.7816164E-02  0.1300439E+00
        -11   -1    0    0    0    0  0.00000000000E+00  0.00000000000E+00  0.45593999997E+02  0.45594000000E+02  0.51100000000E-03 0.  1.
         11   -1    0    0    0    0 -0.00000000000E+00 -0.00000000000E+00 -0.45593999997E+02  0.45594000000E+02  0.51100000000E-03 0. -1.
    9900012    2    1    2    0    0 -0.22160857447E+02  0.17526438571E+02  0.29238443994E+02  0.50528852703E+02  0.29999978276E+02 0.  0.
         12    1    1    2    0    0  0.22160857447E+02 -0.17526438571E+02 -0.29238443994E+02  0.40659147297E+02  0.00000000000E+00 0. -1.
         11    1    3    3    0    0 -0.11839444569E+01  0.64038260943E+01 -0.43459556576E+01  0.78293067357E+01  0.51100000000E-03 0. -1.
        -11    1    3    3    0    0 -0.22738791841E+01  0.48608474762E+01  0.25826372408E+01  0.59555335705E+01  0.51100000000E-03 0.  1.
         12    1    3    3    0    0 -0.18703033806E+02  0.62617650001E+01  0.31001762411E+02  0.36744012397E+02  0.00000000000E+00 0. -1.
</event>
<event>
 7    1  0.2639126E-011  0.5052886E+02  0.7816164E-02  0.1300439E+00
        -11   -1    0    0    0    0  0.00000000000E+00  0.00000000000E+00  0.45593999997E+02  0.45594000000E+02  0.51100000000E-03 0. -1.
         11   -1    0    0    0    0 -0.00000000000E+00 -0.00000000000E+00 -0.45593999997E+02  0.45594000000E+02  0.51100000000E-03 0.  1.
    9900012    2    1    2    0    0  0.31941128648E+02 -0.15830387448E+02  0.19553238708E+02  0.50528855764E+02  0.29999987581E+02 0.  0.
         12    1    1    2    0    0 -0.31941128648E+02  0.15830387448E+02 -0.19553238708E+02  0.40659144236E+02  0.00000000000E+00 0. -1.
         11    1    3    3    0    0  0.95066859597E+01 -0.89968125786E+01  0.77217542517E+01  0.15196881374E+02  0.51100000000E-03 0. -1.
        -11    1    3    3    0    0  0.53682141041E+01 -0.13387043791E+02  0.19601592604E+01  0.14555854105E+02  0.51100000000E-03 0.  1.
        -12    1    3    3    0    0  0.17066228584E+02  0.65534689224E+01  0.98713251957E+01  0.20776120285E+02  0.00000000000E+00 0.  1.
</event>
<event>
 7    1  0.2639126E-011  0.5052886E+02  0.7816164E-02  0.1300439E+00
        -11   -1    0    0    0    0  0.00000000000E+00  0.00000000000E+00  0.45593999997E+02  0.45594000000E+02  0.51100000000E-03 0. -1.
         11   -1    0    0    0    0 -0.00000000000E+00 -0.00000000000E+00 -0.45593999997E+02  0.45594000000E+02  0.51100000000E-03 0.  1.
    9900012    2    1    2    0    0  0.96285824942E+01 -0.36768673246E+02  0.14440232938E+02  0.50528864982E+02  0.30000015599E+02 0.  0.
         12    1    1    2    0    0 -0.96285824942E+01  0.36768673246E+02 -0.14440232938E+02  0.40659135018E+02  0.00000000000E+00 0. -1.
         11    1    3    3    0    0 -0.86756468503E+00 -0.64570443042E+01  0.60594653281E+01  0.88973709574E+01  0.51100000000E-03 0. -1.
        -11    1    3    3    0    0  0.36146544788E+01 -0.24605220021E+02 -0.51666518139E+01  0.25400332095E+02  0.51100000000E-03 0.  1.
         12    1    3    3    0    0  0.68814927005E+01 -0.57064089209E+01  0.13547419423E+02  0.16231161930E+02  0.00000000000E+00 0. -1.
</event>
<event>
 7    1  0.2639126E-011  0.5052886E+02  0.7816164E-02  0.1300439E+00
        -11   -1    0    0    0    0  0.00000000000E+00  0.00000000000E+00  0.45593999997E+02  0.45594000000E+02  0.51100000000E-03 0.  1.
         11   -1    0    0    0    0 -0.00000000000E+00 -0.00000000000E+00 -0.45593999997E+02  0.45594000000E+02  0.51100000000E-03 0. -1.
    9900012    2    1    2    0    0 -0.30905981329E+02  0.86419201086E+01  0.24966043062E+02  0.50528858700E+02  0.29999996504E+02 0.  0.
         12    1    1    2    0    0  0.30905981329E+02 -0.86419201086E+01 -0.24966043062E+02  0.40659141300E+02  0.00000000000E+00 0. -1.
         11    1    3    3    0    0  0.39953303345E+00  0.27953475878E+01 -0.46587308214E+01  0.54476938157E+01  0.51100000000E-03 0. -1.
        -11    1    3    3    0    0 -0.11144971766E+02 -0.36036352413E+01  0.99792645351E+01  0.15387732242E+02  0.51100000000E-03 0.  1.
        -12    1    3    3    0    0 -0.20160542596E+02  0.94502077621E+01  0.19645509348E+02  0.29693432642E+02  0.00000000000E+00 0.  1.
</event>
<event>
 7    1  0.2639126E-011  0.5052885E+02  0.7816164E-02  0.1300439E+00
        -11   -1    0    0    0    0  0.00000000000E+00  0.00000000000E+00  0.45593999997E+02  0.45594000000E+02  0.51100000000E-03 0.  1.
         11   -1    0    0    0    0 -0.00000000000E+00 -0.00000000000E+00 -0.45593999997E+02  0.45594000000E+02  0.51100000000E-03 0. -1.
    9900012    2    1    2    0    0 -0.29604593859E+02  0.18091662080E+02  0.21199667480E+02  0.50528854465E+02  0.29999983631E+02 0.  0.
         12    1    1    2    0    0  0.29604593859E+02 -0.18091662080E+02 -0.21199667480E+02  0.40659145535E+02  0.00000000000E+00 0. -1.
         11    1    3    3    0    0 -0.13102312637E+02  0.14991157647E+02  0.88570332185E+01  0.21791109236E+02  0.51100000000E-03 0. -1.
        -11    1    3    3    0    0 -0.78613150175E+00  0.85282873683E+01  0.75929023470E+01  0.11445604156E+02  0.51100000000E-03 0.  1.
         12    1    3    3    0    0 -0.15716149721E+02 -0.54277829352E+01  0.47497319147E+01  0.17292141073E+02  0.00000000000E+00 0. -1.
</event>
<event>
 7    1  0.2639126E-011  0.5052888E+02  0.7816164E-02  0.1300439E+00
        -11   -1    0    0    0    0  0.00000000000E+00  0.00000000000E+00  0.45593999997E+02  0.45594000000E+02  0.51100000000E-03 0.  1.
         11   -1    0    0    0    0 -0.00000000000E+00 -0.00000000000E+00 -0.45593999997E+02  0.45594000000E+02  0.51100000000E-03 0. -1.
    9900012    2    1    2    0    0  0.31534612275E+01 -0.40227380674E+02 -0.49977763187E+01  0.50528877509E+02  0.30000053675E+02 0.  0.
         12    1    1    2    0    0 -0.31534612275E+01  0.40227380674E+02  0.49977763187E+01  0.40659122491E+02  0.00000000000E+00 0. -1.
         11    1    3    3    0    0 -0.86732145183E+00  0.89022059347E-01 -0.26785989225E+01  0.28169245422E+01  0.51100000000E-03 0. -1.
        -11    1    3    3    0    0 -0.78945304504E+01 -0.29528429227E+01 -0.49195024933E-01  0.84288381625E+01  0.51100000000E-03 0.  1.
        -12    1    3    3    0    0  0.11915313130E+02 -0.37363559811E+02 -0.22699823713E+01  0.39283114804E+02  0.00000000000E+00 0.  1.
</event>
<event>
 7    1  0.2639126E-011  0.5052886E+02  0.7816164E-02  0.1300439E+00
        -11   -1    0    0    0    0  0.00000000000E+00  0.00000000000E+00  0.45593999997E+02  0.45594000000E+02  0.51100000000E-03 0. -1.
         11   -1    0    0    0    0 -0.00000000000E+00 -0.00000000000E+00 -0.45593999997E+02  0.45594000000E+02  0.51100000000E-03 0.  1.
    9900012    2    1    2    0    0  0.79382103931E+01 -0.38806273043E+02 -0.91773418757E+01  0.50528860613E+02  0.30000002321E+02 0.  0.
         12    1    1    2    0    0 -0.79382103931E+01  0.38806273043E+02  0.91773418757E+01  0.40659139387E+02  0.00000000000E+00 0. -1.
         11    1    3    3    0    0  0.65005616661E+01 -0.23468971215E+01  0.58856101191E+01  0.90777549432E+01  0.51100000000E-03 0. -1.
        -11    1    3    3    0    0  0.16605643711E+01 -0.59246594953E+01  0.20022370044E+01  0.64705500113E+01  0.51100000000E-03 0.  1.
         12    1    3    3    0    0 -0.22291564416E+00 -0.30534716427E+02 -0.17065188999E+02  0.34980555659E+02  0.00000000000E+00 0. -1.
</event>
<event>
 7    1  0.2639126E-011  0.5052886E+02  0.7816164E-02  0.1300439E+00
        -11   -1    0    0    0    0  0.00000000000E+00  0.00000000000E+00  0.45593999997E+02  0.45594000000E+02  0.51100000000E-03 0.  1.
         11   -1    0    0    0    0 -0.00000000000E+00 -0.00000000000E+00 -0.45593999997E+02  0.45594000000E+02  0.51100000000E-03 0. -1.
    9900012    2    1    2    0    0 -0.68259776497E+01 -0.10221104679E+02  0.38756943613E+02  0.50528860438E+02  0.30000001786E+02 0.  0.
         12    1    1    2    0    0  0.68259776497E+01  0.10221104679E+02 -0.38756943613E+02  0.40659139562E+02  0.00000000000E+00 0. -1.
         11    1    3    3    0    0 -0.58218956988E+01 -0.36559965501E+01  0.15662940693E+02  0.17105218260E+02  0.51100000000E-03 0. -1.
        -11    1    3    3    0    0 -0.87186833154E+01 -0.65792681331E+01  0.23271169298E+02  0.25706993770E+02  0.51100000000E-03 0.  1.
         12    1    3    3    0    0  0.77146013644E+01  0.14160004378E-01 -0.17716637857E+00  0.77166484074E+01  0.00000000000E+00 0. -1.
</event>
<event>
 7    1  0.2639126E-011  0.5052886E+02  0.7816164E-02  0.1300439E+00
        -11   -1    0    0    0    0  0.00000000000E+00  0.00000000000E+00  0.45593999997E+02  0.45594000000E+02  0.51100000000E-03 0.  1.
         11   -1    0    0    0    0 -0.00000000000E+00 -0.00000000000E+00 -0.45593999997E+02  0.45594000000E+02  0.51100000000E-03 0. -1.
    9900012    2    1    2    0    0  0.88845363303E+01  0.31843190968E+02  0.23669436387E+02  0.50528855694E+02  0.29999987366E+02 0.  0.
         12    1    1    2    0    0 -0.88845363303E+01 -0.31843190968E+02 -0.23669436387E+02  0.40659144306E+02  0.00000000000E+00 0. -1.
         11    1    3    3    0    0  0.22798258787E+00 -0.37821870516E+01 -0.10914122504E+01  0.39431073933E+01  0.51100000000E-03 0. -1.
        -11    1    3    3    0    0  0.89625750788E+01  0.90546606848E+01  0.61708506759E+01  0.14156059850E+02  0.51100000000E-03 0.  1.
        -12    1    3    3    0    0 -0.30602133632E+00  0.26570717335E+02  0.18589997962E+02  0.32429688450E+02  0.00000000000E+00 0.  1.
</event>
<event>
 7    1  0.2639126E-011  0.5052886E+02  0.7816164E-02  0.1300439E+00
        -11   -1    0    0    0    0  0.00000000000E+00  0.00000000000E+00  0.45593999997E+02  0.45594000000E+02  0.51100000000E-03 0.  1.
         11   -1    0    0    0    0 -0.00000000000E+00 -0.00000000000E+00 -0.45593999997E+02  0.45594000000E+02  0.51100000000E-03 0. -1.
    9900012    2    1    2    0    0  0.27620778833E+02  0.82438937857E+01  0.28675715030E+02  0.50528857847E+02  0.29999993912E+02 0.  0.
         12    1    1    2    0    0 -0.27620778833E+02 -0.82438937857E+01 -0.28675715030E+02  0.40659142153E+02  0.00000000000E+00 0. -1.
         11    1    3    3    0    0  0.26409874565E+00 -0.39881197568E+01  0.12103870943E+02  0.12746707002E+02  0.51100000000E-03 0. -1.
        -11    1    3    3    0    0  0.41883603288E+00  0.51543086408E+01 -0.36579990503E+00  0.51842194223E+01  0.51100000000E-03 0.  1.
        -12    1    3    3    0    0  0.26937844055E+02  0.70777049017E+01  0.16937643993E+02  0.32597931422E+02  0.00000000000E+00 0.  1.
</event>
<event>
 7    1  0.2639126E-011  0.5052881E+02  0.7816164E-02  0.1300439E+00
        -11   -1    0    0    0    0  0.00000000000E+00  0.00000000000E+00  0.45593999997E+02  0.45594000000E+02  0.51100000000E-03 0.  1.
         11   -1    0    0    0    0 -0.00000000000E+00 -0.00000000000E+00 -0.45593999997E+02  0.45594000000E+02  0.51100000000E-03 0. -1.
    9900012    2    1    2    0    0 -0.12348432941E+02  0.32782455957E+02  0.20639684717E+02  0.50528809159E+02  0.29999845918E+02 0.  0.
         12    1    1    2    0    0  0.12348432941E+02 -0.32782455957E+02 -0.20639684717E+02  0.40659190841E+02  0.00000000000E+00 0. -1.
         11    1    3    3    0    0  0.21830746428E+01  0.67698591788E+01  0.31722049097E+01  0.77884332473E+01  0.51100000000E-03 0. -1.
        -11    1    3    3    0    0 -0.42273889829E+01  0.26676799158E+02  0.17905308846E+02  0.32405593901E+02  0.51100000000E-03 0.  1.
        -12    1    3    3    0    0 -0.10304118601E+02 -0.66420237975E+00 -0.43782903926E+00  0.10334782011E+02  0.00000000000E+00 0.  1.
</event>
<event>
 7    1  0.2639126E-011  0.5052873E+02  0.7816164E-02  0.1300439E+00
        -11   -1    0    0    0    0  0.00000000000E+00  0.00000000000E+00  0.45593999997E+02  0.45594000000E+02  0.51100000000E-03 0.  1.
         11   -1    0    0    0    0 -0.00000000000E+00 -0.00000000000E+00 -0.45593999997E+02  0.45594000000E+02  0.51100000000E-03 0. -1.
    9900012    2    1    2    0    0  0.25400781754E+02 -0.28458024533E+02  0.14075403704E+02  0.50528734593E+02  0.29999619265E+02 0.  0.
         12    1    1    2    0    0 -0.25400781754E+02  0.28458024533E+02 -0.14075403704E+02  0.40659265407E+02  0.00000000000E+00 0. -1.
         11    1    3    3    0    0  0.82799729436E+01 -0.18252986284E+02  0.10221572124E+02  0.22499111030E+02  0.51100000000E-03 0. -1.
        -11    1    3    3    0    0  0.17668922397E+01 -0.52811571486E+01  0.94442474796E+01  0.10963865182E+02  0.51100000000E-03 0.  1.
         12    1    3    3    0    0  0.15353916571E+02 -0.49238811011E+01 -0.55904158999E+01  0.17065758380E+02  0.00000000000E+00 0. -1.
</event>
<event>
 7    1  0.2639126E-011  0.5052886E+02  0.7816164E-02  0.1300439E+00
        -11   -1    0    0    0    0  0.00000000000E+00  0.00000000000E+00  0.45593999997E+02  0.45594000000E+02  0.51100000000E-03 0.  1.
         11   -1    0    0    0    0 -0.00000000000E+00 -0.00000000000E+00 -0.45593999997E+02  0.45594000000E+02  0.51100000000E-03 0. -1.
    9900012    2    1    2    0    0  0.12555953318E+02  0.11729794605E+01  0.38654074032E+02  0.50528864694E+02  0.30000014725E+02 0.  0.
         12    1    1    2    0    0 -0.12555953318E+02 -0.11729794605E+01 -0.38654074032E+02  0.40659135306E+02  0.00000000000E+00 0. -1.
         11    1    3    3    0    0  0.10298521789E+02 -0.14380490289E+01  0.16676152008E+02  0.19652521011E+02  0.51100000000E-03 0. -1.
        -11    1    3    3    0    0  0.80240360740E+01 -0.68796265676E+01  0.10201916225E+02  0.14689911897E+02  0.51100000000E-03 0.  1.
         12    1    3    3    0    0 -0.57666045446E+01  0.94906550569E+01  0.11776005799E+02  0.16186431786E+02  0.00000000000E+00 0. -1.
</event>
<event>
 7    1  0.2639126E-011  0.5052886E+02  0.7816164E-02  0.1300439E+00
        -11   -1    0    0    0    0  0.00000000000E+00  0.00000000000E+00  0.45593999997E+02  0.45594000000E+02  0.51100000000E-03 0. -1.
         11   -1    0    0    0    0 -0.00000000000E+00 -0.00000000000E+00 -0.45593999997E+02  0.45594000000E+02  0.51100000000E-03 0.  1.
    9900012    2    1    2    0    0 -0.17974206482E+02  0.20613146397E+02 -0.30086407549E+02  0.50528858073E+02  0.29999994599E+02 0.  0.
         12    1    1    2    0    0  0.17974206482E+02 -0.20613146397E+02  0.30086407549E+02  0.40659141927E+02  0.00000000000E+00 0. -1.
         11    1    3    3    0    0 -0.11073031020E+02  0.92578700477E+01 -0.17783149370E+01  0.14542440582E+02  0.51100000000E-03 0. -1.
        -11    1    3    3    0    0  0.30173946982E+01  0.99535517771E+01 -0.72837622997E+01  0.12697679207E+02  0.51100000000E-03 0.  1.
         12    1    3    3    0    0 -0.99185701598E+01  0.14017245721E+01 -0.21024330312E+02  0.23288738284E+02  0.00000000000E+00 0. -1.
</event>
<event>
 7    1  0.2639126E-011  0.5052885E+02  0.7816164E-02  0.1300439E+00
        -11   -1    0    0    0    0  0.00000000000E+00  0.00000000000E+00  0.45593999997E+02  0.45594000000E+02  0.51100000000E-03 0. -1.
         11   -1    0    0    0    0 -0.00000000000E+00 -0.00000000000E+00 -0.45593999997E+02  0.45594000000E+02  0.51100000000E-03 0.  1.
    9900012    2    1    2    0    0  0.29021987313E+02 -0.27755548855E+02  0.63655655301E+01  0.50528847717E+02  0.29999963120E+02 0.  0.
         12    1    1    2    0    0 -0.29021987313E+02  0.27755548855E+02 -0.63655655301E+01  0.40659152283E+02  0.00000000000E+00 0. -1.
         11    1    3    3    0    0  0.76754449589E+01 -0.19483453705E+02 -0.43826572972E+01  0.21394511185E+02  0.51100000000E-03 0. -1.
        -11    1    3    3    0    0  0.74352646400E+01 -0.29693155658E+01 -0.33049415834E+01  0.86615607328E+01  0.51100000000E-03 0.  1.
         12    1    3    3    0    0  0.13911277714E+02 -0.53027795839E+01  0.14053164411E+02  0.20472775799E+02  0.00000000000E+00 0. -1.
</event>
<event>
 7    1  0.2639126E-011  0.5052886E+02  0.7816164E-02  0.1300439E+00
        -11   -1    0    0    0    0  0.00000000000E+00  0.00000000000E+00  0.45593999997E+02  0.45594000000E+02  0.51100000000E-03 0.  1.
         11   -1    0    0    0    0 -0.00000000000E+00 -0.00000000000E+00 -0.45593999997E+02  0.45594000000E+02  0.51100000000E-03 0. -1.
    9900012    2    1    2    0    0 -0.15944169931E+02 -0.29763144975E+02  0.22651806114E+02  0.50528859898E+02  0.30000000146E+02 0.  0.
         12    1    1    2    0    0  0.15944169931E+02  0.29763144975E+02 -0.22651806114E+02  0.40659140102E+02  0.00000000000E+00 0. -1.
         11    1    3    3    0    0  0.17517435669E+01 -0.96646190183E+01  0.16698003796E+02  0.19372578489E+02  0.51100000000E-03 0. -1.
        -11    1    3    3    0    0  0.69620033707E+00  0.18296987030E+01  0.25503300956E+00  0.19742174020E+01  0.51100000000E-03 0.  1.
        -12    1    3    3    0    0 -0.18392113835E+02 -0.21928224660E+02  0.56987693089E+01  0.29182064007E+02  0.00000000000E+00 0.  1.
</event>
<event>
 7    1  0.2639126E-011  0.5052885E+02  0.7816164E-02  0.1300439E+00
        -11   -1    0    0    0    0  0.00000000000E+00  0.00000000000E+00  0.45593999997E+02  0.45594000000E+02  0.51100000000E-03 0. -1.
         11   -1    0    0    0    0 -0.00000000000E+00 -0.00000000000E+00 -0.45593999997E+02  0.45594000000E+02  0.51100000000E-03 0.  1.
    9900012    2    1    2    0    0 -0.16108248336E+02 -0.33001678669E+02  0.17452212725E+02  0.50528853570E+02  0.29999980911E+02 0.  0.
         12    1    1    2    0    0  0.16108248336E+02  0.33001678669E+02 -0.17452212725E+02  0.40659146430E+02  0.00000000000E+00 0. -1.
         11    1    3    3    0    0 -0.13594440266E+02 -0.72626449887E+01  0.97825054753E+01  0.18255197398E+02  0.51100000000E-03 0. -1.
        -11    1    3    3    0    0 -0.86381863604E+01 -0.22068376072E+02  0.33655759556E+01  0.23936553382E+02  0.51100000000E-03 0.  1.
         12    1    3    3    0    0  0.61243782911E+01 -0.36706576088E+01  0.43041312945E+01  0.83371027902E+01  0.00000000000E+00 0. -1.
</event>
<event>
 7    1  0.2639126E-011  0.5052886E+02  0.7816164E-02  0.1300439E+00
        -11   -1    0    0    0    0  0.00000000000E+00  0.00000000000E+00  0.45593999997E+02  0.45594000000E+02  0.51100000000E-03 0.  1.
         11   -1    0    0    0    0 -0.00000000000E+00 -0.00000000000E+00 -0.45593999997E+02  0.45594000000E+02  0.51100000000E-03 0. -1.
    9900012    2    1    2    0    0  0.50864456964E+01 -0.19184451584E+02  0.35485920175E+02  0.50528860276E+02  0.30000001296E+02 0.  0.
         12    1    1    2    0    0 -0.50864456964E+01  0.19184451584E+02 -0.35485920175E+02  0.40659139724E+02  0.00000000000E+00 0. -1.
         11    1    3    3    0    0  0.11189447181E+02 -0.96142095779E+01  0.26291947874E+02  0.30148022776E+02  0.51100000000E-03 0. -1.
        -11    1    3    3    0    0  0.33514477876E+01 -0.42507154774E+01  0.77262796267E+01  0.94337787483E+01  0.51100000000E-03 0.  1.
         12    1    3    3    0    0 -0.94544492723E+01 -0.53195265284E+01  0.14676926745E+01  0.10947058752E+02  0.00000000000E+00 0. -1.
</event>
<event>
 7    1  0.2639126E-011  0.5052887E+02  0.7816164E-02  0.1300439E+00
        -11   -1    0    0    0    0  0.00000000000E+00  0.00000000000E+00  0.45593999997E+02  0.45594000000E+02  0.51100000000E-03 0.  1.
         11   -1    0    0    0    0 -0.00000000000E+00 -0.00000000000E+00 -0.45593999997E+02  0.45594000000E+02  0.51100000000E-03 0. -1.
    9900012    2    1    2    0    0 -0.10776022620E+02 -0.34700994225E+02 -0.18245090934E+02  0.50528868100E+02  0.30000025076E+02 0.  0.
         12    1    1    2    0    0  0.10776022620E+02  0.34700994225E+02  0.18245090934E+02  0.40659131900E+02  0.00000000000E+00 0. -1.
         11    1    3    3    0    0  0.81589479454E+00 -0.34118696273E+01 -0.17682457150E-01  0.35081122559E+01  0.51100000000E-03 0. -1.
        -11    1    3    3    0    0 -0.20017682245E+02 -0.25086838618E+02 -0.97143307279E+01  0.33532451387E+02  0.51100000000E-03 0.  1.
         12    1    3    3    0    0  0.84257648305E+01 -0.62022859793E+01 -0.85130777491E+01  0.13488304456E+02  0.00000000000E+00 0. -1.
</event>
<event>
 7    1  0.2639126E-011  0.5052887E+02  0.7816164E-02  0.1300439E+00
        -11   -1    0    0    0    0  0.00000000000E+00  0.00000000000E+00  0.45593999997E+02  0.45594000000E+02  0.51100000000E-03 0.  1.
         11   -1    0    0    0    0 -0.00000000000E+00 -0.00000000000E+00 -0.45593999997E+02  0.45594000000E+02  0.51100000000E-03 0. -1.
    9900012    2    1    2    0    0 -0.21132836688E+02  0.89762903624E+01  0.33555839037E+02  0.50528869308E+02  0.30000028748E+02 0.  0.
         12    1    1    2    0    0  0.21132836688E+02 -0.89762903624E+01 -0.33555839037E+02  0.40659130692E+02  0.00000000000E+00 0. -1.
         11    1    3    3    0    0 -0.23294298720E+02  0.13712428558E+01  0.24399734066E+02  0.33761689569E+02  0.51100000000E-03 0. -1.
        -11    1    3    3    0    0 -0.41634436159E+01  0.59770557919E+00  0.47660041213E+01  0.63565958065E+01  0.51100000000E-03 0.  1.
         12    1    3    3    0    0  0.63249056475E+01  0.70073419274E+01  0.43901008500E+01  0.10410583932E+02  0.00000000000E+00 0. -1.
</event>
<event>
 7    1  0.2639126E-011  0.5052886E+02  0.7816164E-02  0.1300439E+00
        -11   -1    0    0    0    0  0.00000000000E+00  0.00000000000E+00  0.45593999997E+02  0.45594000000E+02  0.51100000000E-03 0.  1.
         11   -1    0    0    0    0 -0.00000000000E+00 -0.00000000000E+00 -0.45593999997E+02  0.45594000000E+02  0.51100000000E-03 0. -1.
    9900012    2    1    2    0    0  0.52929095264E+01  0.29821998075E+02  0.27125618398E+02  0.50528860389E+02  0.30000001638E+02 0.  0.
         12    1    1    2    0    0 -0.52929095264E+01 -0.29821998075E+02 -0.27125618398E+02  0.40659139611E+02  0.00000000000E+00 0. -1.
         11    1    3    3    0    0 -0.44007780048E+01 -0.87387390441E+00 -0.14283423641E+01  0.47085735439E+01  0.51100000000E-03 0. -1.
        -11    1    3    3    0    0  0.85932333969E+01  0.71288975598E+01  0.14704071499E+02  0.18462788509E+02  0.51100000000E-03 0.  1.
        -12    1    3    3    0    0  0.11004541343E+01  0.23566974419E+02  0.13849889264E+02  0.27357498336E+02  0.00000000000E+00 0.  1.
</event>
<event>
 7    1  0.2639126E-011  0.5052890E+02  0.7816164E-02  0.1300439E+00
        -11   -1    0    0    0    0  0.00000000000E+00  0.00000000000E+00  0.45593999997E+02  0.45594000000E+02  0.51100000000E-03 0. -1.
         11   -1    0    0    0    0 -0.00000000000E+00 -0.00000000000E+00 -0.45593999997E+02  0.45594000000E+02  0.51100000000E-03 0.  1.
    9900012    2    1    2    0    0 -0.19492175918E+02  0.21634629259E+02 -0.28375353899E+02  0.50528895065E+02  0.30000107040E+02 0.  0.
         12    1    1    2    0    0  0.19492175918E+02 -0.21634629259E+02  0.28375353899E+02  0.40659104935E+02  0.00000000000E+00 0. -1.
         11    1    3    3    0    0 -0.92954848162E+01  0.62770036107E+01 -0.23103551682E+02  0.25682307390E+02  0.51100000000E-03 0. -1.
        -11    1    3    3    0    0  0.29779789162E+00  0.11430950298E+02 -0.71485771849E+01  0.13485453805E+02  0.51100000000E-03 0.  1.
         12    1    3    3    0    0 -0.10494488993E+02  0.39266753504E+01  0.18767749674E+01  0.11361133870E+02  0.00000000000E+00 0. -1.
</event>
<event>
 7    1  0.2639126E-011  0.5052886E+02  0.7816164E-02  0.1300439E+00
        -11   -1    0    0    0    0  0.00000000000E+00  0.00000000000E+00  0.45593999997E+02  0.45594000000E+02  0.51100000000E-03 0.  1.
         11   -1    0    0    0    0 -0.00000000000E+00 -0.00000000000E+00 -0.45593999997E+02  0.45594000000E+02  0.51100000000E-03 0. -1.
    9900012    2    1    2    0    0 -0.33570842989E+02  0.10975460601E+02  0.20142086748E+02  0.50528857203E+02  0.29999991954E+02 0.  0.
         12    1    1    2    0    0  0.33570842989E+02 -0.10975460601E+02 -0.20142086748E+02  0.40659142797E+02  0.00000000000E+00 0. -1.
         11    1    3    3    0    0 -0.12762913727E+02  0.15752182070E+02  0.41923320827E+01  0.20702629189E+02  0.51100000000E-03 0. -1.
        -11    1    3    3    0    0 -0.11723477442E+02  0.39131123637E+01  0.57209519128E+01  0.13619165274E+02  0.51100000000E-03 0.  1.
        -12    1    3    3    0    0 -0.90844518201E+01 -0.86898338332E+01  0.10228802753E+02  0.16207062741E+02  0.00000000000E+00 0.  1.
</event>
<event>
 7    1  0.2639126E-011  0.5052885E+02  0.7816164E-02  0.1300439E+00
        -11   -1    0    0    0    0  0.00000000000E+00  0.00000000000E+00  0.45593999997E+02  0.45594000000E+02  0.51100000000E-03 0. -1.
         11   -1    0    0    0    0 -0.00000000000E+00 -0.00000000000E+00 -0.45593999997E+02  0.45594000000E+02  0.51100000000E-03 0.  1.
    9900012    2    1    2    0    0  0.39650586175E+02 -0.88153238041E+01  0.18132372633E+01  0.50528846699E+02  0.29999960027E+02 0.  0.
         12    1    1    2    0    0 -0.39650586175E+02  0.88153238041E+01 -0.18132372633E+01  0.40659153301E+02  0.00000000000E+00 0. -1.
         11    1    3    3    0    0  0.19267842818E+02  0.47461463166E+01 -0.47032067795E+01  0.20393524119E+02  0.51100000000E-03 0. -1.
        -11    1    3    3    0    0  0.16542370888E+02 -0.44736107232E+01 -0.18012283851E+01  0.17231008428E+02  0.51100000000E-03 0.  1.
         12    1    3    3    0    0  0.38403724690E+01 -0.90878593975E+01  0.83176724280E+01  0.12904314153E+02  0.00000000000E+00 0. -1.
</event>
<event>
 7    1  0.2639126E-011  0.5052886E+02  0.7816164E-02  0.1300439E+00
        -11   -1    0    0    0    0  0.00000000000E+00  0.00000000000E+00  0.45593999997E+02  0.45594000000E+02  0.51100000000E-03 0. -1.
         11   -1    0    0    0    0 -0.00000000000E+00 -0.00000000000E+00 -0.45593999997E+02  0.45594000000E+02  0.51100000000E-03 0.  1.
    9900012    2    1    2    0    0 -0.30607479102E+02  0.16860423475E+02 -0.20786395459E+02  0.50528857204E+02  0.29999991956E+02 0.  0.
         12    1    1    2    0    0  0.30607479102E+02 -0.16860423475E+02  0.20786395459E+02  0.40659142796E+02  0.00000000000E+00 0. -1.
         11    1    3    3    0    0 -0.18130711532E+02  0.73571123968E+01 -0.45593309251E+01  0.20090726772E+02  0.51100000000E-03 0. -1.
        -11    1    3    3    0    0 -0.18162548735E+02  0.69765833372E+01 -0.13257788241E+02  0.23543997981E+02  0.51100000000E-03 0.  1.
        -12    1    3    3    0    0  0.56857811655E+01  0.25267277414E+01 -0.29692762929E+01  0.68941324505E+01  0.00000000000E+00 0.  1.
</event>
<event>
 7    1  0.2639126E-011  0.5052886E+02  0.7816164E-02  0.1300439E+00
        -11   -1    0    0    0    0  0.00000000000E+00  0.00000000000E+00  0.45593999997E+02  0.45594000000E+02  0.51100000000E-03 0.  1.
         11   -1    0    0    0    0 -0.00000000000E+00 -0.00000000000E+00 -0.45593999997E+02  0.45594000000E+02  0.51100000000E-03 0. -1.
    9900012    2    1    2    0    0 -0.33923735615E+02  0.21755543159E+02 -0.53890422839E+01  0.50528864828E+02  0.30000015132E+02 0.  0.
         12    1    1    2    0    0  0.33923735615E+02 -0.21755543159E+02  0.53890422839E+01  0.40659135172E+02  0.00000000000E+00 0. -1.
         11    1    3    3    0    0 -0.14948978126E+01 -0.17102537754E+01 -0.34173840121E+01  0.41034377288E+01  0.51100000000E-03 0. -1.
        -11    1    3    3    0    0 -0.28122499302E+02  0.98829950737E+01 -0.81377728804E+01  0.30899383591E+02  0.51100000000E-03 0.  1.
         12    1    3    3    0    0 -0.43063385006E+01  0.13582801860E+02  0.61661146086E+01  0.15526043508E+02  0.00000000000E+00 0. -1.
</event>
<event>
 7    1  0.2639126E-011  0.5052886E+02  0.7816164E-02  0.1300439E+00
        -11   -1    0    0    0    0  0.00000000000E+00  0.00000000000E+00  0.45593999997E+02  0.45594000000E+02  0.51100000000E-03 0.  1.
         11   -1    0    0    0    0 -0.00000000000E+00 -0.00000000000E+00 -0.45593999997E+02  0.45594000000E+02  0.51100000000E-03 0. -1.
    9900012    2    1    2    0    0  0.25002455748E+02  0.23400448735E+02  0.21919442516E+02  0.50528858904E+02  0.29999997125E+02 0.  0.
         12    1    1    2    0    0 -0.25002455748E+02 -0.23400448735E+02 -0.21919442516E+02  0.40659141096E+02  0.00000000000E+00 0. -1.
         11    1    3    3    0    0 -0.33790919340E+01 -0.99911377564E+00 -0.20502750166E+01  0.40767779606E+01  0.51100000000E-03 0. -1.
        -11    1    3    3    0    0 -0.11268499188E+01 -0.39605003666E+00  0.11618374861E+01  0.16662871830E+01  0.51100000000E-03 0.  1.
        -12    1    3    3    0    0  0.29508397601E+02  0.24795612547E+02  0.22807880047E+02  0.44785793761E+02  0.00000000000E+00 0.  1.
</event>
<event>
 7    1  0.2639126E-011  0.5052887E+02  0.7816164E-02  0.1300439E+00
        -11   -1    0    0    0    0  0.00000000000E+00  0.00000000000E+00  0.45593999997E+02  0.45594000000E+02  0.51100000000E-03 0.  1.
         11   -1    0    0    0    0 -0.00000000000E+00 -0.00000000000E+00 -0.45593999997E+02  0.45594000000E+02  0.51100000000E-03 0. -1.
    9900012    2    1    2    0    0  0.18792151045E+02 -0.18452568008E+02  0.30976167941E+02  0.50528865881E+02  0.30000018331E+02 0.  0.
         12    1    1    2    0    0 -0.18792151045E+02  0.18452568008E+02 -0.30976167941E+02  0.40659134119E+02  0.00000000000E+00 0. -1.
         11    1    3    3    0    0 -0.15556218690E+01  0.22742635453E+00 -0.10680742953E+01  0.19006486017E+01  0.51100000000E-03 0. -1.
        -11    1    3    3    0    0  0.74451617467E+01  0.54185243132E+01  0.89921192583E+01  0.12870471949E+02  0.51100000000E-03 0.  1.
        -12    1    3    3    0    0  0.12902611167E+02 -0.24098518676E+02  0.23052122978E+02  0.35757745330E+02  0.00000000000E+00 0.  1.
</event>
<event>
 7    1  0.2639126E-011  0.5052885E+02  0.7816164E-02  0.1300439E+00
        -11   -1    0    0    0    0  0.00000000000E+00  0.00000000000E+00  0.45593999997E+02  0.45594000000E+02  0.51100000000E-03 0.  1.
         11   -1    0    0    0    0 -0.00000000000E+00 -0.00000000000E+00 -0.45593999997E+02  0.45594000000E+02  0.51100000000E-03 0. -1.
    9900012    2    1    2    0    0  0.25802981226E+02 -0.29383094545E+01  0.31284802968E+02  0.50528850976E+02  0.29999973028E+02 0.  0.
         12    1    1    2    0    0 -0.25802981226E+02  0.29383094545E+01 -0.31284802968E+02  0.40659149024E+02  0.00000000000E+00 0. -1.
         11    1    3    3    0    0  0.12190221294E+01  0.10494843776E+02  0.59857493943E+01  0.12143185616E+02  0.51100000000E-03 0. -1.
        -11    1    3    3    0    0  0.81555114342E+01 -0.58044196083E+01  0.50313807365E+01  0.11203501512E+02  0.51100000000E-03 0.  1.
        -12    1    3    3    0    0  0.16428447662E+02 -0.76287336224E+01  0.20267672837E+02  0.27182163849E+02  0.00000000000E+00 0.  1.
</event>
<event>
 7    1  0.2639126E-011  0.5052887E+02  0.7816164E-02  0.1300439E+00
        -11   -1    0    0    0    0  0.00000000000E+00  0.00000000000E+00  0.45593999997E+02  0.45594000000E+02  0.51100000000E-03 0.  1.
         11   -1    0    0    0    0 -0.00000000000E+00 -0.00000000000E+00 -0.45593999997E+02  0.45594000000E+02  0.51100000000E-03 0. -1.
    9900012    2    1    2    0    0  0.34281080945E+02  0.63771168365E+01  0.20911840898E+02  0.50528865483E+02  0.30000017122E+02 0.  0.
         12    1    1    2    0    0 -0.34281080945E+02 -0.63771168365E+01 -0.20911840898E+02  0.40659134517E+02  0.00000000000E+00 0. -1.
         11    1    3    3    0    0  0.70748173352E+01  0.87052959823E+01 -0.12755442883E+01  0.11289917270E+02  0.51100000000E-03 0. -1.
        -11    1    3    3    0    0  0.98140815673E+01  0.66052255237E+01  0.13183741155E+02  0.17713165509E+02  0.51100000000E-03 0.  1.
         12    1    3    3    0    0  0.17392182043E+02 -0.89334046695E+01  0.90036440307E+01  0.21525782704E+02  0.00000000000E+00 0. -1.
</event>
<event>
 7    1  0.2639126E-011  0.5052886E+02  0.7816164E-02  0.1300439E+00
        -11   -1    0    0    0    0  0.00000000000E+00  0.00000000000E+00  0.45593999997E+02  0.45594000000E+02  0.51100000000E-03 0.  1.
         11   -1    0    0    0    0 -0.00000000000E+00 -0.00000000000E+00 -0.45593999997E+02  0.45594000000E+02  0.51100000000E-03 0. -1.
    9900012    2    1    2    0    0  0.37157495144E+02  0.23825577298E+01 -0.16334307564E+02  0.50528860433E+02  0.30000001772E+02 0.  0.
         12    1    1    2    0    0 -0.37157495144E+02 -0.23825577298E+01  0.16334307564E+02  0.40659139567E+02  0.00000000000E+00 0. -1.
         11    1    3    3    0    0  0.24091380530E+02  0.57168267008E+01 -0.14492315720E+02  0.28689788053E+02  0.51100000000E-03 0. -1.
        -11    1    3    3    0    0  0.13122912300E+02 -0.75547784729E+01  0.29779398005E+01  0.15432227018E+02  0.51100000000E-03 0.  1.
         12    1    3    3    0    0 -0.56797685661E-01  0.42205095019E+01 -0.48199316446E+01  0.64068453619E+01  0.00000000000E+00 0. -1.
</event>
<event>
 7    1  0.2639126E-011  0.5052886E+02  0.7816164E-02  0.1300439E+00
        -11   -1    0    0    0    0  0.00000000000E+00  0.00000000000E+00  0.45593999997E+02  0.45594000000E+02  0.51100000000E-03 0.  1.
         11   -1    0    0    0    0 -0.00000000000E+00 -0.00000000000E+00 -0.45593999997E+02  0.45594000000E+02  0.51100000000E-03 0. -1.
    9900012    2    1    2    0    0 -0.32011243095E+02 -0.19216945821E+02  0.16098289402E+02  0.50528860648E+02  0.30000002426E+02 0.  0.
         12    1    1    2    0    0  0.32011243095E+02  0.19216945821E+02 -0.16098289402E+02  0.40659139352E+02  0.00000000000E+00 0. -1.
         11    1    3    3    0    0 -0.10013658220E+02  0.44026957289E+00 -0.13615816399E+01  0.10115388923E+02  0.51100000000E-03 0. -1.
        -11    1    3    3    0    0 -0.14888110962E+02 -0.64923956391E+01 -0.14427420180E+01  0.16306089475E+02  0.51100000000E-03 0.  1.
         12    1    3    3    0    0 -0.71094739129E+01 -0.13164819755E+02  0.18902613060E+02  0.24107382251E+02  0.00000000000E+00 0. -1.
</event>
<event>
 7    1  0.2639126E-011  0.5052888E+02  0.7816164E-02  0.1300439E+00
        -11   -1    0    0    0    0  0.00000000000E+00  0.00000000000E+00  0.45593999997E+02  0.45594000000E+02  0.51100000000E-03 0.  1.
         11   -1    0    0    0    0 -0.00000000000E+00 -0.00000000000E+00 -0.45593999997E+02  0.45594000000E+02  0.51100000000E-03 0. -1.
    9900012    2    1    2    0    0 -0.24057176951E+02  0.14396211586E+02  0.29447670375E+02  0.50528880956E+02  0.30000064154E+02 0.  0.
         12    1    1    2    0    0  0.24057176951E+02 -0.14396211586E+02 -0.29447670375E+02  0.40659119044E+02  0.00000000000E+00 0. -1.
         11    1    3    3    0    0 -0.16152678241E+02  0.57113680416E+01  0.78173406109E+01  0.18831876002E+02  0.51100000000E-03 0.  1.
        -11    1    3    3    0    0 -0.12816652896E+02 -0.31863312928E-01  0.93938653133E+01  0.15890636001E+02  0.51100000000E-03 0. -1.
         12    1    3    3    0    0  0.49121541870E+01  0.87167068576E+01  0.12236464451E+02  0.15806368953E+02  0.00000000000E+00 0. -1.
</event>
<event>
 7    1  0.2639126E-011  0.5052884E+02  0.7816164E-02  0.1300439E+00
        -11   -1    0    0    0    0  0.00000000000E+00  0.00000000000E+00  0.45593999997E+02  0.45594000000E+02  0.51100000000E-03 0.  1.
         11   -1    0    0    0    0 -0.00000000000E+00 -0.00000000000E+00 -0.45593999997E+02  0.45594000000E+02  0.51100000000E-03 0. -1.
    9900012    2    1    2    0    0 -0.22785514123E+02  0.13536971208E+01  0.33647517987E+02  0.50528836009E+02  0.29999927533E+02 0.  0.
         12    1    1    2    0    0  0.22785514123E+02 -0.13536971208E+01 -0.33647517987E+02  0.40659163991E+02  0.00000000000E+00 0. -1.
         11    1    3    3    0    0 -0.81816398020E-01  0.60897238635E+01  0.41045335119E+01  0.73442920876E+01  0.51100000000E-03 0.  1.
        -11    1    3    3    0    0 -0.12317929411E+01 -0.77361090781E+01  0.19127395796E+01  0.80637007930E+01  0.51100000000E-03 0. -1.
        -12    1    3    3    0    0 -0.21471904784E+02  0.30000823353E+01  0.27630244895E+02  0.35120843129E+02  0.00000000000E+00 0.  1.
</event>
<event>
 7    1  0.2639126E-011  0.5052887E+02  0.7816164E-02  0.1300439E+00
        -11   -1    0    0    0    0  0.00000000000E+00  0.00000000000E+00  0.45593999997E+02  0.45594000000E+02  0.51100000000E-03 0.  1.
         11   -1    0    0    0    0 -0.00000000000E+00 -0.00000000000E+00 -0.45593999997E+02  0.45594000000E+02  0.51100000000E-03 0. -1.
    9900012    2    1    2    0    0 -0.19495163780E+02  0.23030107679E+01  0.35606179027E+02  0.50528865057E+02  0.30000015826E+02 0.  0.
         12    1    1    2    0    0  0.19495163780E+02 -0.23030107679E+01 -0.35606179027E+02  0.40659134943E+02  0.00000000000E+00 0. -1.
         11    1    3    3    0    0 -0.65231542612E+01  0.23759083271E+01 -0.10490310589E+01  0.70211785561E+01  0.51100000000E-03 0. -1.
        -11    1    3    3    0    0  0.33180724196E+01 -0.22546747277E+01  0.18867705052E+02  0.19289464920E+02  0.51100000000E-03 0.  1.
         12    1    3    3    0    0 -0.16290081939E+02  0.21817771685E+01  0.17787505034E+02  0.24218221580E+02  0.00000000000E+00 0. -1.
</event>
<event>
 7    1  0.2639126E-011  0.5052888E+02  0.7816164E-02  0.1300439E+00
        -11   -1    0    0    0    0  0.00000000000E+00  0.00000000000E+00  0.45593999997E+02  0.45594000000E+02  0.51100000000E-03 0. -1.
         11   -1    0    0    0    0 -0.00000000000E+00 -0.00000000000E+00 -0.45593999997E+02  0.45594000000E+02  0.51100000000E-03 0.  1.
    9900012    2    1    2    0    0 -0.17781770261E+02  0.61350375505E+01 -0.36046276446E+02  0.50528879436E+02  0.30000059534E+02 0.  0.
         12    1    1    2    0    0  0.17781770261E+02 -0.61350375505E+01  0.36046276446E+02  0.40659120564E+02  0.00000000000E+00 0. -1.
         11    1    3    3    0    0  0.39809887671E+01  0.59826667691E+01 -0.21487914009E+02  0.22657692335E+02  0.51100000000E-03 0. -1.
        -11    1    3    3    0    0 -0.32866198927E+01  0.17145943926E+01  0.80254803245E+00  0.37928601155E+01  0.51100000000E-03 0.  1.
        -12    1    3    3    0    0 -0.18476139135E+02 -0.15622236112E+01 -0.15360910470E+02  0.24078326986E+02  0.00000000000E+00 0.  1.
</event>
<event>
 7    1  0.2639126E-011  0.5052885E+02  0.7816164E-02  0.1300439E+00
        -11   -1    0    0    0    0  0.00000000000E+00  0.00000000000E+00  0.45593999997E+02  0.45594000000E+02  0.51100000000E-03 0.  1.
         11   -1    0    0    0    0 -0.00000000000E+00 -0.00000000000E+00 -0.45593999997E+02  0.45594000000E+02  0.51100000000E-03 0. -1.
    9900012    2    1    2    0    0  0.99052928664E+01 -0.38767962865E+02  0.72177965946E+01  0.50528851470E+02  0.29999974529E+02 0.  0.
         12    1    1    2    0    0 -0.99052928664E+01  0.38767962865E+02 -0.72177965946E+01  0.40659148530E+02  0.00000000000E+00 0. -1.
         11    1    3    3    0    0 -0.13346300838E+01 -0.23681744075E+01 -0.43479788740E+00  0.27529142647E+01  0.51100000000E-03 0. -1.
        -11    1    3    3    0    0  0.10188959862E+02 -0.32462600851E+02  0.16664221451E+02  0.37885770863E+02  0.51100000000E-03 0.  1.
        -12    1    3    3    0    0  0.10509630886E+01 -0.39371876068E+01 -0.90116269685E+01  0.98901663426E+01  0.00000000000E+00 0.  1.
</event>
<event>
 7    1  0.2639126E-011  0.5052886E+02  0.7816164E-02  0.1300439E+00
        -11   -1    0    0    0    0  0.00000000000E+00  0.00000000000E+00  0.45593999997E+02  0.45594000000E+02  0.51100000000E-03 0.  1.
         11   -1    0    0    0    0 -0.00000000000E+00 -0.00000000000E+00 -0.45593999997E+02  0.45594000000E+02  0.51100000000E-03 0. -1.
    9900012    2    1    2    0    0  0.35408472722E+02 -0.84390930168E+01  0.18115947170E+02  0.50528858674E+02  0.29999996427E+02 0.  0.
         12    1    1    2    0    0 -0.35408472722E+02  0.84390930168E+01 -0.18115947170E+02  0.40659141326E+02  0.00000000000E+00 0. -1.
         11    1    3    3    0    0  0.14726508877E+02 -0.26446312703E-01  0.71923145207E+01  0.16389025339E+02  0.51100000000E-03 0. -1.
        -11    1    3    3    0    0  0.11162207067E+02  0.66260005239E+01  0.98759506648E+01  0.16310522718E+02  0.51100000000E-03 0.  1.
         12    1    3    3    0    0  0.95197567783E+01 -0.15038647228E+02  0.10476819844E+01  0.17829310618E+02  0.00000000000E+00 0. -1.
</event>
<event>
 7    1  0.2639126E-011  0.5052889E+02  0.7816164E-02  0.1300439E+00
        -11   -1    0    0    0    0  0.00000000000E+00  0.00000000000E+00  0.45593999997E+02  0.45594000000E+02  0.51100000000E-03 0.  1.
         11   -1    0    0    0    0 -0.00000000000E+00 -0.00000000000E+00 -0.45593999997E+02  0.45594000000E+02  0.51100000000E-03 0. -1.
    9900012    2    1    2    0    0 -0.58167298573E+01  0.13021873714E+02  0.38075715095E+02  0.50528885139E+02  0.30000076869E+02 0.  0.
         12    1    1    2    0    0  0.58167298573E+01 -0.13021873714E+02 -0.38075715095E+02  0.40659114861E+02  0.00000000000E+00 0. -1.
         11    1    3    3    0    0  0.42080958955E+01  0.35627520288E+01  0.66249293618E+01  0.86192205213E+01  0.51100000000E-03 0. -1.
        -11    1    3    3    0    0 -0.84242932188E-01  0.13118959348E+02  0.61667513833E+01  0.14496310362E+02  0.51100000000E-03 0.  1.
         12    1    3    3    0    0 -0.99405828207E+01 -0.36598376627E+01  0.25284034350E+02  0.27413354256E+02  0.00000000000E+00 0. -1.
</event>
<event>
 7    1  0.2639126E-011  0.5052886E+02  0.7816164E-02  0.1300439E+00
        -11   -1    0    0    0    0  0.00000000000E+00  0.00000000000E+00  0.45593999997E+02  0.45594000000E+02  0.51100000000E-03 0.  1.
         11   -1    0    0    0    0 -0.00000000000E+00 -0.00000000000E+00 -0.45593999997E+02  0.45594000000E+02  0.51100000000E-03 0. -1.
    9900012    2    1    2    0    0  0.35547328282E+02  0.83842251035E+01 -0.17867787551E+02  0.50528860676E+02  0.30000002512E+02 0.  0.
         12    1    1    2    0    0 -0.35547328282E+02 -0.83842251035E+01  0.17867787551E+02  0.40659139324E+02  0.00000000000E+00 0. -1.
         11    1    3    3    0    0  0.36511035410E+01  0.47909278735E+01 -0.13710245114E+02  0.14975124985E+02  0.51100000000E-03 0. -1.
        -11    1    3    3    0    0  0.64803427032E+01  0.68915685017E+01 -0.28980814764E+01  0.98938078852E+01  0.51100000000E-03 0.  1.
        -12    1    3    3    0    0  0.25415882037E+02 -0.32982712717E+01 -0.12594609607E+01  0.25659927806E+02  0.00000000000E+00 0.  1.
</event>
<event>
 7    1  0.2639126E-011  0.5052886E+02  0.7816164E-02  0.1300439E+00
        -11   -1    0    0    0    0  0.00000000000E+00  0.00000000000E+00  0.45593999997E+02  0.45594000000E+02  0.51100000000E-03 0.  1.
         11   -1    0    0    0    0 -0.00000000000E+00 -0.00000000000E+00 -0.45593999997E+02  0.45594000000E+02  0.51100000000E-03 0. -1.
    9900012    2    1    2    0    0  0.86700973071E+01 -0.68127426896E+01  0.39135422029E+02  0.50528864401E+02  0.30000013834E+02 0.  0.
         12    1    1    2    0    0 -0.86700973071E+01  0.68127426896E+01 -0.39135422029E+02  0.40659135599E+02  0.00000000000E+00 0. -1.
         11    1    3    3    0    0 -0.16927506009E+01 -0.24969958190E+01  0.21897983468E+01  0.37276815553E+01  0.51100000000E-03 0. -1.
        -11    1    3    3    0    0  0.58921641608E+00  0.13855577615E+01  0.35340922289E+02  0.35372980292E+02  0.51100000000E-03 0.  1.
         12    1    3    3    0    0  0.97736314919E+01 -0.57013046320E+01  0.16047013933E+01  0.11428202554E+02  0.00000000000E+00 0. -1.
</event>
<event>
 7    1  0.2639126E-011  0.5052886E+02  0.7816164E-02  0.1300439E+00
        -11   -1    0    0    0    0  0.00000000000E+00  0.00000000000E+00  0.45593999997E+02  0.45594000000E+02  0.51100000000E-03 0.  1.
         11   -1    0    0    0    0 -0.00000000000E+00 -0.00000000000E+00 -0.45593999997E+02  0.45594000000E+02  0.51100000000E-03 0. -1.
    9900012    2    1    2    0    0  0.36226440508E+02  0.12123073071E+02  0.13922713589E+02  0.50528857778E+02  0.29999993702E+02 0.  0.
         12    1    1    2    0    0 -0.36226440508E+02 -0.12123073071E+02 -0.13922713589E+02  0.40659142222E+02  0.00000000000E+00 0. -1.
         11    1    3    3    0    0 -0.10919573764E+01 -0.21397864341E+01  0.34453286389E+01  0.42001603049E+01  0.51100000000E-03 0. -1.
        -11    1    3    3    0    0  0.19840916508E+02  0.10355806003E+02  0.16086144516E+02  0.27562088664E+02  0.51100000000E-03 0.  1.
        -12    1    3    3    0    0  0.17477481376E+02  0.39070535022E+01 -0.56087595668E+01  0.18766608809E+02  0.00000000000E+00 0.  1.
</event>
<event>
 7    1  0.2639126E-011  0.5052886E+02  0.7816164E-02  0.1300439E+00
        -11   -1    0    0    0    0  0.00000000000E+00  0.00000000000E+00  0.45593999997E+02  0.45594000000E+02  0.51100000000E-03 0.  1.
         11   -1    0    0    0    0 -0.00000000000E+00 -0.00000000000E+00 -0.45593999997E+02  0.45594000000E+02  0.51100000000E-03 0. -1.
    9900012    2    1    2    0    0 -0.32587028757E+02 -0.23962226111E+01  0.24197297135E+02  0.50528861855E+02  0.30000006096E+02 0.  0.
         12    1    1    2    0    0  0.32587028757E+02  0.23962226111E+01 -0.24197297135E+02  0.40659138145E+02  0.00000000000E+00 0. -1.
         11    1    3    3    0    0  0.30475076190E+01  0.25554496890E+01  0.48572526253E+00  0.40066887941E+01  0.51100000000E-03 0. -1.
        -11    1    3    3    0    0 -0.12076470566E+01  0.41022925266E+01  0.13525438983E+01  0.44851522432E+01  0.51100000000E-03 0.  1.
        -12    1    3    3    0    0 -0.34426889320E+02 -0.90539648267E+01  0.22359027974E+02  0.42037020818E+02  0.00000000000E+00 0.  1.
</event>
<event>
 7    1  0.2639126E-011  0.5052886E+02  0.7816164E-02  0.1300439E+00
        -11   -1    0    0    0    0  0.00000000000E+00  0.00000000000E+00  0.45593999997E+02  0.45594000000E+02  0.51100000000E-03 0.  1.
         11   -1    0    0    0    0 -0.00000000000E+00 -0.00000000000E+00 -0.45593999997E+02  0.45594000000E+02  0.51100000000E-03 0. -1.
    9900012    2    1    2    0    0 -0.18849972554E+02 -0.78590807840E+01  0.35157910964E+02  0.50528864257E+02  0.30000013396E+02 0.  0.
         12    1    1    2    0    0  0.18849972554E+02  0.78590807840E+01 -0.35157910964E+02  0.40659135743E+02  0.00000000000E+00 0. -1.
         11    1    3    3    0    0 -0.15282977571E+02 -0.37703152438E+01  0.42642340076E+01  0.16308536795E+02  0.51100000000E-03 0. -1.
        -11    1    3    3    0    0 -0.10693123884E+01  0.46909514990E+01  0.16404927574E+02  0.17095908982E+02  0.51100000000E-03 0.  1.
         12    1    3    3    0    0 -0.24976825946E+01 -0.87797170392E+01  0.14488749382E+02  0.17124418480E+02  0.00000000000E+00 0. -1.
</event>
<event>
 7    1  0.2639126E-011  0.5052886E+02  0.7816164E-02  0.1300439E+00
        -11   -1    0    0    0    0  0.00000000000E+00  0.00000000000E+00  0.45593999997E+02  0.45594000000E+02  0.51100000000E-03 0.  1.
         11   -1    0    0    0    0 -0.00000000000E+00 -0.00000000000E+00 -0.45593999997E+02  0.45594000000E+02  0.51100000000E-03 0. -1.
    9900012    2    1    2    0    0  0.18139953213E+02 -0.35252191796E+02  0.90216818670E+01  0.50528859912E+02  0.30000000189E+02 0.  0.
         12    1    1    2    0    0 -0.18139953213E+02  0.35252191796E+02 -0.90216818670E+01  0.40659140088E+02  0.00000000000E+00 0. -1.
         11    1    3    3    0    0  0.80299722474E+01 -0.87494851086E+01 -0.60887716050E+01  0.13345676599E+02  0.51100000000E-03 0. -1.
        -11    1    3    3    0    0 -0.54462504743E+01 -0.47256547371E+01  0.33357539372E+01  0.79448544048E+01  0.51100000000E-03 0.  1.
        -12    1    3    3    0    0  0.15556231440E+02 -0.21777051950E+02  0.11774699535E+02  0.29238328909E+02  0.00000000000E+00 0.  1.
</event>
<event>
 7    1  0.2639126E-011  0.5052886E+02  0.7816164E-02  0.1300439E+00
        -11   -1    0    0    0    0  0.00000000000E+00  0.00000000000E+00  0.45593999997E+02  0.45594000000E+02  0.51100000000E-03 0. -1.
         11   -1    0    0    0    0 -0.00000000000E+00 -0.00000000000E+00 -0.45593999997E+02  0.45594000000E+02  0.51100000000E-03 0.  1.
    9900012    2    1    2    0    0  0.36876365523E+02  0.15974846833E+02 -0.61728129158E+01  0.50528859763E+02  0.29999999735E+02 0.  0.
         12    1    1    2    0    0 -0.36876365523E+02 -0.15974846833E+02  0.61728129158E+01  0.40659140237E+02  0.00000000000E+00 0. -1.
         11    1    3    3    0    0  0.16536149427E+02  0.46307256985E+01  0.65250777864E+01  0.18370206824E+02  0.51100000000E-03 0. -1.
        -11    1    3    3    0    0  0.12046782573E+02 -0.29594782061E+01 -0.22701959098E+01  0.12610998031E+02  0.51100000000E-03 0.  1.
        -12    1    3    3    0    0  0.82934335225E+01  0.14303599341E+02 -0.10427694792E+02  0.19547654908E+02  0.00000000000E+00 0.  1.
</event>
<event>
 7    1  0.2639126E-011  0.5052885E+02  0.7816164E-02  0.1300439E+00
        -11   -1    0    0    0    0  0.00000000000E+00  0.00000000000E+00  0.45593999997E+02  0.45594000000E+02  0.51100000000E-03 0.  1.
         11   -1    0    0    0    0 -0.00000000000E+00 -0.00000000000E+00 -0.45593999997E+02  0.45594000000E+02  0.51100000000E-03 0. -1.
    9900012    2    1    2    0    0 -0.36075588227E+01 -0.33670947911E+02  0.22503753781E+02  0.50528854065E+02  0.29999982417E+02 0.  0.
         12    1    1    2    0    0  0.36075588227E+01  0.33670947911E+02 -0.22503753781E+02  0.40659145935E+02  0.00000000000E+00 0. -1.
         11    1    3    3    0    0 -0.21803022551E+01 -0.90237377009E+01  0.11743064036E+02  0.14969339104E+02  0.51100000000E-03 0. -1.
        -11    1    3    3    0    0 -0.10041173614E+02 -0.15419244599E+02  0.13273307822E+02  0.22688300341E+02  0.51100000000E-03 0.  1.
         12    1    3    3    0    0  0.86139170465E+01 -0.92279656114E+01 -0.25126180764E+01  0.12871214620E+02  0.00000000000E+00 0. -1.
</event>
<event>
 7    1  0.2639126E-011  0.5052886E+02  0.7816164E-02  0.1300439E+00
        -11   -1    0    0    0    0  0.00000000000E+00  0.00000000000E+00  0.45593999997E+02  0.45594000000E+02  0.51100000000E-03 0. -1.
         11   -1    0    0    0    0 -0.00000000000E+00 -0.00000000000E+00 -0.45593999997E+02  0.45594000000E+02  0.51100000000E-03 0.  1.
    9900012    2    1    2    0    0  0.22904801126E+01 -0.40412592635E+02  0.38395034987E+01  0.50528859210E+02  0.29999998055E+02 0.  0.
         12    1    1    2    0    0 -0.22904801126E+01  0.40412592635E+02 -0.38395034987E+01  0.40659140790E+02  0.00000000000E+00 0. -1.
         11    1    3    3    0    0  0.22509475727E+01 -0.15476950819E+02  0.69664117180E+01  0.17121146694E+02  0.51100000000E-03 0. -1.
        -11    1    3    3    0    0  0.69694003549E+01 -0.21621913828E+02  0.38374190491E+01  0.23039216221E+02  0.51100000000E-03 0.  1.
         12    1    3    3    0    0 -0.69298678150E+01 -0.33137279891E+01 -0.69643272684E+01  0.10368496295E+02  0.00000000000E+00 0. -1.
</event>
<event>
 7    1  0.2639126E-011  0.5052888E+02  0.7816164E-02  0.1300439E+00
        -11   -1    0    0    0    0  0.00000000000E+00  0.00000000000E+00  0.45593999997E+02  0.45594000000E+02  0.51100000000E-03 0.  1.
         11   -1    0    0    0    0 -0.00000000000E+00 -0.00000000000E+00 -0.45593999997E+02  0.45594000000E+02  0.51100000000E-03 0. -1.
    9900012    2    1    2    0    0 -0.33820818163E+02  0.21358386676E+02 -0.72894377858E+01  0.50528876475E+02  0.30000050533E+02 0.  0.
         12    1    1    2    0    0  0.33820818163E+02 -0.21358386676E+02  0.72894377858E+01  0.40659123525E+02  0.00000000000E+00 0. -1.
         11    1    3    3    0    0 -0.52169044657E+00  0.74718338338E+01  0.26997723558E+01  0.79617355392E+01  0.51100000000E-03 0. -1.
        -11    1    3    3    0    0  0.61773009682E+00  0.63049601132E+01 -0.34147626776E+01  0.71968546537E+01  0.51100000000E-03 0.  1.
        -12    1    3    3    0    0 -0.33916857813E+02  0.75815927286E+01 -0.65744474640E+01  0.35370286282E+02  0.00000000000E+00 0.  1.
</event>
<event>
 7    1  0.2639126E-011  0.5052889E+02  0.7816164E-02  0.1300439E+00
        -11   -1    0    0    0    0  0.00000000000E+00  0.00000000000E+00  0.45593999997E+02  0.45594000000E+02  0.51100000000E-03 0.  1.
         11   -1    0    0    0    0 -0.00000000000E+00 -0.00000000000E+00 -0.45593999997E+02  0.45594000000E+02  0.51100000000E-03 0. -1.
    9900012    2    1    2    0    0 -0.22925660630E+02  0.79628319884E+01  0.32621627107E+02  0.50528890766E+02  0.30000093973E+02 0.  0.
         12    1    1    2    0    0  0.22925660630E+02 -0.79628319884E+01 -0.32621627107E+02  0.40659109234E+02  0.00000000000E+00 0. -1.
         11    1    3    3    0    0 -0.12596782801E+02  0.48859156248E+01  0.56026256313E+01  0.14626705803E+02  0.51100000000E-03 0. -1.
        -11    1    3    3    0    0 -0.14063016916E+02  0.66439178837E+01  0.26480200339E+02  0.30710113967E+02  0.51100000000E-03 0.  1.
        -12    1    3    3    0    0  0.37341390866E+01 -0.35670015200E+01  0.53880113580E+00  0.51920709959E+01  0.00000000000E+00 0.  1.
</event>
<event>
 7    1  0.2639126E-011  0.5052886E+02  0.7816164E-02  0.1300439E+00
        -11   -1    0    0    0    0  0.00000000000E+00  0.00000000000E+00  0.45593999997E+02  0.45594000000E+02  0.51100000000E-03 0. -1.
         11   -1    0    0    0    0 -0.00000000000E+00 -0.00000000000E+00 -0.45593999997E+02  0.45594000000E+02  0.51100000000E-03 0.  1.
    9900012    2    1    2    0    0 -0.39215317178E+02  0.74417587753E+01 -0.77424041737E+01  0.50528859607E+02  0.29999999263E+02 0.  0.
         12    1    1    2    0    0  0.39215317178E+02 -0.74417587753E+01  0.77424041737E+01  0.40659140393E+02  0.00000000000E+00 0. -1.
         11    1    3    3    0    0 -0.53569502070E+00  0.29430154379E+01  0.34400987604E+01  0.45587924679E+01  0.51100000000E-03 0. -1.
        -11    1    3    3    0    0  0.21649168836E+01  0.10126150668E+01  0.17759381357E+01  0.29776183283E+01  0.51100000000E-03 0.  1.
        -12    1    3    3    0    0 -0.40844539041E+02  0.34861282706E+01 -0.12958441070E+02  0.42992448811E+02  0.00000000000E+00 0.  1.
</event>
<event>
 7    1  0.2639126E-011  0.5052888E+02  0.7816164E-02  0.1300439E+00
        -11   -1    0    0    0    0  0.00000000000E+00  0.00000000000E+00  0.45593999997E+02  0.45594000000E+02  0.51100000000E-03 0. -1.
         11   -1    0    0    0    0 -0.00000000000E+00 -0.00000000000E+00 -0.45593999997E+02  0.45594000000E+02  0.51100000000E-03 0.  1.
    9900012    2    1    2    0    0 -0.12676251002E+02  0.19568104979E+02 -0.33310142050E+02  0.50528884966E+02  0.30000076344E+02 0.  0.
         12    1    1    2    0    0  0.12676251002E+02 -0.19568104979E+02  0.33310142050E+02  0.40659115034E+02  0.00000000000E+00 0. -1.
         11    1    3    3    0    0 -0.17604890065E+01  0.86232960774E+01 -0.86597547650E+01  0.12347141760E+02  0.51100000000E-03 0. -1.
        -11    1    3    3    0    0  0.57659900694E+01  0.97666750297E+01 -0.15225262551E+02  0.18985341783E+02  0.51100000000E-03 0.  1.
         12    1    3    3    0    0 -0.16681752065E+02  0.11781338723E+01 -0.94251247336E+01  0.19196401424E+02  0.00000000000E+00 0. -1.
</event>
<event>
 7    1  0.2639126E-011  0.5052886E+02  0.7816164E-02  0.1300439E+00
        -11   -1    0    0    0    0  0.00000000000E+00  0.00000000000E+00  0.45593999997E+02  0.45594000000E+02  0.51100000000E-03 0.  1.
         11   -1    0    0    0    0 -0.00000000000E+00 -0.00000000000E+00 -0.45593999997E+02  0.45594000000E+02  0.51100000000E-03 0. -1.
    9900012    2    1    2    0    0 -0.97157260278E+01  0.28391915828E+02  0.27434817997E+02  0.50528862587E+02  0.30000008320E+02 0.  0.
         12    1    1    2    0    0  0.97157260278E+01 -0.28391915828E+02 -0.27434817997E+02  0.40659137413E+02  0.00000000000E+00 0. -1.
         11    1    3    3    0    0 -0.36674054118E+01 -0.48940197957E+01  0.29025858423E+01  0.67695123198E+01  0.51100000000E-03 0. -1.
        -11    1    3    3    0    0 -0.25218226058E+01  0.12432769400E+02  0.19760410233E+01  0.12838928406E+02  0.51100000000E-03 0.  1.
        -12    1    3    3    0    0 -0.35264980102E+01  0.20853166224E+02  0.22556191131E+02  0.30920421862E+02  0.00000000000E+00 0.  1.
</event>
<event>
 7    1  0.2639126E-011  0.5052886E+02  0.7816164E-02  0.1300439E+00
        -11   -1    0    0    0    0  0.00000000000E+00  0.00000000000E+00  0.45593999997E+02  0.45594000000E+02  0.51100000000E-03 0.  1.
         11   -1    0    0    0    0 -0.00000000000E+00 -0.00000000000E+00 -0.45593999997E+02  0.45594000000E+02  0.51100000000E-03 0. -1.
    9900012    2    1    2    0    0  0.36222891672E+02 -0.18414588164E+02  0.14038542537E+01  0.50528859022E+02  0.29999997483E+02 0.  0.
         12    1    1    2    0    0 -0.36222891672E+02  0.18414588164E+02 -0.14038542537E+01  0.40659140978E+02  0.00000000000E+00 0. -1.
         11    1    3    3    0    0  0.78552086646E+01 -0.20347447597E+01 -0.45684601587E+01  0.93121059854E+01  0.51100000000E-03 0. -1.
        -11    1    3    3    0    0  0.10771765154E+02  0.57776632480E+01 -0.33449565173E+00  0.12228009026E+02  0.51100000000E-03 0.  1.
        -12    1    3    3    0    0  0.17595917853E+02 -0.22157506652E+02  0.63068100641E+01  0.28988744011E+02  0.00000000000E+00 0.  1.
</event>
<event>
 7    1  0.2639126E-011  0.5052883E+02  0.7816164E-02  0.1300439E+00
        -11   -1    0    0    0    0  0.00000000000E+00  0.00000000000E+00  0.45593999997E+02  0.45594000000E+02  0.51100000000E-03 0. -1.
         11   -1    0    0    0    0 -0.00000000000E+00 -0.00000000000E+00 -0.45593999997E+02  0.45594000000E+02  0.51100000000E-03 0.  1.
    9900012    2    1    2    0    0  0.33777497590E+02 -0.15861248144E+02 -0.16145252713E+02  0.50528834720E+02  0.29999923615E+02 0.  0.
         12    1    1    2    0    0 -0.33777497590E+02  0.15861248144E+02  0.16145252713E+02  0.40659165280E+02  0.00000000000E+00 0. -1.
         11    1    3    3    0    0  0.10798544985E+02 -0.77877443168E+01  0.55817310499E+01  0.14436525105E+02  0.51100000000E-03 0. -1.
        -11    1    3    3    0    0  0.14203102358E+02 -0.12563320011E+02 -0.14245853976E+02  0.23717282350E+02  0.51100000000E-03 0.  1.
         12    1    3    3    0    0  0.87758502468E+01  0.44898161841E+01 -0.74811297870E+01  0.12375027265E+02  0.00000000000E+00 0. -1.
</event>
<event>
 7    1  0.2639126E-011  0.5052886E+02  0.7816164E-02  0.1300439E+00
        -11   -1    0    0    0    0  0.00000000000E+00  0.00000000000E+00  0.45593999997E+02  0.45594000000E+02  0.51100000000E-03 0.  1.
         11   -1    0    0    0    0 -0.00000000000E+00 -0.00000000000E+00 -0.45593999997E+02  0.45594000000E+02  0.51100000000E-03 0. -1.
    9900012    2    1    2    0    0  0.31042796379E+02 -0.17390527233E+02  0.19674344731E+02  0.50528862219E+02  0.30000007201E+02 0.  0.
         12    1    1    2    0    0 -0.31042796379E+02  0.17390527233E+02 -0.19674344731E+02  0.40659137781E+02  0.00000000000E+00 0. -1.
         11    1    3    3    0    0 -0.22378779407E+01 -0.11413240033E+02  0.73978563637E+01  0.13783991612E+02  0.51100000000E-03 0. -1.
        -11    1    3    3    0    0  0.33665107455E+01 -0.20397382043E+01 -0.52152860381E+00  0.39706320514E+01  0.51100000000E-03 0.  1.
         12    1    3    3    0    0  0.29914163575E+02 -0.39375489952E+01  0.12798016972E+02  0.32774238555E+02  0.00000000000E+00 0. -1.
</event>
<event>
 7    1  0.2639126E-011  0.5052889E+02  0.7816164E-02  0.1300439E+00
        -11   -1    0    0    0    0  0.00000000000E+00  0.00000000000E+00  0.45593999997E+02  0.45594000000E+02  0.51100000000E-03 0.  1.
         11   -1    0    0    0    0 -0.00000000000E+00 -0.00000000000E+00 -0.45593999997E+02  0.45594000000E+02  0.51100000000E-03 0. -1.
    9900012    2    1    2    0    0 -0.31327583199E+02 -0.93156265125E+01  0.24186050712E+02  0.50528887670E+02  0.30000084561E+02 0.  0.
         12    1    1    2    0    0  0.31327583199E+02  0.93156265125E+01 -0.24186050712E+02  0.40659112330E+02  0.00000000000E+00 0. -1.
         11    1    3    3    0    0 -0.94942769033E+01 -0.77198427023E+01 -0.71782006897E+00  0.12257753921E+02  0.51100000000E-03 0. -1.
        -11    1    3    3    0    0 -0.70096666561E+00 -0.68626058361E+01  0.35007267535E+01  0.77357482632E+01  0.51100000000E-03 0.  1.
        -12    1    3    3    0    0 -0.21132339630E+02  0.52668220259E+01  0.21403144028E+02  0.30535385486E+02  0.00000000000E+00 0.  1.
</event>
<event>
 7    1  0.2639126E-011  0.5052887E+02  0.7816164E-02  0.1300439E+00
        -11   -1    0    0    0    0  0.00000000000E+00  0.00000000000E+00  0.45593999997E+02  0.45594000000E+02  0.51100000000E-03 0.  1.
         11   -1    0    0    0    0 -0.00000000000E+00 -0.00000000000E+00 -0.45593999997E+02  0.45594000000E+02  0.51100000000E-03 0. -1.
    9900012    2    1    2    0    0  0.73093146257E+01 -0.36103771804E+02  0.17212103428E+02  0.50528869129E+02  0.30000028205E+02 0.  0.
         12    1    1    2    0    0 -0.73093146257E+01  0.36103771804E+02 -0.17212103428E+02  0.40659130871E+02  0.00000000000E+00 0. -1.
         11    1    3    3    0    0  0.90078270877E+01 -0.11858431516E+02  0.53804515047E+01  0.15833906831E+02  0.51100000000E-03 0. -1.
        -11    1    3    3    0    0  0.58728723514E+01 -0.79883960319E+01 -0.40786023014E+01  0.10721011977E+02  0.51100000000E-03 0.  1.
         12    1    3    3    0    0 -0.75713848135E+01 -0.16256944256E+02  0.15910254225E+02  0.23973950322E+02  0.00000000000E+00 0. -1.
</event>
<event>
 7    1  0.2639126E-011  0.5052886E+02  0.7816164E-02  0.1300439E+00
        -11   -1    0    0    0    0  0.00000000000E+00  0.00000000000E+00  0.45593999997E+02  0.45594000000E+02  0.51100000000E-03 0.  1.
         11   -1    0    0    0    0 -0.00000000000E+00 -0.00000000000E+00 -0.45593999997E+02  0.45594000000E+02  0.51100000000E-03 0. -1.
    9900012    2    1    2    0    0 -0.25576445076E+02 -0.11679810143E+02  0.29369935255E+02  0.50528860749E+02  0.30000002734E+02 0.  0.
         12    1    1    2    0    0  0.25576445076E+02  0.11679810143E+02 -0.29369935255E+02  0.40659139251E+02  0.00000000000E+00 0. -1.
         11    1    3    3    0    0 -0.15058982319E+02  0.66533105235E+00  0.11743442294E+01  0.15119348482E+02  0.51100000000E-03 0.  1.
        -11    1    3    3    0    0 -0.34298337580E+01  0.38748423091E+00 -0.23730970965E+00  0.34598005429E+01  0.51100000000E-03 0. -1.
         12    1    3    3    0    0 -0.70876289998E+01 -0.12732625426E+02  0.28432900735E+02  0.31949711725E+02  0.00000000000E+00 0. -1.
</event>
<event>
 7    1  0.2639126E-011  0.5052886E+02  0.7816164E-02  0.1300439E+00
        -11   -1    0    0    0    0  0.00000000000E+00  0.00000000000E+00  0.45593999997E+02  0.45594000000E+02  0.51100000000E-03 0.  1.
         11   -1    0    0    0    0 -0.00000000000E+00 -0.00000000000E+00 -0.45593999997E+02  0.45594000000E+02  0.51100000000E-03 0. -1.
    9900012    2    1    2    0    0 -0.15723019278E+02  0.28342072021E+02  0.24549532459E+02  0.50528856802E+02  0.29999990734E+02 0.  0.
         12    1    1    2    0    0  0.15723019278E+02 -0.28342072021E+02 -0.24549532459E+02  0.40659143198E+02  0.00000000000E+00 0. -1.
         11    1    3    3    0    0 -0.11040194736E+02  0.38987671217E+01 -0.14822965096E+01  0.11801842571E+02  0.51100000000E-03 0. -1.
        -11    1    3    3    0    0  0.18861809733E+01  0.13605855906E+01 -0.10411875720E+01  0.25481255139E+01  0.51100000000E-03 0.  1.
        -12    1    3    3    0    0 -0.65690055162E+01  0.23082719309E+02  0.27073016541E+02  0.36178888717E+02  0.00000000000E+00 0.  1.
</event>
<event>
 7    1  0.2639126E-011  0.5052888E+02  0.7816164E-02  0.1300439E+00
        -11   -1    0    0    0    0  0.00000000000E+00  0.00000000000E+00  0.45593999997E+02  0.45594000000E+02  0.51100000000E-03 0. -1.
         11   -1    0    0    0    0 -0.00000000000E+00 -0.00000000000E+00 -0.45593999997E+02  0.45594000000E+02  0.51100000000E-03 0.  1.
    9900012    2    1    2    0    0 -0.18049111023E+02  0.22592312256E+02 -0.28582882037E+02  0.50528878916E+02  0.30000057954E+02 0.  0.
         12    1    1    2    0    0  0.18049111023E+02 -0.22592312256E+02  0.28582882037E+02  0.40659121084E+02  0.00000000000E+00 0. -1.
         11    1    3    3    0    0 -0.10515398565E+02  0.33797302308E+01 -0.98803150558E-01  0.11045630165E+02  0.51100000000E-03 0. -1.
        -11    1    3    3    0    0  0.25875165846E+01  0.63656273792E+01 -0.27617497218E+00  0.68769707636E+01  0.51100000000E-03 0.  1.
        -12    1    3    3    0    0 -0.10121229042E+02  0.12846954646E+02 -0.28207903914E+02  0.32606277988E+02  0.00000000000E+00 0.  1.
</event>
<event>
 7    1  0.2639126E-011  0.5052888E+02  0.7816164E-02  0.1300439E+00
        -11   -1    0    0    0    0  0.00000000000E+00  0.00000000000E+00  0.45593999997E+02  0.45594000000E+02  0.51100000000E-03 0. -1.
         11   -1    0    0    0    0 -0.00000000000E+00 -0.00000000000E+00 -0.45593999997E+02  0.45594000000E+02  0.51100000000E-03 0.  1.
    9900012    2    1    2    0    0  0.24140323313E+02 -0.18150775898E+02 -0.27220540659E+02  0.50528884059E+02  0.30000073586E+02 0.  0.
         12    1    1    2    0    0 -0.24140323313E+02  0.18150775898E+02  0.27220540659E+02  0.40659115941E+02  0.00000000000E+00 0. -1.
         11    1    3    3    0    0  0.16695535118E+01 -0.12644232504E+02 -0.36107277728E+01  0.13255239713E+02  0.51100000000E-03 0. -1.
        -11    1    3    3    0    0  0.93600896309E+00 -0.48686658049E+01  0.44940742677E+00  0.49781509414E+01  0.51100000000E-03 0.  1.
        -12    1    3    3    0    0  0.21534760838E+02 -0.63787758861E+00 -0.24059220313E+02  0.32295493404E+02  0.00000000000E+00 0.  1.
</event>
<event>
 7    1  0.2639126E-011  0.5052887E+02  0.7816164E-02  0.1300439E+00
        -11   -1    0    0    0    0  0.00000000000E+00  0.00000000000E+00  0.45593999997E+02  0.45594000000E+02  0.51100000000E-03 0. -1.
         11   -1    0    0    0    0 -0.00000000000E+00 -0.00000000000E+00 -0.45593999997E+02  0.45594000000E+02  0.51100000000E-03 0.  1.
    9900012    2    1    2    0    0 -0.35387843598E+02  0.18530593815E+02 -0.75817460272E+01  0.50528865055E+02  0.30000015821E+02 0.  0.
         12    1    1    2    0    0  0.35387843598E+02 -0.18530593815E+02  0.75817460272E+01  0.40659134945E+02  0.00000000000E+00 0. -1.
         11    1    3    3    0    0 -0.60835083009E+01 -0.45856738161E+01 -0.24543128139E+01  0.80038196659E+01  0.51100000000E-03 0. -1.
        -11    1    3    3    0    0 -0.26055858446E+02  0.10295695108E+02  0.80947964981E+00  0.28027920984E+02  0.51100000000E-03 0.  1.
         12    1    3    3    0    0 -0.32484768510E+01  0.12820572523E+02 -0.59369128631E+01  0.14497124405E+02  0.00000000000E+00 0. -1.
</event>
<event>
 7    1  0.2639126E-011  0.5052892E+02  0.7816164E-02  0.1300439E+00
        -11   -1    0    0    0    0  0.00000000000E+00  0.00000000000E+00  0.45593999997E+02  0.45594000000E+02  0.51100000000E-03 0.  1.
         11   -1    0    0    0    0 -0.00000000000E+00 -0.00000000000E+00 -0.45593999997E+02  0.45594000000E+02  0.51100000000E-03 0. -1.
    9900012    2    1    2    0    0  0.20552626836E+02  0.34975869355E+02 -0.27274866499E+01  0.50528916262E+02  0.30000171468E+02 0.  0.
         12    1    1    2    0    0 -0.20552626836E+02 -0.34975869355E+02  0.27274866499E+01  0.40659083738E+02  0.00000000000E+00 0. -1.
         11    1    3    3    0    0  0.17189152157E+01 -0.22822688487E+01 -0.84359826962E+00  0.29791070673E+01  0.51100000000E-03 0. -1.
        -11    1    3    3    0    0  0.44578749335E+01  0.73956375739E+01 -0.10215231976E+02  0.13376063271E+02  0.51100000000E-03 0.  1.
        -12    1    3    3    0    0  0.14375836687E+02  0.29862500630E+02  0.83313435955E+01  0.34173745923E+02  0.00000000000E+00 0.  1.
</event>
<event>
 7    1  0.2639126E-011  0.5052884E+02  0.7816164E-02  0.1300439E+00
        -11   -1    0    0    0    0  0.00000000000E+00  0.00000000000E+00  0.45593999997E+02  0.45594000000E+02  0.51100000000E-03 0.  1.
         11   -1    0    0    0    0 -0.00000000000E+00 -0.00000000000E+00 -0.45593999997E+02  0.45594000000E+02  0.51100000000E-03 0. -1.
    9900012    2    1    2    0    0 -0.17790434058E+02  0.11535548559E+01  0.36542261663E+02  0.50528842111E+02  0.29999946080E+02 0.  0.
         12    1    1    2    0    0  0.17790434058E+02 -0.11535548559E+01 -0.36542261663E+02  0.40659157889E+02  0.00000000000E+00 0. -1.
         11    1    3    3    0    0  0.32783768526E+01 -0.51428052589E+01  0.40438417925E+01  0.73177084817E+01  0.51100000000E-03 0. -1.
        -11    1    3    3    0    0 -0.81045158840E+01  0.11169739410E+02  0.11047279341E+02  0.17677348141E+02  0.51100000000E-03 0.  1.
         12    1    3    3    0    0 -0.12964295027E+02 -0.48733792956E+01  0.21451140530E+02  0.25533785488E+02  0.00000000000E+00 0. -1.
</event>
<event>
 7    1  0.2639126E-011  0.5052886E+02  0.7816164E-02  0.1300439E+00
        -11   -1    0    0    0    0  0.00000000000E+00  0.00000000000E+00  0.45593999997E+02  0.45594000000E+02  0.51100000000E-03 0.  1.
         11   -1    0    0    0    0 -0.00000000000E+00 -0.00000000000E+00 -0.45593999997E+02  0.45594000000E+02  0.51100000000E-03 0. -1.
    9900012    2    1    2    0    0 -0.17056636025E+02  0.20764354107E+02  0.30513582785E+02  0.50528856276E+02  0.29999989138E+02 0.  0.
         12    1    1    2    0    0  0.17056636025E+02 -0.20764354107E+02 -0.30513582785E+02  0.40659143724E+02  0.00000000000E+00 0. -1.
         11    1    3    3    0    0 -0.59852521436E+01  0.11483654329E+02  0.17478651642E+02  0.21753179617E+02  0.51100000000E-03 0.  1.
        -11    1    3    3    0    0  0.25292968395E+01 -0.46583383786E+01 -0.71421046343E-01  0.53011847901E+01  0.51100000000E-03 0. -1.
         12    1    3    3    0    0 -0.13600680721E+02  0.13939038157E+02  0.13106352189E+02  0.23474491869E+02  0.00000000000E+00 0. -1.
</event>
<event>
 7    1  0.2639126E-011  0.5052885E+02  0.7816164E-02  0.1300439E+00
        -11   -1    0    0    0    0  0.00000000000E+00  0.00000000000E+00  0.45593999997E+02  0.45594000000E+02  0.51100000000E-03 0.  1.
         11   -1    0    0    0    0 -0.00000000000E+00 -0.00000000000E+00 -0.45593999997E+02  0.45594000000E+02  0.51100000000E-03 0. -1.
    9900012    2    1    2    0    0  0.60251675850E+01 -0.27867409781E+02  0.28987430523E+02  0.50528852190E+02  0.29999976716E+02 0.  0.
         12    1    1    2    0    0 -0.60251675850E+01  0.27867409781E+02 -0.28987430523E+02  0.40659147810E+02  0.00000000000E+00 0. -1.
         11    1    3    3    0    0 -0.31312515591E+01 -0.11769322371E+01  0.47820586065E+00  0.33791399680E+01  0.51100000000E-03 0. -1.
        -11    1    3    3    0    0 -0.31855273529E+01 -0.72172002585E+00 -0.30414945677E+01  0.44630879196E+01  0.51100000000E-03 0.  1.
        -12    1    3    3    0    0  0.12341946497E+02 -0.25968757518E+02  0.31550719230E+02  0.42686624302E+02  0.00000000000E+00 0.  1.
</event>
<event>
 7    1  0.2639126E-011  0.5052886E+02  0.7816164E-02  0.1300439E+00
        -11   -1    0    0    0    0  0.00000000000E+00  0.00000000000E+00  0.45593999997E+02  0.45594000000E+02  0.51100000000E-03 0.  1.
         11   -1    0    0    0    0 -0.00000000000E+00 -0.00000000000E+00 -0.45593999997E+02  0.45594000000E+02  0.51100000000E-03 0. -1.
    9900012    2    1    2    0    0  0.33831516748E+01 -0.35350728966E+02  0.19800146903E+02  0.50528861162E+02  0.30000003989E+02 0.  0.
         12    1    1    2    0    0 -0.33831516748E+01  0.35350728966E+02 -0.19800146903E+02  0.40659138838E+02  0.00000000000E+00 0. -1.
         11    1    3    3    0    0 -0.80237225044E+01 -0.17974586269E+02  0.90778388971E+01  0.21676554931E+02  0.51100000000E-03 0. -1.
        -11    1    3    3    0    0  0.10107442464E+02 -0.15094458529E+02  0.15183484739E+02  0.23675753009E+02  0.51100000000E-03 0.  1.
         12    1    3    3    0    0  0.12994317147E+01 -0.22816841677E+01 -0.44611767333E+01  0.51765532228E+01  0.00000000000E+00 0. -1.
</event>
<event>
 7    1  0.2639126E-011  0.5052886E+02  0.7816164E-02  0.1300439E+00
        -11   -1    0    0    0    0  0.00000000000E+00  0.00000000000E+00  0.45593999997E+02  0.45594000000E+02  0.51100000000E-03 0.  1.
         11   -1    0    0    0    0 -0.00000000000E+00 -0.00000000000E+00 -0.45593999997E+02  0.45594000000E+02  0.51100000000E-03 0. -1.
    9900012    2    1    2    0    0 -0.25307882157E+01  0.26757099900E+02  0.30509310274E+02  0.50528864526E+02  0.30000014214E+02 0.  0.
         12    1    1    2    0    0  0.25307882157E+01 -0.26757099900E+02 -0.30509310274E+02  0.40659135474E+02  0.00000000000E+00 0. -1.
         11    1    3    3    0    0 -0.33769328593E+01  0.17945652020E+01  0.61207082191E+01  0.72171468854E+01  0.51100000000E-03 0. -1.
        -11    1    3    3    0    0 -0.16440525171E+01  0.94857702152E+01  0.25833887806E+02  0.27569412484E+02  0.51100000000E-03 0.  1.
         12    1    3    3    0    0  0.24901971607E+01  0.15476764483E+02 -0.14452857507E+01  0.15742305157E+02  0.00000000000E+00 0. -1.
</event>
<event>
 7    1  0.2639126E-011  0.5052887E+02  0.7816164E-02  0.1300439E+00
        -11   -1    0    0    0    0  0.00000000000E+00  0.00000000000E+00  0.45593999997E+02  0.45594000000E+02  0.51100000000E-03 0. -1.
         11   -1    0    0    0    0 -0.00000000000E+00 -0.00000000000E+00 -0.45593999997E+02  0.45594000000E+02  0.51100000000E-03 0.  1.
    9900012    2    1    2    0    0  0.19498029361E+02  0.78730818049E+01 -0.34799518067E+02  0.50528867892E+02  0.30000024444E+02 0.  0.
         12    1    1    2    0    0 -0.19498029361E+02 -0.78730818049E+01  0.34799518067E+02  0.40659132108E+02  0.00000000000E+00 0. -1.
         11    1    3    3    0    0  0.26448341228E+00  0.40955763182E+01 -0.18440452206E+01  0.44993554972E+01  0.51100000000E-03 0. -1.
        -11    1    3    3    0    0  0.13263011180E+02  0.53235459338E+01 -0.19586979646E+01  0.14425120618E+02  0.51100000000E-03 0.  1.
        -12    1    3    3    0    0  0.59705347688E+01 -0.15460404471E+01 -0.30996774882E+02  0.31604391777E+02  0.00000000000E+00 0.  1.
</event>
<event>
 7    1  0.2639126E-011  0.5052886E+02  0.7816164E-02  0.1300439E+00
        -11   -1    0    0    0    0  0.00000000000E+00  0.00000000000E+00  0.45593999997E+02  0.45594000000E+02  0.51100000000E-03 0. -1.
         11   -1    0    0    0    0 -0.00000000000E+00 -0.00000000000E+00 -0.45593999997E+02  0.45594000000E+02  0.51100000000E-03 0.  1.
    9900012    2    1    2    0    0 -0.38220646081E+02 -0.12742698189E+02  0.54746148229E+01  0.50528861403E+02  0.30000004722E+02 0.  0.
         12    1    1    2    0    0  0.38220646081E+02  0.12742698189E+02 -0.54746148229E+01  0.40659138597E+02  0.00000000000E+00 0. -1.
         11    1    3    3    0    0  0.76178039975E-02  0.36680100883E+00 -0.36393737219E+00  0.51677043551E+00  0.51100000000E-03 0. -1.
        -11    1    3    3    0    0 -0.35812783139E+02 -0.78326665758E+01 -0.56966433010E+01  0.37099297123E+02  0.51100000000E-03 0.  1.
        -12    1    3    3    0    0 -0.24154807455E+01 -0.52768326222E+01  0.11535195496E+02  0.12912793845E+02  0.00000000000E+00 0.  1.
</event>
<event>
 7    1  0.2639126E-011  0.5052886E+02  0.7816164E-02  0.1300439E+00
        -11   -1    0    0    0    0  0.00000000000E+00  0.00000000000E+00  0.45593999997E+02  0.45594000000E+02  0.51100000000E-03 0. -1.
         11   -1    0    0    0    0 -0.00000000000E+00 -0.00000000000E+00 -0.45593999997E+02  0.45594000000E+02  0.51100000000E-03 0.  1.
    9900012    2    1    2    0    0 -0.16336009939E+02  0.20147325514E+02 -0.31311111117E+02  0.50528860493E+02  0.30000001956E+02 0.  0.
         12    1    1    2    0    0  0.16336009939E+02 -0.20147325514E+02  0.31311111117E+02  0.40659139507E+02  0.00000000000E+00 0. -1.
         11    1    3    3    0    0 -0.49484554862E+01  0.10471570629E+02 -0.14027860305E+02  0.18191258014E+02  0.51100000000E-03 0. -1.
        -11    1    3    3    0    0 -0.48172048800E+01  0.16282922572E+02 -0.67462289151E+01  0.18271579986E+02  0.51100000000E-03 0.  1.
         12    1    3    3    0    0 -0.65703495725E+01 -0.66071676870E+01 -0.10537021897E+02  0.14066022494E+02  0.00000000000E+00 0. -1.
</event>
<event>
 7    1  0.2639126E-011  0.5052887E+02  0.7816164E-02  0.1300439E+00
        -11   -1    0    0    0    0  0.00000000000E+00  0.00000000000E+00  0.45593999997E+02  0.45594000000E+02  0.51100000000E-03 0.  1.
         11   -1    0    0    0    0 -0.00000000000E+00 -0.00000000000E+00 -0.45593999997E+02  0.45594000000E+02  0.51100000000E-03 0. -1.
    9900012    2    1    2    0    0  0.90999420100E+01  0.36045209131E+02 -0.16465085230E+02  0.50528867231E+02  0.30000022436E+02 0.  0.
         12    1    1    2    0    0 -0.90999420100E+01 -0.36045209131E+02  0.16465085230E+02  0.40659132769E+02  0.00000000000E+00 0. -1.
         11    1    3    3    0    0  0.43736825116E+01  0.33235509559E+01 -0.27984189638E+01  0.61649200017E+01  0.51100000000E-03 0. -1.
        -11    1    3    3    0    0 -0.72656092137E+01  0.55107632502E+01  0.37980334543E+01  0.98783929476E+01  0.51100000000E-03 0.  1.
         12    1    3    3    0    0  0.11991868712E+02  0.27210894925E+02 -0.17464699721E+02  0.34485554282E+02  0.00000000000E+00 0. -1.
</event>
<event>
 7    1  0.2639126E-011  0.5052885E+02  0.7816164E-02  0.1300439E+00
        -11   -1    0    0    0    0  0.00000000000E+00  0.00000000000E+00  0.45593999997E+02  0.45594000000E+02  0.51100000000E-03 0.  1.
         11   -1    0    0    0    0 -0.00000000000E+00 -0.00000000000E+00 -0.45593999997E+02  0.45594000000E+02  0.51100000000E-03 0. -1.
    9900012    2    1    2    0    0  0.21859687999E+02 -0.20293747163E+02  0.27631225947E+02  0.50528846287E+02  0.29999958773E+02 0.  0.
         12    1    1    2    0    0 -0.21859687999E+02  0.20293747163E+02 -0.27631225947E+02  0.40659153713E+02  0.00000000000E+00 0. -1.
         11    1    3    3    0    0  0.12310259944E+01  0.44005108732E+01  0.77843568474E+01  0.90264130602E+01  0.51100000000E-03 0. -1.
        -11    1    3    3    0    0  0.11889087126E+02 -0.16805277277E+02  0.21320942717E+02  0.29636975818E+02  0.51100000000E-03 0.  1.
         12    1    3    3    0    0  0.87395748785E+01 -0.78889807599E+01 -0.14740736169E+01  0.11865457409E+02  0.00000000000E+00 0. -1.
</event>
<event>
 7    1  0.2639126E-011  0.5052886E+02  0.7816164E-02  0.1300439E+00
        -11   -1    0    0    0    0  0.00000000000E+00  0.00000000000E+00  0.45593999997E+02  0.45594000000E+02  0.51100000000E-03 0. -1.
         11   -1    0    0    0    0 -0.00000000000E+00 -0.00000000000E+00 -0.45593999997E+02  0.45594000000E+02  0.51100000000E-03 0.  1.
    9900012    2    1    2    0    0  0.14159926642E+02 -0.39183850356E+01 -0.37911848352E+02  0.50528861922E+02  0.30000006298E+02 0.  0.
         12    1    1    2    0    0 -0.14159926642E+02  0.39183850356E+01  0.37911848352E+02  0.40659138078E+02  0.00000000000E+00 0. -1.
         11    1    3    3    0    0  0.39632767872E+01 -0.88357664065E+01 -0.43674254978E+01  0.10623216868E+02  0.51100000000E-03 0. -1.
        -11    1    3    3    0    0  0.25869280529E+01  0.27568612547E+00  0.19867619694E+01  0.32734420683E+01  0.51100000000E-03 0.  1.
        -12    1    3    3    0    0  0.76097218018E+01  0.46416952454E+01 -0.35531184823E+02  0.36632202986E+02  0.00000000000E+00 0.  1.
</event>
<event>
 7    1  0.2639126E-011  0.5052886E+02  0.7816164E-02  0.1300439E+00
        -11   -1    0    0    0    0  0.00000000000E+00  0.00000000000E+00  0.45593999997E+02  0.45594000000E+02  0.51100000000E-03 0. -1.
         11   -1    0    0    0    0 -0.00000000000E+00 -0.00000000000E+00 -0.45593999997E+02  0.45594000000E+02  0.51100000000E-03 0.  1.
    9900012    2    1    2    0    0 -0.40008351700E+01  0.39278744806E+02  0.97128228731E+01  0.50528863219E+02  0.30000010240E+02 0.  0.
         12    1    1    2    0    0  0.40008351700E+01 -0.39278744806E+02 -0.97128228731E+01  0.40659136781E+02  0.00000000000E+00 0. -1.
         11    1    3    3    0    0  0.46165285578E+01 -0.12689710563E+01  0.22176359184E+01  0.52764128719E+01  0.51100000000E-03 0. -1.
        -11    1    3    3    0    0 -0.87600155700E+00 -0.10907751326E+01 -0.13969434338E+01  0.19770230996E+01  0.51100000000E-03 0.  1.
        -12    1    3    3    0    0 -0.77413621708E+01  0.41638490995E+02  0.88921303886E+01  0.43275427248E+02  0.00000000000E+00 0.  1.
</event>
<event>
 7    1  0.2639126E-011  0.5052886E+02  0.7816164E-02  0.1300439E+00
        -11   -1    0    0    0    0  0.00000000000E+00  0.00000000000E+00  0.45593999997E+02  0.45594000000E+02  0.51100000000E-03 0.  1.
         11   -1    0    0    0    0 -0.00000000000E+00 -0.00000000000E+00 -0.45593999997E+02  0.45594000000E+02  0.51100000000E-03 0. -1.
    9900012    2    1    2    0    0  0.37753297286E+02 -0.10368384450E+02  0.10970459738E+02  0.50528857867E+02  0.29999993974E+02 0.  0.
         12    1    1    2    0    0 -0.37753297286E+02  0.10368384450E+02 -0.10970459738E+02  0.40659142133E+02  0.00000000000E+00 0. -1.
         11    1    3    3    0    0  0.40634296326E+02 -0.68387267934E+01  0.12899101870E+02  0.43177552633E+02  0.51100000000E-03 0. -1.
        -11    1    3    3    0    0 -0.23397106147E+01  0.95325672127E+00 -0.26999474129E+00  0.25408348153E+01  0.51100000000E-03 0.  1.
        -12    1    3    3    0    0 -0.54128842527E+00 -0.44829143780E+01 -0.16586473912E+01  0.48104704186E+01  0.00000000000E+00 0.  1.
</event>
<event>
 7    1  0.2639126E-011  0.5052887E+02  0.7816164E-02  0.1300439E+00
        -11   -1    0    0    0    0  0.00000000000E+00  0.00000000000E+00  0.45593999997E+02  0.45594000000E+02  0.51100000000E-03 0.  1.
         11   -1    0    0    0    0 -0.00000000000E+00 -0.00000000000E+00 -0.45593999997E+02  0.45594000000E+02  0.51100000000E-03 0. -1.
    9900012    2    1    2    0    0 -0.25358529466E+02 -0.21113413822E+02  0.23755715010E+02  0.50528865042E+02  0.30000015781E+02 0.  0.
         12    1    1    2    0    0  0.25358529466E+02  0.21113413822E+02 -0.23755715010E+02  0.40659134958E+02  0.00000000000E+00 0. -1.
         11    1    3    3    0    0  0.37972157424E+00 -0.14634944960E+02  0.83194070370E+01  0.16838596621E+02  0.51100000000E-03 0. -1.
        -11    1    3    3    0    0 -0.83332094957E+01 -0.18579085801E+00  0.12391148586E+02  0.14933769192E+02  0.51100000000E-03 0.  1.
        -12    1    3    3    0    0 -0.17405041544E+02 -0.62926780044E+01  0.30451593869E+01  0.18756499229E+02  0.00000000000E+00 0.  1.
</event>
<event>
 7    1  0.2639126E-011  0.5052886E+02  0.7816164E-02  0.1300439E+00
        -11   -1    0    0    0    0  0.00000000000E+00  0.00000000000E+00  0.45593999997E+02  0.45594000000E+02  0.51100000000E-03 0.  1.
         11   -1    0    0    0    0 -0.00000000000E+00 -0.00000000000E+00 -0.45593999997E+02  0.45594000000E+02  0.51100000000E-03 0. -1.
    9900012    2    1    2    0    0 -0.11439686282E+02  0.28485563385E+02  0.26662187438E+02  0.50528856102E+02  0.29999988607E+02 0.  0.
         12    1    1    2    0    0  0.11439686282E+02 -0.28485563385E+02 -0.26662187438E+02  0.40659143898E+02  0.00000000000E+00 0. -1.
         11    1    3    3    0    0  0.52627412746E+01  0.23378232938E+01 -0.10245739694E+01  0.58490696317E+01  0.51100000000E-03 0. -1.
        -11    1    3    3    0    0 -0.10813097044E+02  0.71241646793E+01  0.36266573987E+01  0.13447283525E+02  0.51100000000E-03 0.  1.
        -12    1    3    3    0    0 -0.58893305129E+01  0.19023575412E+02  0.24060104008E+02  0.31232502945E+02  0.00000000000E+00 0.  1.
</event>
<event>
 7    1  0.2639126E-011  0.5052887E+02  0.7816164E-02  0.1300439E+00
        -11   -1    0    0    0    0  0.00000000000E+00  0.00000000000E+00  0.45593999997E+02  0.45594000000E+02  0.51100000000E-03 0.  1.
         11   -1    0    0    0    0 -0.00000000000E+00 -0.00000000000E+00 -0.45593999997E+02  0.45594000000E+02  0.51100000000E-03 0. -1.
    9900012    2    1    2    0    0  0.31501463384E+02  0.22735351125E+02 -0.11996947098E+02  0.50528866637E+02  0.30000020630E+02 0.  0.
         12    1    1    2    0    0 -0.31501463384E+02 -0.22735351125E+02  0.11996947098E+02  0.40659133363E+02  0.00000000000E+00 0. -1.
         11    1    3    3    0    0  0.95972180977E+01  0.41187033615E+01  0.45764056941E+01  0.11402359490E+02  0.51100000000E-03 0. -1.
        -11    1    3    3    0    0  0.10823715304E+02  0.21432123928E+02 -0.11289852332E+02  0.26532046943E+02  0.51100000000E-03 0.  1.
         12    1    3    3    0    0  0.11080529983E+02 -0.28154761640E+01 -0.52835004601E+01  0.12594460204E+02  0.00000000000E+00 0. -1.
</event>
<event>
 7    1  0.2639126E-011  0.5052888E+02  0.7816164E-02  0.1300439E+00
        -11   -1    0    0    0    0  0.00000000000E+00  0.00000000000E+00  0.45593999997E+02  0.45594000000E+02  0.51100000000E-03 0.  1.
         11   -1    0    0    0    0 -0.00000000000E+00 -0.00000000000E+00 -0.45593999997E+02  0.45594000000E+02  0.51100000000E-03 0. -1.
    9900012    2    1    2    0    0  0.26970345532E+02 -0.26627032178E+02  0.14722968305E+02  0.50528878312E+02  0.30000056117E+02 0.  0.
         12    1    1    2    0    0 -0.26970345532E+02  0.26627032178E+02 -0.14722968305E+02  0.40659121688E+02  0.00000000000E+00 0. -1.
         11    1    3    3    0    0  0.11062368932E+01  0.34473177906E+01  0.40939326585E+00  0.36435371716E+01  0.51100000000E-03 0. -1.
        -11    1    3    3    0    0  0.19846389709E+02 -0.14771752639E+02 -0.51157097900E+00  0.24745617099E+02  0.51100000000E-03 0.  1.
         12    1    3    3    0    0  0.60177189301E+01 -0.15302597330E+02  0.14825146018E+02  0.22139724041E+02  0.00000000000E+00 0. -1.
</event>
<event>
 7    1  0.2639126E-011  0.5052884E+02  0.7816164E-02  0.1300439E+00
        -11   -1    0    0    0    0  0.00000000000E+00  0.00000000000E+00  0.45593999997E+02  0.45594000000E+02  0.51100000000E-03 0.  1.
         11   -1    0    0    0    0 -0.00000000000E+00 -0.00000000000E+00 -0.45593999997E+02  0.45594000000E+02  0.51100000000E-03 0. -1.
    9900012    2    1    2    0    0 -0.16128782041E+02 -0.26564602815E+02  0.26217383539E+02  0.50528844420E+02  0.29999953099E+02 0.  0.
         12    1    1    2    0    0  0.16128782041E+02  0.26564602815E+02 -0.26217383539E+02  0.40659155580E+02  0.00000000000E+00 0. -1.
         11    1    3    3    0    0 -0.15361628838E+01 -0.21035098806E+02  0.26175642459E+01  0.21252925000E+02  0.51100000000E-03 0. -1.
        -11    1    3    3    0    0 -0.37007196306E+01 -0.19930591627E+01  0.16445093443E+01  0.45135376209E+01  0.51100000000E-03 0.  1.
         12    1    3    3    0    0 -0.10891899527E+02 -0.35364448458E+01  0.21955309949E+02  0.24762381800E+02  0.00000000000E+00 0. -1.
</event>
<event>
 7    1  0.2639126E-011  0.5052887E+02  0.7816164E-02  0.1300439E+00
        -11   -1    0    0    0    0  0.00000000000E+00  0.00000000000E+00  0.45593999997E+02  0.45594000000E+02  0.51100000000E-03 0. -1.
         11   -1    0    0    0    0 -0.00000000000E+00 -0.00000000000E+00 -0.45593999997E+02  0.45594000000E+02  0.51100000000E-03 0.  1.
    9900012    2    1    2    0    0 -0.77870746027E+01 -0.74541213414E+01 -0.39204114075E+02  0.50528867984E+02  0.30000024725E+02 0.  0.
         12    1    1    2    0    0  0.77870746027E+01  0.74541213414E+01  0.39204114075E+02  0.40659132016E+02  0.00000000000E+00 0. -1.
         11    1    3    3    0    0 -0.35430990973E+01  0.27501368792E+01 -0.15158801531E+02  0.15808417637E+02  0.51100000000E-03 0. -1.
        -11    1    3    3    0    0 -0.53491373264E+01 -0.21776137407E+01 -0.25793039067E+02  0.26431725943E+02  0.51100000000E-03 0.  1.
         12    1    3    3    0    0  0.11051618210E+01 -0.80266444800E+01  0.17477265223E+01  0.82887244046E+01  0.00000000000E+00 0. -1.
</event>
<event>
 7    1  0.2639126E-011  0.5052887E+02  0.7816164E-02  0.1300439E+00
        -11   -1    0    0    0    0  0.00000000000E+00  0.00000000000E+00  0.45593999997E+02  0.45594000000E+02  0.51100000000E-03 0.  1.
         11   -1    0    0    0    0 -0.00000000000E+00 -0.00000000000E+00 -0.45593999997E+02  0.45594000000E+02  0.51100000000E-03 0. -1.
    9900012    2    1    2    0    0 -0.56657234316E+01  0.37272828527E+02  0.15225013912E+02  0.50528865516E+02  0.30000017222E+02 0.  0.
         12    1    1    2    0    0  0.56657234316E+01 -0.37272828527E+02 -0.15225013912E+02  0.40659134484E+02  0.00000000000E+00 0. -1.
         11    1    3    3    0    0 -0.54361931604E+01  0.68111260461E+01  0.79320266952E+01  0.11783916236E+02  0.51100000000E-03 0. -1.
        -11    1    3    3    0    0 -0.67752163927E+01  0.41460023084E+01  0.84571317887E+01  0.11602412278E+02  0.51100000000E-03 0.  1.
         12    1    3    3    0    0  0.65456861214E+01  0.26315700172E+02 -0.11641445716E+01  0.27142537002E+02  0.00000000000E+00 0. -1.
</event>
<event>
 7    1  0.2639126E-011  0.5052890E+02  0.7816164E-02  0.1300439E+00
        -11   -1    0    0    0    0  0.00000000000E+00  0.00000000000E+00  0.45593999997E+02  0.45594000000E+02  0.51100000000E-03 0.  1.
         11   -1    0    0    0    0 -0.00000000000E+00 -0.00000000000E+00 -0.45593999997E+02  0.45594000000E+02  0.51100000000E-03 0. -1.
    9900012    2    1    2    0    0  0.21044781173E+02  0.34683317229E+02  0.27105446342E+01  0.50528900639E+02  0.30000123981E+02 0.  0.
         12    1    1    2    0    0 -0.21044781173E+02 -0.34683317229E+02 -0.27105446342E+01  0.40659099361E+02  0.00000000000E+00 0. -1.
         11    1    3    3    0    0  0.11769467644E+02  0.18167368599E+02  0.78665235478E+01  0.23031627025E+02  0.51100000000E-03 0. -1.
        -11    1    3    3    0    0  0.20651373437E+01  0.15103005973E+02  0.39982505434E+01  0.15759174767E+02  0.51100000000E-03 0.  1.
         12    1    3    3    0    0  0.72101761859E+01  0.14129426573E+01 -0.91542294570E+01  0.11738098847E+02  0.00000000000E+00 0. -1.
</event>
<event>
 7    1  0.2639126E-011  0.5052890E+02  0.7816164E-02  0.1300439E+00
        -11   -1    0    0    0    0  0.00000000000E+00  0.00000000000E+00  0.45593999997E+02  0.45594000000E+02  0.51100000000E-03 0. -1.
         11   -1    0    0    0    0 -0.00000000000E+00 -0.00000000000E+00 -0.45593999997E+02  0.45594000000E+02  0.51100000000E-03 0.  1.
    9900012    2    1    2    0    0 -0.27140480967E+02 -0.30245464093E+02 -0.13298693585E+01  0.50528900676E+02  0.30000124095E+02 0.  0.
         12    1    1    2    0    0  0.27140480967E+02  0.30245464093E+02  0.13298693585E+01  0.40659099324E+02  0.00000000000E+00 0. -1.
         11    1    3    3    0    0 -0.10797819667E+02 -0.74372124495E+01  0.82066691905E+01  0.15467852405E+02  0.51100000000E-03 0. -1.
        -11    1    3    3    0    0 -0.18411915205E+02 -0.21201987468E+02 -0.32716938386E+01  0.28270600894E+02  0.51100000000E-03 0.  1.
        -12    1    3    3    0    0  0.20692539051E+01 -0.16062641758E+01 -0.62648447104E+01  0.67904473764E+01  0.00000000000E+00 0.  1.
</event>
<event>
 7    1  0.2639126E-011  0.5052887E+02  0.7816164E-02  0.1300439E+00
        -11   -1    0    0    0    0  0.00000000000E+00  0.00000000000E+00  0.45593999997E+02  0.45594000000E+02  0.51100000000E-03 0. -1.
         11   -1    0    0    0    0 -0.00000000000E+00 -0.00000000000E+00 -0.45593999997E+02  0.45594000000E+02  0.51100000000E-03 0.  1.
    9900012    2    1    2    0    0  0.26217872971E+02 -0.14219638315E+02 -0.27633135029E+02  0.50528866604E+02  0.30000020530E+02 0.  0.
         12    1    1    2    0    0 -0.26217872971E+02  0.14219638315E+02  0.27633135029E+02  0.40659133396E+02  0.00000000000E+00 0. -1.
         11    1    3    3    0    0  0.87228673853E+01  0.27449937159E+01 -0.15440691263E+02  0.17945427074E+02  0.51100000000E-03 0. -1.
        -11    1    3    3    0    0  0.80247877978E+01 -0.26053769691E+01 -0.12847261309E+02  0.15370014045E+02  0.51100000000E-03 0.  1.
         12    1    3    3    0    0  0.94702177881E+01 -0.14359255062E+02  0.65481754314E+00  0.17213425484E+02  0.00000000000E+00 0. -1.
</event>
<event>
 7    1  0.2639126E-011  0.5052886E+02  0.7816164E-02  0.1300439E+00
        -11   -1    0    0    0    0  0.00000000000E+00  0.00000000000E+00  0.45593999997E+02  0.45594000000E+02  0.51100000000E-03 0.  1.
         11   -1    0    0    0    0 -0.00000000000E+00 -0.00000000000E+00 -0.45593999997E+02  0.45594000000E+02  0.51100000000E-03 0. -1.
    9900012    2    1    2    0    0 -0.26732891841E+02 -0.17014342774E+02  0.25476071301E+02  0.50528861112E+02  0.30000003835E+02 0.  0.
         12    1    1    2    0    0  0.26732891841E+02  0.17014342774E+02 -0.25476071301E+02  0.40659138888E+02  0.00000000000E+00 0. -1.
         11    1    3    3    0    0 -0.42225036604E+01 -0.14387275835E+01 -0.43560207802E+01  0.62349331609E+01  0.51100000000E-03 0. -1.
        -11    1    3    3    0    0 -0.84008572487E+01  0.28206805954E+01  0.44466031764E+01  0.99147829832E+01  0.51100000000E-03 0.  1.
         12    1    3    3    0    0 -0.14109530932E+02 -0.18396295786E+02  0.25385488905E+02  0.34379144968E+02  0.00000000000E+00 0. -1.
</event>
<event>
 7    1  0.2639126E-011  0.5052886E+02  0.7816164E-02  0.1300439E+00
        -11   -1    0    0    0    0  0.00000000000E+00  0.00000000000E+00  0.45593999997E+02  0.45594000000E+02  0.51100000000E-03 0.  1.
         11   -1    0    0    0    0 -0.00000000000E+00 -0.00000000000E+00 -0.45593999997E+02  0.45594000000E+02  0.51100000000E-03 0. -1.
    9900012    2    1    2    0    0 -0.48990680051E+01  0.22447751541E+02  0.33544946427E+02  0.50528857764E+02  0.29999993659E+02 0.  0.
         12    1    1    2    0    0  0.48990680051E+01 -0.22447751541E+02 -0.33544946427E+02  0.40659142236E+02  0.00000000000E+00 0. -1.
         11    1    3    3    0    0 -0.91600720180E+00  0.49588750223E+01  0.95305784779E+00  0.51320395753E+01  0.51100000000E-03 0. -1.
        -11    1    3    3    0    0  0.89979224316E+00  0.18460640750E+02  0.77175152803E+01  0.20029101960E+02  0.51100000000E-03 0.  1.
        -12    1    3    3    0    0 -0.48828530465E+01 -0.97176423097E+00  0.24874373299E+02  0.25367716228E+02  0.00000000000E+00 0.  1.
</event>
<event>
 7    1  0.2639126E-011  0.5052886E+02  0.7816164E-02  0.1300439E+00
        -11   -1    0    0    0    0  0.00000000000E+00  0.00000000000E+00  0.45593999997E+02  0.45594000000E+02  0.51100000000E-03 0. -1.
         11   -1    0    0    0    0 -0.00000000000E+00 -0.00000000000E+00 -0.45593999997E+02  0.45594000000E+02  0.51100000000E-03 0.  1.
    9900012    2    1    2    0    0 -0.38248341072E+02  0.82216683219E+01  0.11074046842E+02  0.50528856647E+02  0.29999990264E+02 0.  0.
         12    1    1    2    0    0  0.38248341072E+02 -0.82216683219E+01 -0.11074046842E+02  0.40659143353E+02  0.00000000000E+00 0. -1.
         11    1    3    3    0    0 -0.28451295587E+01 -0.13955129955E+01  0.69924544007E+01  0.76770200947E+01  0.51100000000E-03 0. -1.
        -11    1    3    3    0    0 -0.27446270118E+02  0.16398821058E+02  0.11460497920E+01  0.31992694570E+02  0.51100000000E-03 0.  1.
         12    1    3    3    0    0 -0.79569413953E+01 -0.67816397404E+01  0.29355426490E+01  0.10859141982E+02  0.00000000000E+00 0. -1.
</event>
<event>
 7    1  0.2639126E-011  0.5052886E+02  0.7816164E-02  0.1300439E+00
        -11   -1    0    0    0    0  0.00000000000E+00  0.00000000000E+00  0.45593999997E+02  0.45594000000E+02  0.51100000000E-03 0.  1.
         11   -1    0    0    0    0 -0.00000000000E+00 -0.00000000000E+00 -0.45593999997E+02  0.45594000000E+02  0.51100000000E-03 0. -1.
    9900012    2    1    2    0    0 -0.10196914984E+02  0.38267266438E+02 -0.92089547626E+01  0.50528860761E+02  0.30000002768E+02 0.  0.
         12    1    1    2    0    0  0.10196914984E+02 -0.38267266438E+02  0.92089547626E+01  0.40659139239E+02  0.00000000000E+00 0. -1.
         11    1    3    3    0    0 -0.81491553877E+01  0.94051793853E+01 -0.19239200802E+01  0.12592362826E+02  0.51100000000E-03 0. -1.
        -11    1    3    3    0    0  0.85520419057E+00  0.20487563253E+02  0.65322543201E+01  0.21520733469E+02  0.51100000000E-03 0.  1.
         12    1    3    3    0    0 -0.29029637873E+01  0.83745237997E+01 -0.13817289002E+02  0.16415764466E+02  0.00000000000E+00 0. -1.
</event>
<event>
 7    1  0.2639126E-011  0.5052886E+02  0.7816164E-02  0.1300439E+00
        -11   -1    0    0    0    0  0.00000000000E+00  0.00000000000E+00  0.45593999997E+02  0.45594000000E+02  0.51100000000E-03 0. -1.
         11   -1    0    0    0    0 -0.00000000000E+00 -0.00000000000E+00 -0.45593999997E+02  0.45594000000E+02  0.51100000000E-03 0.  1.
    9900012    2    1    2    0    0  0.19414027741E+02  0.25151097466E+02 -0.25370924481E+02  0.50528856061E+02  0.29999988482E+02 0.  0.
         12    1    1    2    0    0 -0.19414027741E+02 -0.25151097466E+02  0.25370924481E+02  0.40659143939E+02  0.00000000000E+00 0. -1.
         11    1    3    3    0    0  0.73025753677E+01  0.10274904450E+02 -0.77955689703E+01  0.14821341514E+02  0.51100000000E-03 0. -1.
        -11    1    3    3    0    0  0.38179560113E+01  0.16531637890E+02 -0.87672122484E+00  0.16989422586E+02  0.51100000000E-03 0.  1.
         12    1    3    3    0    0  0.82934963618E+01 -0.16554448740E+01 -0.16698634286E+02  0.18718091961E+02  0.00000000000E+00 0. -1.
</event>
<event>
 7    1  0.2639126E-011  0.5052887E+02  0.7816164E-02  0.1300439E+00
        -11   -1    0    0    0    0  0.00000000000E+00  0.00000000000E+00  0.45593999997E+02  0.45594000000E+02  0.51100000000E-03 0.  1.
         11   -1    0    0    0    0 -0.00000000000E+00 -0.00000000000E+00 -0.45593999997E+02  0.45594000000E+02  0.51100000000E-03 0. -1.
    9900012    2    1    2    0    0 -0.39866374530E+02  0.14371726817E+01  0.78595082729E+01  0.50528866293E+02  0.30000019585E+02 0.  0.
         12    1    1    2    0    0  0.39866374530E+02 -0.14371726817E+01 -0.78595082729E+01  0.40659133707E+02  0.00000000000E+00 0. -1.
         11    1    3    3    0    0 -0.78837109031E+01 -0.50148252557E+01 -0.48255717117E+01  0.10516059745E+02  0.51100000000E-03 0. -1.
        -11    1    3    3    0    0 -0.11549105677E+02 -0.25465744115E+01  0.13143322304E+02  0.17680888117E+02  0.51100000000E-03 0.  1.
        -12    1    3    3    0    0 -0.20433557950E+02  0.89985723490E+01 -0.45824231891E+00  0.22331918431E+02  0.00000000000E+00 0.  1.
</event>
<event>
 7    1  0.2639126E-011  0.5052886E+02  0.7816164E-02  0.1300439E+00
        -11   -1    0    0    0    0  0.00000000000E+00  0.00000000000E+00  0.45593999997E+02  0.45594000000E+02  0.51100000000E-03 0.  1.
         11   -1    0    0    0    0 -0.00000000000E+00 -0.00000000000E+00 -0.45593999997E+02  0.45594000000E+02  0.51100000000E-03 0. -1.
    9900012    2    1    2    0    0  0.36080140536E+02 -0.15578754512E+02  0.10425539663E+02  0.50528855758E+02  0.29999987562E+02 0.  0.
         12    1    1    2    0    0 -0.36080140536E+02  0.15578754512E+02 -0.10425539663E+02  0.40659144242E+02  0.00000000000E+00 0. -1.
         11    1    3    3    0    0  0.14957558884E+02 -0.12515233212E+02  0.66696786773E+01  0.20611750145E+02  0.51100000000E-03 0. -1.
        -11    1    3    3    0    0  0.18889457351E+02 -0.83707977629E+01  0.86126385216E+01  0.22384356073E+02  0.51100000000E-03 0.  1.
         12    1    3    3    0    0  0.22331243005E+01  0.53072764632E+01 -0.48567775364E+01  0.75327495403E+01  0.00000000000E+00 0. -1.
</event>
<event>
 7    1  0.2639126E-011  0.5052887E+02  0.7816164E-02  0.1300439E+00
        -11   -1    0    0    0    0  0.00000000000E+00  0.00000000000E+00  0.45593999997E+02  0.45594000000E+02  0.51100000000E-03 0.  1.
         11   -1    0    0    0    0 -0.00000000000E+00 -0.00000000000E+00 -0.45593999997E+02  0.45594000000E+02  0.51100000000E-03 0. -1.
    9900012    2    1    2    0    0  0.22578224791E+02 -0.28941513495E+02  0.17486497377E+02  0.50528867833E+02  0.30000024264E+02 0.  0.
         12    1    1    2    0    0 -0.22578224791E+02  0.28941513495E+02 -0.17486497377E+02  0.40659132167E+02  0.00000000000E+00 0. -1.
         11    1    3    3    0    0  0.39232913657E+01 -0.10722777313E+02  0.98873832875E+01  0.15103990101E+02  0.51100000000E-03 0. -1.
        -11    1    3    3    0    0 -0.46707665298E+00 -0.15190360973E+02  0.42127543231E+01  0.15770622256E+02  0.51100000000E-03 0.  1.
         12    1    3    3    0    0  0.19122010078E+02 -0.30283752088E+01  0.33863597663E+01  0.19654255475E+02  0.00000000000E+00 0. -1.
</event>
<event>
 7    1  0.2639126E-011  0.5052886E+02  0.7816164E-02  0.1300439E+00
        -11   -1    0    0    0    0  0.00000000000E+00  0.00000000000E+00  0.45593999997E+02  0.45594000000E+02  0.51100000000E-03 0.  1.
         11   -1    0    0    0    0 -0.00000000000E+00 -0.00000000000E+00 -0.45593999997E+02  0.45594000000E+02  0.51100000000E-03 0. -1.
    9900012    2    1    2    0    0 -0.45751824387E+00 -0.13998442920E+02  0.38170667014E+02  0.50528861453E+02  0.30000004872E+02 0.  0.
         12    1    1    2    0    0  0.45751824387E+00  0.13998442920E+02 -0.38170667014E+02  0.40659138547E+02  0.00000000000E+00 0. -1.
         11    1    3    3    0    0  0.97577732482E+00 -0.16872657390E+01  0.31950679544E+02  0.32010075455E+02  0.51100000000E-03 0. -1.
        -11    1    3    3    0    0 -0.79798411171E+00 -0.43353062034E+01  0.90219034021E+01  0.10041234973E+02  0.51100000000E-03 0.  1.
         12    1    3    3    0    0 -0.63531145698E+00 -0.79758709772E+01 -0.28019159319E+01  0.84775510250E+01  0.00000000000E+00 0. -1.
</event>
<event>
 7    1  0.2639126E-011  0.5052887E+02  0.7816164E-02  0.1300439E+00
        -11   -1    0    0    0    0  0.00000000000E+00  0.00000000000E+00  0.45593999997E+02  0.45594000000E+02  0.51100000000E-03 0. -1.
         11   -1    0    0    0    0 -0.00000000000E+00 -0.00000000000E+00 -0.45593999997E+02  0.45594000000E+02  0.51100000000E-03 0.  1.
    9900012    2    1    2    0    0  0.17104069618E+02  0.35877807851E+02  0.85673177946E+01  0.50528865382E+02  0.30000016815E+02 0.  0.
         12    1    1    2    0    0 -0.17104069618E+02 -0.35877807851E+02 -0.85673177946E+01  0.40659134618E+02  0.00000000000E+00 0. -1.
         11    1    3    3    0    0  0.20743395893E+01  0.14751377861E+01  0.52027998331E+01  0.57920672117E+01  0.51100000000E-03 0. -1.
        -11    1    3    3    0    0  0.63871961574E+01  0.22627557018E+02  0.13355592446E+02  0.27040237817E+02  0.51100000000E-03 0.  1.
        -12    1    3    3    0    0  0.86425338713E+01  0.11775113047E+02 -0.99910744845E+01  0.17696560354E+02  0.00000000000E+00 0.  1.
</event>
<event>
 7    1  0.2639126E-011  0.5052886E+02  0.7816164E-02  0.1300439E+00
        -11   -1    0    0    0    0  0.00000000000E+00  0.00000000000E+00  0.45593999997E+02  0.45594000000E+02  0.51100000000E-03 0.  1.
         11   -1    0    0    0    0 -0.00000000000E+00 -0.00000000000E+00 -0.45593999997E+02  0.45594000000E+02  0.51100000000E-03 0. -1.
    9900012    2    1    2    0    0 -0.33267240957E+02 -0.14013317780E+02  0.18710519798E+02  0.50528856536E+02  0.29999989928E+02 0.  0.
         12    1    1    2    0    0  0.33267240957E+02  0.14013317780E+02 -0.18710519798E+02  0.40659143464E+02  0.00000000000E+00 0. -1.
         11    1    3    3    0    0 -0.72066542152E+01 -0.90735916403E+01  0.25261571564E+01  0.11859485675E+02  0.51100000000E-03 0. -1.
        -11    1    3    3    0    0 -0.95167919334E+01 -0.10391374705E+02  0.15903999224E+02  0.21248227892E+02  0.51100000000E-03 0.  1.
         12    1    3    3    0    0 -0.16543794808E+02  0.54516485646E+01  0.28036341748E+00  0.17421142970E+02  0.00000000000E+00 0. -1.
</event>
<event>
 7    1  0.2639126E-011  0.5052887E+02  0.7816164E-02  0.1300439E+00
        -11   -1    0    0    0    0  0.00000000000E+00  0.00000000000E+00  0.45593999997E+02  0.45594000000E+02  0.51100000000E-03 0.  1.
         11   -1    0    0    0    0 -0.00000000000E+00 -0.00000000000E+00 -0.45593999997E+02  0.45594000000E+02  0.51100000000E-03 0. -1.
    9900012    2    1    2    0    0  0.87839856029E+01  0.17305978370E+02  0.35728270204E+02  0.50528873322E+02  0.30000040950E+02 0.  0.
         12    1    1    2    0    0 -0.87839856029E+01 -0.17305978370E+02 -0.35728270204E+02  0.40659126678E+02  0.00000000000E+00 0. -1.
         11    1    3    3    0    0  0.31807921530E+01 -0.32253398565E+01  0.35458463081E+01  0.57526760914E+01  0.51100000000E-03 0. -1.
        -11    1    3    3    0    0 -0.36402378529E+01 -0.35745841682E+01  0.35066516860E+01  0.61907665042E+01  0.51100000000E-03 0.  1.
        -12    1    3    3    0    0  0.92434313028E+01  0.24105902395E+02  0.28675772210E+02  0.38585430727E+02  0.00000000000E+00 0.  1.
</event>
<event>
 7    1  0.2639126E-011  0.5052886E+02  0.7816164E-02  0.1300439E+00
        -11   -1    0    0    0    0  0.00000000000E+00  0.00000000000E+00  0.45593999997E+02  0.45594000000E+02  0.51100000000E-03 0.  1.
         11   -1    0    0    0    0 -0.00000000000E+00 -0.00000000000E+00 -0.45593999997E+02  0.45594000000E+02  0.51100000000E-03 0. -1.
    9900012    2    1    2    0    0  0.26707364310E-01  0.37448563241E+02  0.15835716753E+02  0.50528861702E+02  0.30000005629E+02 0.  0.
         12    1    1    2    0    0 -0.26707364310E-01 -0.37448563241E+02 -0.15835716753E+02  0.40659138298E+02  0.00000000000E+00 0. -1.
         11    1    3    3    0    0 -0.77979791639E+01  0.15606668125E+02  0.77697333269E+00  0.17463683942E+02  0.51100000000E-03 0. -1.
        -11    1    3    3    0    0  0.81484617160E+01  0.14231613908E+02  0.23734611525E+00  0.16400993756E+02  0.51100000000E-03 0.  1.
        -12    1    3    3    0    0 -0.32377518778E+00  0.76102812080E+01  0.14821397305E+02  0.16664184003E+02  0.00000000000E+00 0.  1.
</event>
<event>
 7    1  0.2639126E-011  0.5052886E+02  0.7816164E-02  0.1300439E+00
        -11   -1    0    0    0    0  0.00000000000E+00  0.00000000000E+00  0.45593999997E+02  0.45594000000E+02  0.51100000000E-03 0.  1.
         11   -1    0    0    0    0 -0.00000000000E+00 -0.00000000000E+00 -0.45593999997E+02  0.45594000000E+02  0.51100000000E-03 0. -1.
    9900012    2    1    2    0    0  0.24389879707E+02 -0.15728003688E+02  0.28476822761E+02  0.50528858756E+02  0.29999996675E+02 0.  0.
         12    1    1    2    0    0 -0.24389879707E+02  0.15728003688E+02 -0.28476822761E+02  0.40659141244E+02  0.00000000000E+00 0. -1.
         11    1    3    3    0    0  0.14896321568E+02 -0.10324988732E+02  0.17740142021E+02  0.25361751276E+02  0.51100000000E-03 0. -1.
        -11    1    3    3    0    0  0.73562993905E+01 -0.97880394578E+01  0.14520246384E+02  0.18993641369E+02  0.51100000000E-03 0.  1.
         12    1    3    3    0    0  0.21372587485E+01  0.43850245022E+01 -0.37835656439E+01  0.61734661110E+01  0.00000000000E+00 0. -1.
</event>
<event>
 7    1  0.2639126E-011  0.5052887E+02  0.7816164E-02  0.1300439E+00
        -11   -1    0    0    0    0  0.00000000000E+00  0.00000000000E+00  0.45593999997E+02  0.45594000000E+02  0.51100000000E-03 0.  1.
         11   -1    0    0    0    0 -0.00000000000E+00 -0.00000000000E+00 -0.45593999997E+02  0.45594000000E+02  0.51100000000E-03 0. -1.
    9900012    2    1    2    0    0 -0.24891059467E+02  0.29287962310E+02  0.13259545787E+02  0.50528866560E+02  0.30000020395E+02 0.  0.
         12    1    1    2    0    0  0.24891059467E+02 -0.29287962310E+02 -0.13259545787E+02  0.40659133440E+02  0.00000000000E+00 0. -1.
         11    1    3    3    0    0  0.46252081260E+01  0.60095552865E+01 -0.16904104062E+01  0.77694782677E+01  0.51100000000E-03 0. -1.
        -11    1    3    3    0    0 -0.16656316045E+02  0.20405146700E+02  0.65825944510E+01  0.27150201215E+02  0.51100000000E-03 0.  1.
         12    1    3    3    0    0 -0.12859951548E+02  0.28732603239E+01  0.83673617417E+01  0.15609187077E+02  0.00000000000E+00 0. -1.
</event>
<event>
 7    1  0.2639126E-011  0.5052890E+02  0.7816164E-02  0.1300439E+00
        -11   -1    0    0    0    0  0.00000000000E+00  0.00000000000E+00  0.45593999997E+02  0.45594000000E+02  0.51100000000E-03 0. -1.
         11   -1    0    0    0    0 -0.00000000000E+00 -0.00000000000E+00 -0.45593999997E+02  0.45594000000E+02  0.51100000000E-03 0.  1.
    9900012    2    1    2    0    0 -0.31435644076E+02  0.18307208818E+02  0.18160643090E+02  0.50528898059E+02  0.30000116141E+02 0.  0.
         12    1    1    2    0    0  0.31435644076E+02 -0.18307208818E+02 -0.18160643090E+02  0.40659101941E+02  0.00000000000E+00 0. -1.
         11    1    3    3    0    0  0.19393985486E+01  0.54465448353E+00 -0.63968764989E-01  0.20154422594E+01  0.51100000000E-03 0. -1.
        -11    1    3    3    0    0 -0.14229586732E+02 -0.40902795164E+01  0.12349646732E+01  0.14857209129E+02  0.51100000000E-03 0.  1.
        -12    1    3    3    0    0 -0.19145455892E+02  0.21852833851E+02  0.16989647182E+02  0.33656246671E+02  0.00000000000E+00 0.  1.
</event>
<event>
 7    1  0.2639126E-011  0.5052888E+02  0.7816164E-02  0.1300439E+00
        -11   -1    0    0    0    0  0.00000000000E+00  0.00000000000E+00  0.45593999997E+02  0.45594000000E+02  0.51100000000E-03 0.  1.
         11   -1    0    0    0    0 -0.00000000000E+00 -0.00000000000E+00 -0.45593999997E+02  0.45594000000E+02  0.51100000000E-03 0. -1.
    9900012    2    1    2    0    0  0.58269097788E+01 -0.35641316041E+02  0.18679063841E+02  0.50528884015E+02  0.30000073453E+02 0.  0.
         12    1    1    2    0    0 -0.58269097788E+01  0.35641316041E+02 -0.18679063841E+02  0.40659115985E+02  0.00000000000E+00 0. -1.
         11    1    3    3    0    0 -0.24319459286E+00 -0.23578640995E+00 -0.23729898967E+01  0.23970440447E+01  0.51100000000E-03 0. -1.
        -11    1    3    3    0    0  0.13199038463E+00  0.30292496918E+01  0.54329997861E+01  0.62218375174E+01  0.51100000000E-03 0.  1.
        -12    1    3    3    0    0  0.59381139870E+01 -0.38434779323E+02  0.15619053951E+02  0.41910002453E+02  0.00000000000E+00 0.  1.
</event>
<event>
 7    1  0.2639126E-011  0.5052887E+02  0.7816164E-02  0.1300439E+00
        -11   -1    0    0    0    0  0.00000000000E+00  0.00000000000E+00  0.45593999997E+02  0.45594000000E+02  0.51100000000E-03 0.  1.
         11   -1    0    0    0    0 -0.00000000000E+00 -0.00000000000E+00 -0.45593999997E+02  0.45594000000E+02  0.51100000000E-03 0. -1.
    9900012    2    1    2    0    0 -0.36226676683E+02 -0.79040072891E+01  0.16682905242E+02  0.50528871111E+02  0.30000034229E+02 0.  0.
         12    1    1    2    0    0  0.36226676683E+02  0.79040072891E+01 -0.16682905242E+02  0.40659128889E+02  0.00000000000E+00 0. -1.
         11    1    3    3    0    0  0.18774948155E+01  0.35614787663E+01  0.29738641714E+00  0.40370232507E+01  0.51100000000E-03 0. -1.
        -11    1    3    3    0    0 -0.30996356403E+02 -0.11961337035E+01  0.11650418822E+02  0.33135133998E+02  0.51100000000E-03 0.  1.
         12    1    3    3    0    0 -0.71078150953E+01 -0.10269352352E+02  0.47351000032E+01  0.13356713862E+02  0.00000000000E+00 0. -1.
</event>
<event>
 7    1  0.2639126E-011  0.5052887E+02  0.7816164E-02  0.1300439E+00
        -11   -1    0    0    0    0  0.00000000000E+00  0.00000000000E+00  0.45593999997E+02  0.45594000000E+02  0.51100000000E-03 0. -1.
         11   -1    0    0    0    0 -0.00000000000E+00 -0.00000000000E+00 -0.45593999997E+02  0.45594000000E+02  0.51100000000E-03 0.  1.
    9900012    2    1    2    0    0  0.35441737476E+02  0.19135144958E+02 -0.55582868434E+01  0.50528867194E+02  0.30000022324E+02 0.  0.
         12    1    1    2    0    0 -0.35441737476E+02 -0.19135144958E+02  0.55582868434E+01  0.40659132806E+02  0.00000000000E+00 0. -1.
         11    1    3    3    0    0  0.17773271575E+02  0.38682885899E+01 -0.29460708723E+01  0.18426398805E+02  0.51100000000E-03 0. -1.
        -11    1    3    3    0    0  0.22160408778E+02  0.14021334825E+02 -0.52535079989E+01  0.26744735819E+02  0.51100000000E-03 0.  1.
         12    1    3    3    0    0 -0.44919428761E+01  0.12455215425E+01  0.26412920279E+01  0.53577325700E+01  0.00000000000E+00 0. -1.
</event>
<event>
 7    1  0.2639126E-011  0.5052885E+02  0.7816164E-02  0.1300439E+00
        -11   -1    0    0    0    0  0.00000000000E+00  0.00000000000E+00  0.45593999997E+02  0.45594000000E+02  0.51100000000E-03 0.  1.
         11   -1    0    0    0    0 -0.00000000000E+00 -0.00000000000E+00 -0.45593999997E+02  0.45594000000E+02  0.51100000000E-03 0. -1.
    9900012    2    1    2    0    0 -0.28097666478E+02  0.26816503906E+02  0.12023437348E+02  0.50528846186E+02  0.29999958466E+02 0.  0.
         12    1    1    2    0    0  0.28097666478E+02 -0.26816503906E+02 -0.12023437348E+02  0.40659153814E+02  0.00000000000E+00 0. -1.
         11    1    3    3    0    0 -0.39293012568E+01  0.10376285904E+02  0.81420110263E+01  0.13762233153E+02  0.51100000000E-03 0. -1.
        -11    1    3    3    0    0  0.24163934567E+01  0.84355515462E+01  0.14858873099E+01  0.88997386807E+01  0.51100000000E-03 0.  1.
        -12    1    3    3    0    0 -0.26584758677E+02  0.80046664558E+01  0.23955390114E+01  0.27866874352E+02  0.00000000000E+00 0.  1.
</event>
<event>
 7    1  0.2639126E-011  0.5052886E+02  0.7816164E-02  0.1300439E+00
        -11   -1    0    0    0    0  0.00000000000E+00  0.00000000000E+00  0.45593999997E+02  0.45594000000E+02  0.51100000000E-03 0. -1.
         11   -1    0    0    0    0 -0.00000000000E+00 -0.00000000000E+00 -0.45593999997E+02  0.45594000000E+02  0.51100000000E-03 0.  1.
    9900012    2    1    2    0    0  0.31564835121E+02 -0.23418475667E+02 -0.10411604247E+02  0.50528864228E+02  0.30000013306E+02 0.  0.
         12    1    1    2    0    0 -0.31564835121E+02  0.23418475667E+02  0.10411604247E+02  0.40659135772E+02  0.00000000000E+00 0. -1.
         11    1    3    3    0    0  0.28611259724E+01  0.56174279047E+00 -0.24785393654E+01  0.38268465399E+01  0.51100000000E-03 0. -1.
        -11    1    3    3    0    0  0.14344833458E+02  0.23533604040E+01  0.28788458148E+01  0.14818917154E+02  0.51100000000E-03 0.  1.
        -12    1    3    3    0    0  0.14358875691E+02 -0.26333578861E+02 -0.10811910696E+02  0.31883100534E+02  0.00000000000E+00 0.  1.
</event>
<event>
 7    1  0.2639126E-011  0.5052886E+02  0.7816164E-02  0.1300439E+00
        -11   -1    0    0    0    0  0.00000000000E+00  0.00000000000E+00  0.45593999997E+02  0.45594000000E+02  0.51100000000E-03 0.  1.
         11   -1    0    0    0    0 -0.00000000000E+00 -0.00000000000E+00 -0.45593999997E+02  0.45594000000E+02  0.51100000000E-03 0. -1.
    9900012    2    1    2    0    0  0.37097256774E+02  0.15151998753E+02 -0.68830047713E+01  0.50528864728E+02  0.30000014827E+02 0.  0.
         12    1    1    2    0    0 -0.37097256774E+02 -0.15151998753E+02  0.68830047713E+01  0.40659135272E+02  0.00000000000E+00 0. -1.
         11    1    3    3    0    0 -0.72931075298E+00 -0.12757253025E+01  0.58411709877E+01  0.60231759057E+01  0.51100000000E-03 0. -1.
        -11    1    3    3    0    0  0.25758084907E+01  0.48030289219E+01 -0.73531662361E+00  0.54995060690E+01  0.51100000000E-03 0.  1.
         12    1    3    3    0    0  0.35250759037E+02  0.11624695134E+02 -0.11988859135E+02  0.39006182753E+02  0.00000000000E+00 0. -1.
</event>
<event>
 7    1  0.2639126E-011  0.5052886E+02  0.7816164E-02  0.1300439E+00
        -11   -1    0    0    0    0  0.00000000000E+00  0.00000000000E+00  0.45593999997E+02  0.45594000000E+02  0.51100000000E-03 0.  1.
         11   -1    0    0    0    0 -0.00000000000E+00 -0.00000000000E+00 -0.45593999997E+02  0.45594000000E+02  0.51100000000E-03 0. -1.
    9900012    2    1    2    0    0 -0.51288654392E+01 -0.44903747557E+01  0.40083622435E+02  0.50528861868E+02  0.30000006133E+02 0.  0.
         12    1    1    2    0    0  0.51288654392E+01  0.44903747557E+01 -0.40083622435E+02  0.40659138132E+02  0.00000000000E+00 0. -1.
         11    1    3    3    0    0  0.34330220703E+01  0.41751355997E+01  0.69938741567E+00  0.54503707057E+01  0.51100000000E-03 0. -1.
        -11    1    3    3    0    0 -0.12999173091E+02 -0.25135918409E+01  0.31340479391E+02  0.34022379307E+02  0.51100000000E-03 0.  1.
         12    1    3    3    0    0  0.44372855814E+01 -0.61519185144E+01  0.80437556280E+01  0.11056111855E+02  0.00000000000E+00 0. -1.
</event>
<event>
 7    1  0.2639126E-011  0.5052887E+02  0.7816164E-02  0.1300439E+00
        -11   -1    0    0    0    0  0.00000000000E+00  0.00000000000E+00  0.45593999997E+02  0.45594000000E+02  0.51100000000E-03 0.  1.
         11   -1    0    0    0    0 -0.00000000000E+00 -0.00000000000E+00 -0.45593999997E+02  0.45594000000E+02  0.51100000000E-03 0. -1.
    9900012    2    1    2    0    0 -0.22865620601E+02  0.27612836370E+01  0.33506774388E+02  0.50528865446E+02  0.30000017011E+02 0.  0.
         12    1    1    2    0    0  0.22865620601E+02 -0.27612836370E+01 -0.33506774388E+02  0.40659134554E+02  0.00000000000E+00 0. -1.
         11    1    3    3    0    0 -0.12804555133E+02 -0.54676441323E+01  0.75578402658E+01  0.15842118364E+02  0.51100000000E-03 0. -1.
        -11    1    3    3    0    0 -0.14871324188E+02  0.22696200393E+01  0.14367893388E+02  0.20802495497E+02  0.51100000000E-03 0.  1.
         12    1    3    3    0    0  0.48102587214E+01  0.59593077301E+01  0.11581040734E+02  0.13884251585E+02  0.00000000000E+00 0. -1.
</event>
<event>
 7    1  0.2639126E-011  0.5052896E+02  0.7816164E-02  0.1300438E+00
        -11   -1    0    0    0    0  0.00000000000E+00  0.00000000000E+00  0.45593999997E+02  0.45594000000E+02  0.51100000000E-03 0. -1.
         11   -1    0    0    0    0 -0.00000000000E+00 -0.00000000000E+00 -0.45593999997E+02  0.45594000000E+02  0.51100000000E-03 0.  1.
    9900012    2    1    2    0    0 -0.21530062725E+02 -0.75911479337E+01 -0.33645036409E+02  0.50528959150E+02  0.30000301832E+02 0.  0.
         12    1    1    2    0    0  0.21530062725E+02  0.75911479337E+01  0.33645036409E+02  0.40659040850E+02  0.00000000000E+00 0. -1.
         11    1    3    3    0    0  0.24543626001E+01  0.21668758834E+01  0.28977824743E+00  0.32868249970E+01  0.51100000000E-03 0. -1.
        -11    1    3    3    0    0 -0.87384389424E+01  0.48078913127E+01 -0.42756948371E+01  0.10851622027E+02  0.51100000000E-03 0.  1.
         12    1    3    3    0    0 -0.15245986383E+02 -0.14565915130E+02 -0.29659119819E+02  0.36390512126E+02  0.00000000000E+00 0. -1.
</event>
<event>
 7    1  0.2639126E-011  0.5052884E+02  0.7816164E-02  0.1300439E+00
        -11   -1    0    0    0    0  0.00000000000E+00  0.00000000000E+00  0.45593999997E+02  0.45594000000E+02  0.51100000000E-03 0.  1.
         11   -1    0    0    0    0 -0.00000000000E+00 -0.00000000000E+00 -0.45593999997E+02  0.45594000000E+02  0.51100000000E-03 0. -1.
    9900012    2    1    2    0    0 -0.38046120700E+02  0.13380373430E+02 -0.51599683626E+01  0.50528843996E+02  0.29999951811E+02 0.  0.
         12    1    1    2    0    0  0.38046120700E+02 -0.13380373430E+02  0.51599683626E+01  0.40659156004E+02  0.00000000000E+00 0. -1.
         11    1    3    3    0    0 -0.31597517116E+02  0.43329624589E+01 -0.11260676509E+02  0.33822780597E+02  0.51100000000E-03 0. -1.
        -11    1    3    3    0    0 -0.51785938387E+01 -0.10846654030E+01  0.14537095646E+01  0.54870397249E+01  0.51100000000E-03 0.  1.
         12    1    3    3    0    0 -0.12700097449E+01  0.10132076374E+02  0.46469985815E+01  0.11219023675E+02  0.00000000000E+00 0. -1.
</event>
<event>
 7    1  0.2639126E-011  0.5052886E+02  0.7816164E-02  0.1300439E+00
        -11   -1    0    0    0    0  0.00000000000E+00  0.00000000000E+00  0.45593999997E+02  0.45594000000E+02  0.51100000000E-03 0.  1.
         11   -1    0    0    0    0 -0.00000000000E+00 -0.00000000000E+00 -0.45593999997E+02  0.45594000000E+02  0.51100000000E-03 0. -1.
    9900012    2    1    2    0    0 -0.30955699751E+02  0.15125512703E+02  0.21590029923E+02  0.50528857441E+02  0.29999992677E+02 0.  0.
         12    1    1    2    0    0  0.30955699751E+02 -0.15125512703E+02 -0.21590029923E+02  0.40659142559E+02  0.00000000000E+00 0. -1.
         11    1    3    3    0    0  0.15743581159E+01  0.49339784277E+01  0.38816268273E+01  0.64722309669E+01  0.51100000000E-03 0. -1.
        -11    1    3    3    0    0 -0.12921300432E+02  0.13657356254E+02  0.14810955095E+02  0.23934238567E+02  0.51100000000E-03 0.  1.
        -12    1    3    3    0    0 -0.19608757435E+02 -0.34658219793E+01  0.28974480006E+01  0.20122387906E+02  0.00000000000E+00 0.  1.
</event>
<event>
 7    1  0.2639126E-011  0.5052889E+02  0.7816164E-02  0.1300439E+00
        -11   -1    0    0    0    0  0.00000000000E+00  0.00000000000E+00  0.45593999997E+02  0.45594000000E+02  0.51100000000E-03 0.  1.
         11   -1    0    0    0    0 -0.00000000000E+00 -0.00000000000E+00 -0.45593999997E+02  0.45594000000E+02  0.51100000000E-03 0. -1.
    9900012    2    1    2    0    0  0.70765905270E+01  0.26462254732E+02  0.30047192358E+02  0.50528894899E+02  0.30000106536E+02 0.  0.
         12    1    1    2    0    0 -0.70765905270E+01 -0.26462254732E+02 -0.30047192358E+02  0.40659105101E+02  0.00000000000E+00 0. -1.
         11    1    3    3    0    0  0.49935039229E+01  0.51728569226E+01 -0.10960610251E+01  0.72728866485E+01  0.51100000000E-03 0. -1.
        -11    1    3    3    0    0  0.57109894158E+01  0.18189703519E+02  0.98978925570E+01  0.21481363819E+02  0.51100000000E-03 0.  1.
         12    1    3    3    0    0 -0.36279028117E+01  0.30996942909E+01  0.21245360826E+02  0.21774644432E+02  0.00000000000E+00 0. -1.
</event>
<event>
 7    1  0.2639126E-011  0.5052884E+02  0.7816164E-02  0.1300439E+00
        -11   -1    0    0    0    0  0.00000000000E+00  0.00000000000E+00  0.45593999997E+02  0.45594000000E+02  0.51100000000E-03 0. -1.
         11   -1    0    0    0    0 -0.00000000000E+00 -0.00000000000E+00 -0.45593999997E+02  0.45594000000E+02  0.51100000000E-03 0.  1.
    9900012    2    1    2    0    0  0.49757343395E+01  0.39912124753E+02 -0.59524664113E+01  0.50528837553E+02  0.29999932226E+02 0.  0.
         12    1    1    2    0    0 -0.49757343395E+01 -0.39912124753E+02  0.59524664113E+01  0.40659162447E+02  0.00000000000E+00 0. -1.
         11    1    3    3    0    0  0.79413451504E+01  0.15890053640E+02  0.10477812735E+02  0.20623853361E+02  0.51100000000E-03 0. -1.
        -11    1    3    3    0    0 -0.18180248804E+01  0.28979139714E+01 -0.57822603835E+00  0.34695050748E+01  0.51100000000E-03 0.  1.
        -12    1    3    3    0    0 -0.11475859304E+01  0.21124157142E+02 -0.15852053108E+02  0.26435479117E+02  0.00000000000E+00 0.  1.
</event>
<event>
 7    1  0.2639126E-011  0.5052887E+02  0.7816164E-02  0.1300439E+00
        -11   -1    0    0    0    0  0.00000000000E+00  0.00000000000E+00  0.45593999997E+02  0.45594000000E+02  0.51100000000E-03 0.  1.
         11   -1    0    0    0    0 -0.00000000000E+00 -0.00000000000E+00 -0.45593999997E+02  0.45594000000E+02  0.51100000000E-03 0. -1.
    9900012    2    1    2    0    0  0.33371114653E+02  0.23148462849E+02 -0.19189786330E+01  0.50528866900E+02  0.30000021429E+02 0.  0.
         12    1    1    2    0    0 -0.33371114653E+02 -0.23148462849E+02  0.19189786330E+01  0.40659133100E+02  0.00000000000E+00 0. -1.
         11    1    3    3    0    0  0.25969363117E+00  0.18713928708E+01 -0.17720627103E+01  0.25903201673E+01  0.51100000000E-03 0. -1.
        -11    1    3    3    0    0  0.15685090212E+02 -0.17098752298E+00 -0.99966217689E+01  0.18600638128E+02  0.51100000000E-03 0.  1.
        -12    1    3    3    0    0  0.17426330810E+02  0.21448057501E+02  0.98497058462E+01  0.29337908605E+02  0.00000000000E+00 0.  1.
</event>
<event>
 7    1  0.2639126E-011  0.5052887E+02  0.7816164E-02  0.1300439E+00
        -11   -1    0    0    0    0  0.00000000000E+00  0.00000000000E+00  0.45593999997E+02  0.45594000000E+02  0.51100000000E-03 0.  1.
         11   -1    0    0    0    0 -0.00000000000E+00 -0.00000000000E+00 -0.45593999997E+02  0.45594000000E+02  0.51100000000E-03 0. -1.
    9900012    2    1    2    0    0  0.23214228720E+02  0.29586602591E+02  0.15456314682E+02  0.50528866567E+02  0.30000020417E+02 0.  0.
         12    1    1    2    0    0 -0.23214228720E+02 -0.29586602591E+02 -0.15456314682E+02  0.40659133433E+02  0.00000000000E+00 0. -1.
         11    1    3    3    0    0  0.57133609834E+01  0.14527005626E+02  0.22344859602E+01  0.15769252169E+02  0.51100000000E-03 0. -1.
        -11    1    3    3    0    0  0.17690806878E+02  0.57106643623E+01  0.29889220967E-01  0.18589707612E+02  0.51100000000E-03 0.  1.
        -12    1    3    3    0    0 -0.18993914167E+00  0.93489326028E+01  0.13191939501E+02  0.16169906786E+02  0.00000000000E+00 0.  1.
</event>
<event>
 7    1  0.2639126E-011  0.5052886E+02  0.7816164E-02  0.1300439E+00
        -11   -1    0    0    0    0  0.00000000000E+00  0.00000000000E+00  0.45593999997E+02  0.45594000000E+02  0.51100000000E-03 0.  1.
         11   -1    0    0    0    0 -0.00000000000E+00 -0.00000000000E+00 -0.45593999997E+02  0.45594000000E+02  0.51100000000E-03 0. -1.
    9900012    2    1    2    0    0  0.29139111396E+02 -0.21580184822E+02  0.18394924187E+02  0.50528862949E+02  0.30000009419E+02 0.  0.
         12    1    1    2    0    0 -0.29139111396E+02  0.21580184822E+02 -0.18394924187E+02  0.40659137051E+02  0.00000000000E+00 0. -1.
         11    1    3    3    0    0 -0.11404930309E+01 -0.69695272818E+01 -0.18727100983E+01  0.73063040080E+01  0.51100000000E-03 0. -1.
        -11    1    3    3    0    0  0.74552821563E+01 -0.90586101931E+01 -0.67643574566E+00  0.11751477194E+02  0.51100000000E-03 0.  1.
        -12    1    3    3    0    0  0.22824322271E+02 -0.55520473474E+01  0.20944070031E+02  0.31471081747E+02  0.00000000000E+00 0.  1.
</event>
<event>
 7    1  0.2639126E-011  0.5052886E+02  0.7816164E-02  0.1300439E+00
        -11   -1    0    0    0    0  0.00000000000E+00  0.00000000000E+00  0.45593999997E+02  0.45594000000E+02  0.51100000000E-03 0. -1.
         11   -1    0    0    0    0 -0.00000000000E+00 -0.00000000000E+00 -0.45593999997E+02  0.45594000000E+02  0.51100000000E-03 0.  1.
    9900012    2    1    2    0    0 -0.16637044689E+02  0.19914393510E+02 -0.31301624518E+02  0.50528855612E+02  0.29999987119E+02 0.  0.
         12    1    1    2    0    0  0.16637044689E+02 -0.19914393510E+02  0.31301624518E+02  0.40659144388E+02  0.00000000000E+00 0. -1.
         11    1    3    3    0    0 -0.12207261670E+02  0.52548274109E+01 -0.13763660510E+02  0.19132924489E+02  0.51100000000E-03 0. -1.
        -11    1    3    3    0    0 -0.70448667434E+01  0.10588015679E+02 -0.21608077160E+02  0.25072798453E+02  0.51100000000E-03 0.  1.
         12    1    3    3    0    0  0.26150837248E+01  0.40715504198E+01  0.40701131512E+01  0.63231326707E+01  0.00000000000E+00 0. -1.
</event>
<event>
 7    1  0.2639126E-011  0.5052887E+02  0.7816164E-02  0.1300439E+00
        -11   -1    0    0    0    0  0.00000000000E+00  0.00000000000E+00  0.45593999997E+02  0.45594000000E+02  0.51100000000E-03 0.  1.
         11   -1    0    0    0    0 -0.00000000000E+00 -0.00000000000E+00 -0.45593999997E+02  0.45594000000E+02  0.51100000000E-03 0. -1.
    9900012    2    1    2    0    0 -0.21001533319E+02  0.28389234034E+02  0.20153218888E+02  0.50528865204E+02  0.30000016274E+02 0.  0.
         12    1    1    2    0    0  0.21001533319E+02 -0.28389234034E+02 -0.20153218888E+02  0.40659134796E+02  0.00000000000E+00 0. -1.
         11    1    3    3    0    0 -0.43016409751E+01 -0.25117342927E+01 -0.53567759738E+00  0.50099775434E+01  0.51100000000E-03 0. -1.
        -11    1    3    3    0    0 -0.32111193931E+01 -0.26789270471E+01  0.91420890526E+00  0.42806209905E+01  0.51100000000E-03 0.  1.
        -12    1    3    3    0    0 -0.13488772951E+02  0.33579895374E+02  0.19774687580E+02  0.41238266670E+02  0.00000000000E+00 0.  1.
</event>
<event>
 7    1  0.2639126E-011  0.5052885E+02  0.7816164E-02  0.1300439E+00
        -11   -1    0    0    0    0  0.00000000000E+00  0.00000000000E+00  0.45593999997E+02  0.45594000000E+02  0.51100000000E-03 0.  1.
         11   -1    0    0    0    0 -0.00000000000E+00 -0.00000000000E+00 -0.45593999997E+02  0.45594000000E+02  0.51100000000E-03 0. -1.
    9900012    2    1    2    0    0  0.27992534944E+02  0.26168714358E+02  0.13593483158E+02  0.50528850868E+02  0.29999972699E+02 0.  0.
         12    1    1    2    0    0 -0.27992534944E+02 -0.26168714358E+02 -0.13593483158E+02  0.40659149132E+02  0.00000000000E+00 0. -1.
         11    1    3    3    0    0  0.13568327647E+02  0.12516036129E+02  0.14780851626E+02  0.23647922754E+02  0.51100000000E-03 0. -1.
        -11    1    3    3    0    0 -0.25404563706E+01  0.84921199298E+01  0.13565322874E+01  0.89671734443E+01  0.51100000000E-03 0.  1.
         12    1    3    3    0    0  0.16964663668E+02  0.51605582992E+01 -0.25439007551E+01  0.17913754670E+02  0.00000000000E+00 0. -1.
</event>
<event>
 7    1  0.2639126E-011  0.5052890E+02  0.7816164E-02  0.1300439E+00
        -11   -1    0    0    0    0  0.00000000000E+00  0.00000000000E+00  0.45593999997E+02  0.45594000000E+02  0.51100000000E-03 0.  1.
         11   -1    0    0    0    0 -0.00000000000E+00 -0.00000000000E+00 -0.45593999997E+02  0.45594000000E+02  0.51100000000E-03 0. -1.
    9900012    2    1    2    0    0  0.35184133570E+02 -0.19557302967E+02 -0.57228266090E+01  0.50528903861E+02  0.30000133776E+02 0.  0.
         12    1    1    2    0    0 -0.35184133570E+02  0.19557302967E+02  0.57228266090E+01  0.40659096139E+02  0.00000000000E+00 0. -1.
         11    1    3    3    0    0  0.42638343726E+01 -0.82230239051E+01 -0.58240617606E+01  0.10941576731E+02  0.51100000000E-03 0.  1.
        -11    1    3    3    0    0  0.71233662198E-01 -0.79682159841E+01 -0.27373829184E+01  0.84256041746E+01  0.51100000000E-03 0. -1.
        -12    1    3    3    0    0  0.30849065535E+02 -0.33660630781E+01  0.28386180701E+01  0.31161722956E+02  0.00000000000E+00 0.  1.
</event>
<event>
 7    1  0.2639126E-011  0.5052886E+02  0.7816164E-02  0.1300439E+00
        -11   -1    0    0    0    0  0.00000000000E+00  0.00000000000E+00  0.45593999997E+02  0.45594000000E+02  0.51100000000E-03 0. -1.
         11   -1    0    0    0    0 -0.00000000000E+00 -0.00000000000E+00 -0.45593999997E+02  0.45594000000E+02  0.51100000000E-03 0.  1.
    9900012    2    1    2    0    0  0.10164612279E+02  0.34124296249E+02  0.19631066478E+02  0.50528859474E+02  0.29999998857E+02 0.  0.
         12    1    1    2    0    0 -0.10164612279E+02 -0.34124296249E+02 -0.19631066478E+02  0.40659140526E+02  0.00000000000E+00 0. -1.
         11    1    3    3    0    0 -0.14634130539E+01  0.96927138960E+01 -0.31507373005E+01  0.10296476399E+02  0.51100000000E-03 0. -1.
        -11    1    3    3    0    0 -0.28527073355E+01  0.13888749981E+02  0.51133404159E+01  0.15072543437E+02  0.51100000000E-03 0.  1.
         12    1    3    3    0    0  0.14480732669E+02  0.10542832372E+02  0.17668463363E+02  0.25159839638E+02  0.00000000000E+00 0. -1.
</event>
<event>
 7    1  0.2639126E-011  0.5052886E+02  0.7816164E-02  0.1300439E+00
        -11   -1    0    0    0    0  0.00000000000E+00  0.00000000000E+00  0.45593999997E+02  0.45594000000E+02  0.51100000000E-03 0.  1.
         11   -1    0    0    0    0 -0.00000000000E+00 -0.00000000000E+00 -0.45593999997E+02  0.45594000000E+02  0.51100000000E-03 0. -1.
    9900012    2    1    2    0    0 -0.33302675669E+02 -0.29960270895E+01  0.23132689332E+02  0.50528859566E+02  0.29999999138E+02 0.  0.
         12    1    1    2    0    0  0.33302675669E+02  0.29960270895E+01 -0.23132689332E+02  0.40659140434E+02  0.00000000000E+00 0. -1.
         11    1    3    3    0    0 -0.12070771779E+02  0.26133367906E+01  0.16331173043E+00  0.12351507256E+02  0.51100000000E-03 0. -1.
        -11    1    3    3    0    0 -0.13825465235E+02 -0.13594926709E+02  0.16827085789E+02  0.25673261140E+02  0.51100000000E-03 0.  1.
         12    1    3    3    0    0 -0.74064386558E+01  0.79855628293E+01  0.61422918129E+01  0.12504091170E+02  0.00000000000E+00 0. -1.
</event>
<event>
 7    1  0.2639126E-011  0.5052886E+02  0.7816164E-02  0.1300439E+00
        -11   -1    0    0    0    0  0.00000000000E+00  0.00000000000E+00  0.45593999997E+02  0.45594000000E+02  0.51100000000E-03 0.  1.
         11   -1    0    0    0    0 -0.00000000000E+00 -0.00000000000E+00 -0.45593999997E+02  0.45594000000E+02  0.51100000000E-03 0. -1.
    9900012    2    1    2    0    0 -0.25775052158E+02  0.15233300422E+02  0.27509254226E+02  0.50528858057E+02  0.29999994550E+02 0.  0.
         12    1    1    2    0    0  0.25775052158E+02 -0.15233300422E+02 -0.27509254226E+02  0.40659141943E+02  0.00000000000E+00 0. -1.
         11    1    3    3    0    0 -0.83007261940E+01  0.32745890539E+01  0.21815189794E+00  0.89259497719E+01  0.51100000000E-03 0. -1.
        -11    1    3    3    0    0 -0.22091056904E+02  0.76890955462E+01  0.14973742816E+02  0.27773187783E+02  0.51100000000E-03 0.  1.
        -12    1    3    3    0    0  0.46167309394E+01  0.42696158215E+01  0.12317359511E+02  0.13829720502E+02  0.00000000000E+00 0.  1.
</event>
<event>
 7    1  0.2639126E-011  0.5052880E+02  0.7816164E-02  0.1300439E+00
        -11   -1    0    0    0    0  0.00000000000E+00  0.00000000000E+00  0.45593999997E+02  0.45594000000E+02  0.51100000000E-03 0.  1.
         11   -1    0    0    0    0 -0.00000000000E+00 -0.00000000000E+00 -0.45593999997E+02  0.45594000000E+02  0.51100000000E-03 0. -1.
    9900012    2    1    2    0    0  0.39797055734E+02 -0.72462195716E+01  0.41057239480E+01  0.50528802857E+02  0.29999826762E+02 0.  0.
         12    1    1    2    0    0 -0.39797055734E+02  0.72462195716E+01 -0.41057239480E+01  0.40659197143E+02  0.00000000000E+00 0. -1.
         11    1    3    3    0    0 -0.18259082804E+01  0.18332039295E+01 -0.61800899186E+00  0.26601716243E+01  0.51100000000E-03 0. -1.
        -11    1    3    3    0    0  0.51409752148E+01  0.43396189614E+01 -0.42722698233E+01  0.79695802019E+01  0.51100000000E-03 0.  1.
        -12    1    3    3    0    0  0.36481988800E+02 -0.13419042463E+02  0.89960027631E+01  0.39899051030E+02  0.00000000000E+00 0.  1.
</event>
<event>
 7    1  0.2639126E-011  0.5052889E+02  0.7816164E-02  0.1300439E+00
        -11   -1    0    0    0    0  0.00000000000E+00  0.00000000000E+00  0.45593999997E+02  0.45594000000E+02  0.51100000000E-03 0.  1.
         11   -1    0    0    0    0 -0.00000000000E+00 -0.00000000000E+00 -0.45593999997E+02  0.45594000000E+02  0.51100000000E-03 0. -1.
    9900012    2    1    2    0    0  0.95632862824E+01 -0.35267429036E+02 -0.17830171829E+02  0.50528892498E+02  0.30000099238E+02 0.  0.
         12    1    1    2    0    0 -0.95632862824E+01  0.35267429036E+02  0.17830171829E+02  0.40659107502E+02  0.00000000000E+00 0. -1.
         11    1    3    3    0    0  0.75270596908E+01 -0.13168061344E+02 -0.15362792385E+02  0.21588651123E+02  0.51100000000E-03 0. -1.
        -11    1    3    3    0    0  0.29078502821E+01 -0.28909107352E+01 -0.79504421612E+01  0.89455289928E+01  0.51100000000E-03 0.  1.
        -12    1    3    3    0    0 -0.87162369045E+00 -0.19208456957E+02  0.54830627172E+01  0.19994712383E+02  0.00000000000E+00 0.  1.
</event>
<event>
 7    1  0.2639126E-011  0.5052885E+02  0.7816164E-02  0.1300439E+00
        -11   -1    0    0    0    0  0.00000000000E+00  0.00000000000E+00  0.45593999997E+02  0.45594000000E+02  0.51100000000E-03 0.  1.
         11   -1    0    0    0    0 -0.00000000000E+00 -0.00000000000E+00 -0.45593999997E+02  0.45594000000E+02  0.51100000000E-03 0. -1.
    9900012    2    1    2    0    0  0.98767213774E+01 -0.90531442242E+01  0.38388245493E+02  0.50528850506E+02  0.29999971598E+02 0.  0.
         12    1    1    2    0    0 -0.98767213774E+01  0.90531442242E+01 -0.38388245493E+02  0.40659149494E+02  0.00000000000E+00 0. -1.
         11    1    3    3    0    0  0.45255003811E+01  0.20922836384E+01  0.61660502311E+01  0.79295636852E+01  0.51100000000E-03 0. -1.
        -11    1    3    3    0    0  0.67400577529E+01 -0.28124495706E+01 -0.18182420503E+01  0.75262378061E+01  0.51100000000E-03 0.  1.
        -12    1    3    3    0    0 -0.13888367566E+01 -0.83329782920E+01  0.34040437313E+02  0.35073049015E+02  0.00000000000E+00 0.  1.
</event>
<event>
 7    1  0.2639126E-011  0.5052885E+02  0.7816164E-02  0.1300439E+00
        -11   -1    0    0    0    0  0.00000000000E+00  0.00000000000E+00  0.45593999997E+02  0.45594000000E+02  0.51100000000E-03 0.  1.
         11   -1    0    0    0    0 -0.00000000000E+00 -0.00000000000E+00 -0.45593999997E+02  0.45594000000E+02  0.51100000000E-03 0. -1.
    9900012    2    1    2    0    0 -0.12201066254E+02 -0.22831970623E+02  0.31352849523E+02  0.50528854983E+02  0.29999985207E+02 0.  0.
         12    1    1    2    0    0  0.12201066254E+02  0.22831970623E+02 -0.31352849523E+02  0.40659145017E+02  0.00000000000E+00 0. -1.
         11    1    3    3    0    0  0.16467924578E+01 -0.12686676632E+02  0.42020571885E+01  0.13465547677E+02  0.51100000000E-03 0. -1.
        -11    1    3    3    0    0  0.15412311824E+01 -0.95580939189E+01  0.85669685628E+01  0.12927702949E+02  0.51100000000E-03 0.  1.
        -12    1    3    3    0    0 -0.15389089894E+02 -0.58720007209E+00  0.18583823772E+02  0.24135604357E+02  0.00000000000E+00 0.  1.
</event>
<event>
 7    1  0.2639126E-011  0.5052887E+02  0.7816164E-02  0.1300439E+00
        -11   -1    0    0    0    0  0.00000000000E+00  0.00000000000E+00  0.45593999997E+02  0.45594000000E+02  0.51100000000E-03 0. -1.
         11   -1    0    0    0    0 -0.00000000000E+00 -0.00000000000E+00 -0.45593999997E+02  0.45594000000E+02  0.51100000000E-03 0.  1.
    9900012    2    1    2    0    0  0.16198165015E+02  0.36032633672E+02 -0.96142526394E+01  0.50528867041E+02  0.30000021857E+02 0.  0.
         12    1    1    2    0    0 -0.16198165015E+02 -0.36032633672E+02  0.96142526394E+01  0.40659132959E+02  0.00000000000E+00 0. -1.
         11    1    3    3    0    0  0.19241963855E+02  0.11076939367E+02 -0.98193059246E+00  0.22224219822E+02  0.51100000000E-03 0. -1.
        -11    1    3    3    0    0  0.23991955524E+01  0.11826371251E+02 -0.84156545193E+00  0.12096587491E+02  0.51100000000E-03 0.  1.
        -12    1    3    3    0    0 -0.54429943928E+01  0.13129323054E+02 -0.77907565950E+01  0.16208059728E+02  0.00000000000E+00 0.  1.
</event>
<event>
 7    1  0.2639126E-011  0.5052886E+02  0.7816164E-02  0.1300439E+00
        -11   -1    0    0    0    0  0.00000000000E+00  0.00000000000E+00  0.45593999997E+02  0.45594000000E+02  0.51100000000E-03 0.  1.
         11   -1    0    0    0    0 -0.00000000000E+00 -0.00000000000E+00 -0.45593999997E+02  0.45594000000E+02  0.51100000000E-03 0. -1.
    9900012    2    1    2    0    0  0.21538604088E+02  0.34472957131E+02  0.93234214071E+00  0.50528862020E+02  0.30000006595E+02 0.  0.
         12    1    1    2    0    0 -0.21538604088E+02 -0.34472957131E+02 -0.93234214071E+00  0.40659137980E+02  0.00000000000E+00 0. -1.
         11    1    3    3    0    0  0.54793990334E+01  0.11818090307E+01 -0.89001800406E+00  0.56756161481E+01  0.51100000000E-03 0. -1.
        -11    1    3    3    0    0 -0.43109366491E+01  0.23304375842E+00 -0.36321058491E+01  0.56418682497E+01  0.51100000000E-03 0.  1.
        -12    1    3    3    0    0  0.20370141704E+02  0.33058104342E+02  0.54544659939E+01  0.39211377622E+02  0.00000000000E+00 0.  1.
</event>
<event>
 7    1  0.2639126E-011  0.5052886E+02  0.7816164E-02  0.1300439E+00
        -11   -1    0    0    0    0  0.00000000000E+00  0.00000000000E+00  0.45593999997E+02  0.45594000000E+02  0.51100000000E-03 0. -1.
         11   -1    0    0    0    0 -0.00000000000E+00 -0.00000000000E+00 -0.45593999997E+02  0.45594000000E+02  0.51100000000E-03 0.  1.
    9900012    2    1    2    0    0  0.22366031908E+01  0.34836731042E+02 -0.20846228819E+02  0.50528862287E+02  0.30000007408E+02 0.  0.
         12    1    1    2    0    0 -0.22366031908E+01 -0.34836731042E+02  0.20846228819E+02  0.40659137713E+02  0.00000000000E+00 0. -1.
         11    1    3    3    0    0 -0.16639321803E+01  0.22577991393E+02 -0.13116365823E+02  0.26164353964E+02  0.51100000000E-03 0. -1.
        -11    1    3    3    0    0  0.15641408044E+01  0.17325732185E+02 -0.69389196159E+01  0.18729018605E+02  0.51100000000E-03 0.  1.
         12    1    3    3    0    0  0.23363945667E+01 -0.50669925364E+01 -0.79094338028E+00  0.56354897184E+01  0.00000000000E+00 0. -1.
</event>
<event>
 7    1  0.2639126E-011  0.5052887E+02  0.7816164E-02  0.1300439E+00
        -11   -1    0    0    0    0  0.00000000000E+00  0.00000000000E+00  0.45593999997E+02  0.45594000000E+02  0.51100000000E-03 0. -1.
         11   -1    0    0    0    0 -0.00000000000E+00 -0.00000000000E+00 -0.45593999997E+02  0.45594000000E+02  0.51100000000E-03 0.  1.
    9900012    2    1    2    0    0  0.13090010429E+02  0.24799805887E+02 -0.29441229846E+02  0.50528871137E+02  0.30000034308E+02 0.  0.
         12    1    1    2    0    0 -0.13090010429E+02 -0.24799805887E+02  0.29441229846E+02  0.40659128863E+02  0.00000000000E+00 0. -1.
         11    1    3    3    0    0  0.14056599474E+02  0.13726559374E+02 -0.14132751759E+02  0.24202088619E+02  0.51100000000E-03 0. -1.
        -11    1    3    3    0    0  0.40330668116E+01 -0.38246433996E+01 -0.53994634328E+01  0.77490470810E+01  0.51100000000E-03 0.  1.
         12    1    3    3    0    0 -0.49996558558E+01  0.14897889913E+02 -0.99090146545E+01  0.18577735437E+02  0.00000000000E+00 0. -1.
</event>
<event>
 7    1  0.2639126E-011  0.5052886E+02  0.7816164E-02  0.1300439E+00
        -11   -1    0    0    0    0  0.00000000000E+00  0.00000000000E+00  0.45593999997E+02  0.45594000000E+02  0.51100000000E-03 0.  1.
         11   -1    0    0    0    0 -0.00000000000E+00 -0.00000000000E+00 -0.45593999997E+02  0.45594000000E+02  0.51100000000E-03 0. -1.
    9900012    2    1    2    0    0 -0.18276430432E+02  0.32753413434E+02  0.15695597723E+02  0.50528858484E+02  0.29999995849E+02 0.  0.
         12    1    1    2    0    0  0.18276430432E+02 -0.32753413434E+02 -0.15695597723E+02  0.40659141516E+02  0.00000000000E+00 0. -1.
         11    1    3    3    0    0 -0.18610896008E+01  0.90347800827E+01 -0.83447067163E-01  0.92248506394E+01  0.51100000000E-03 0. -1.
        -11    1    3    3    0    0 -0.19750360776E+02  0.19849674639E+02  0.37705162990E+01  0.28254258572E+02  0.51100000000E-03 0.  1.
        -12    1    3    3    0    0  0.33350199447E+01  0.38689587125E+01  0.12008528492E+02  0.13049749273E+02  0.00000000000E+00 0.  1.
</event>
<event>
 7    1  0.2639126E-011  0.5052887E+02  0.7816164E-02  0.1300439E+00
        -11   -1    0    0    0    0  0.00000000000E+00  0.00000000000E+00  0.45593999997E+02  0.45594000000E+02  0.51100000000E-03 0.  1.
         11   -1    0    0    0    0 -0.00000000000E+00 -0.00000000000E+00 -0.45593999997E+02  0.45594000000E+02  0.51100000000E-03 0. -1.
    9900012    2    1    2    0    0 -0.29571582778E+02 -0.12700083703E+02  0.24847417925E+02  0.50528870501E+02  0.30000032375E+02 0.  0.
         12    1    1    2    0    0  0.29571582778E+02  0.12700083703E+02 -0.24847417925E+02  0.40659129499E+02  0.00000000000E+00 0. -1.
         11    1    3    3    0    0 -0.22581128133E+02 -0.63982624286E+01  0.48900218151E+01  0.23974099013E+02  0.51100000000E-03 0. -1.
        -11    1    3    3    0    0 -0.83948098715E+01 -0.35638483523E+00  0.36877936019E+01  0.91760375348E+01  0.51100000000E-03 0.  1.
        -12    1    3    3    0    0  0.14043552263E+01 -0.59454364395E+01  0.16269602508E+02  0.17378733954E+02  0.00000000000E+00 0.  1.
</event>
<event>
 7    1  0.2639126E-011  0.5052886E+02  0.7816164E-02  0.1300439E+00
        -11   -1    0    0    0    0  0.00000000000E+00  0.00000000000E+00  0.45593999997E+02  0.45594000000E+02  0.51100000000E-03 0.  1.
         11   -1    0    0    0    0 -0.00000000000E+00 -0.00000000000E+00 -0.45593999997E+02  0.45594000000E+02  0.51100000000E-03 0. -1.
    9900012    2    1    2    0    0  0.34763745260E+02 -0.19455601623E+02  0.81318826308E+01  0.50528856697E+02  0.29999990416E+02 0.  0.
         12    1    1    2    0    0 -0.34763745260E+02  0.19455601623E+02 -0.81318826308E+01  0.40659143303E+02  0.00000000000E+00 0. -1.
         11    1    3    3    0    0  0.66598836303E+01 -0.55590032318E+01  0.69679366667E+01  0.11126936171E+02  0.51100000000E-03 0. -1.
        -11    1    3    3    0    0  0.16959574914E+02 -0.14934167265E+00  0.99294643946E+01  0.19653084939E+02  0.51100000000E-03 0.  1.
         12    1    3    3    0    0  0.11144286716E+02 -0.13747256718E+02 -0.87655184304E+01  0.19748835587E+02  0.00000000000E+00 0. -1.
</event>
<event>
 7    1  0.2639126E-011  0.5052886E+02  0.7816164E-02  0.1300439E+00
        -11   -1    0    0    0    0  0.00000000000E+00  0.00000000000E+00  0.45593999997E+02  0.45594000000E+02  0.51100000000E-03 0.  1.
         11   -1    0    0    0    0 -0.00000000000E+00 -0.00000000000E+00 -0.45593999997E+02  0.45594000000E+02  0.51100000000E-03 0. -1.
    9900012    2    1    2    0    0 -0.29990303487E+02 -0.18857495682E+02  0.19953494880E+02  0.50528863209E+02  0.30000010211E+02 0.  0.
         12    1    1    2    0    0  0.29990303487E+02  0.18857495682E+02 -0.19953494880E+02  0.40659136791E+02  0.00000000000E+00 0. -1.
         11    1    3    3    0    0 -0.13534796950E+01 -0.73308429206E+01  0.55880317295E+01  0.93166122642E+01  0.51100000000E-03 0.  1.
        -11    1    3    3    0    0 -0.20847342298E+02 -0.17544825504E+02  0.15426905606E+02  0.31311691103E+02  0.51100000000E-03 0. -1.
        -12    1    3    3    0    0 -0.77894814937E+01  0.60181727432E+01 -0.10614424548E+01  0.99005598424E+01  0.00000000000E+00 0.  1.
</event>
<event>
 7    1  0.2639126E-011  0.5052886E+02  0.7816164E-02  0.1300439E+00
        -11   -1    0    0    0    0  0.00000000000E+00  0.00000000000E+00  0.45593999997E+02  0.45594000000E+02  0.51100000000E-03 0.  1.
         11   -1    0    0    0    0 -0.00000000000E+00 -0.00000000000E+00 -0.45593999997E+02  0.45594000000E+02  0.51100000000E-03 0. -1.
    9900012    2    1    2    0    0 -0.35305846271E+02 -0.73587136648E+01  0.18775310875E+02  0.50528859009E+02  0.29999997444E+02 0.  0.
         12    1    1    2    0    0  0.35305846271E+02  0.73587136648E+01 -0.18775310875E+02  0.40659140991E+02  0.00000000000E+00 0. -1.
         11    1    3    3    0    0  0.18541535472E+01 -0.10487545347E+01  0.30810374203E+01  0.37457393525E+01  0.51100000000E-03 0. -1.
        -11    1    3    3    0    0 -0.23177232114E+02 -0.62874396453E+01  0.20926640920E+02  0.31853418752E+02  0.51100000000E-03 0.  1.
         12    1    3    3    0    0 -0.13982767704E+02 -0.22519484757E-01 -0.52323674658E+01  0.14929700904E+02  0.00000000000E+00 0. -1.
</event>
<event>
 7    1  0.2639126E-011  0.5052886E+02  0.7816164E-02  0.1300439E+00
        -11   -1    0    0    0    0  0.00000000000E+00  0.00000000000E+00  0.45593999997E+02  0.45594000000E+02  0.51100000000E-03 0.  1.
         11   -1    0    0    0    0 -0.00000000000E+00 -0.00000000000E+00 -0.45593999997E+02  0.45594000000E+02  0.51100000000E-03 0. -1.
    9900012    2    1    2    0    0 -0.87449356802E+01 -0.36727206927E+02  0.15093176736E+02  0.50528860650E+02  0.30000002432E+02 0.  0.
         12    1    1    2    0    0  0.87449356802E+01  0.36727206927E+02 -0.15093176736E+02  0.40659139350E+02  0.00000000000E+00 0. -1.
         11    1    3    3    0    0 -0.58633176069E+01 -0.72074879768E+01  0.47167737570E+00  0.93031637685E+01  0.51100000000E-03 0. -1.
        -11    1    3    3    0    0 -0.27803685763E+01 -0.21510581763E+02 -0.29743838472E+01  0.21892522393E+02  0.51100000000E-03 0.  1.
        -12    1    3    3    0    0 -0.10124949703E+00 -0.80091371869E+01  0.17595883207E+02  0.19333174488E+02  0.00000000000E+00 0.  1.
</event>
<event>
 7    1  0.2639126E-011  0.5052886E+02  0.7816164E-02  0.1300439E+00
        -11   -1    0    0    0    0  0.00000000000E+00  0.00000000000E+00  0.45593999997E+02  0.45594000000E+02  0.51100000000E-03 0. -1.
         11   -1    0    0    0    0 -0.00000000000E+00 -0.00000000000E+00 -0.45593999997E+02  0.45594000000E+02  0.51100000000E-03 0.  1.
    9900012    2    1    2    0    0 -0.47593552674E+01 -0.25652824978E+02 -0.31184075813E+02  0.50528862329E+02  0.30000007534E+02 0.  0.
         12    1    1    2    0    0  0.47593552674E+01  0.25652824978E+02  0.31184075813E+02  0.40659137671E+02  0.00000000000E+00 0. -1.
         11    1    3    3    0    0  0.50702433133E+00 -0.13332974602E+02  0.28336901600E+01  0.13640201084E+02  0.51100000000E-03 0. -1.
        -11    1    3    3    0    0  0.90796446257E+00 -0.18929790697E+01 -0.40059647971E+01  0.45227782877E+01  0.51100000000E-03 0.  1.
        -12    1    3    3    0    0 -0.61743440613E+01 -0.10426871306E+02 -0.30011801176E+02  0.32365882957E+02  0.00000000000E+00 0.  1.
</event>
<event>
 7    1  0.2639126E-011  0.5052886E+02  0.7816164E-02  0.1300439E+00
        -11   -1    0    0    0    0  0.00000000000E+00  0.00000000000E+00  0.45593999997E+02  0.45594000000E+02  0.51100000000E-03 0. -1.
         11   -1    0    0    0    0 -0.00000000000E+00 -0.00000000000E+00 -0.45593999997E+02  0.45594000000E+02  0.51100000000E-03 0.  1.
    9900012    2    1    2    0    0  0.36369619455E+02  0.71996796779E+01 -0.16690748729E+02  0.50528859577E+02  0.29999999171E+02 0.  0.
         12    1    1    2    0    0 -0.36369619455E+02 -0.71996796779E+01  0.16690748729E+02  0.40659140423E+02  0.00000000000E+00 0. -1.
         11    1    3    3    0    0  0.72887704228E+01 -0.43932773645E-01 -0.72699075246E+01  0.10294642298E+02  0.51100000000E-03 0. -1.
        -11    1    3    3    0    0  0.12969029997E+02 -0.69313548715E+01 -0.11508586782E+02  0.18673162276E+02  0.51100000000E-03 0.  1.
         12    1    3    3    0    0  0.16111819036E+02  0.14174967323E+02  0.20877455779E+01  0.21561055003E+02  0.00000000000E+00 0. -1.
</event>
<event>
 7    1  0.2639126E-011  0.5052886E+02  0.7816164E-02  0.1300439E+00
        -11   -1    0    0    0    0  0.00000000000E+00  0.00000000000E+00  0.45593999997E+02  0.45594000000E+02  0.51100000000E-03 0. -1.
         11   -1    0    0    0    0 -0.00000000000E+00 -0.00000000000E+00 -0.45593999997E+02  0.45594000000E+02  0.51100000000E-03 0.  1.
    9900012    2    1    2    0    0 -0.98522414603E+01 -0.11917149080E+02 -0.37604265126E+02  0.50528857613E+02  0.29999993200E+02 0.  0.
         12    1    1    2    0    0  0.98522414603E+01  0.11917149080E+02  0.37604265126E+02  0.40659142387E+02  0.00000000000E+00 0. -1.
         11    1    3    3    0    0 -0.17463611809E+02  0.89175074104E+00 -0.24966914712E+02  0.30481466292E+02  0.51100000000E-03 0. -1.
        -11    1    3    3    0    0  0.70242124697E+00 -0.17085546945E+01 -0.39185365284E+01  0.43321453736E+01  0.51100000000E-03 0.  1.
         12    1    3    3    0    0  0.69089491017E+01 -0.11100345127E+02 -0.87188138854E+01  0.15715245947E+02  0.00000000000E+00 0. -1.
</event>
<event>
 7    1  0.2639126E-011  0.5052888E+02  0.7816164E-02  0.1300439E+00
        -11   -1    0    0    0    0  0.00000000000E+00  0.00000000000E+00  0.45593999997E+02  0.45594000000E+02  0.51100000000E-03 0.  1.
         11   -1    0    0    0    0 -0.00000000000E+00 -0.00000000000E+00 -0.45593999997E+02  0.45594000000E+02  0.51100000000E-03 0. -1.
    9900012    2    1    2    0    0  0.15111839421E+02  0.95875508143E+01  0.36508566787E+02  0.50528877160E+02  0.30000052615E+02 0.  0.
         12    1    1    2    0    0 -0.15111839421E+02 -0.95875508143E+01 -0.36508566787E+02  0.40659122840E+02  0.00000000000E+00 0. -1.
         11    1    3    3    0    0 -0.12826202905E+01  0.11929430585E+02  0.15405650317E+02  0.19526661027E+02  0.51100000000E-03 0. -1.
        -11    1    3    3    0    0  0.11511825762E+02  0.11619597582E+01  0.22066310397E+02  0.24915744774E+02  0.51100000000E-03 0.  1.
        -12    1    3    3    0    0  0.48826339503E+01 -0.35038395294E+01 -0.96339392783E+00  0.60864713587E+01  0.00000000000E+00 0.  1.
</event>
<event>
 7    1  0.2639126E-011  0.5052886E+02  0.7816164E-02  0.1300439E+00
        -11   -1    0    0    0    0  0.00000000000E+00  0.00000000000E+00  0.45593999997E+02  0.45594000000E+02  0.51100000000E-03 0.  1.
         11   -1    0    0    0    0 -0.00000000000E+00 -0.00000000000E+00 -0.45593999997E+02  0.45594000000E+02  0.51100000000E-03 0. -1.
    9900012    2    1    2    0    0  0.30196030848E+02 -0.27157773652E+02 -0.19547558671E+01  0.50528855651E+02  0.29999987237E+02 0.  0.
         12    1    1    2    0    0 -0.30196030848E+02  0.27157773652E+02  0.19547558671E+01  0.40659144349E+02  0.00000000000E+00 0. -1.
         11    1    3    3    0    0  0.19669542005E+02 -0.13151824249E+02 -0.58380397446E+01  0.24370967811E+02  0.51100000000E-03 0. -1.
        -11    1    3    3    0    0  0.14410195662E+02 -0.91140477046E+01 -0.24932810976E+01  0.17231832621E+02  0.51100000000E-03 0.  1.
        -12    1    3    3    0    0 -0.38837068192E+01 -0.48919016988E+01  0.63765649751E+01  0.89260552188E+01  0.00000000000E+00 0.  1.
</event>
<event>
 7    1  0.2639126E-011  0.5052886E+02  0.7816164E-02  0.1300439E+00
        -11   -1    0    0    0    0  0.00000000000E+00  0.00000000000E+00  0.45593999997E+02  0.45594000000E+02  0.51100000000E-03 0.  1.
         11   -1    0    0    0    0 -0.00000000000E+00 -0.00000000000E+00 -0.45593999997E+02  0.45594000000E+02  0.51100000000E-03 0. -1.
    9900012    2    1    2    0    0 -0.73373393660E+01 -0.39987791287E+02  0.55259317739E+00  0.50528863755E+02  0.30000011870E+02 0.  0.
         12    1    1    2    0    0  0.73373393660E+01  0.39987791287E+02 -0.55259317739E+00  0.40659136245E+02  0.00000000000E+00 0. -1.
         11    1    3    3    0    0  0.23020246230E+01 -0.82772112264E+00  0.13862922177E+01  0.28118047577E+01  0.51100000000E-03 0. -1.
        -11    1    3    3    0    0  0.20507267739E+01 -0.33241675152E+02  0.44264833157E+01  0.33597741026E+02  0.51100000000E-03 0.  1.
        -12    1    3    3    0    0 -0.11690090763E+02 -0.59183950118E+01 -0.52601823560E+01  0.14119317971E+02  0.00000000000E+00 0.  1.
</event>
<event>
 7    1  0.2639126E-011  0.5052886E+02  0.7816164E-02  0.1300439E+00
        -11   -1    0    0    0    0  0.00000000000E+00  0.00000000000E+00  0.45593999997E+02  0.45594000000E+02  0.51100000000E-03 0. -1.
         11   -1    0    0    0    0 -0.00000000000E+00 -0.00000000000E+00 -0.45593999997E+02  0.45594000000E+02  0.51100000000E-03 0.  1.
    9900012    2    1    2    0    0  0.40412727189E+02  0.62929337420E+00 -0.44250604299E+01  0.50528859713E+02  0.29999999585E+02 0.  0.
         12    1    1    2    0    0 -0.40412727189E+02 -0.62929337420E+00  0.44250604299E+01  0.40659140287E+02  0.00000000000E+00 0. -1.
         11    1    3    3    0    0 -0.22901314740E+01  0.53070952365E+00 -0.22883083739E-01  0.23509314459E+01  0.51100000000E-03 0. -1.
        -11    1    3    3    0    0  0.32550068277E+01 -0.71039535293E+01  0.18541571720E+00  0.78163677271E+01  0.51100000000E-03 0.  1.
        -12    1    3    3    0    0  0.39447851836E+02  0.72025373799E+01 -0.45875930634E+01  0.40361560541E+02  0.00000000000E+00 0.  1.
</event>
<event>
 7    1  0.2639126E-011  0.5052886E+02  0.7816164E-02  0.1300439E+00
        -11   -1    0    0    0    0  0.00000000000E+00  0.00000000000E+00  0.45593999997E+02  0.45594000000E+02  0.51100000000E-03 0. -1.
         11   -1    0    0    0    0 -0.00000000000E+00 -0.00000000000E+00 -0.45593999997E+02  0.45594000000E+02  0.51100000000E-03 0.  1.
    9900012    2    1    2    0    0 -0.24718543427E+02  0.27968351667E+02 -0.16122369238E+02  0.50528857437E+02  0.29999992666E+02 0.  0.
         12    1    1    2    0    0  0.24718543427E+02 -0.27968351667E+02  0.16122369238E+02  0.40659142563E+02  0.00000000000E+00 0. -1.
         11    1    3    3    0    0  0.44645876434E+01 -0.91397188690E+00 -0.52803383705E+00  0.45876690628E+01  0.51100000000E-03 0. -1.
        -11    1    3    3    0    0 -0.35258753477E+01  0.19440533535E+01  0.23242922041E+01  0.46490294600E+01  0.51100000000E-03 0.  1.
         12    1    3    3    0    0 -0.25657255723E+02  0.26938270200E+02 -0.17918627605E+02  0.41292158915E+02  0.00000000000E+00 0. -1.
</event>
<event>
 7    1  0.2639126E-011  0.5052886E+02  0.7816164E-02  0.1300439E+00
        -11   -1    0    0    0    0  0.00000000000E+00  0.00000000000E+00  0.45593999997E+02  0.45594000000E+02  0.51100000000E-03 0.  1.
         11   -1    0    0    0    0 -0.00000000000E+00 -0.00000000000E+00 -0.45593999997E+02  0.45594000000E+02  0.51100000000E-03 0. -1.
    9900012    2    1    2    0    0 -0.33259075115E+02  0.76649884038E+01  0.22096323149E+02  0.50528860542E+02  0.30000002104E+02 0.  0.
         12    1    1    2    0    0  0.33259075115E+02 -0.76649884038E+01 -0.22096323149E+02  0.40659139458E+02  0.00000000000E+00 0. -1.
         11    1    3    3    0    0 -0.86245797325E+00  0.26758727062E+01  0.19721492945E+01  0.34341667980E+01  0.51100000000E-03 0.  1.
        -11    1    3    3    0    0  0.11466885134E+00 -0.75933730180E+01  0.22630062379E+01  0.79242450890E+01  0.51100000000E-03 0. -1.
         12    1    3    3    0    0 -0.32511285993E+02  0.12582488716E+02  0.17861167617E+02  0.39170448655E+02  0.00000000000E+00 0. -1.
</event>
<event>
 7    1  0.2639126E-011  0.5052885E+02  0.7816164E-02  0.1300439E+00
        -11   -1    0    0    0    0  0.00000000000E+00  0.00000000000E+00  0.45593999997E+02  0.45594000000E+02  0.51100000000E-03 0. -1.
         11   -1    0    0    0    0 -0.00000000000E+00 -0.00000000000E+00 -0.45593999997E+02  0.45594000000E+02  0.51100000000E-03 0.  1.
    9900012    2    1    2    0    0  0.26869590578E+02  0.17653623148E+02 -0.24890590358E+02  0.50528846093E+02  0.29999958183E+02 0.  0.
         12    1    1    2    0    0 -0.26869590578E+02 -0.17653623148E+02  0.24890590358E+02  0.40659153907E+02  0.00000000000E+00 0. -1.
         11    1    3    3    0    0  0.15513952425E+02  0.16571237266E+02 -0.99300654072E+01  0.24776901010E+02  0.51100000000E-03 0. -1.
        -11    1    3    3    0    0 -0.22294920913E+01  0.41005760299E+01 -0.98980987192E+01  0.10943386920E+02  0.51100000000E-03 0.  1.
        -12    1    3    3    0    0  0.13585130244E+02 -0.30181901480E+01 -0.50624262316E+01  0.14808558163E+02  0.00000000000E+00 0.  1.
</event>
<event>
 7    1  0.2639126E-011  0.5052889E+02  0.7816164E-02  0.1300439E+00
        -11   -1    0    0    0    0  0.00000000000E+00  0.00000000000E+00  0.45593999997E+02  0.45594000000E+02  0.51100000000E-03 0.  1.
         11   -1    0    0    0    0 -0.00000000000E+00 -0.00000000000E+00 -0.45593999997E+02  0.45594000000E+02  0.51100000000E-03 0. -1.
    9900012    2    1    2    0    0  0.10499175293E+02  0.15336012753E+02  0.36162652311E+02  0.50528887969E+02  0.30000085471E+02 0.  0.
         12    1    1    2    0    0 -0.10499175293E+02 -0.15336012753E+02 -0.36162652311E+02  0.40659112031E+02  0.00000000000E+00 0. -1.
         11    1    3    3    0    0 -0.83657391205E+01  0.71814611367E+01  0.97286110300E+01  0.14703905873E+02  0.51100000000E-03 0. -1.
        -11    1    3    3    0    0 -0.11667545072E+01  0.33327131623E+01  0.31279935140E+01  0.47172700566E+01  0.51100000000E-03 0.  1.
        -12    1    3    3    0    0  0.20031668920E+02  0.48218384541E+01  0.23306047767E+02  0.31107712039E+02  0.00000000000E+00 0.  1.
</event>
<event>
 7    1  0.2639126E-011  0.5052885E+02  0.7816164E-02  0.1300439E+00
        -11   -1    0    0    0    0  0.00000000000E+00  0.00000000000E+00  0.45593999997E+02  0.45594000000E+02  0.51100000000E-03 0.  1.
         11   -1    0    0    0    0 -0.00000000000E+00 -0.00000000000E+00 -0.45593999997E+02  0.45594000000E+02  0.51100000000E-03 0. -1.
    9900012    2    1    2    0    0 -0.17939754647E+02 -0.16861485658E+02  0.32357717951E+02  0.50528850890E+02  0.29999972765E+02 0.  0.
         12    1    1    2    0    0  0.17939754647E+02  0.16861485658E+02 -0.32357717951E+02  0.40659149110E+02  0.00000000000E+00 0. -1.
         11    1    3    3    0    0 -0.53549691231E+01  0.13395230030E+01  0.14717540599E+00  0.55219269323E+01  0.51100000000E-03 0. -1.
        -11    1    3    3    0    0 -0.44567309058E+01  0.20828770808E+01 -0.12197549227E+01  0.50683951734E+01  0.51100000000E-03 0.  1.
        -12    1    3    3    0    0 -0.81280546177E+01 -0.20283885742E+02  0.33430297468E+02  0.39938528784E+02  0.00000000000E+00 0.  1.
</event>
<event>
 7    1  0.2639126E-011  0.5052886E+02  0.7816164E-02  0.1300439E+00
        -11   -1    0    0    0    0  0.00000000000E+00  0.00000000000E+00  0.45593999997E+02  0.45594000000E+02  0.51100000000E-03 0.  1.
         11   -1    0    0    0    0 -0.00000000000E+00 -0.00000000000E+00 -0.45593999997E+02  0.45594000000E+02  0.51100000000E-03 0. -1.
    9900012    2    1    2    0    0  0.37619030554E+01  0.22739557049E+02  0.33495167145E+02  0.50528860911E+02  0.30000003225E+02 0.  0.
         12    1    1    2    0    0 -0.37619030554E+01 -0.22739557049E+02 -0.33495167145E+02  0.40659139089E+02  0.00000000000E+00 0. -1.
         11    1    3    3    0    0 -0.25305836566E+01  0.86681536794E+01  0.15399153158E+01  0.91603537756E+01  0.51100000000E-03 0. -1.
        -11    1    3    3    0    0  0.79104374988E+01  0.12272957812E+02  0.68173804259E+01  0.16114502505E+02  0.51100000000E-03 0.  1.
        -12    1    3    3    0    0 -0.16179507869E+01  0.17984455584E+01  0.25137871403E+02  0.25254004630E+02  0.00000000000E+00 0.  1.
</event>
<event>
 7    1  0.2639126E-011  0.5052887E+02  0.7816164E-02  0.1300439E+00
        -11   -1    0    0    0    0  0.00000000000E+00  0.00000000000E+00  0.45593999997E+02  0.45594000000E+02  0.51100000000E-03 0.  1.
         11   -1    0    0    0    0 -0.00000000000E+00 -0.00000000000E+00 -0.45593999997E+02  0.45594000000E+02  0.51100000000E-03 0. -1.
    9900012    2    1    2    0    0 -0.15342570850E+02 -0.10692542194E+02  0.36103189217E+02  0.50528865596E+02  0.30000017465E+02 0.  0.
         12    1    1    2    0    0  0.15342570850E+02  0.10692542194E+02 -0.36103189217E+02  0.40659134404E+02  0.00000000000E+00 0. -1.
         11    1    3    3    0    0 -0.34491510868E+01  0.10853736003E+00 -0.17260176294E+01  0.38584401895E+01  0.51100000000E-03 0. -1.
        -11    1    3    3    0    0 -0.72176153919E+01 -0.76112885377E+01  0.23588242126E+01  0.10751266766E+02  0.51100000000E-03 0.  1.
         12    1    3    3    0    0 -0.46758043712E+01 -0.31897910166E+01  0.35470382634E+02  0.35919158640E+02  0.00000000000E+00 0. -1.
</event>
<event>
 7    1  0.2639126E-011  0.5052886E+02  0.7816164E-02  0.1300439E+00
        -11   -1    0    0    0    0  0.00000000000E+00  0.00000000000E+00  0.45593999997E+02  0.45594000000E+02  0.51100000000E-03 0.  1.
         11   -1    0    0    0    0 -0.00000000000E+00 -0.00000000000E+00 -0.45593999997E+02  0.45594000000E+02  0.51100000000E-03 0. -1.
    9900012    2    1    2    0    0  0.18199278198E+02  0.23858240858E+02  0.27436044654E+02  0.50528856748E+02  0.29999990570E+02 0.  0.
         12    1    1    2    0    0 -0.18199278198E+02 -0.23858240858E+02 -0.27436044654E+02  0.40659143252E+02  0.00000000000E+00 0. -1.
         11    1    3    3    0    0  0.10816979401E+02  0.46109596934E+00  0.70479336207E+01  0.12918708196E+02  0.51100000000E-03 0. -1.
        -11    1    3    3    0    0  0.11256376137E+02  0.23813455103E+02  0.13266091681E+02  0.29491962234E+02  0.51100000000E-03 0.  1.
         12    1    3    3    0    0 -0.38740773411E+01 -0.41631021359E+00  0.71220193520E+01  0.81181863177E+01  0.00000000000E+00 0. -1.
</event>
<event>
 7    1  0.2639126E-011  0.5052886E+02  0.7816164E-02  0.1300439E+00
        -11   -1    0    0    0    0  0.00000000000E+00  0.00000000000E+00  0.45593999997E+02  0.45594000000E+02  0.51100000000E-03 0. -1.
         11   -1    0    0    0    0 -0.00000000000E+00 -0.00000000000E+00 -0.45593999997E+02  0.45594000000E+02  0.51100000000E-03 0.  1.
    9900012    2    1    2    0    0  0.11576807459E+01 -0.35424879417E+02  0.19922426462E+02  0.50528863480E+02  0.30000011033E+02 0.  0.
         12    1    1    2    0    0 -0.11576807459E+01  0.35424879417E+02 -0.19922426462E+02  0.40659136520E+02  0.00000000000E+00 0. -1.
         11    1    3    3    0    0  0.98669214526E+00  0.23814438330E+01  0.55517758902E+01  0.61210335659E+01  0.51100000000E-03 0. -1.
        -11    1    3    3    0    0 -0.37873343160E+01 -0.16495433748E+01  0.56588961632E+01  0.70062829384E+01  0.51100000000E-03 0.  1.
        -12    1    3    3    0    0  0.39583229166E+01 -0.36156779876E+02  0.87117544081E+01  0.37401546975E+02  0.00000000000E+00 0.  1.
</event>
<event>
 7    1  0.2970555E-011  0.5052888E+02  0.7816164E-02  0.1300439E+00
        -11   -1    0    0    0    0  0.00000000000E+00  0.00000000000E+00  0.45593999997E+02  0.45594000000E+02  0.51100000000E-03 0.  1.
         11   -1    0    0    0    0 -0.00000000000E+00 -0.00000000000E+00 -0.45593999997E+02  0.45594000000E+02  0.51100000000E-03 0. -1.
    9900012    2    1    2    0    0 -0.11797571809E+02  0.38357776124E+02 -0.65316467102E+01  0.50528879270E+02  0.30000059029E+02 0.  0.
         12    1    1    2    0    0  0.11797571809E+02 -0.38357776124E+02  0.65316467102E+01  0.40659120730E+02  0.00000000000E+00 0. -1.
         11    1    3    3    0    0 -0.58329425772E+01  0.22763289125E+02 -0.43705602768E+01  0.23901722705E+02  0.51100000000E-03 0. -1.
        -11    1    3    3    0    0 -0.63201521356E+01  0.15421391229E+02 -0.95628200647E+01  0.19214868158E+02  0.51100000000E-03 0.  1.
         12    1    3    3    0    0  0.35552290349E+00  0.17309576993E+00  0.74017336313E+01  0.74122884070E+01  0.00000000000E+00 0. -1.
</event>
<event>
 7    1  0.2639126E-011  0.5052886E+02  0.7816164E-02  0.1300439E+00
        -11   -1    0    0    0    0  0.00000000000E+00  0.00000000000E+00  0.45593999997E+02  0.45594000000E+02  0.51100000000E-03 0.  1.
         11   -1    0    0    0    0 -0.00000000000E+00 -0.00000000000E+00 -0.45593999997E+02  0.45594000000E+02  0.51100000000E-03 0. -1.
    9900012    2    1    2    0    0 -0.10758326571E+02 -0.30155213419E+02  0.25061667110E+02  0.50528860249E+02  0.30000001213E+02 0.  0.
         12    1    1    2    0    0  0.10758326571E+02  0.30155213419E+02 -0.25061667110E+02  0.40659139751E+02  0.00000000000E+00 0. -1.
         11    1    3    3    0    0  0.82110531978E+01 -0.66330977063E+01  0.99800552286E+01  0.14526557831E+02  0.51100000000E-03 0. -1.
        -11    1    3    3    0    0 -0.11381901344E+01 -0.10325498390E+02  0.62654982976E+01  0.12131276230E+02  0.51100000000E-03 0.  1.
         12    1    3    3    0    0 -0.17831189634E+02 -0.13196617323E+02  0.88161135838E+01  0.23871026188E+02  0.00000000000E+00 0. -1.
</event>
<event>
 7    1  0.2639126E-011  0.5052886E+02  0.7816164E-02  0.1300439E+00
        -11   -1    0    0    0    0  0.00000000000E+00  0.00000000000E+00  0.45593999997E+02  0.45594000000E+02  0.51100000000E-03 0.  1.
         11   -1    0    0    0    0 -0.00000000000E+00 -0.00000000000E+00 -0.45593999997E+02  0.45594000000E+02  0.51100000000E-03 0. -1.
    9900012    2    1    2    0    0  0.18736161271E+02  0.28195695066E+02  0.22519421259E+02  0.50528864578E+02  0.30000014370E+02 0.  0.
         12    1    1    2    0    0 -0.18736161271E+02 -0.28195695066E+02 -0.22519421259E+02  0.40659135422E+02  0.00000000000E+00 0. -1.
         11    1    3    3    0    0  0.43630595698E+01  0.57669157439E+01  0.17077145784E+02  0.18545148002E+02  0.51100000000E-03 0. -1.
        -11    1    3    3    0    0  0.65149974965E+01  0.12949642810E+02  0.11269775881E+02  0.18361543779E+02  0.51100000000E-03 0.  1.
         12    1    3    3    0    0  0.78581042049E+01  0.94791365128E+01 -0.58275004064E+01  0.13622172797E+02  0.00000000000E+00 0. -1.
</event>
<event>
 7    1  0.2639126E-011  0.5052878E+02  0.7816164E-02  0.1300439E+00
        -11   -1    0    0    0    0  0.00000000000E+00  0.00000000000E+00  0.45593999997E+02  0.45594000000E+02  0.51100000000E-03 0.  1.
         11   -1    0    0    0    0 -0.00000000000E+00 -0.00000000000E+00 -0.45593999997E+02  0.45594000000E+02  0.51100000000E-03 0. -1.
    9900012    2    1    2    0    0  0.95462671180E+01 -0.26423107820E+02  0.29391498661E+02  0.50528781656E+02  0.29999762322E+02 0.  0.
         12    1    1    2    0    0 -0.95462671180E+01  0.26423107820E+02 -0.29391498661E+02  0.40659218344E+02  0.00000000000E+00 0. -1.
         11    1    3    3    0    0 -0.63893934962E+00 -0.11723569902E+02  0.16736878526E+02  0.20444398690E+02  0.51100000000E-03 0. -1.
        -11    1    3    3    0    0  0.39408496108E+01 -0.50751181283E+01  0.16720460855E+02  0.17912591414E+02  0.51100000000E-03 0.  1.
        -12    1    3    3    0    0  0.62443568567E+01 -0.96244197897E+01 -0.40658407200E+01  0.12171791553E+02  0.00000000000E+00 0.  1.
</event>
<event>
 7    1  0.2639126E-011  0.5052885E+02  0.7816164E-02  0.1300439E+00
        -11   -1    0    0    0    0  0.00000000000E+00  0.00000000000E+00  0.45593999997E+02  0.45594000000E+02  0.51100000000E-03 0.  1.
         11   -1    0    0    0    0 -0.00000000000E+00 -0.00000000000E+00 -0.45593999997E+02  0.45594000000E+02  0.51100000000E-03 0. -1.
    9900012    2    1    2    0    0 -0.25310356567E+01  0.22216101793E+02  0.33958875907E+02  0.50528848837E+02  0.29999966526E+02 0.  0.
         12    1    1    2    0    0  0.25310356567E+01 -0.22216101793E+02 -0.33958875907E+02  0.40659151163E+02  0.00000000000E+00 0. -1.
         11    1    3    3    0    0 -0.59044864402E+01  0.16242077831E+02  0.36630366415E+01  0.17665952849E+02  0.51100000000E-03 0.  1.
        -11    1    3    3    0    0  0.49861745712E+01 -0.32097240691E+00  0.65160864652E+01  0.82112327468E+01  0.51100000000E-03 0. -1.
        -12    1    3    3    0    0 -0.16127237877E+01  0.62949963694E+01  0.23779752800E+02  0.24651663241E+02  0.00000000000E+00 0.  1.
</event>
<event>
 7    1  0.2639126E-011  0.5052887E+02  0.7816164E-02  0.1300439E+00
        -11   -1    0    0    0    0  0.00000000000E+00  0.00000000000E+00  0.45593999997E+02  0.45594000000E+02  0.51100000000E-03 0.  1.
         11   -1    0    0    0    0 -0.00000000000E+00 -0.00000000000E+00 -0.45593999997E+02  0.45594000000E+02  0.51100000000E-03 0. -1.
    9900012    2    1    2    0    0 -0.21507453315E+02 -0.30028209885E+02 -0.16997084234E+02  0.50528870528E+02  0.30000032456E+02 0.  0.
         12    1    1    2    0    0  0.21507453315E+02  0.30028209885E+02  0.16997084234E+02  0.40659129472E+02  0.00000000000E+00 0. -1.
         11    1    3    3    0    0 -0.16244679333E+02 -0.36126440358E+00 -0.97475915804E+01  0.18948236343E+02  0.51100000000E-03 0. -1.
        -11    1    3    3    0    0 -0.31936771613E+00 -0.51380836679E+01  0.97918302398E+00  0.52402957141E+01  0.51100000000E-03 0.  1.
        -12    1    3    3    0    0 -0.49434062656E+01 -0.24528861813E+02 -0.82286756779E+01  0.26340338471E+02  0.00000000000E+00 0.  1.
</event>
<event>
 7    1  0.2639126E-011  0.5052886E+02  0.7816164E-02  0.1300439E+00
        -11   -1    0    0    0    0  0.00000000000E+00  0.00000000000E+00  0.45593999997E+02  0.45594000000E+02  0.51100000000E-03 0. -1.
         11   -1    0    0    0    0 -0.00000000000E+00 -0.00000000000E+00 -0.45593999997E+02  0.45594000000E+02  0.51100000000E-03 0.  1.
    9900012    2    1    2    0    0  0.31577634984E+02  0.12411804228E+02 -0.22404597764E+02  0.50528856916E+02  0.29999991081E+02 0.  0.
         12    1    1    2    0    0 -0.31577634984E+02 -0.12411804228E+02  0.22404597764E+02  0.40659143084E+02  0.00000000000E+00 0. -1.
         11    1    3    3    0    0  0.22250946928E+02  0.58717752863E+01 -0.23997935971E+02  0.33248809231E+02  0.51100000000E-03 0.  1.
        -11    1    3    3    0    0  0.46359317122E+01 -0.34198388212E+01  0.24012738857E+01  0.62412560385E+01  0.51100000000E-03 0. -1.
        -12    1    3    3    0    0  0.46907563444E+01  0.99598677629E+01 -0.80793567890E+00  0.11038791646E+02  0.00000000000E+00 0.  1.
</event>
<event>
 7    1  0.2639126E-011  0.5052886E+02  0.7816164E-02  0.1300439E+00
        -11   -1    0    0    0    0  0.00000000000E+00  0.00000000000E+00  0.45593999997E+02  0.45594000000E+02  0.51100000000E-03 0.  1.
         11   -1    0    0    0    0 -0.00000000000E+00 -0.00000000000E+00 -0.45593999997E+02  0.45594000000E+02  0.51100000000E-03 0. -1.
    9900012    2    1    2    0    0  0.32384680713E+01  0.32166863728E+02  0.24657059372E+02  0.50528863580E+02  0.30000011337E+02 0.  0.
         12    1    1    2    0    0 -0.32384680713E+01 -0.32166863728E+02 -0.24657059372E+02  0.40659136420E+02  0.00000000000E+00 0. -1.
         11    1    3    3    0    0 -0.20852561667E+01  0.20509809660E+02  0.55150271010E+01  0.21340480542E+02  0.51100000000E-03 0. -1.
        -11    1    3    3    0    0 -0.29470051436E+01  0.13138001350E+02  0.10000686001E+02  0.16772168600E+02  0.51100000000E-03 0.  1.
        -12    1    3    3    0    0  0.82707293816E+01 -0.14809472812E+01  0.91413462701E+01  0.12416214439E+02  0.00000000000E+00 0.  1.
</event>
<event>
 7    1  0.2639126E-011  0.5052886E+02  0.7816164E-02  0.1300439E+00
        -11   -1    0    0    0    0  0.00000000000E+00  0.00000000000E+00  0.45593999997E+02  0.45594000000E+02  0.51100000000E-03 0.  1.
         11   -1    0    0    0    0 -0.00000000000E+00 -0.00000000000E+00 -0.45593999997E+02  0.45594000000E+02  0.51100000000E-03 0. -1.
    9900012    2    1    2    0    0 -0.53352537102E+01 -0.14091569859E+02  0.37764109784E+02  0.50528864975E+02  0.30000015577E+02 0.  0.
         12    1    1    2    0    0  0.53352537102E+01  0.14091569859E+02 -0.37764109784E+02  0.40659135025E+02  0.00000000000E+00 0. -1.
         11    1    3    3    0    0 -0.42965314207E+01 -0.90904724204E+01  0.54532654916E+01  0.11438311757E+02  0.51100000000E-03 0. -1.
        -11    1    3    3    0    0 -0.22025473455E+01 -0.69906310800E+01  0.66348840503E+00  0.73593719046E+01  0.51100000000E-03 0.  1.
         12    1    3    3    0    0  0.11638250561E+01  0.19895336411E+01  0.31647355887E+02  0.31731181313E+02  0.00000000000E+00 0. -1.
</event>
<event>
 7    1  0.2639126E-011  0.5052887E+02  0.7816164E-02  0.1300439E+00
        -11   -1    0    0    0    0  0.00000000000E+00  0.00000000000E+00  0.45593999997E+02  0.45594000000E+02  0.51100000000E-03 0.  1.
         11   -1    0    0    0    0 -0.00000000000E+00 -0.00000000000E+00 -0.45593999997E+02  0.45594000000E+02  0.51100000000E-03 0. -1.
    9900012    2    1    2    0    0  0.23039961370E+02  0.62989051215E+01  0.32903627769E+02  0.50528871307E+02  0.30000034826E+02 0.  0.
         12    1    1    2    0    0 -0.23039961370E+02 -0.62989051215E+01 -0.32903627769E+02  0.40659128693E+02  0.00000000000E+00 0. -1.
         11    1    3    3    0    0  0.12504735191E+02  0.13166002377E+01  0.24113730848E+02  0.27195107171E+02  0.51100000000E-03 0. -1.
        -11    1    3    3    0    0  0.99203785591E+01 -0.38747452111E+01  0.97043889155E+01  0.14408425510E+02  0.51100000000E-03 0.  1.
         12    1    3    3    0    0  0.61484761991E+00  0.88570500950E+01 -0.91449199376E+00  0.89253386259E+01  0.00000000000E+00 0. -1.
</event>
<event>
 7    1  0.2639126E-011  0.5052885E+02  0.7816164E-02  0.1300439E+00
        -11   -1    0    0    0    0  0.00000000000E+00  0.00000000000E+00  0.45593999997E+02  0.45594000000E+02  0.51100000000E-03 0.  1.
         11   -1    0    0    0    0 -0.00000000000E+00 -0.00000000000E+00 -0.45593999997E+02  0.45594000000E+02  0.51100000000E-03 0. -1.
    9900012    2    1    2    0    0  0.20046183683E+02  0.34319052715E+02  0.85743636772E+01  0.50528848853E+02  0.29999966575E+02 0.  0.
         12    1    1    2    0    0 -0.20046183683E+02 -0.34319052715E+02 -0.85743636772E+01  0.40659151147E+02  0.00000000000E+00 0. -1.
         11    1    3    3    0    0  0.51397722061E+01  0.24326951543E+02  0.99395437582E+01  0.26777086475E+02  0.51100000000E-03 0.  1.
        -11    1    3    3    0    0 -0.13629212090E+01  0.53545276305E+01 -0.37349284700E+01  0.66691987003E+01  0.51100000000E-03 0. -1.
        -12    1    3    3    0    0  0.16269332686E+02  0.46375735415E+01  0.23697483889E+01  0.17082563678E+02  0.00000000000E+00 0.  1.
</event>
<event>
 7    1  0.2639126E-011  0.5052886E+02  0.7816164E-02  0.1300439E+00
        -11   -1    0    0    0    0  0.00000000000E+00  0.00000000000E+00  0.45593999997E+02  0.45594000000E+02  0.51100000000E-03 0.  1.
         11   -1    0    0    0    0 -0.00000000000E+00 -0.00000000000E+00 -0.45593999997E+02  0.45594000000E+02  0.51100000000E-03 0. -1.
    9900012    2    1    2    0    0  0.37508748466E+02  0.14276965583E+02 -0.65136307560E+01  0.50528863962E+02  0.30000012498E+02 0.  0.
         12    1    1    2    0    0 -0.37508748466E+02 -0.14276965583E+02  0.65136307560E+01  0.40659136038E+02  0.00000000000E+00 0. -1.
         11    1    3    3    0    0  0.40261958551E+01 -0.17540353662E+01  0.77485008920E+01  0.89065234218E+01  0.51100000000E-03 0. -1.
        -11    1    3    3    0    0  0.70551708311E+01 -0.12520250215E+01 -0.51881708664E+00  0.71841612970E+01  0.51100000000E-03 0.  1.
         12    1    3    3    0    0  0.26427381780E+02  0.17283025970E+02 -0.13743314561E+02  0.34438179243E+02  0.00000000000E+00 0. -1.
</event>
<event>
 7    1  0.2639126E-011  0.5052886E+02  0.7816164E-02  0.1300439E+00
        -11   -1    0    0    0    0  0.00000000000E+00  0.00000000000E+00  0.45593999997E+02  0.45594000000E+02  0.51100000000E-03 0.  1.
         11   -1    0    0    0    0 -0.00000000000E+00 -0.00000000000E+00 -0.45593999997E+02  0.45594000000E+02  0.51100000000E-03 0. -1.
    9900012    2    1    2    0    0 -0.34587058135E+02  0.16560042853E+02 -0.13515405919E+02  0.50528858262E+02  0.29999995173E+02 0.  0.
         12    1    1    2    0    0  0.34587058135E+02 -0.16560042853E+02  0.13515405919E+02  0.40659141738E+02  0.00000000000E+00 0. -1.
         11    1    3    3    0    0 -0.11647402659E+02  0.79549216091E+01 -0.13991265830E+02  0.19867015033E+02  0.51100000000E-03 0. -1.
        -11    1    3    3    0    0 -0.15248963235E+02  0.14354386670E+02  0.15514015718E+01  0.20999670081E+02  0.51100000000E-03 0.  1.
        -12    1    3    3    0    0 -0.76906922408E+01 -0.57492654265E+01 -0.10755416606E+01  0.96621731484E+01  0.00000000000E+00 0.  1.
</event>
<event>
 7    1  0.2639126E-011  0.5052881E+02  0.7816164E-02  0.1300439E+00
        -11   -1    0    0    0    0  0.00000000000E+00  0.00000000000E+00  0.45593999997E+02  0.45594000000E+02  0.51100000000E-03 0. -1.
         11   -1    0    0    0    0 -0.00000000000E+00 -0.00000000000E+00 -0.45593999997E+02  0.45594000000E+02  0.51100000000E-03 0.  1.
    9900012    2    1    2    0    0  0.10947567361E+02 -0.35610511805E+02 -0.16285326397E+02  0.50528811150E+02  0.29999851971E+02 0.  0.
         12    1    1    2    0    0 -0.10947567361E+02  0.35610511805E+02  0.16285326397E+02  0.40659188850E+02  0.00000000000E+00 0. -1.
         11    1    3    3    0    0  0.72082240717E+00 -0.55156826400E+00 -0.86359008800E+01  0.86834668631E+01  0.51100000000E-03 0. -1.
        -11    1    3    3    0    0  0.91934341723E+00  0.12654457742E+01 -0.38498698084E+01  0.41554835012E+01  0.51100000000E-03 0.  1.
        -12    1    3    3    0    0  0.93074015363E+01 -0.36324389315E+02 -0.37995557084E+01  0.37689860785E+02  0.00000000000E+00 0.  1.
</event>
<event>
 7    1  0.2639126E-011  0.5052886E+02  0.7816164E-02  0.1300439E+00
        -11   -1    0    0    0    0  0.00000000000E+00  0.00000000000E+00  0.45593999997E+02  0.45594000000E+02  0.51100000000E-03 0.  1.
         11   -1    0    0    0    0 -0.00000000000E+00 -0.00000000000E+00 -0.45593999997E+02  0.45594000000E+02  0.51100000000E-03 0. -1.
    9900012    2    1    2    0    0  0.13087573974E+01 -0.40468684259E+02 -0.37065581520E+01  0.50528858040E+02  0.29999994499E+02 0.  0.
         12    1    1    2    0    0 -0.13087573974E+01  0.40468684259E+02  0.37065581520E+01  0.40659141960E+02  0.00000000000E+00 0. -1.
         11    1    3    3    0    0  0.58100793657E+01 -0.19436748457E+02 -0.80998360181E+01  0.21843799042E+02  0.51100000000E-03 0. -1.
        -11    1    3    3    0    0  0.83957456061E+00 -0.20329938704E+02  0.83574853406E+01  0.21996791916E+02  0.51100000000E-03 0.  1.
         12    1    3    3    0    0 -0.53408965289E+01 -0.70199709847E+00 -0.39642074744E+01  0.66882670819E+01  0.00000000000E+00 0. -1.
</event>
<event>
 7    1  0.2639126E-011  0.5052885E+02  0.7816164E-02  0.1300439E+00
        -11   -1    0    0    0    0  0.00000000000E+00  0.00000000000E+00  0.45593999997E+02  0.45594000000E+02  0.51100000000E-03 0.  1.
         11   -1    0    0    0    0 -0.00000000000E+00 -0.00000000000E+00 -0.45593999997E+02  0.45594000000E+02  0.51100000000E-03 0. -1.
    9900012    2    1    2    0    0  0.77375134987E+00 -0.11838979571E+01  0.40634542385E+02  0.50528851701E+02  0.29999975230E+02 0.  0.
         12    1    1    2    0    0 -0.77375134987E+00  0.11838979571E+01 -0.40634542385E+02  0.40659148299E+02  0.00000000000E+00 0. -1.
         11    1    3    3    0    0 -0.30965376293E+01  0.36767216300E+01  0.10022299532E+01  0.49103250782E+01  0.51100000000E-03 0. -1.
        -11    1    3    3    0    0 -0.70833154079E+01  0.59560612741E+00  0.44927178222E+01  0.84090794691E+01  0.51100000000E-03 0.  1.
        -12    1    3    3    0    0  0.10953604387E+02 -0.54562257145E+01  0.35139594610E+02  0.37209447154E+02  0.00000000000E+00 0.  1.
</event>
<event>
 7    1  0.2639126E-011  0.5052885E+02  0.7816164E-02  0.1300439E+00
        -11   -1    0    0    0    0  0.00000000000E+00  0.00000000000E+00  0.45593999997E+02  0.45594000000E+02  0.51100000000E-03 0.  1.
         11   -1    0    0    0    0 -0.00000000000E+00 -0.00000000000E+00 -0.45593999997E+02  0.45594000000E+02  0.51100000000E-03 0. -1.
    9900012    2    1    2    0    0  0.22048314352E+02 -0.12140688029E+02  0.31931833645E+02  0.50528850089E+02  0.29999970331E+02 0.  0.
         12    1    1    2    0    0 -0.22048314352E+02  0.12140688029E+02 -0.31931833645E+02  0.40659149911E+02  0.00000000000E+00 0. -1.
         11    1    3    3    0    0 -0.37475706626E+01 -0.53726400584E+01  0.22921624935E+01  0.69399968462E+01  0.51100000000E-03 0.  1.
        -11    1    3    3    0    0  0.27268182857E+01 -0.34027153226E+01 -0.15687395879E+01  0.46341076472E+01  0.51100000000E-03 0. -1.
        -12    1    3    3    0    0  0.23069066729E+02 -0.33653326483E+01  0.31208410739E+02  0.38954745596E+02  0.00000000000E+00 0.  1.
</event>
<event>
 7    1  0.2639126E-011  0.5052886E+02  0.7816164E-02  0.1300439E+00
        -11   -1    0    0    0    0  0.00000000000E+00  0.00000000000E+00  0.45593999997E+02  0.45594000000E+02  0.51100000000E-03 0. -1.
         11   -1    0    0    0    0 -0.00000000000E+00 -0.00000000000E+00 -0.45593999997E+02  0.45594000000E+02  0.51100000000E-03 0.  1.
    9900012    2    1    2    0    0 -0.17412943787E+02 -0.22897423155E+02 -0.28734351521E+02  0.50528861350E+02  0.30000004558E+02 0.  0.
         12    1    1    2    0    0  0.17412943787E+02  0.22897423155E+02  0.28734351521E+02  0.40659138650E+02  0.00000000000E+00 0. -1.
         11    1    3    3    0    0  0.28386061698E+01  0.21573624980E+01  0.88043168100E+00  0.36724730280E+01  0.51100000000E-03 0. -1.
        -11    1    3    3    0    0 -0.39805147478E+01  0.93331516780E+00 -0.90679815702E+01  0.99470530751E+01  0.51100000000E-03 0.  1.
        -12    1    3    3    0    0 -0.16271035209E+02 -0.25988100821E+02 -0.20546801632E+02  0.36909335246E+02  0.00000000000E+00 0.  1.
</event>
<event>
 7    1  0.2639126E-011  0.5052891E+02  0.7816164E-02  0.1300439E+00
        -11   -1    0    0    0    0  0.00000000000E+00  0.00000000000E+00  0.45593999997E+02  0.45594000000E+02  0.51100000000E-03 0. -1.
         11   -1    0    0    0    0 -0.00000000000E+00 -0.00000000000E+00 -0.45593999997E+02  0.45594000000E+02  0.51100000000E-03 0.  1.
    9900012    2    1    2    0    0 -0.25531792358E+01  0.12070877690E+02 -0.38741929596E+02  0.50528906045E+02  0.30000140415E+02 0.  0.
         12    1    1    2    0    0  0.25531792358E+01 -0.12070877690E+02  0.38741929596E+02  0.40659093955E+02  0.00000000000E+00 0. -1.
         11    1    3    3    0    0  0.13711383110E+01  0.14654433910E-01  0.13033555009E+01  0.18918168101E+01  0.51100000000E-03 0. -1.
        -11    1    3    3    0    0  0.17342386726E+01  0.14498535499E+02 -0.93720471871E+01  0.17350803559E+02  0.51100000000E-03 0.  1.
        -12    1    3    3    0    0 -0.56585562194E+01 -0.24423122428E+01 -0.30673237909E+02  0.31286285676E+02  0.00000000000E+00 0.  1.
</event>
<event>
 7    1  0.2639126E-011  0.5052884E+02  0.7816164E-02  0.1300439E+00
        -11   -1    0    0    0    0  0.00000000000E+00  0.00000000000E+00  0.45593999997E+02  0.45594000000E+02  0.51100000000E-03 0. -1.
         11   -1    0    0    0    0 -0.00000000000E+00 -0.00000000000E+00 -0.45593999997E+02  0.45594000000E+02  0.51100000000E-03 0.  1.
    9900012    2    1    2    0    0 -0.35699164928E+02  0.11966335565E+02  0.15347422681E+02  0.50528844250E+02  0.29999952581E+02 0.  0.
         12    1    1    2    0    0  0.35699164928E+02 -0.11966335565E+02 -0.15347422681E+02  0.40659155750E+02  0.00000000000E+00 0. -1.
         11    1    3    3    0    0 -0.86518923727E+01  0.83220502560E+01  0.38847959151E+01  0.12617583035E+02  0.51100000000E-03 0. -1.
        -11    1    3    3    0    0 -0.23973970617E+02  0.89256941382E+01  0.16112300207E+02  0.30232854665E+02  0.51100000000E-03 0.  1.
         12    1    3    3    0    0 -0.30733019381E+01 -0.52814088293E+01 -0.46496734409E+01  0.76784065490E+01  0.00000000000E+00 0. -1.
</event>
<event>
 7    1  0.2639126E-011  0.5052886E+02  0.7816164E-02  0.1300439E+00
        -11   -1    0    0    0    0  0.00000000000E+00  0.00000000000E+00  0.45593999997E+02  0.45594000000E+02  0.51100000000E-03 0.  1.
         11   -1    0    0    0    0 -0.00000000000E+00 -0.00000000000E+00 -0.45593999997E+02  0.45594000000E+02  0.51100000000E-03 0. -1.
    9900012    2    1    2    0    0  0.37949543953E+02 -0.42885030574E+01  0.13950154108E+02  0.50528856571E+02  0.29999990034E+02 0.  0.
         12    1    1    2    0    0 -0.37949543953E+02  0.42885030574E+01 -0.13950154108E+02  0.40659143429E+02  0.00000000000E+00 0. -1.
         11    1    3    3    0    0  0.27370388013E+02 -0.92797864843E+01  0.15207922557E+02  0.32657824268E+02  0.51100000000E-03 0.  1.
        -11    1    3    3    0    0  0.83883101884E+01 -0.10889783151E+01 -0.55461128003E+01  0.10114790608E+02  0.51100000000E-03 0. -1.
        -12    1    3    3    0    0  0.21908457522E+01  0.60802617421E+01  0.42883443513E+01  0.77562416954E+01  0.00000000000E+00 0.  1.
</event>
<event>
 7    1  0.2639126E-011  0.5052886E+02  0.7816164E-02  0.1300439E+00
        -11   -1    0    0    0    0  0.00000000000E+00  0.00000000000E+00  0.45593999997E+02  0.45594000000E+02  0.51100000000E-03 0. -1.
         11   -1    0    0    0    0 -0.00000000000E+00 -0.00000000000E+00 -0.45593999997E+02  0.45594000000E+02  0.51100000000E-03 0.  1.
    9900012    2    1    2    0    0  0.14731730180E+02 -0.27690758944E+02 -0.25872063788E+02  0.50528859704E+02  0.29999999555E+02 0.  0.
         12    1    1    2    0    0 -0.14731730180E+02  0.27690758944E+02  0.25872063788E+02  0.40659140296E+02  0.00000000000E+00 0. -1.
         11    1    3    3    0    0  0.78035768199E+01 -0.33109298194E+01 -0.35292987460E+01  0.91822664605E+01  0.51100000000E-03 0. -1.
        -11    1    3    3    0    0  0.14669376014E+02 -0.20345444025E+02 -0.11978448959E+02  0.27795879640E+02  0.51100000000E-03 0.  1.
        -12    1    3    3    0    0 -0.77412226538E+01 -0.40343850995E+01 -0.10364316082E+02  0.13550713603E+02  0.00000000000E+00 0.  1.
</event>
<event>
 7    1  0.2639126E-011  0.5052885E+02  0.7816164E-02  0.1300439E+00
        -11   -1    0    0    0    0  0.00000000000E+00  0.00000000000E+00  0.45593999997E+02  0.45594000000E+02  0.51100000000E-03 0.  1.
         11   -1    0    0    0    0 -0.00000000000E+00 -0.00000000000E+00 -0.45593999997E+02  0.45594000000E+02  0.51100000000E-03 0. -1.
    9900012    2    1    2    0    0 -0.35842659983E+02  0.70542231213E+01  0.17852388003E+02  0.50528854708E+02  0.29999984370E+02 0.  0.
         12    1    1    2    0    0  0.35842659983E+02 -0.70542231213E+01 -0.17852388003E+02  0.40659145292E+02  0.00000000000E+00 0. -1.
         11    1    3    3    0    0 -0.16574928915E+02  0.99644506229E+01  0.18365123561E+02  0.26670138890E+02  0.51100000000E-03 0. -1.
        -11    1    3    3    0    0 -0.15539192306E+02 -0.23180940358E+01  0.55956233114E+01  0.16677861314E+02  0.51100000000E-03 0.  1.
         12    1    3    3    0    0 -0.37285387615E+01 -0.59213346575E+00 -0.61083588693E+01  0.71808545044E+01  0.00000000000E+00 0. -1.
</event>
<event>
 7    1  0.2639126E-011  0.5052886E+02  0.7816164E-02  0.1300439E+00
        -11   -1    0    0    0    0  0.00000000000E+00  0.00000000000E+00  0.45593999997E+02  0.45594000000E+02  0.51100000000E-03 0.  1.
         11   -1    0    0    0    0 -0.00000000000E+00 -0.00000000000E+00 -0.45593999997E+02  0.45594000000E+02  0.51100000000E-03 0. -1.
    9900012    2    1    2    0    0  0.31863419169E+02  0.21610491975E+02  0.13071918730E+02  0.50528857070E+02  0.29999991548E+02 0.  0.
         12    1    1    2    0    0 -0.31863419169E+02 -0.21610491975E+02 -0.13071918730E+02  0.40659142930E+02  0.00000000000E+00 0. -1.
         11    1    3    3    0    0  0.45403110929E+01  0.95228098397E+01 -0.28995027873E+01  0.10940998526E+02  0.51100000000E-03 0.  1.
        -11    1    3    3    0    0  0.58687132178E+01  0.27835681009E+01 -0.49841727491E+01  0.81873087434E+01  0.51100000000E-03 0. -1.
        -12    1    3    3    0    0  0.21454394859E+02  0.93041140343E+01  0.20955594267E+02  0.31400549801E+02  0.00000000000E+00 0.  1.
</event>
<event>
 7    1  0.2639126E-011  0.5052886E+02  0.7816164E-02  0.1300439E+00
        -11   -1    0    0    0    0  0.00000000000E+00  0.00000000000E+00  0.45593999997E+02  0.45594000000E+02  0.51100000000E-03 0.  1.
         11   -1    0    0    0    0 -0.00000000000E+00 -0.00000000000E+00 -0.45593999997E+02  0.45594000000E+02  0.51100000000E-03 0. -1.
    9900012    2    1    2    0    0 -0.14369420056E+02  0.24671099820E+02  0.28948608843E+02  0.50528863844E+02  0.30000012139E+02 0.  0.
         12    1    1    2    0    0  0.14369420056E+02 -0.24671099820E+02 -0.28948608843E+02  0.40659136156E+02  0.00000000000E+00 0. -1.
         11    1    3    3    0    0 -0.65007695887E+01 -0.73199862492E+00 -0.22746461765E+01  0.69260264742E+01  0.51100000000E-03 0.  1.
        -11    1    3    3    0    0 -0.87864907237E+01  0.64123298279E+01  0.75555734162E+01  0.13244133908E+02  0.51100000000E-03 0. -1.
        -12    1    3    3    0    0  0.91784025667E+00  0.18990768617E+02  0.23667681603E+02  0.30358703462E+02  0.00000000000E+00 0.  1.
</event>
<event>
 7    1  0.2639126E-011  0.5052888E+02  0.7816164E-02  0.1300439E+00
        -11   -1    0    0    0    0  0.00000000000E+00  0.00000000000E+00  0.45593999997E+02  0.45594000000E+02  0.51100000000E-03 0.  1.
         11   -1    0    0    0    0 -0.00000000000E+00 -0.00000000000E+00 -0.45593999997E+02  0.45594000000E+02  0.51100000000E-03 0. -1.
    9900012    2    1    2    0    0 -0.35173388243E+02  0.93642643175E-01 -0.20395784073E+02  0.50528880267E+02  0.30000062061E+02 0.  0.
         12    1    1    2    0    0  0.35173388243E+02 -0.93642643175E-01  0.20395784073E+02  0.40659119733E+02  0.00000000000E+00 0. -1.
         11    1    3    3    0    0 -0.43245565707E+01 -0.74283521609E+01 -0.88384659493E+01  0.12328855825E+02  0.51100000000E-03 0. -1.
        -11    1    3    3    0    0 -0.28532337926E+02  0.38547308518E+01 -0.15180341065E+02  0.32548364208E+02  0.51100000000E-03 0.  1.
         12    1    3    3    0    0 -0.23164937466E+01  0.36672639523E+01  0.36230229415E+01  0.56516602347E+01  0.00000000000E+00 0. -1.
</event>
<event>
 7    1  0.2639126E-011  0.5052885E+02  0.7816164E-02  0.1300439E+00
        -11   -1    0    0    0    0  0.00000000000E+00  0.00000000000E+00  0.45593999997E+02  0.45594000000E+02  0.51100000000E-03 0.  1.
         11   -1    0    0    0    0 -0.00000000000E+00 -0.00000000000E+00 -0.45593999997E+02  0.45594000000E+02  0.51100000000E-03 0. -1.
    9900012    2    1    2    0    0  0.13316321725E+02  0.23268889880E+02  0.30567963937E+02  0.50528854906E+02  0.29999984971E+02 0.  0.
         12    1    1    2    0    0 -0.13316321725E+02 -0.23268889880E+02 -0.30567963937E+02  0.40659145094E+02  0.00000000000E+00 0. -1.
         11    1    3    3    0    0  0.51804122079E+01  0.19801315889E+01  0.70775265673E+01  0.89916057701E+01  0.51100000000E-03 0. -1.
        -11    1    3    3    0    0  0.14168278907E+02  0.75105067069E+01  0.20789881583E+02  0.26255799639E+02  0.51100000000E-03 0.  1.
         12    1    3    3    0    0 -0.60323693893E+01  0.13778251584E+02  0.27005557873E+01  0.15281449497E+02  0.00000000000E+00 0. -1.
</event>
<event>
 7    1  0.2639126E-011  0.5052886E+02  0.7816164E-02  0.1300439E+00
        -11   -1    0    0    0    0  0.00000000000E+00  0.00000000000E+00  0.45593999997E+02  0.45594000000E+02  0.51100000000E-03 0.  1.
         11   -1    0    0    0    0 -0.00000000000E+00 -0.00000000000E+00 -0.45593999997E+02  0.45594000000E+02  0.51100000000E-03 0. -1.
    9900012    2    1    2    0    0 -0.16513408461E+02  0.66958622514E+01  0.36546387112E+02  0.50528860299E+02  0.30000001365E+02 0.  0.
         12    1    1    2    0    0  0.16513408461E+02 -0.66958622514E+01 -0.36546387112E+02  0.40659139701E+02  0.00000000000E+00 0. -1.
         11    1    3    3    0    0 -0.17595111474E+02  0.52381852710E+01  0.15248216825E+02  0.23864925085E+02  0.51100000000E-03 0. -1.
        -11    1    3    3    0    0 -0.66442520733E+01  0.33229530106E+01  0.14116782171E+02  0.15952167296E+02  0.51100000000E-03 0.  1.
        -12    1    3    3    0    0  0.77259550858E+01 -0.18652760301E+01  0.71813881154E+01  0.10711767918E+02  0.00000000000E+00 0.  1.
</event>
<event>
 7    1  0.2639126E-011  0.5052886E+02  0.7816164E-02  0.1300439E+00
        -11   -1    0    0    0    0  0.00000000000E+00  0.00000000000E+00  0.45593999997E+02  0.45594000000E+02  0.51100000000E-03 0.  1.
         11   -1    0    0    0    0 -0.00000000000E+00 -0.00000000000E+00 -0.45593999997E+02  0.45594000000E+02  0.51100000000E-03 0. -1.
    9900012    2    1    2    0    0  0.24913946527E+02  0.14250077030E+02  0.28799234882E+02  0.50528863798E+02  0.30000012001E+02 0.  0.
         12    1    1    2    0    0 -0.24913946527E+02 -0.14250077030E+02 -0.28799234882E+02  0.40659136202E+02  0.00000000000E+00 0. -1.
         11    1    3    3    0    0  0.22336617880E+01  0.12870003517E+02  0.68129188922E+01  0.14732348747E+02  0.51100000000E-03 0.  1.
        -11    1    3    3    0    0  0.11825990066E+02  0.35025759664E+01  0.21426111497E+02  0.24722466171E+02  0.51100000000E-03 0. -1.
         12    1    3    3    0    0  0.10854294673E+02 -0.21225024540E+01  0.56020449272E+00  0.11074048880E+02  0.00000000000E+00 0. -1.
</event>
<event>
 7    1  0.2639126E-011  0.5052886E+02  0.7816164E-02  0.1300439E+00
        -11   -1    0    0    0    0  0.00000000000E+00  0.00000000000E+00  0.45593999997E+02  0.45594000000E+02  0.51100000000E-03 0.  1.
         11   -1    0    0    0    0 -0.00000000000E+00 -0.00000000000E+00 -0.45593999997E+02  0.45594000000E+02  0.51100000000E-03 0. -1.
    9900012    2    1    2    0    0  0.24665232926E+00 -0.28184784604E+02  0.29303969725E+02  0.50528861271E+02  0.30000004318E+02 0.  0.
         12    1    1    2    0    0 -0.24665232926E+00  0.28184784604E+02 -0.29303969725E+02  0.40659138729E+02  0.00000000000E+00 0. -1.
         11    1    3    3    0    0 -0.47869586036E+01 -0.14027358868E+02  0.10465567640E+02  0.18144141638E+02  0.51100000000E-03 0. -1.
        -11    1    3    3    0    0  0.84773757387E+01 -0.18404993782E+02  0.11720838413E+02  0.23409138150E+02  0.51100000000E-03 0.  1.
         12    1    3    3    0    0 -0.34437648059E+01  0.42475680459E+01  0.71175636711E+01  0.89755814828E+01  0.00000000000E+00 0. -1.
</event>
<event>
 7    1  0.2639126E-011  0.5052890E+02  0.7816164E-02  0.1300439E+00
        -11   -1    0    0    0    0  0.00000000000E+00  0.00000000000E+00  0.45593999997E+02  0.45594000000E+02  0.51100000000E-03 0. -1.
         11   -1    0    0    0    0 -0.00000000000E+00 -0.00000000000E+00 -0.45593999997E+02  0.45594000000E+02  0.51100000000E-03 0.  1.
    9900012    2    1    2    0    0  0.26860195456E+02 -0.37651826217E+01 -0.30290525727E+02  0.50528897096E+02  0.30000113214E+02 0.  0.
         12    1    1    2    0    0 -0.26860195456E+02  0.37651826217E+01  0.30290525727E+02  0.40659102904E+02  0.00000000000E+00 0. -1.
         11    1    3    3    0    0  0.22712037355E+01  0.71063244810E+01 -0.12062917752E+02  0.14183518569E+02  0.51100000000E-03 0. -1.
        -11    1    3    3    0    0  0.10170236310E+02  0.32085292353E+01 -0.98604403316E+01  0.14524346810E+02  0.51100000000E-03 0.  1.
        -12    1    3    3    0    0  0.14418755411E+02 -0.14080036338E+02 -0.83671676436E+01  0.21821031718E+02  0.00000000000E+00 0.  1.
</event>
<event>
 7    1  0.2639126E-011  0.5052887E+02  0.7816164E-02  0.1300439E+00
        -11   -1    0    0    0    0  0.00000000000E+00  0.00000000000E+00  0.45593999997E+02  0.45594000000E+02  0.51100000000E-03 0. -1.
         11   -1    0    0    0    0 -0.00000000000E+00 -0.00000000000E+00 -0.45593999997E+02  0.45594000000E+02  0.51100000000E-03 0.  1.
    9900012    2    1    2    0    0  0.29923157504E+02 -0.22356058405E+02  0.16061646746E+02  0.50528865742E+02  0.30000017908E+02 0.  0.
         12    1    1    2    0    0 -0.29923157504E+02  0.22356058405E+02 -0.16061646746E+02  0.40659134258E+02  0.00000000000E+00 0. -1.
         11    1    3    3    0    0  0.11429698517E+02 -0.26528449496E+01  0.64473155589E+01  0.13388184070E+02  0.51100000000E-03 0. -1.
        -11    1    3    3    0    0  0.14124623506E+02 -0.13036705835E+02 -0.55522967347E+01  0.20007215886E+02  0.51100000000E-03 0.  1.
         12    1    3    3    0    0  0.43688354817E+01 -0.66665076204E+01  0.15166627922E+02  0.17133465786E+02  0.00000000000E+00 0. -1.
</event>
<event>
 7    1  0.2639126E-011  0.5052887E+02  0.7816164E-02  0.1300439E+00
        -11   -1    0    0    0    0  0.00000000000E+00  0.00000000000E+00  0.45593999997E+02  0.45594000000E+02  0.51100000000E-03 0.  1.
         11   -1    0    0    0    0 -0.00000000000E+00 -0.00000000000E+00 -0.45593999997E+02  0.45594000000E+02  0.51100000000E-03 0. -1.
    9900012    2    1    2    0    0  0.21916338191E+02 -0.17445886810E+02  0.29469978736E+02  0.50528874419E+02  0.30000044285E+02 0.  0.
         12    1    1    2    0    0 -0.21916338191E+02  0.17445886810E+02 -0.29469978736E+02  0.40659125581E+02  0.00000000000E+00 0. -1.
         11    1    3    3    0    0 -0.78456078514E+00 -0.10842662843E+01  0.80442795195E+01  0.81548514548E+01  0.51100000000E-03 0. -1.
        -11    1    3    3    0    0  0.11744272863E+02 -0.36942201145E+01  0.22439359922E+02  0.25594922959E+02  0.51100000000E-03 0.  1.
         12    1    3    3    0    0  0.10956626113E+02 -0.12667400411E+02 -0.10136607054E+01  0.16779100005E+02  0.00000000000E+00 0. -1.
</event>
<event>
 7    1  0.2639126E-011  0.5052887E+02  0.7816164E-02  0.1300439E+00
        -11   -1    0    0    0    0  0.00000000000E+00  0.00000000000E+00  0.45593999997E+02  0.45594000000E+02  0.51100000000E-03 0.  1.
         11   -1    0    0    0    0 -0.00000000000E+00 -0.00000000000E+00 -0.45593999997E+02  0.45594000000E+02  0.51100000000E-03 0. -1.
    9900012    2    1    2    0    0 -0.25235192650E+02 -0.22041360560E+02  0.23033202790E+02  0.50528868748E+02  0.30000027046E+02 0.  0.
         12    1    1    2    0    0  0.25235192650E+02  0.22041360560E+02 -0.23033202790E+02  0.40659131252E+02  0.00000000000E+00 0. -1.
         11    1    3    3    0    0 -0.15422045449E+02 -0.71319877059E+01  0.89588169362E+01  0.19208465208E+02  0.51100000000E-03 0. -1.
        -11    1    3    3    0    0 -0.24700668373E+01 -0.68405981185E+01  0.18244494944E+02  0.19640687585E+02  0.51100000000E-03 0.  1.
         12    1    3    3    0    0 -0.73430803630E+01 -0.80687747360E+01 -0.41701090902E+01  0.11679715955E+02  0.00000000000E+00 0. -1.
</event>
<event>
 7    1  0.2639126E-011  0.5052886E+02  0.7816164E-02  0.1300439E+00
        -11   -1    0    0    0    0  0.00000000000E+00  0.00000000000E+00  0.45593999997E+02  0.45594000000E+02  0.51100000000E-03 0. -1.
         11   -1    0    0    0    0 -0.00000000000E+00 -0.00000000000E+00 -0.45593999997E+02  0.45594000000E+02  0.51100000000E-03 0.  1.
    9900012    2    1    2    0    0  0.92312408371E+01  0.64806168791E+01 -0.39063424341E+02  0.50528864203E+02  0.30000013230E+02 0.  0.
         12    1    1    2    0    0 -0.92312408371E+01 -0.64806168791E+01  0.39063424341E+02  0.40659135797E+02  0.00000000000E+00 0. -1.
         11    1    3    3    0    0  0.19546208276E+01  0.17051934238E+01 -0.11797775531E+02  0.12079558557E+02  0.51100000000E-03 0.  1.
        -11    1    3    3    0    0  0.12790113089E+02  0.83143188728E+00 -0.28778478136E+02  0.31503635916E+02  0.51100000000E-03 0. -1.
         12    1    3    3    0    0 -0.55134930799E+01  0.39439915680E+01  0.15128293256E+01  0.69456697301E+01  0.00000000000E+00 0. -1.
</event>
<event>
 7    1  0.2639126E-011  0.5052887E+02  0.7816164E-02  0.1300439E+00
        -11   -1    0    0    0    0  0.00000000000E+00  0.00000000000E+00  0.45593999997E+02  0.45594000000E+02  0.51100000000E-03 0.  1.
         11   -1    0    0    0    0 -0.00000000000E+00 -0.00000000000E+00 -0.45593999997E+02  0.45594000000E+02  0.51100000000E-03 0. -1.
    9900012    2    1    2    0    0 -0.33225961602E+02 -0.17666737406E+02  0.15397629646E+02  0.50528866541E+02  0.30000020339E+02 0.  0.
         12    1    1    2    0    0  0.33225961602E+02  0.17666737406E+02 -0.15397629646E+02  0.40659133459E+02  0.00000000000E+00 0. -1.
         11    1    3    3    0    0 -0.18342538910E+00  0.16154351683E+01 -0.36098507484E+01  0.39590779662E+01  0.51100000000E-03 0. -1.
        -11    1    3    3    0    0  0.95381191959E+00 -0.52524514261E+01  0.46823983678E+01  0.71009054280E+01  0.51100000000E-03 0.  1.
        -12    1    3    3    0    0 -0.33996348132E+02 -0.14029721148E+02  0.14325082026E+02  0.39468883147E+02  0.00000000000E+00 0.  1.
</event>
<event>
 7    1  0.2639126E-011  0.5052890E+02  0.7816164E-02  0.1300439E+00
        -11   -1    0    0    0    0  0.00000000000E+00  0.00000000000E+00  0.45593999997E+02  0.45594000000E+02  0.51100000000E-03 0.  1.
         11   -1    0    0    0    0 -0.00000000000E+00 -0.00000000000E+00 -0.45593999997E+02  0.45594000000E+02  0.51100000000E-03 0. -1.
    9900012    2    1    2    0    0 -0.26898886549E+02 -0.10397522217E+01  0.30471808071E+02  0.50528901764E+02  0.30000127401E+02 0.  0.
         12    1    1    2    0    0  0.26898886549E+02  0.10397522217E+01 -0.30471808071E+02  0.40659098236E+02  0.00000000000E+00 0. -1.
         11    1    3    3    0    0 -0.29818331649E+02 -0.48932518454E+01  0.29718162403E+02  0.42382142381E+02  0.51100000000E-03 0. -1.
        -11    1    3    3    0    0 -0.17847803700E+01  0.27502171296E+01  0.37808770408E+00  0.33003160155E+01  0.51100000000E-03 0.  1.
         12    1    3    3    0    0  0.47042254697E+01  0.11032824941E+01  0.37555796429E+00  0.48464433677E+01  0.00000000000E+00 0. -1.
</event>
<event>
 7    1  0.2639126E-011  0.5052887E+02  0.7816164E-02  0.1300439E+00
        -11   -1    0    0    0    0  0.00000000000E+00  0.00000000000E+00  0.45593999997E+02  0.45594000000E+02  0.51100000000E-03 0. -1.
         11   -1    0    0    0    0 -0.00000000000E+00 -0.00000000000E+00 -0.45593999997E+02  0.45594000000E+02  0.51100000000E-03 0.  1.
    9900012    2    1    2    0    0  0.36327377706E+02  0.76203803939E+01 -0.16595678698E+02  0.50528866712E+02  0.30000020857E+02 0.  0.
         12    1    1    2    0    0 -0.36327377706E+02 -0.76203803939E+01  0.16595678698E+02  0.40659133288E+02  0.00000000000E+00 0. -1.
         11    1    3    3    0    0  0.11412298232E+02  0.42466269034E+01 -0.16749093086E+02  0.20707643769E+02  0.51100000000E-03 0. -1.
        -11    1    3    3    0    0 -0.11395627585E+01  0.10422502021E-01 -0.31440924134E+01  0.33442531713E+01  0.51100000000E-03 0.  1.
         12    1    3    3    0    0  0.26054642232E+02  0.33633309885E+01  0.32975068014E+01  0.26476969771E+02  0.00000000000E+00 0. -1.
</event>
<event>
 7    1  0.2639126E-011  0.5052886E+02  0.7816164E-02  0.1300439E+00
        -11   -1    0    0    0    0  0.00000000000E+00  0.00000000000E+00  0.45593999997E+02  0.45594000000E+02  0.51100000000E-03 0. -1.
         11   -1    0    0    0    0 -0.00000000000E+00 -0.00000000000E+00 -0.45593999997E+02  0.45594000000E+02  0.51100000000E-03 0.  1.
    9900012    2    1    2    0    0 -0.10184691802E+02  0.31001297183E+02 -0.24256072628E+02  0.50528862854E+02  0.30000009131E+02 0.  0.
         12    1    1    2    0    0  0.10184691802E+02 -0.31001297183E+02  0.24256072628E+02  0.40659137146E+02  0.00000000000E+00 0. -1.
         11    1    3    3    0    0 -0.32028042484E+01 -0.27337365276E+01 -0.51074748055E+01  0.66194840891E+01  0.51100000000E-03 0. -1.
        -11    1    3    3    0    0  0.41240554292E+00 -0.23997845449E+01 -0.20009494888E+00  0.24431705719E+01  0.51100000000E-03 0.  1.
         12    1    3    3    0    0 -0.73942930961E+01  0.36134818255E+02 -0.18948502874E+02  0.41466208193E+02  0.00000000000E+00 0. -1.
</event>
<event>
 7    1  0.2639126E-011  0.5052887E+02  0.7816164E-02  0.1300439E+00
        -11   -1    0    0    0    0  0.00000000000E+00  0.00000000000E+00  0.45593999997E+02  0.45594000000E+02  0.51100000000E-03 0.  1.
         11   -1    0    0    0    0 -0.00000000000E+00 -0.00000000000E+00 -0.45593999997E+02  0.45594000000E+02  0.51100000000E-03 0. -1.
    9900012    2    1    2    0    0 -0.16350288410E+02 -0.31264956208E+02  0.20207308425E+02  0.50528871485E+02  0.30000035367E+02 0.  0.
         12    1    1    2    0    0  0.16350288410E+02  0.31264956208E+02 -0.20207308425E+02  0.40659128515E+02  0.00000000000E+00 0. -1.
         11    1    3    3    0    0  0.37024513055E+01 -0.23439248063E+02  0.64243587474E+01  0.24584118471E+02  0.51100000000E-03 0. -1.
        -11    1    3    3    0    0 -0.43480000135E+01 -0.37706725314E+01  0.33485507020E+01  0.66585184179E+01  0.51100000000E-03 0.  1.
         12    1    3    3    0    0 -0.15704739702E+02 -0.40550356141E+01  0.10434398975E+02  0.19286234596E+02  0.00000000000E+00 0. -1.
</event>
<event>
 7    1  0.2639126E-011  0.5052886E+02  0.7816164E-02  0.1300439E+00
        -11   -1    0    0    0    0  0.00000000000E+00  0.00000000000E+00  0.45593999997E+02  0.45594000000E+02  0.51100000000E-03 0.  1.
         11   -1    0    0    0    0 -0.00000000000E+00 -0.00000000000E+00 -0.45593999997E+02  0.45594000000E+02  0.51100000000E-03 0. -1.
    9900012    2    1    2    0    0  0.23250663671E+02 -0.15774870559E+02  0.29389211465E+02  0.50528860157E+02  0.30000000932E+02 0.  0.
         12    1    1    2    0    0 -0.23250663671E+02  0.15774870559E+02 -0.29389211465E+02  0.40659139843E+02  0.00000000000E+00 0. -1.
         11    1    3    3    0    0  0.98374628517E+01  0.13033900439E+01  0.60928922222E+01  0.11644648421E+02  0.51100000000E-03 0. -1.
        -11    1    3    3    0    0  0.97961261418E+01  0.12441854730E+01  0.11921416846E+01  0.99465213484E+01  0.51100000000E-03 0.  1.
        -12    1    3    3    0    0  0.36170746775E+01 -0.18322446076E+02  0.22104177558E+02  0.28937690387E+02  0.00000000000E+00 0.  1.
</event>
<event>
 7    1  0.2639126E-011  0.5052886E+02  0.7816164E-02  0.1300439E+00
        -11   -1    0    0    0    0  0.00000000000E+00  0.00000000000E+00  0.45593999997E+02  0.45594000000E+02  0.51100000000E-03 0.  1.
         11   -1    0    0    0    0 -0.00000000000E+00 -0.00000000000E+00 -0.45593999997E+02  0.45594000000E+02  0.51100000000E-03 0. -1.
    9900012    2    1    2    0    0 -0.76969235617E+01 -0.30760271294E+02  0.25450516384E+02  0.50528859495E+02  0.29999998921E+02 0.  0.
         12    1    1    2    0    0  0.76969235617E+01  0.30760271294E+02 -0.25450516384E+02  0.40659140505E+02  0.00000000000E+00 0. -1.
         11    1    3    3    0    0 -0.77121818314E+01 -0.73893203340E+01  0.15663104004E+01  0.10795051280E+02  0.51100000000E-03 0. -1.
        -11    1    3    3    0    0 -0.69517586334E+01 -0.23711379069E+02  0.19685104873E+02  0.31592084445E+02  0.51100000000E-03 0.  1.
         12    1    3    3    0    0  0.69670169031E+01  0.34042810864E+00  0.41991011105E+01  0.81417237709E+01  0.00000000000E+00 0. -1.
</event>
<event>
 7    1  0.2639126E-011  0.5052886E+02  0.7816164E-02  0.1300439E+00
        -11   -1    0    0    0    0  0.00000000000E+00  0.00000000000E+00  0.45593999997E+02  0.45594000000E+02  0.51100000000E-03 0.  1.
         11   -1    0    0    0    0 -0.00000000000E+00 -0.00000000000E+00 -0.45593999997E+02  0.45594000000E+02  0.51100000000E-03 0. -1.
    9900012    2    1    2    0    0  0.25335218257E+02 -0.31795895888E+02  0.55986320213E+00  0.50528859254E+02  0.29999998187E+02 0.  0.
         12    1    1    2    0    0 -0.25335218257E+02  0.31795895888E+02 -0.55986320213E+00  0.40659140746E+02  0.00000000000E+00 0. -1.
         11    1    3    3    0    0  0.22458816032E+01  0.83963909273E+00 -0.58007548468E+00  0.24668736917E+01  0.51100000000E-03 0. -1.
        -11    1    3    3    0    0  0.23401210531E+02 -0.25424065454E+02 -0.89136835980E+01  0.35685480437E+02  0.51100000000E-03 0.  1.
        -12    1    3    3    0    0 -0.31187387678E+00 -0.72114695265E+01  0.10053622285E+02  0.12376505124E+02  0.00000000000E+00 0.  1.
</event>
<event>
 7    1  0.2639126E-011  0.5052887E+02  0.7816164E-02  0.1300439E+00
        -11   -1    0    0    0    0  0.00000000000E+00  0.00000000000E+00  0.45593999997E+02  0.45594000000E+02  0.51100000000E-03 0.  1.
         11   -1    0    0    0    0 -0.00000000000E+00 -0.00000000000E+00 -0.45593999997E+02  0.45594000000E+02  0.51100000000E-03 0. -1.
    9900012    2    1    2    0    0 -0.11291258229E+02 -0.35678807334E+02  0.15896393188E+02  0.50528866689E+02  0.30000020789E+02 0.  0.
         12    1    1    2    0    0  0.11291258229E+02  0.35678807334E+02 -0.15896393188E+02  0.40659133311E+02  0.00000000000E+00 0. -1.
         11    1    3    3    0    0 -0.14604875179E+01 -0.22272646127E+02  0.14320677336E+02  0.26519532215E+02  0.51100000000E-03 0. -1.
        -11    1    3    3    0    0 -0.52304020170E+01 -0.15633225621E+02  0.56991120156E+01  0.17442325722E+02  0.51100000000E-03 0.  1.
         12    1    3    3    0    0 -0.46003686938E+01  0.22270644136E+01 -0.41233961638E+01  0.65670087517E+01  0.00000000000E+00 0. -1.
</event>
<event>
 7    1  0.2639126E-011  0.5052886E+02  0.7816164E-02  0.1300439E+00
        -11   -1    0    0    0    0  0.00000000000E+00  0.00000000000E+00  0.45593999997E+02  0.45594000000E+02  0.51100000000E-03 0.  1.
         11   -1    0    0    0    0 -0.00000000000E+00 -0.00000000000E+00 -0.45593999997E+02  0.45594000000E+02  0.51100000000E-03 0. -1.
    9900012    2    1    2    0    0  0.20062896242E+02  0.25119592408E+02  0.24892807724E+02  0.50528860747E+02  0.30000002728E+02 0.  0.
         12    1    1    2    0    0 -0.20062896242E+02 -0.25119592408E+02 -0.24892807724E+02  0.40659139253E+02  0.00000000000E+00 0. -1.
         11    1    3    3    0    0  0.22120873181E+01 -0.30275911480E+01 -0.11395763245E+01  0.39189632459E+01  0.51100000000E-03 0. -1.
        -11    1    3    3    0    0  0.38974640760E+01  0.10464873353E+01 -0.25908658652E+01  0.47956175993E+01  0.51100000000E-03 0.  1.
        -12    1    3    3    0    0  0.13953344848E+02  0.27100696221E+02  0.28623249914E+02  0.41814279902E+02  0.00000000000E+00 0.  1.
</event>
<event>
 7    1  0.2639126E-011  0.5052886E+02  0.7816164E-02  0.1300439E+00
        -11   -1    0    0    0    0  0.00000000000E+00  0.00000000000E+00  0.45593999997E+02  0.45594000000E+02  0.51100000000E-03 0. -1.
         11   -1    0    0    0    0 -0.00000000000E+00 -0.00000000000E+00 -0.45593999997E+02  0.45594000000E+02  0.51100000000E-03 0.  1.
    9900012    2    1    2    0    0 -0.31465023032E+02 -0.62907522909E+01 -0.24970869317E+02  0.50528861381E+02  0.30000004655E+02 0.  0.
         12    1    1    2    0    0  0.31465023032E+02  0.62907522909E+01  0.24970869317E+02  0.40659138619E+02  0.00000000000E+00 0. -1.
         11    1    3    3    0    0  0.70902202280E+00 -0.21060207848E+01 -0.44616866487E+00  0.22665177064E+01  0.51100000000E-03 0. -1.
        -11    1    3    3    0    0 -0.33885757301E+01 -0.70291896185E+01 -0.16487438639E+02  0.18240821947E+02  0.51100000000E-03 0.  1.
        -12    1    3    3    0    0 -0.28785469325E+02  0.28444581125E+01 -0.80372620128E+01  0.30021521728E+02  0.00000000000E+00 0.  1.
</event>
<event>
 7    1  0.2639126E-011  0.5052886E+02  0.7816164E-02  0.1300439E+00
        -11   -1    0    0    0    0  0.00000000000E+00  0.00000000000E+00  0.45593999997E+02  0.45594000000E+02  0.51100000000E-03 0.  1.
         11   -1    0    0    0    0 -0.00000000000E+00 -0.00000000000E+00 -0.45593999997E+02  0.45594000000E+02  0.51100000000E-03 0. -1.
    9900012    2    1    2    0    0 -0.16399739060E+02 -0.37042136231E+02  0.34776539235E+01  0.50528863578E+02  0.30000011331E+02 0.  0.
         12    1    1    2    0    0  0.16399739060E+02  0.37042136231E+02 -0.34776539235E+01  0.40659136422E+02  0.00000000000E+00 0. -1.
         11    1    3    3    0    0 -0.68893985096E+01 -0.19467455871E+02 -0.42536056766E+01  0.21084089059E+02  0.51100000000E-03 0. -1.
        -11    1    3    3    0    0 -0.28324002066E+01 -0.13866129379E+02 -0.46499955122E+01  0.14896794736E+02  0.51100000000E-03 0.  1.
         12    1    3    3    0    0 -0.66779403439E+01 -0.37085509806E+01  0.12381255112E+02  0.14547979783E+02  0.00000000000E+00 0. -1.
</event>
<event>
 7    1  0.2639126E-011  0.5052886E+02  0.7816164E-02  0.1300439E+00
        -11   -1    0    0    0    0  0.00000000000E+00  0.00000000000E+00  0.45593999997E+02  0.45594000000E+02  0.51100000000E-03 0. -1.
         11   -1    0    0    0    0 -0.00000000000E+00 -0.00000000000E+00 -0.45593999997E+02  0.45594000000E+02  0.51100000000E-03 0.  1.
    9900012    2    1    2    0    0  0.32764191925E+02  0.14918687479E+02 -0.18897247101E+02  0.50528862570E+02  0.30000008267E+02 0.  0.
         12    1    1    2    0    0 -0.32764191925E+02 -0.14918687479E+02  0.18897247101E+02  0.40659137430E+02  0.00000000000E+00 0. -1.
         11    1    3    3    0    0  0.16687694729E+02  0.66014050486E+01 -0.40918369321E+01  0.18406543232E+02  0.51100000000E-03 0. -1.
        -11    1    3    3    0    0  0.15582413545E+02 -0.33123530247E+01 -0.44444681257E+01  0.16538941672E+02  0.51100000000E-03 0.  1.
         12    1    3    3    0    0  0.49408365081E+00  0.11629635455E+02 -0.10360942043E+02  0.15583377666E+02  0.00000000000E+00 0. -1.
</event>
<event>
 7    1  0.2639126E-011  0.5052886E+02  0.7816164E-02  0.1300439E+00
        -11   -1    0    0    0    0  0.00000000000E+00  0.00000000000E+00  0.45593999997E+02  0.45594000000E+02  0.51100000000E-03 0.  1.
         11   -1    0    0    0    0 -0.00000000000E+00 -0.00000000000E+00 -0.45593999997E+02  0.45594000000E+02  0.51100000000E-03 0. -1.
    9900012    2    1    2    0    0 -0.11799720968E+02 -0.28599403036E+02  0.26381932443E+02  0.50528860457E+02  0.30000001844E+02 0.  0.
         12    1    1    2    0    0  0.11799720968E+02  0.28599403036E+02 -0.26381932443E+02  0.40659139543E+02  0.00000000000E+00 0. -1.
         11    1    3    3    0    0  0.11125273091E+01 -0.55970084990E+00  0.46122190657E+01  0.47773996092E+01  0.51100000000E-03 0. -1.
        -11    1    3    3    0    0  0.72742368499E+01 -0.11510843070E+02  0.40262058237E+01  0.14199449409E+02  0.51100000000E-03 0.  1.
        -12    1    3    3    0    0 -0.20186485127E+02 -0.16528859116E+02  0.17743507554E+02  0.31552011438E+02  0.00000000000E+00 0.  1.
</event>
<event>
 7    1  0.2639126E-011  0.5052887E+02  0.7816164E-02  0.1300439E+00
        -11   -1    0    0    0    0  0.00000000000E+00  0.00000000000E+00  0.45593999997E+02  0.45594000000E+02  0.51100000000E-03 0. -1.
         11   -1    0    0    0    0 -0.00000000000E+00 -0.00000000000E+00 -0.45593999997E+02  0.45594000000E+02  0.51100000000E-03 0.  1.
    9900012    2    1    2    0    0  0.33258496563E+02  0.11589378279E+02 -0.20315592316E+02  0.50528873427E+02  0.30000041269E+02 0.  0.
         12    1    1    2    0    0 -0.33258496563E+02 -0.11589378279E+02  0.20315592316E+02  0.40659126573E+02  0.00000000000E+00 0. -1.
         11    1    3    3    0    0  0.77216940190E+01 -0.30509302627E+01  0.18317011282E+01  0.85022269598E+01  0.51100000000E-03 0. -1.
        -11    1    3    3    0    0  0.13472498600E+02 -0.30841870949E+01 -0.54724785368E+01  0.14865007573E+02  0.51100000000E-03 0.  1.
         12    1    3    3    0    0  0.12064303944E+02  0.17724495636E+02 -0.16674814908E+02  0.27161638894E+02  0.00000000000E+00 0. -1.
</event>
<event>
 7    1  0.2639126E-011  0.5052888E+02  0.7816164E-02  0.1300439E+00
        -11   -1    0    0    0    0  0.00000000000E+00  0.00000000000E+00  0.45593999997E+02  0.45594000000E+02  0.51100000000E-03 0.  1.
         11   -1    0    0    0    0 -0.00000000000E+00 -0.00000000000E+00 -0.45593999997E+02  0.45594000000E+02  0.51100000000E-03 0. -1.
    9900012    2    1    2    0    0 -0.33590068673E+02 -0.16745229720E+02  0.15635499830E+02  0.50528876955E+02  0.30000051992E+02 0.  0.
         12    1    1    2    0    0  0.33590068673E+02  0.16745229720E+02 -0.15635499830E+02  0.40659123045E+02  0.00000000000E+00 0. -1.
         11    1    3    3    0    0 -0.46813141000E+01  0.24036894768E+01  0.48084764674E+01  0.71283848803E+01  0.51100000000E-03 0.  1.
        -11    1    3    3    0    0 -0.92241084400E+01 -0.18357329374E+02 -0.73517313609E+00  0.20557631139E+02  0.51100000000E-03 0. -1.
         12    1    3    3    0    0 -0.19684646133E+02 -0.79158982327E+00  0.11562196499E+02  0.22842860935E+02  0.00000000000E+00 0. -1.
</event>
<event>
 7    1  0.2639126E-011  0.5052885E+02  0.7816164E-02  0.1300439E+00
        -11   -1    0    0    0    0  0.00000000000E+00  0.00000000000E+00  0.45593999997E+02  0.45594000000E+02  0.51100000000E-03 0.  1.
         11   -1    0    0    0    0 -0.00000000000E+00 -0.00000000000E+00 -0.45593999997E+02  0.45594000000E+02  0.51100000000E-03 0. -1.
    9900012    2    1    2    0    0  0.33847390442E+01  0.28016110688E+02  0.29271273718E+02  0.50528851195E+02  0.29999973693E+02 0.  0.
         12    1    1    2    0    0 -0.33847390442E+01 -0.28016110688E+02 -0.29271273718E+02  0.40659148805E+02  0.00000000000E+00 0. -1.
         11    1    3    3    0    0 -0.52052584844E+01  0.65337328550E+01  0.12159224651E+02  0.14752326097E+02  0.51100000000E-03 0. -1.
        -11    1    3    3    0    0  0.38388400974E+01  0.23559117453E+02  0.18734007109E+02  0.30343561608E+02  0.51100000000E-03 0.  1.
         12    1    3    3    0    0  0.47511574312E+01 -0.20767396210E+01 -0.16219580416E+01  0.54329634895E+01  0.00000000000E+00 0. -1.
</event>
<event>
 7    1  0.2639126E-011  0.5052884E+02  0.7816164E-02  0.1300439E+00
        -11   -1    0    0    0    0  0.00000000000E+00  0.00000000000E+00  0.45593999997E+02  0.45594000000E+02  0.51100000000E-03 0.  1.
         11   -1    0    0    0    0 -0.00000000000E+00 -0.00000000000E+00 -0.45593999997E+02  0.45594000000E+02  0.51100000000E-03 0. -1.
    9900012    2    1    2    0    0  0.39340947121E+01 -0.37624226733E+02 -0.14903286296E+02  0.50528837676E+02  0.29999932600E+02 0.  0.
         12    1    1    2    0    0 -0.39340947121E+01  0.37624226733E+02  0.14903286296E+02  0.40659162324E+02  0.00000000000E+00 0. -1.
         11    1    3    3    0    0  0.51080268413E+01 -0.11108570648E+02 -0.14914611473E+02  0.19285691995E+02  0.51100000000E-03 0. -1.
        -11    1    3    3    0    0 -0.16729400291E+01  0.10329057711E+01 -0.29353205848E+01  0.35329491745E+01  0.51100000000E-03 0.  1.
        -12    1    3    3    0    0  0.49900789988E+00 -0.27548561856E+02  0.29466457615E+01  0.27710196507E+02  0.00000000000E+00 0.  1.
</event>
<event>
 7    1  0.2639126E-011  0.5052887E+02  0.7816164E-02  0.1300439E+00
        -11   -1    0    0    0    0  0.00000000000E+00  0.00000000000E+00  0.45593999997E+02  0.45594000000E+02  0.51100000000E-03 0. -1.
         11   -1    0    0    0    0 -0.00000000000E+00 -0.00000000000E+00 -0.45593999997E+02  0.45594000000E+02  0.51100000000E-03 0.  1.
    9900012    2    1    2    0    0  0.45872659452E+01  0.31710804192E+02  0.25030921069E+02  0.50528866698E+02  0.30000020814E+02 0.  0.
         12    1    1    2    0    0 -0.45872659452E+01 -0.31710804192E+02 -0.25030921069E+02  0.40659133302E+02  0.00000000000E+00 0. -1.
         11    1    3    3    0    0  0.11725797008E+01  0.60079897583E+01 -0.64828415893E-01  0.61216898873E+01  0.51100000000E-03 0. -1.
        -11    1    3    3    0    0  0.56222354734E+01  0.14638255397E+02 -0.12666161424E+01  0.15731890208E+02  0.51100000000E-03 0.  1.
         12    1    3    3    0    0 -0.22075492290E+01  0.11064559036E+02  0.26362365628E+02  0.28675286603E+02  0.00000000000E+00 0. -1.
</event>
<event>
 7    1  0.2639126E-011  0.5052886E+02  0.7816164E-02  0.1300439E+00
        -11   -1    0    0    0    0  0.00000000000E+00  0.00000000000E+00  0.45593999997E+02  0.45594000000E+02  0.51100000000E-03 0.  1.
         11   -1    0    0    0    0 -0.00000000000E+00 -0.00000000000E+00 -0.45593999997E+02  0.45594000000E+02  0.51100000000E-03 0. -1.
    9900012    2    1    2    0    0  0.94442805580E+01  0.36685843124E+02 -0.14768887914E+02  0.50528861160E+02  0.30000003982E+02 0.  0.
         12    1    1    2    0    0 -0.94442805580E+01 -0.36685843124E+02  0.14768887914E+02  0.40659138840E+02  0.00000000000E+00 0. -1.
         11    1    3    3    0    0  0.43152791767E+01  0.60272692456E+00 -0.10025850837E+02  0.10931724447E+02  0.51100000000E-03 0. -1.
        -11    1    3    3    0    0  0.34558459719E+01  0.16369596746E+02 -0.95129653736E+01  0.19245858762E+02  0.51100000000E-03 0.  1.
        -12    1    3    3    0    0  0.16731554094E+01  0.19713519454E+02  0.47699282974E+01  0.20351277951E+02  0.00000000000E+00 0.  1.
</event>
<event>
 7    1  0.2639126E-011  0.5052887E+02  0.7816164E-02  0.1300439E+00
        -11   -1    0    0    0    0  0.00000000000E+00  0.00000000000E+00  0.45593999997E+02  0.45594000000E+02  0.51100000000E-03 0.  1.
         11   -1    0    0    0    0 -0.00000000000E+00 -0.00000000000E+00 -0.45593999997E+02  0.45594000000E+02  0.51100000000E-03 0. -1.
    9900012    2    1    2    0    0 -0.29273914540E+01  0.31645591908E+02  0.25360444193E+02  0.50528865263E+02  0.30000016453E+02 0.  0.
         12    1    1    2    0    0  0.29273914540E+01 -0.31645591908E+02 -0.25360444193E+02  0.40659134737E+02  0.00000000000E+00 0. -1.
         11    1    3    3    0    0  0.36147669406E+01  0.21607109301E+02  0.15789511815E+02  0.27004488441E+02  0.51100000000E-03 0. -1.
        -11    1    3    3    0    0  0.20919782995E+01  0.10288951169E+02  0.10485139271E+02  0.14838363628E+02  0.51100000000E-03 0.  1.
         12    1    3    3    0    0 -0.86341366942E+01 -0.25046856145E+00 -0.91420689322E+00  0.86860131935E+01  0.00000000000E+00 0. -1.
</event>
<event>
 7    1  0.2639126E-011  0.5052889E+02  0.7816164E-02  0.1300439E+00
        -11   -1    0    0    0    0  0.00000000000E+00  0.00000000000E+00  0.45593999997E+02  0.45594000000E+02  0.51100000000E-03 0. -1.
         11   -1    0    0    0    0 -0.00000000000E+00 -0.00000000000E+00 -0.45593999997E+02  0.45594000000E+02  0.51100000000E-03 0.  1.
    9900012    2    1    2    0    0 -0.33880744080E+02 -0.17081475457E+02  0.14611003491E+02  0.50528892211E+02  0.30000098364E+02 0.  0.
         12    1    1    2    0    0  0.33880744080E+02  0.17081475457E+02 -0.14611003491E+02  0.40659107789E+02  0.00000000000E+00 0. -1.
         11    1    3    3    0    0 -0.61274394039E+00 -0.55850214782E+01  0.51088043925E+01  0.75939319611E+01  0.51100000000E-03 0. -1.
        -11    1    3    3    0    0 -0.16567727861E+01 -0.52493842585E+01 -0.51493942081E+01  0.75377179656E+01  0.51100000000E-03 0.  1.
        -12    1    3    3    0    0 -0.31611227354E+02 -0.62470697203E+01  0.14651593306E+02  0.35397242284E+02  0.00000000000E+00 0.  1.
</event>
<event>
 7    1  0.2639126E-011  0.5052886E+02  0.7816164E-02  0.1300439E+00
        -11   -1    0    0    0    0  0.00000000000E+00  0.00000000000E+00  0.45593999997E+02  0.45594000000E+02  0.51100000000E-03 0.  1.
         11   -1    0    0    0    0 -0.00000000000E+00 -0.00000000000E+00 -0.45593999997E+02  0.45594000000E+02  0.51100000000E-03 0. -1.
    9900012    2    1    2    0    0 -0.35449541018E+02 -0.50459697647E+01  0.19262242659E+02  0.50528858820E+02  0.29999996869E+02 0.  0.
         12    1    1    2    0    0  0.35449541018E+02  0.50459697647E+01 -0.19262242659E+02  0.40659141180E+02  0.00000000000E+00 0. -1.
         11    1    3    3    0    0 -0.17361462905E+02 -0.93477052599E+01  0.58743851999E+01  0.20574459642E+02  0.51100000000E-03 0. -1.
        -11    1    3    3    0    0 -0.47924861224E+01 -0.73144775772E+01  0.20811118966E+01  0.89889116387E+01  0.51100000000E-03 0.  1.
         12    1    3    3    0    0 -0.13295591990E+02  0.11616213072E+02  0.11306745563E+02  0.20965487539E+02  0.00000000000E+00 0. -1.
</event>
<event>
 7    1  0.2639126E-011  0.5052886E+02  0.7816164E-02  0.1300439E+00
        -11   -1    0    0    0    0  0.00000000000E+00  0.00000000000E+00  0.45593999997E+02  0.45594000000E+02  0.51100000000E-03 0. -1.
         11   -1    0    0    0    0 -0.00000000000E+00 -0.00000000000E+00 -0.45593999997E+02  0.45594000000E+02  0.51100000000E-03 0.  1.
    9900012    2    1    2    0    0  0.19124828752E+02 -0.21587601099E+02 -0.28659760255E+02  0.50528862603E+02  0.30000008367E+02 0.  0.
         12    1    1    2    0    0 -0.19124828752E+02  0.21587601099E+02  0.28659760255E+02  0.40659137397E+02  0.00000000000E+00 0. -1.
         11    1    3    3    0    0  0.20049894159E+02 -0.14278162992E+02 -0.13569401930E+02  0.28106811687E+02  0.51100000000E-03 0. -1.
        -11    1    3    3    0    0  0.17637944459E+01  0.43078622291E+01 -0.40004181838E+01  0.61377515214E+01  0.51100000000E-03 0.  1.
        -12    1    3    3    0    0 -0.26888598536E+01 -0.11617300336E+02 -0.11089940141E+02  0.16284299394E+02  0.00000000000E+00 0.  1.
</event>
<event>
 7    1  0.2639126E-011  0.5052886E+02  0.7816164E-02  0.1300439E+00
        -11   -1    0    0    0    0  0.00000000000E+00  0.00000000000E+00  0.45593999997E+02  0.45594000000E+02  0.51100000000E-03 0.  1.
         11   -1    0    0    0    0 -0.00000000000E+00 -0.00000000000E+00 -0.45593999997E+02  0.45594000000E+02  0.51100000000E-03 0. -1.
    9900012    2    1    2    0    0 -0.29698329737E+01  0.35593668859E+02 -0.19427714858E+02  0.50528864798E+02  0.30000015041E+02 0.  0.
         12    1    1    2    0    0  0.29698329737E+01 -0.35593668859E+02  0.19427714858E+02  0.40659135202E+02  0.00000000000E+00 0. -1.
         11    1    3    3    0    0 -0.11138532759E+02  0.26524433681E+02 -0.97370645063E+01  0.30371416160E+02  0.51100000000E-03 0. -1.
        -11    1    3    3    0    0  0.14465396277E+01  0.88881042464E+01 -0.99601958780E+01  0.13427448610E+02  0.51100000000E-03 0.  1.
        -12    1    3    3    0    0  0.67221601572E+01  0.18113093200E+00  0.26954552639E+00  0.67300000285E+01  0.00000000000E+00 0.  1.
</event>
<event>
 7    1  0.2639126E-011  0.5052887E+02  0.7816164E-02  0.1300439E+00
        -11   -1    0    0    0    0  0.00000000000E+00  0.00000000000E+00  0.45593999997E+02  0.45594000000E+02  0.51100000000E-03 0.  1.
         11   -1    0    0    0    0 -0.00000000000E+00 -0.00000000000E+00 -0.45593999997E+02  0.45594000000E+02  0.51100000000E-03 0. -1.
    9900012    2    1    2    0    0 -0.17814496338E+02 -0.11745121268E+02  0.34610120414E+02  0.50528873246E+02  0.30000040718E+02 0.  0.
         12    1    1    2    0    0  0.17814496338E+02  0.11745121268E+02 -0.34610120414E+02  0.40659126754E+02  0.00000000000E+00 0. -1.
         11    1    3    3    0    0 -0.98055189606E+01 -0.25389914222E+01  0.47589114936E+01  0.11191153577E+02  0.51100000000E-03 0. -1.
        -11    1    3    3    0    0 -0.56644497601E+01  0.43158006761E+01  0.22844766158E+02  0.23928967124E+02  0.51100000000E-03 0.  1.
         12    1    3    3    0    0 -0.23445276171E+01 -0.13521930522E+02  0.70064427621E+01  0.15408752544E+02  0.00000000000E+00 0. -1.
</event>
<event>
 7    1  0.2639126E-011  0.5052886E+02  0.7816164E-02  0.1300439E+00
        -11   -1    0    0    0    0  0.00000000000E+00  0.00000000000E+00  0.45593999997E+02  0.45594000000E+02  0.51100000000E-03 0. -1.
         11   -1    0    0    0    0 -0.00000000000E+00 -0.00000000000E+00 -0.45593999997E+02  0.45594000000E+02  0.51100000000E-03 0.  1.
    9900012    2    1    2    0    0 -0.20394728308E+02 -0.30590927584E+02 -0.17361330657E+02  0.50528860863E+02  0.30000003079E+02 0.  0.
         12    1    1    2    0    0  0.20394728308E+02  0.30590927584E+02  0.17361330657E+02  0.40659139137E+02  0.00000000000E+00 0. -1.
         11    1    3    3    0    0 -0.11121672890E+02 -0.25116734572E+02 -0.10681578140E+02  0.29472666579E+02  0.51100000000E-03 0. -1.
        -11    1    3    3    0    0 -0.75621460793E+01 -0.97752554057E+01 -0.95420490855E+01  0.15613851946E+02  0.51100000000E-03 0.  1.
         12    1    3    3    0    0 -0.17109093386E+01  0.43010623939E+01  0.28622965687E+01  0.54423423384E+01  0.00000000000E+00 0. -1.
</event>
<event>
 7    1  0.2639126E-011  0.5052887E+02  0.7816164E-02  0.1300439E+00
        -11   -1    0    0    0    0  0.00000000000E+00  0.00000000000E+00  0.45593999997E+02  0.45594000000E+02  0.51100000000E-03 0.  1.
         11   -1    0    0    0    0 -0.00000000000E+00 -0.00000000000E+00 -0.45593999997E+02  0.45594000000E+02  0.51100000000E-03 0. -1.
    9900012    2    1    2    0    0 -0.37195351950E+02 -0.14554534518E+02  0.76050221757E+01  0.50528867643E+02  0.30000023689E+02 0.  0.
         12    1    1    2    0    0  0.37195351950E+02  0.14554534518E+02 -0.76050221757E+01  0.40659132357E+02  0.00000000000E+00 0. -1.
         11    1    3    3    0    0 -0.89742465585E+01 -0.22072797045E+01  0.38883942946E+01  0.10026404911E+02  0.51100000000E-03 0. -1.
        -11    1    3    3    0    0 -0.18120775763E+02  0.60515309608E+01  0.39672421414E+01  0.19512112948E+02  0.51100000000E-03 0.  1.
         12    1    3    3    0    0 -0.10100329628E+02 -0.18398785774E+02 -0.25061426033E+00  0.20990349785E+02  0.00000000000E+00 0. -1.
</event>
<event>
 7    1  0.2639126E-011  0.5052885E+02  0.7816164E-02  0.1300439E+00
        -11   -1    0    0    0    0  0.00000000000E+00  0.00000000000E+00  0.45593999997E+02  0.45594000000E+02  0.51100000000E-03 0.  1.
         11   -1    0    0    0    0 -0.00000000000E+00 -0.00000000000E+00 -0.45593999997E+02  0.45594000000E+02  0.51100000000E-03 0. -1.
    9900012    2    1    2    0    0 -0.37146912935E+02  0.74983937913E+01 -0.14732516837E+02  0.50528854628E+02  0.29999984127E+02 0.  0.
         12    1    1    2    0    0  0.37146912935E+02 -0.74983937913E+01  0.14732516837E+02  0.40659145372E+02  0.00000000000E+00 0. -1.
         11    1    3    3    0    0 -0.12700371407E+02 -0.59562603892E+00 -0.14126157927E+02  0.19005329313E+02  0.51100000000E-03 0. -1.
        -11    1    3    3    0    0 -0.18963811929E+01  0.50793268523E+01 -0.60567645474E+01  0.81289741017E+01  0.51100000000E-03 0.  1.
        -12    1    3    3    0    0 -0.22550160335E+02  0.30146929779E+01  0.54504056372E+01  0.23394551213E+02  0.00000000000E+00 0.  1.
</event>
<event>
 7    1  0.2639126E-011  0.5052885E+02  0.7816164E-02  0.1300439E+00
        -11   -1    0    0    0    0  0.00000000000E+00  0.00000000000E+00  0.45593999997E+02  0.45594000000E+02  0.51100000000E-03 0.  1.
         11   -1    0    0    0    0 -0.00000000000E+00 -0.00000000000E+00 -0.45593999997E+02  0.45594000000E+02  0.51100000000E-03 0. -1.
    9900012    2    1    2    0    0 -0.13503478692E+02  0.15555417825E+02  0.35054975690E+02  0.50528852430E+02  0.29999977447E+02 0.  0.
         12    1    1    2    0    0  0.13503478692E+02 -0.15555417825E+02 -0.35054975690E+02  0.40659147570E+02  0.00000000000E+00 0. -1.
         11    1    3    3    0    0 -0.94371213722E+01  0.10427378889E+02  0.29214842319E+02  0.32423702785E+02  0.51100000000E-03 0. -1.
        -11    1    3    3    0    0 -0.21077357182E+01  0.64261211396E+01  0.10728024920E+02  0.12681801990E+02  0.51100000000E-03 0.  1.
         12    1    3    3    0    0 -0.19586216015E+01 -0.12980822034E+01 -0.48878915502E+01  0.54233476554E+01  0.00000000000E+00 0. -1.
</event>
<event>
 7    1  0.2639126E-011  0.5052884E+02  0.7816164E-02  0.1300439E+00
        -11   -1    0    0    0    0  0.00000000000E+00  0.00000000000E+00  0.45593999997E+02  0.45594000000E+02  0.51100000000E-03 0.  1.
         11   -1    0    0    0    0 -0.00000000000E+00 -0.00000000000E+00 -0.45593999997E+02  0.45594000000E+02  0.51100000000E-03 0. -1.
    9900012    2    1    2    0    0 -0.44761456246E+01 -0.52705526819E+01  0.40066848999E+02  0.50528843664E+02  0.29999950802E+02 0.  0.
         12    1    1    2    0    0  0.44761456246E+01  0.52705526819E+01 -0.40066848999E+02  0.40659156336E+02  0.00000000000E+00 0. -1.
         11    1    3    3    0    0  0.50131837226E+00  0.10066720396E+01 -0.27576641257E+01  0.29781572150E+01  0.51100000000E-03 0. -1.
        -11    1    3    3    0    0 -0.19308798180E+01  0.68879978645E+01  0.14674923910E+02  0.16325630262E+02  0.51100000000E-03 0.  1.
         12    1    3    3    0    0 -0.30465841789E+01 -0.13165222586E+02  0.28149589215E+02  0.31225056187E+02  0.00000000000E+00 0. -1.
</event>
<event>
 7    1  0.2639126E-011  0.5052886E+02  0.7816164E-02  0.1300439E+00
        -11   -1    0    0    0    0  0.00000000000E+00  0.00000000000E+00  0.45593999997E+02  0.45594000000E+02  0.51100000000E-03 0.  1.
         11   -1    0    0    0    0 -0.00000000000E+00 -0.00000000000E+00 -0.45593999997E+02  0.45594000000E+02  0.51100000000E-03 0. -1.
    9900012    2    1    2    0    0  0.20484086347E+02 -0.29662614861E+02  0.18806839762E+02  0.50528859138E+02  0.29999997834E+02 0.  0.
         12    1    1    2    0    0 -0.20484086347E+02  0.29662614861E+02 -0.18806839762E+02  0.40659140862E+02  0.00000000000E+00 0. -1.
         11    1    3    3    0    0 -0.10210817462E+01  0.49751233922E+01 -0.20865231134E+00  0.50831089649E+01  0.51100000000E-03 0. -1.
        -11    1    3    3    0    0  0.24102259009E+01 -0.13202241106E+01  0.42422705482E+00  0.27806742799E+01  0.51100000000E-03 0.  1.
        -12    1    3    3    0    0  0.19094942192E+02 -0.33317514142E+02  0.18591265019E+02  0.42665075893E+02  0.00000000000E+00 0.  1.
</event>
<event>
 7    1  0.2639126E-011  0.5052885E+02  0.7816164E-02  0.1300439E+00
        -11   -1    0    0    0    0  0.00000000000E+00  0.00000000000E+00  0.45593999997E+02  0.45594000000E+02  0.51100000000E-03 0.  1.
         11   -1    0    0    0    0 -0.00000000000E+00 -0.00000000000E+00 -0.45593999997E+02  0.45594000000E+02  0.51100000000E-03 0. -1.
    9900012    2    1    2    0    0 -0.27425778459E+02 -0.18236879374E+02  0.23841342619E+02  0.50528847140E+02  0.29999961367E+02 0.  0.
         12    1    1    2    0    0  0.27425778459E+02  0.18236879374E+02 -0.23841342619E+02  0.40659152860E+02  0.00000000000E+00 0. -1.
         11    1    3    3    0    0 -0.33736316487E+00 -0.60189339542E+01  0.45215100189E+01  0.75356109880E+01  0.51100000000E-03 0. -1.
        -11    1    3    3    0    0 -0.88924436573E+01 -0.56915998588E+01  0.21086204987E+02  0.23581728184E+02  0.51100000000E-03 0.  1.
        -12    1    3    3    0    0 -0.18195971637E+02 -0.65263455607E+01 -0.17663723862E+01  0.19411507968E+02  0.00000000000E+00 0.  1.
</event>
<event>
 7    1  0.2639126E-011  0.5052888E+02  0.7816164E-02  0.1300439E+00
        -11   -1    0    0    0    0  0.00000000000E+00  0.00000000000E+00  0.45593999997E+02  0.45594000000E+02  0.51100000000E-03 0.  1.
         11   -1    0    0    0    0 -0.00000000000E+00 -0.00000000000E+00 -0.45593999997E+02  0.45594000000E+02  0.51100000000E-03 0. -1.
    9900012    2    1    2    0    0  0.13983414740E+02 -0.89181498113E+01 -0.37122703462E+02  0.50528875610E+02  0.30000047904E+02 0.  0.
         12    1    1    2    0    0 -0.13983414740E+02  0.89181498113E+01  0.37122703462E+02  0.40659124390E+02  0.00000000000E+00 0. -1.
         11    1    3    3    0    0  0.12304161954E+02  0.19631158901E+01 -0.79257212479E+01  0.14766965936E+02  0.51100000000E-03 0. -1.
        -11    1    3    3    0    0  0.85668652243E+01 -0.10279089586E+01 -0.12091079723E+02  0.14854022544E+02  0.51100000000E-03 0.  1.
         12    1    3    3    0    0 -0.68876124389E+01 -0.98533567429E+01 -0.17105902491E+02  0.20907887130E+02  0.00000000000E+00 0. -1.
</event>
<event>
 7    1  0.2639126E-011  0.5052886E+02  0.7816164E-02  0.1300439E+00
        -11   -1    0    0    0    0  0.00000000000E+00  0.00000000000E+00  0.45593999997E+02  0.45594000000E+02  0.51100000000E-03 0.  1.
         11   -1    0    0    0    0 -0.00000000000E+00 -0.00000000000E+00 -0.45593999997E+02  0.45594000000E+02  0.51100000000E-03 0. -1.
    9900012    2    1    2    0    0 -0.34120163763E+02 -0.18066024018E+02  0.12751437289E+02  0.50528856477E+02  0.29999989749E+02 0.  0.
         12    1    1    2    0    0  0.34120163763E+02  0.18066024018E+02 -0.12751437289E+02  0.40659143523E+02  0.00000000000E+00 0. -1.
         11    1    3    3    0    0 -0.16137863052E+01  0.11548937251E+00 -0.36250853814E+01  0.39697466314E+01  0.51100000000E-03 0. -1.
        -11    1    3    3    0    0 -0.15875239998E+01  0.22349874468E+01 -0.35531024011E+01  0.44877542570E+01  0.51100000000E-03 0.  1.
        -12    1    3    3    0    0 -0.30918853458E+02 -0.20416500837E+02  0.19929625072E+02  0.42071355589E+02  0.00000000000E+00 0.  1.
</event>
<event>
 7    1  0.2639126E-011  0.5052886E+02  0.7816164E-02  0.1300439E+00
        -11   -1    0    0    0    0  0.00000000000E+00  0.00000000000E+00  0.45593999997E+02  0.45594000000E+02  0.51100000000E-03 0.  1.
         11   -1    0    0    0    0 -0.00000000000E+00 -0.00000000000E+00 -0.45593999997E+02  0.45594000000E+02  0.51100000000E-03 0. -1.
    9900012    2    1    2    0    0  0.39820678782E+02  0.80144863310E+00 -0.81753919142E+01  0.50528858205E+02  0.29999995000E+02 0.  0.
         12    1    1    2    0    0 -0.39820678782E+02 -0.80144863310E+00  0.81753919142E+01  0.40659141795E+02  0.00000000000E+00 0. -1.
         11    1    3    3    0    0 -0.33347364208E+01 -0.20246007298E+01 -0.83281982896E-01  0.39021034406E+01  0.51100000000E-03 0. -1.
        -11    1    3    3    0    0  0.32138444685E+01 -0.12411718437E+01 -0.53781615368E+01  0.63870122584E+01  0.51100000000E-03 0.  1.
         12    1    3    3    0    0  0.39941570734E+02  0.40672212066E+01 -0.27139483945E+01  0.40239742506E+02  0.00000000000E+00 0. -1.
</event>
<event>
 7    1  0.2639126E-011  0.5052886E+02  0.7816164E-02  0.1300439E+00
        -11   -1    0    0    0    0  0.00000000000E+00  0.00000000000E+00  0.45593999997E+02  0.45594000000E+02  0.51100000000E-03 0.  1.
         11   -1    0    0    0    0 -0.00000000000E+00 -0.00000000000E+00 -0.45593999997E+02  0.45594000000E+02  0.51100000000E-03 0. -1.
    9900012    2    1    2    0    0 -0.86116830869E+01  0.23929207655E+02  0.31723770614E+02  0.50528859741E+02  0.29999999670E+02 0.  0.
         12    1    1    2    0    0  0.86116830869E+01 -0.23929207655E+02 -0.31723770614E+02  0.40659140259E+02  0.00000000000E+00 0. -1.
         11    1    3    3    0    0  0.52557474537E+00 -0.17086614818E+01 -0.10317627758E+01  0.20640464043E+01  0.51100000000E-03 0. -1.
        -11    1    3    3    0    0 -0.16191888181E+02  0.13028880024E+02  0.15311093102E+02  0.25813921240E+02  0.51100000000E-03 0.  1.
        -12    1    3    3    0    0  0.70546303492E+01  0.12608989113E+02  0.17444440289E+02  0.22650892097E+02  0.00000000000E+00 0.  1.
</event>
<event>
 7    1  0.2639126E-011  0.5052888E+02  0.7816164E-02  0.1300439E+00
        -11   -1    0    0    0    0  0.00000000000E+00  0.00000000000E+00  0.45593999997E+02  0.45594000000E+02  0.51100000000E-03 0.  1.
         11   -1    0    0    0    0 -0.00000000000E+00 -0.00000000000E+00 -0.45593999997E+02  0.45594000000E+02  0.51100000000E-03 0. -1.
    9900012    2    1    2    0    0 -0.14969862752E+02 -0.35969407869E+02  0.11630512899E+02  0.50528881422E+02  0.30000065570E+02 0.  0.
         12    1    1    2    0    0  0.14969862752E+02  0.35969407869E+02 -0.11630512899E+02  0.40659118578E+02  0.00000000000E+00 0. -1.
         11    1    3    3    0    0  0.96714097116E+00 -0.15532296046E+01 -0.26602395834E+00  0.18489599428E+01  0.51100000000E-03 0. -1.
        -11    1    3    3    0    0 -0.21143731366E+02 -0.35671472881E+02  0.12449574792E+02  0.43295534023E+02  0.51100000000E-03 0.  1.
        -12    1    3    3    0    0  0.52067276425E+01  0.12552946168E+01 -0.55303793488E+00  0.53843874559E+01  0.00000000000E+00 0.  1.
</event>
<event>
 7    1  0.2639126E-011  0.5052888E+02  0.7816164E-02  0.1300439E+00
        -11   -1    0    0    0    0  0.00000000000E+00  0.00000000000E+00  0.45593999997E+02  0.45594000000E+02  0.51100000000E-03 0.  1.
         11   -1    0    0    0    0 -0.00000000000E+00 -0.00000000000E+00 -0.45593999997E+02  0.45594000000E+02  0.51100000000E-03 0. -1.
    9900012    2    1    2    0    0  0.18291744845E+02 -0.36028463441E+02  0.45305137470E+01  0.50528884635E+02  0.30000075338E+02 0.  0.
         12    1    1    2    0    0 -0.18291744845E+02  0.36028463441E+02 -0.45305137470E+01  0.40659115365E+02  0.00000000000E+00 0. -1.
         11    1    3    3    0    0 -0.61324878659E+01 -0.12444836818E+01 -0.23992270243E+01  0.67016742411E+01  0.51100000000E-03 0. -1.
        -11    1    3    3    0    0  0.81234519909E+01 -0.18214643256E+02  0.45972820734E+01  0.20467015022E+02  0.51100000000E-03 0.  1.
        -12    1    3    3    0    0  0.16300780720E+02 -0.16569336503E+02  0.23324586978E+01  0.23360195372E+02  0.00000000000E+00 0.  1.
</event>
<event>
 7    1  0.2639126E-011  0.5052886E+02  0.7816164E-02  0.1300439E+00
        -11   -1    0    0    0    0  0.00000000000E+00  0.00000000000E+00  0.45593999997E+02  0.45594000000E+02  0.51100000000E-03 0. -1.
         11   -1    0    0    0    0 -0.00000000000E+00 -0.00000000000E+00 -0.45593999997E+02  0.45594000000E+02  0.51100000000E-03 0.  1.
    9900012    2    1    2    0    0 -0.24328963534E+02  0.23564500881E+02 -0.22494033852E+02  0.50528859240E+02  0.29999998146E+02 0.  0.
         12    1    1    2    0    0  0.24328963534E+02 -0.23564500881E+02  0.22494033852E+02  0.40659140760E+02  0.00000000000E+00 0. -1.
         11    1    3    3    0    0 -0.60044487566E+01  0.13478639083E+02 -0.76918259768E+01  0.16640051188E+02  0.51100000000E-03 0. -1.
        -11    1    3    3    0    0 -0.12709125856E+01  0.90044184782E+01 -0.14110534489E+02  0.16786957877E+02  0.51100000000E-03 0.  1.
         12    1    3    3    0    0 -0.17053602191E+02  0.10814433198E+01 -0.69167338589E+00  0.17101850175E+02  0.00000000000E+00 0. -1.
</event>
<event>
 7    1  0.2639126E-011  0.5052887E+02  0.7816164E-02  0.1300439E+00
        -11   -1    0    0    0    0  0.00000000000E+00  0.00000000000E+00  0.45593999997E+02  0.45594000000E+02  0.51100000000E-03 0.  1.
         11   -1    0    0    0    0 -0.00000000000E+00 -0.00000000000E+00 -0.45593999997E+02  0.45594000000E+02  0.51100000000E-03 0. -1.
    9900012    2    1    2    0    0  0.22309064821E+02  0.31013406403E+02  0.13915430210E+02  0.50528868826E+02  0.30000027282E+02 0.  0.
         12    1    1    2    0    0 -0.22309064821E+02 -0.31013406403E+02 -0.13915430210E+02  0.40659131174E+02  0.00000000000E+00 0. -1.
         11    1    3    3    0    0 -0.12309293235E+01  0.11481918494E+02 -0.12510264767E+01  0.11615279024E+02  0.51100000000E-03 0. -1.
        -11    1    3    3    0    0  0.17286047442E+02  0.22617540082E+02  0.97740250775E+01  0.30098041830E+02  0.51100000000E-03 0.  1.
        -12    1    3    3    0    0  0.62539467026E+01 -0.30860521730E+01  0.53924316096E+01  0.88155479715E+01  0.00000000000E+00 0.  1.
</event>
<event>
 7    1  0.2639126E-011  0.5052886E+02  0.7816164E-02  0.1300439E+00
        -11   -1    0    0    0    0  0.00000000000E+00  0.00000000000E+00  0.45593999997E+02  0.45594000000E+02  0.51100000000E-03 0.  1.
         11   -1    0    0    0    0 -0.00000000000E+00 -0.00000000000E+00 -0.45593999997E+02  0.45594000000E+02  0.51100000000E-03 0. -1.
    9900012    2    1    2    0    0 -0.25816924113E+02 -0.31410943540E+02 -0.70402724811E-01  0.50528857101E+02  0.29999991644E+02 0.  0.
         12    1    1    2    0    0  0.25816924113E+02  0.31410943540E+02  0.70402724811E-01  0.40659142899E+02  0.00000000000E+00 0. -1.
         11    1    3    3    0    0 -0.78710749426E+01 -0.10032114026E+02  0.96801332644E+01  0.16009438243E+02  0.51100000000E-03 0. -1.
        -11    1    3    3    0    0 -0.17478065741E+02 -0.93824366488E+01 -0.13823745375E+01  0.19885267389E+02  0.51100000000E-03 0.  1.
         12    1    3    3    0    0 -0.46778342940E+00 -0.11996392865E+02 -0.83681614517E+01  0.14634151468E+02  0.00000000000E+00 0. -1.
</event>
<event>
 7    1  0.2639126E-011  0.5052883E+02  0.7816164E-02  0.1300439E+00
        -11   -1    0    0    0    0  0.00000000000E+00  0.00000000000E+00  0.45593999997E+02  0.45594000000E+02  0.51100000000E-03 0.  1.
         11   -1    0    0    0    0 -0.00000000000E+00 -0.00000000000E+00 -0.45593999997E+02  0.45594000000E+02  0.51100000000E-03 0. -1.
    9900012    2    1    2    0    0 -0.35587315021E+02 -0.12637110572E+02  0.15067009508E+02  0.50528827240E+02  0.29999900879E+02 0.  0.
         12    1    1    2    0    0  0.35587315021E+02  0.12637110572E+02 -0.15067009508E+02  0.40659172760E+02  0.00000000000E+00 0. -1.
         11    1    3    3    0    0 -0.46689279646E+01 -0.28991659784E+01 -0.17331493832E+01  0.57626260294E+01  0.51100000000E-03 0. -1.
        -11    1    3    3    0    0 -0.21546491319E+02  0.26611066945E+01 -0.22791018493E+00  0.21711396093E+02  0.51100000000E-03 0.  1.
        -12    1    3    3    0    0 -0.93718957377E+01 -0.12399051288E+02  0.17028069076E+02  0.23054805118E+02  0.00000000000E+00 0.  1.
</event>
<event>
 7    1  0.2639126E-011  0.5052880E+02  0.7816164E-02  0.1300439E+00
        -11   -1    0    0    0    0  0.00000000000E+00  0.00000000000E+00  0.45593999997E+02  0.45594000000E+02  0.51100000000E-03 0.  1.
         11   -1    0    0    0    0 -0.00000000000E+00 -0.00000000000E+00 -0.45593999997E+02  0.45594000000E+02  0.51100000000E-03 0. -1.
    9900012    2    1    2    0    0  0.33766509339E+02  0.37439188168E+01  0.22337790030E+02  0.50528795083E+02  0.29999803134E+02 0.  0.
         12    1    1    2    0    0 -0.33766509339E+02 -0.37439188168E+01 -0.22337790030E+02  0.40659204917E+02  0.00000000000E+00 0. -1.
         11    1    3    3    0    0 -0.20162351987E+00  0.57756627396E+01  0.18701088871E+01  0.60742274930E+01  0.51100000000E-03 0. -1.
        -11    1    3    3    0    0  0.46391475159E+01  0.23366004628E+01 -0.35532192428E+01  0.62933900757E+01  0.51100000000E-03 0.  1.
        -12    1    3    3    0    0  0.29328985343E+02 -0.43683443856E+01  0.24020900386E+02  0.38161177514E+02  0.00000000000E+00 0.  1.
</event>
<event>
 7    1  0.2639126E-011  0.5052887E+02  0.7816164E-02  0.1300439E+00
        -11   -1    0    0    0    0  0.00000000000E+00  0.00000000000E+00  0.45593999997E+02  0.45594000000E+02  0.51100000000E-03 0.  1.
         11   -1    0    0    0    0 -0.00000000000E+00 -0.00000000000E+00 -0.45593999997E+02  0.45594000000E+02  0.51100000000E-03 0. -1.
    9900012    2    1    2    0    0  0.40160697579E+02  0.53532372810E+01 -0.34097466667E+01  0.50528866319E+02  0.30000019662E+02 0.  0.
         12    1    1    2    0    0 -0.40160697579E+02 -0.53532372810E+01  0.34097466667E+01  0.40659133681E+02  0.00000000000E+00 0. -1.
         11    1    3    3    0    0  0.16847536967E+01  0.75607980109E+01  0.31851979408E+01  0.83755326853E+01  0.51100000000E-03 0. -1.
        -11    1    3    3    0    0  0.52721248330E+01  0.54188675276E+01 -0.93516634654E+00  0.76180024871E+01  0.51100000000E-03 0.  1.
         12    1    3    3    0    0  0.33203819049E+02 -0.76264282575E+01 -0.56597782610E+01  0.34535331146E+02  0.00000000000E+00 0. -1.
</event>
<event>
 7    1  0.2639126E-011  0.5052885E+02  0.7816164E-02  0.1300439E+00
        -11   -1    0    0    0    0  0.00000000000E+00  0.00000000000E+00  0.45593999997E+02  0.45594000000E+02  0.51100000000E-03 0. -1.
         11   -1    0    0    0    0 -0.00000000000E+00 -0.00000000000E+00 -0.45593999997E+02  0.45594000000E+02  0.51100000000E-03 0.  1.
    9900012    2    1    2    0    0 -0.13834175134E+02  0.20187814176E+02 -0.32468978430E+02  0.50528846011E+02  0.29999957935E+02 0.  0.
         12    1    1    2    0    0  0.13834175134E+02 -0.20187814176E+02  0.32468978430E+02  0.40659153989E+02  0.00000000000E+00 0. -1.
         11    1    3    3    0    0  0.13530784874E+01  0.49943762626E+01 -0.59477235274E+00  0.52084901899E+01  0.51100000000E-03 0. -1.
        -11    1    3    3    0    0 -0.28261343653E+01  0.84034315331E+01  0.15884708081E+01  0.90071047930E+01  0.51100000000E-03 0.  1.
         12    1    3    3    0    0 -0.12361119256E+02  0.67900063803E+01 -0.33462676885E+02  0.36313251028E+02  0.00000000000E+00 0. -1.
</event>
<event>
 7    1  0.2639126E-011  0.5052887E+02  0.7816164E-02  0.1300439E+00
        -11   -1    0    0    0    0  0.00000000000E+00  0.00000000000E+00  0.45593999997E+02  0.45594000000E+02  0.51100000000E-03 0. -1.
         11   -1    0    0    0    0 -0.00000000000E+00 -0.00000000000E+00 -0.45593999997E+02  0.45594000000E+02  0.51100000000E-03 0.  1.
    9900012    2    1    2    0    0  0.17089229849E+00 -0.30413877868E+02  0.26983915550E+02  0.50528869789E+02  0.30000030209E+02 0.  0.
         12    1    1    2    0    0 -0.17089229849E+00  0.30413877868E+02 -0.26983915550E+02  0.40659130211E+02  0.00000000000E+00 0. -1.
         11    1    3    3    0    0 -0.28085242375E+01 -0.37536970989E+01 -0.78280882554E+00  0.47529822450E+01  0.51100000000E-03 0. -1.
        -11    1    3    3    0    0 -0.67776732287E+01 -0.25507378590E+02  0.18174645503E+02  0.32044983326E+02  0.51100000000E-03 0.  1.
        -12    1    3    3    0    0  0.97570897646E+01 -0.11528021790E+01  0.95920788717E+01  0.13730904217E+02  0.00000000000E+00 0.  1.
</event>
<event>
 7    1  0.2639126E-011  0.5052886E+02  0.7816164E-02  0.1300439E+00
        -11   -1    0    0    0    0  0.00000000000E+00  0.00000000000E+00  0.45593999997E+02  0.45594000000E+02  0.51100000000E-03 0. -1.
         11   -1    0    0    0    0 -0.00000000000E+00 -0.00000000000E+00 -0.45593999997E+02  0.45594000000E+02  0.51100000000E-03 0.  1.
    9900012    2    1    2    0    0 -0.39711993096E+01  0.15081098013E+02 -0.37549376674E+02  0.50528860439E+02  0.30000001792E+02 0.  0.
         12    1    1    2    0    0  0.39711993096E+01 -0.15081098013E+02  0.37549376674E+02  0.40659139561E+02  0.00000000000E+00 0. -1.
         11    1    3    3    0    0 -0.13330164402E+02  0.50939235834E+01 -0.20826612594E+02  0.25246566754E+02  0.51100000000E-03 0. -1.
        -11    1    3    3    0    0 -0.25544847872E+01  0.26531824156E+01 -0.28045185523E+00  0.36937004430E+01  0.51100000000E-03 0.  1.
         12    1    3    3    0    0  0.11913449880E+02  0.73339920137E+01 -0.16442312225E+02  0.21588593243E+02  0.00000000000E+00 0. -1.
</event>
<event>
 7    1  0.2639126E-011  0.5052887E+02  0.7816164E-02  0.1300439E+00
        -11   -1    0    0    0    0  0.00000000000E+00  0.00000000000E+00  0.45593999997E+02  0.45594000000E+02  0.51100000000E-03 0.  1.
         11   -1    0    0    0    0 -0.00000000000E+00 -0.00000000000E+00 -0.45593999997E+02  0.45594000000E+02  0.51100000000E-03 0. -1.
    9900012    2    1    2    0    0  0.56720934618E+01  0.39964672371E+02  0.48802749616E+01  0.50528871067E+02  0.30000034094E+02 0.  0.
         12    1    1    2    0    0 -0.56720934618E+01 -0.39964672371E+02 -0.48802749616E+01  0.40659128933E+02  0.00000000000E+00 0. -1.
         11    1    3    3    0    0 -0.98349106293E+01  0.11079389027E+02  0.13123729065E+01  0.14872815847E+02  0.51100000000E-03 0. -1.
        -11    1    3    3    0    0 -0.18073957521E+01  0.85638796825E+01  0.14847532020E+01  0.88775676259E+01  0.51100000000E-03 0.  1.
         12    1    3    3    0    0  0.17314399843E+02  0.20321403661E+02  0.20831488531E+01  0.26778487594E+02  0.00000000000E+00 0. -1.
</event>
<event>
 7    1  0.2639126E-011  0.5052887E+02  0.7816164E-02  0.1300439E+00
        -11   -1    0    0    0    0  0.00000000000E+00  0.00000000000E+00  0.45593999997E+02  0.45594000000E+02  0.51100000000E-03 0. -1.
         11   -1    0    0    0    0 -0.00000000000E+00 -0.00000000000E+00 -0.45593999997E+02  0.45594000000E+02  0.51100000000E-03 0.  1.
    9900012    2    1    2    0    0 -0.22383019319E+02  0.33932378897E+02  0.87139667295E+00  0.50528865434E+02  0.30000016973E+02 0.  0.
         12    1    1    2    0    0  0.22383019319E+02 -0.33932378897E+02 -0.87139667295E+00  0.40659134566E+02  0.00000000000E+00 0. -1.
         11    1    3    3    0    0  0.74696088885E+00 -0.19589304500E+01 -0.39905866947E+00  0.21341525625E+01  0.51100000000E-03 0. -1.
        -11    1    3    3    0    0 -0.57635065159E+01  0.68058683147E+01  0.10013275860E+02  0.13409084405E+02  0.51100000000E-03 0.  1.
        -12    1    3    3    0    0 -0.17366473692E+02  0.29085441033E+02 -0.87428205177E+01  0.34985628466E+02  0.00000000000E+00 0.  1.
</event>
<event>
 7    1  0.2639126E-011  0.5052886E+02  0.7816164E-02  0.1300439E+00
        -11   -1    0    0    0    0  0.00000000000E+00  0.00000000000E+00  0.45593999997E+02  0.45594000000E+02  0.51100000000E-03 0. -1.
         11   -1    0    0    0    0 -0.00000000000E+00 -0.00000000000E+00 -0.45593999997E+02  0.45594000000E+02  0.51100000000E-03 0.  1.
    9900012    2    1    2    0    0  0.14917445960E+02  0.37487646474E+02 -0.50310861217E+01  0.50528860071E+02  0.30000000673E+02 0.  0.
         12    1    1    2    0    0 -0.14917445960E+02 -0.37487646474E+02  0.50310861217E+01  0.40659139929E+02  0.00000000000E+00 0. -1.
         11    1    3    3    0    0 -0.24579838152E+01 -0.18929745044E+01 -0.25864058658E+01  0.40391252114E+01  0.51100000000E-03 0. -1.
        -11    1    3    3    0    0  0.17033942968E+01  0.23622582421E+02 -0.47179770085E+01  0.24149270376E+02  0.51100000000E-03 0.  1.
         12    1    3    3    0    0  0.15672035479E+02  0.15758038558E+02  0.22732967527E+01  0.22340464484E+02  0.00000000000E+00 0. -1.
</event>
<event>
 7    1  0.2639126E-011  0.5052886E+02  0.7816164E-02  0.1300439E+00
        -11   -1    0    0    0    0  0.00000000000E+00  0.00000000000E+00  0.45593999997E+02  0.45594000000E+02  0.51100000000E-03 0.  1.
         11   -1    0    0    0    0 -0.00000000000E+00 -0.00000000000E+00 -0.45593999997E+02  0.45594000000E+02  0.51100000000E-03 0. -1.
    9900012    2    1    2    0    0  0.29940710632E+01  0.18645890402E+02  0.36007391825E+02  0.50528856422E+02  0.29999989582E+02 0.  0.
         12    1    1    2    0    0 -0.29940710632E+01 -0.18645890402E+02 -0.36007391825E+02  0.40659143578E+02  0.00000000000E+00 0. -1.
         11    1    3    3    0    0 -0.21427946125E+00 -0.43251861155E+01  0.12615914934E+02  0.13338457951E+02  0.51100000000E-03 0. -1.
        -11    1    3    3    0    0 -0.14929740743E+01 -0.22709862705E+01  0.44320890255E+00  0.27536856429E+01  0.51100000000E-03 0.  1.
        -12    1    3    3    0    0  0.47013245987E+01  0.25242062788E+02  0.22948267988E+02  0.34436712829E+02  0.00000000000E+00 0.  1.
</event>
<event>
 7    1  0.2639126E-011  0.5052884E+02  0.7816164E-02  0.1300439E+00
        -11   -1    0    0    0    0  0.00000000000E+00  0.00000000000E+00  0.45593999997E+02  0.45594000000E+02  0.51100000000E-03 0. -1.
         11   -1    0    0    0    0 -0.00000000000E+00 -0.00000000000E+00 -0.45593999997E+02  0.45594000000E+02  0.51100000000E-03 0.  1.
    9900012    2    1    2    0    0  0.33264573867E+01  0.34567893256E+02 -0.21146214120E+02  0.50528844395E+02  0.29999953022E+02 0.  0.
         12    1    1    2    0    0 -0.33264573867E+01 -0.34567893256E+02  0.21146214120E+02  0.40659155605E+02  0.00000000000E+00 0. -1.
         11    1    3    3    0    0  0.27543893188E+01  0.10783142178E+02 -0.13684942630E+02  0.17639174324E+02  0.51100000000E-03 0. -1.
        -11    1    3    3    0    0  0.84980364359E+01  0.12727073857E+02 -0.10982579835E+02  0.18836456469E+02  0.51100000000E-03 0.  1.
         12    1    3    3    0    0 -0.79259683680E+01  0.11057677221E+02  0.35213083446E+01  0.14053213602E+02  0.00000000000E+00 0. -1.
</event>
<event>
 7    1  0.2639126E-011  0.5052888E+02  0.7816164E-02  0.1300439E+00
        -11   -1    0    0    0    0  0.00000000000E+00  0.00000000000E+00  0.45593999997E+02  0.45594000000E+02  0.51100000000E-03 0. -1.
         11   -1    0    0    0    0 -0.00000000000E+00 -0.00000000000E+00 -0.45593999997E+02  0.45594000000E+02  0.51100000000E-03 0.  1.
    9900012    2    1    2    0    0 -0.10896592973E+02  0.31748915286E+02 -0.22944160423E+02  0.50528882231E+02  0.30000068028E+02 0.  0.
         12    1    1    2    0    0  0.10896592973E+02 -0.31748915286E+02  0.22944160423E+02  0.40659117769E+02  0.00000000000E+00 0. -1.
         11    1    3    3    0    0 -0.81789055416E+01  0.75590561773E+01 -0.22183121473E+01  0.11355823845E+02  0.51100000000E-03 0. -1.
        -11    1    3    3    0    0 -0.75900194464E+01  0.25933885683E+02 -0.13288586552E+02  0.30112478387E+02  0.51100000000E-03 0.  1.
        -12    1    3    3    0    0  0.48723320146E+01 -0.17440265745E+01 -0.74372617241E+01  0.90605799983E+01  0.00000000000E+00 0.  1.
</event>
<event>
 7    1  0.2639126E-011  0.5052885E+02  0.7816164E-02  0.1300439E+00
        -11   -1    0    0    0    0  0.00000000000E+00  0.00000000000E+00  0.45593999997E+02  0.45594000000E+02  0.51100000000E-03 0.  1.
         11   -1    0    0    0    0 -0.00000000000E+00 -0.00000000000E+00 -0.45593999997E+02  0.45594000000E+02  0.51100000000E-03 0. -1.
    9900012    2    1    2    0    0  0.91492999493E+00 -0.25128243663E+02  0.31951537984E+02  0.50528849665E+02  0.29999969040E+02 0.  0.
         12    1    1    2    0    0 -0.91492999493E+00  0.25128243663E+02 -0.31951537984E+02  0.40659150335E+02  0.00000000000E+00 0. -1.
         11    1    3    3    0    0 -0.71624384769E+00  0.17447663907E+01  0.16478588413E+00  0.18932431583E+01  0.51100000000E-03 0. -1.
        -11    1    3    3    0    0 -0.52288778266E+01 -0.82874611713E+00  0.17221354219E+02  0.18016742904E+02  0.51100000000E-03 0.  1.
        -12    1    3    3    0    0  0.68600516692E+01 -0.26044263936E+02  0.14565397880E+02  0.30618863602E+02  0.00000000000E+00 0.  1.
</event>
<event>
 7    1  0.2639126E-011  0.5052886E+02  0.7816164E-02  0.1300439E+00
        -11   -1    0    0    0    0  0.00000000000E+00  0.00000000000E+00  0.45593999997E+02  0.45594000000E+02  0.51100000000E-03 0.  1.
         11   -1    0    0    0    0 -0.00000000000E+00 -0.00000000000E+00 -0.45593999997E+02  0.45594000000E+02  0.51100000000E-03 0. -1.
    9900012    2    1    2    0    0 -0.71454153793E+01 -0.35752561839E+02  0.17996199288E+02  0.50528858004E+02  0.29999994389E+02 0.  0.
         12    1    1    2    0    0  0.71454153793E+01  0.35752561839E+02 -0.17996199288E+02  0.40659141996E+02  0.00000000000E+00 0. -1.
         11    1    3    3    0    0  0.36105048979E+01 -0.10850781704E+01  0.20814328625E+01  0.43064490332E+01  0.51100000000E-03 0. -1.
        -11    1    3    3    0    0  0.59720189049E+01 -0.20873484968E+02  0.82547759893E+01  0.23227326825E+02  0.51100000000E-03 0.  1.
         12    1    3    3    0    0 -0.16727939182E+02 -0.13793998700E+02  0.76599904366E+01  0.22995082146E+02  0.00000000000E+00 0. -1.
</event>
<event>
 7    1  0.2639126E-011  0.5052886E+02  0.7816164E-02  0.1300439E+00
        -11   -1    0    0    0    0  0.00000000000E+00  0.00000000000E+00  0.45593999997E+02  0.45594000000E+02  0.51100000000E-03 0.  1.
         11   -1    0    0    0    0 -0.00000000000E+00 -0.00000000000E+00 -0.45593999997E+02  0.45594000000E+02  0.51100000000E-03 0. -1.
    9900012    2    1    2    0    0 -0.19868812109E+02  0.17078442821E+02  0.31092169704E+02  0.50528856862E+02  0.29999990917E+02 0.  0.
         12    1    1    2    0    0  0.19868812109E+02 -0.17078442821E+02 -0.31092169704E+02  0.40659143138E+02  0.00000000000E+00 0. -1.
         11    1    3    3    0    0  0.50014455551E+01  0.23517607677E+01  0.92644674628E+01  0.10787752036E+02  0.51100000000E-03 0. -1.
        -11    1    3    3    0    0 -0.83855042785E+00  0.78114825401E+01  0.77892488550E+01  0.11063219436E+02  0.51100000000E-03 0.  1.
         12    1    3    3    0    0 -0.24031707236E+02  0.69151995129E+01  0.14038453387E+02  0.28677885391E+02  0.00000000000E+00 0. -1.
</event>
<event>
 7    1  0.2639126E-011  0.5052887E+02  0.7816164E-02  0.1300439E+00
        -11   -1    0    0    0    0  0.00000000000E+00  0.00000000000E+00  0.45593999997E+02  0.45594000000E+02  0.51100000000E-03 0. -1.
         11   -1    0    0    0    0 -0.00000000000E+00 -0.00000000000E+00 -0.45593999997E+02  0.45594000000E+02  0.51100000000E-03 0.  1.
    9900012    2    1    2    0    0  0.37864760940E+01 -0.34884959573E+02 -0.20539410943E+02  0.50528865632E+02  0.30000017576E+02 0.  0.
         12    1    1    2    0    0 -0.37864760940E+01  0.34884959573E+02  0.20539410943E+02  0.40659134368E+02  0.00000000000E+00 0. -1.
         11    1    3    3    0    0  0.70970252716E+01 -0.50274329491E+01  0.35986439941E+01  0.94123901652E+01  0.51100000000E-03 0. -1.
        -11    1    3    3    0    0  0.28501418124E+01 -0.23736020518E+00 -0.10039176626E+01  0.30310887734E+01  0.51100000000E-03 0.  1.
        -12    1    3    3    0    0 -0.61606909900E+01 -0.29620166419E+02 -0.23134137275E+02  0.38085386694E+02  0.00000000000E+00 0.  1.
</event>
<event>
 7    1  0.2639126E-011  0.5052886E+02  0.7816164E-02  0.1300439E+00
        -11   -1    0    0    0    0  0.00000000000E+00  0.00000000000E+00  0.45593999997E+02  0.45594000000E+02  0.51100000000E-03 0. -1.
         11   -1    0    0    0    0 -0.00000000000E+00 -0.00000000000E+00 -0.45593999997E+02  0.45594000000E+02  0.51100000000E-03 0.  1.
    9900012    2    1    2    0    0  0.40050866769E+02 -0.52980346961E+00  0.69866100176E+01  0.50528864001E+02  0.30000012618E+02 0.  0.
         12    1    1    2    0    0 -0.40050866769E+02  0.52980346961E+00 -0.69866100176E+01  0.40659135999E+02  0.00000000000E+00 0. -1.
         11    1    3    3    0    0  0.28602611943E+01 -0.15933675805E+01  0.83566363221E+01  0.89751482008E+01  0.51100000000E-03 0. -1.
        -11    1    3    3    0    0  0.30403448556E+02  0.38062551486E+01  0.59369103578E+01  0.31210641891E+02  0.51100000000E-03 0.  1.
        -12    1    3    3    0    0  0.67871570180E+01 -0.27426910377E+01 -0.73069366623E+01  0.10343073910E+02  0.00000000000E+00 0.  1.
</event>
<event>
 7    1  0.2639126E-011  0.5052886E+02  0.7816164E-02  0.1300439E+00
        -11   -1    0    0    0    0  0.00000000000E+00  0.00000000000E+00  0.45593999997E+02  0.45594000000E+02  0.51100000000E-03 0.  1.
         11   -1    0    0    0    0 -0.00000000000E+00 -0.00000000000E+00 -0.45593999997E+02  0.45594000000E+02  0.51100000000E-03 0. -1.
    9900012    2    1    2    0    0 -0.30893558564E+02  0.23325937153E+02  0.12436013358E+02  0.50528859170E+02  0.29999997932E+02 0.  0.
         12    1    1    2    0    0  0.30893558564E+02 -0.23325937153E+02 -0.12436013358E+02  0.40659140830E+02  0.00000000000E+00 0. -1.
         11    1    3    3    0    0 -0.75139066394E+01  0.61545510922E+00  0.17108042993E+01  0.77307457330E+01  0.51100000000E-03 0. -1.
        -11    1    3    3    0    0 -0.13813820825E+02 -0.21546423539E+01  0.77649857760E+01  0.15992471161E+02  0.51100000000E-03 0.  1.
         12    1    3    3    0    0 -0.95658310994E+01  0.24865124398E+02  0.29602232825E+01  0.26805642276E+02  0.00000000000E+00 0. -1.
</event>
<event>
 7    1  0.2639126E-011  0.5052884E+02  0.7816164E-02  0.1300439E+00
        -11   -1    0    0    0    0  0.00000000000E+00  0.00000000000E+00  0.45593999997E+02  0.45594000000E+02  0.51100000000E-03 0.  1.
         11   -1    0    0    0    0 -0.00000000000E+00 -0.00000000000E+00 -0.45593999997E+02  0.45594000000E+02  0.51100000000E-03 0. -1.
    9900012    2    1    2    0    0 -0.78890881545E+01  0.39444140870E+02  0.59236094357E+01  0.50528842241E+02  0.29999946476E+02 0.  0.
         12    1    1    2    0    0  0.78890881545E+01 -0.39444140870E+02 -0.59236094357E+01  0.40659157759E+02  0.00000000000E+00 0. -1.
         11    1    3    3    0    0 -0.46476780023E+01  0.40281119677E+01  0.28602883952E+01  0.67829084324E+01  0.51100000000E-03 0. -1.
        -11    1    3    3    0    0 -0.12538245414E+02  0.30789637141E+02  0.19448698247E+01  0.33301529578E+02  0.51100000000E-03 0.  1.
        -12    1    3    3    0    0  0.92968352616E+01  0.46263917613E+01  0.11184512158E+01  0.10444404231E+02  0.00000000000E+00 0.  1.
</event>
<event>
 7    1  0.2639126E-011  0.5052885E+02  0.7816164E-02  0.1300439E+00
        -11   -1    0    0    0    0  0.00000000000E+00  0.00000000000E+00  0.45593999997E+02  0.45594000000E+02  0.51100000000E-03 0.  1.
         11   -1    0    0    0    0 -0.00000000000E+00 -0.00000000000E+00 -0.45593999997E+02  0.45594000000E+02  0.51100000000E-03 0. -1.
    9900012    2    1    2    0    0 -0.32235040106E+02  0.13596212924E+02  0.20717425664E+02  0.50528849213E+02  0.29999967669E+02 0.  0.
         12    1    1    2    0    0  0.32235040106E+02 -0.13596212924E+02 -0.20717425664E+02  0.40659150787E+02  0.00000000000E+00 0. -1.
         11    1    3    3    0    0 -0.21641858451E+02 -0.39278705351E+01  0.50032998928E+01  0.22557287387E+02  0.51100000000E-03 0. -1.
        -11    1    3    3    0    0  0.65362744377E+00  0.80787664706E+01  0.33384622811E+01  0.87657873112E+01  0.51100000000E-03 0.  1.
        -12    1    3    3    0    0 -0.11246809099E+02  0.94453169887E+01  0.12375663490E+02  0.19205774516E+02  0.00000000000E+00 0.  1.
</event>
<event>
 7    1  0.2639126E-011  0.5052886E+02  0.7816164E-02  0.1300439E+00
        -11   -1    0    0    0    0  0.00000000000E+00  0.00000000000E+00  0.45593999997E+02  0.45594000000E+02  0.51100000000E-03 0. -1.
         11   -1    0    0    0    0 -0.00000000000E+00 -0.00000000000E+00 -0.45593999997E+02  0.45594000000E+02  0.51100000000E-03 0.  1.
    9900012    2    1    2    0    0  0.14901648146E+02  0.37808817418E+02  0.12648615925E+01  0.50528859984E+02  0.30000000408E+02 0.  0.
         12    1    1    2    0    0 -0.14901648146E+02 -0.37808817418E+02 -0.12648615925E+01  0.40659140016E+02  0.00000000000E+00 0. -1.
         11    1    3    3    0    0  0.87149007831E+00  0.75348149380E+01  0.29708492664E+01  0.81460957969E+01  0.51100000000E-03 0. -1.
        -11    1    3    3    0    0  0.12839307265E+02  0.34246459548E+02 -0.52229098976E+01  0.36945183592E+02  0.51100000000E-03 0.  1.
         12    1    3    3    0    0  0.11908508031E+01 -0.39724570686E+01  0.35169222237E+01  0.54375805948E+01  0.00000000000E+00 0. -1.
</event>
<event>
 7    1  0.2639126E-011  0.5052886E+02  0.7816164E-02  0.1300439E+00
        -11   -1    0    0    0    0  0.00000000000E+00  0.00000000000E+00  0.45593999997E+02  0.45594000000E+02  0.51100000000E-03 0.  1.
         11   -1    0    0    0    0 -0.00000000000E+00 -0.00000000000E+00 -0.45593999997E+02  0.45594000000E+02  0.51100000000E-03 0. -1.
    9900012    2    1    2    0    0 -0.32898322779E+02 -0.89798312728E+01  0.22141106114E+02  0.50528860912E+02  0.30000003229E+02 0.  0.
         12    1    1    2    0    0  0.32898322779E+02  0.89798312728E+01 -0.22141106114E+02  0.40659139088E+02  0.00000000000E+00 0. -1.
         11    1    3    3    0    0 -0.63437571630E+01  0.14929539606E+01 -0.43578708831E+01  0.78398472796E+01  0.51100000000E-03 0. -1.
        -11    1    3    3    0    0 -0.17402982802E+01 -0.77465647610E+01  0.99879433413E+01  0.12759189479E+02  0.51100000000E-03 0.  1.
        -12    1    3    3    0    0 -0.24814267336E+02 -0.27262204725E+01  0.16511033656E+02  0.29929824154E+02  0.00000000000E+00 0.  1.
</event>
<event>
 7    1  0.2639126E-011  0.5052886E+02  0.7816164E-02  0.1300439E+00
        -11   -1    0    0    0    0  0.00000000000E+00  0.00000000000E+00  0.45593999997E+02  0.45594000000E+02  0.51100000000E-03 0. -1.
         11   -1    0    0    0    0 -0.00000000000E+00 -0.00000000000E+00 -0.45593999997E+02  0.45594000000E+02  0.51100000000E-03 0.  1.
    9900012    2    1    2    0    0 -0.10672427869E+02 -0.37100983905E+02 -0.12758610628E+02  0.50528857504E+02  0.29999992869E+02 0.  0.
         12    1    1    2    0    0  0.10672427869E+02  0.37100983905E+02  0.12758610628E+02  0.40659142496E+02  0.00000000000E+00 0. -1.
         11    1    3    3    0    0 -0.41329857648E+01 -0.66740287016E+01 -0.69967090596E+01  0.10515615454E+02  0.51100000000E-03 0. -1.
        -11    1    3    3    0    0 -0.12153933043E+02 -0.14428246122E+02 -0.11523018588E+02  0.22105934321E+02  0.51100000000E-03 0.  1.
         12    1    3    3    0    0  0.56144909384E+01 -0.15998709082E+02  0.57611170199E+01  0.17907307729E+02  0.00000000000E+00 0. -1.
</event>
<event>
 7    1  0.2639126E-011  0.5052885E+02  0.7816164E-02  0.1300439E+00
        -11   -1    0    0    0    0  0.00000000000E+00  0.00000000000E+00  0.45593999997E+02  0.45594000000E+02  0.51100000000E-03 0.  1.
         11   -1    0    0    0    0 -0.00000000000E+00 -0.00000000000E+00 -0.45593999997E+02  0.45594000000E+02  0.51100000000E-03 0. -1.
    9900012    2    1    2    0    0 -0.21823121923E+02  0.12454881720E+02  0.31965512998E+02  0.50528846660E+02  0.29999959907E+02 0.  0.
         12    1    1    2    0    0  0.21823121923E+02 -0.12454881720E+02 -0.31965512998E+02  0.40659153340E+02  0.00000000000E+00 0. -1.
         11    1    3    3    0    0  0.22637098090E+01  0.86250352715E+01  0.12288816397E+01  0.90014313239E+01  0.51100000000E-03 0. -1.
        -11    1    3    3    0    0 -0.58932611669E+00  0.38703332454E+01  0.76107030830E+01  0.85585972204E+01  0.51100000000E-03 0.  1.
        -12    1    3    3    0    0 -0.23497505615E+02 -0.40486797061E-01  0.23125928276E+02  0.32968818115E+02  0.00000000000E+00 0.  1.
</event>
<event>
 7    1  0.2639126E-011  0.5052886E+02  0.7816164E-02  0.1300439E+00
        -11   -1    0    0    0    0  0.00000000000E+00  0.00000000000E+00  0.45593999997E+02  0.45594000000E+02  0.51100000000E-03 0. -1.
         11   -1    0    0    0    0 -0.00000000000E+00 -0.00000000000E+00 -0.45593999997E+02  0.45594000000E+02  0.51100000000E-03 0.  1.
    9900012    2    1    2    0    0  0.13605336742E+02  0.33632066197E+02 -0.18356050522E+02  0.50528860126E+02  0.30000000839E+02 0.  0.
         12    1    1    2    0    0 -0.13605336742E+02 -0.33632066197E+02  0.18356050522E+02  0.40659139874E+02  0.00000000000E+00 0. -1.
         11    1    3    3    0    0  0.37571984650E+01  0.37031767867E+01  0.24221860535E+01  0.58049155168E+01  0.51100000000E-03 0. -1.
        -11    1    3    3    0    0  0.62691847265E+00 -0.14445101959E+01 -0.10250241157E+02  0.10370490852E+02  0.51100000000E-03 0.  1.
         12    1    3    3    0    0  0.92212198042E+01  0.31373399606E+02 -0.10527995418E+02  0.34353453757E+02  0.00000000000E+00 0. -1.
</event>
<event>
 7    1  0.2639126E-011  0.5052882E+02  0.7816164E-02  0.1300439E+00
        -11   -1    0    0    0    0  0.00000000000E+00  0.00000000000E+00  0.45593999997E+02  0.45594000000E+02  0.51100000000E-03 0.  1.
         11   -1    0    0    0    0 -0.00000000000E+00 -0.00000000000E+00 -0.45593999997E+02  0.45594000000E+02  0.51100000000E-03 0. -1.
    9900012    2    1    2    0    0  0.26171853229E+02 -0.24216145743E+02  0.19539232112E+02  0.50528816442E+02  0.29999868056E+02 0.  0.
         12    1    1    2    0    0 -0.26171853229E+02  0.24216145743E+02 -0.19539232112E+02  0.40659183558E+02  0.00000000000E+00 0. -1.
         11    1    3    3    0    0  0.12477898087E+02 -0.84437449186E+01  0.87536084927E+01  0.17424707482E+02  0.51100000000E-03 0.  1.
        -11    1    3    3    0    0 -0.46169163823E+01  0.87009781789E+00 -0.21683649984E+01  0.51744365994E+01  0.51100000000E-03 0. -1.
         12    1    3    3    0    0  0.18310871525E+02 -0.16642498643E+02  0.12953988618E+02  0.27929672361E+02  0.00000000000E+00 0. -1.
</event>
<event>
 7    1  0.2639126E-011  0.5052886E+02  0.7816164E-02  0.1300439E+00
        -11   -1    0    0    0    0  0.00000000000E+00  0.00000000000E+00  0.45593999997E+02  0.45594000000E+02  0.51100000000E-03 0.  1.
         11   -1    0    0    0    0 -0.00000000000E+00 -0.00000000000E+00 -0.45593999997E+02  0.45594000000E+02  0.51100000000E-03 0. -1.
    9900012    2    1    2    0    0 -0.30046447991E+02  0.21948279268E+02  0.16390544794E+02  0.50528856399E+02  0.29999989510E+02 0.  0.
         12    1    1    2    0    0  0.30046447991E+02 -0.21948279268E+02 -0.16390544794E+02  0.40659143601E+02  0.00000000000E+00 0. -1.
         11    1    3    3    0    0  0.37198942307E+01  0.33802009833E+01  0.16132399521E+01  0.52788175929E+01  0.51100000000E-03 0. -1.
        -11    1    3    3    0    0  0.17648002232E+01  0.31248281178E+01 -0.46210636376E+00  0.36183716153E+01  0.51100000000E-03 0.  1.
        -12    1    3    3    0    0 -0.35531142445E+02  0.15443250167E+02  0.15239411205E+02  0.41631667191E+02  0.00000000000E+00 0.  1.
</event>
<event>
 7    1  0.2639126E-011  0.5052886E+02  0.7816164E-02  0.1300439E+00
        -11   -1    0    0    0    0  0.00000000000E+00  0.00000000000E+00  0.45593999997E+02  0.45594000000E+02  0.51100000000E-03 0. -1.
         11   -1    0    0    0    0 -0.00000000000E+00 -0.00000000000E+00 -0.45593999997E+02  0.45594000000E+02  0.51100000000E-03 0.  1.
    9900012    2    1    2    0    0 -0.12442346337E+02 -0.29843075558E+02 -0.24652478860E+02  0.50528857669E+02  0.29999993372E+02 0.  0.
         12    1    1    2    0    0  0.12442346337E+02  0.29843075558E+02  0.24652478860E+02  0.40659142331E+02  0.00000000000E+00 0. -1.
         11    1    3    3    0    0  0.77825589104E+01 -0.77995010642E+01 -0.11943520341E+02  0.16249557484E+02  0.51100000000E-03 0. -1.
        -11    1    3    3    0    0 -0.49939663599E+01 -0.32201028127E+01  0.15998873831E+01  0.61537307406E+01  0.51100000000E-03 0.  1.
        -12    1    3    3    0    0 -0.15230938887E+02 -0.18823471681E+02 -0.14308845903E+02  0.28125569444E+02  0.00000000000E+00 0.  1.
</event>
<event>
 7    1  0.2639126E-011  0.5052886E+02  0.7816164E-02  0.1300439E+00
        -11   -1    0    0    0    0  0.00000000000E+00  0.00000000000E+00  0.45593999997E+02  0.45594000000E+02  0.51100000000E-03 0.  1.
         11   -1    0    0    0    0 -0.00000000000E+00 -0.00000000000E+00 -0.45593999997E+02  0.45594000000E+02  0.51100000000E-03 0. -1.
    9900012    2    1    2    0    0  0.23049692621E+02  0.17667020742E+02  0.28456176628E+02  0.50528856624E+02  0.29999990193E+02 0.  0.
         12    1    1    2    0    0 -0.23049692621E+02 -0.17667020742E+02 -0.28456176628E+02  0.40659143376E+02  0.00000000000E+00 0. -1.
         11    1    3    3    0    0  0.77226809306E+01  0.22701918534E+01  0.23954962420E+02  0.25271204891E+02  0.51100000000E-03 0. -1.
        -11    1    3    3    0    0  0.83212575807E+01  0.43510827870E+00  0.15119938962E+01  0.84686936857E+01  0.51100000000E-03 0.  1.
        -12    1    3    3    0    0  0.70057541098E+01  0.14961720610E+02  0.29892203114E+01  0.16788958047E+02  0.00000000000E+00 0.  1.
</event>
<event>
 7    1  0.2639126E-011  0.5052886E+02  0.7816164E-02  0.1300439E+00
        -11   -1    0    0    0    0  0.00000000000E+00  0.00000000000E+00  0.45593999997E+02  0.45594000000E+02  0.51100000000E-03 0.  1.
         11   -1    0    0    0    0 -0.00000000000E+00 -0.00000000000E+00 -0.45593999997E+02  0.45594000000E+02  0.51100000000E-03 0. -1.
    9900012    2    1    2    0    0 -0.24021163101E+02  0.12311366762E+02  0.30406900187E+02  0.50528860717E+02  0.30000002636E+02 0.  0.
         12    1    1    2    0    0  0.24021163101E+02 -0.12311366762E+02 -0.30406900187E+02  0.40659139283E+02  0.00000000000E+00 0. -1.
         11    1    3    3    0    0  0.21658348941E+01  0.68488304498E+00  0.21000727613E+01  0.30935758335E+01  0.51100000000E-03 0. -1.
        -11    1    3    3    0    0 -0.61774387167E+01  0.16301430972E+02  0.11442616697E+02  0.20852598830E+02  0.51100000000E-03 0.  1.
        -12    1    3    3    0    0 -0.20009559278E+02 -0.46749472552E+01  0.16864210729E+02  0.26582686054E+02  0.00000000000E+00 0.  1.
</event>
<event>
 7    1  0.2639126E-011  0.5052886E+02  0.7816164E-02  0.1300439E+00
        -11   -1    0    0    0    0  0.00000000000E+00  0.00000000000E+00  0.45593999997E+02  0.45594000000E+02  0.51100000000E-03 0.  1.
         11   -1    0    0    0    0 -0.00000000000E+00 -0.00000000000E+00 -0.45593999997E+02  0.45594000000E+02  0.51100000000E-03 0. -1.
    9900012    2    1    2    0    0  0.32064264835E+02  0.23400917348E+02  0.88003343711E+01  0.50528857152E+02  0.29999991799E+02 0.  0.
         12    1    1    2    0    0 -0.32064264835E+02 -0.23400917348E+02 -0.88003343711E+01  0.40659142848E+02  0.00000000000E+00 0. -1.
         11    1    3    3    0    0  0.22505056848E+02  0.61244452314E+01  0.35923710578E+01  0.23598549600E+02  0.51100000000E-03 0. -1.
        -11    1    3    3    0    0  0.12151205666E+02  0.40999258522E+01  0.40631929326E+01  0.13452536125E+02  0.51100000000E-03 0.  1.
        -12    1    3    3    0    0 -0.25919976793E+01  0.13176546264E+02  0.11447703806E+01  0.13477771427E+02  0.00000000000E+00 0.  1.
</event>
<event>
 7    1  0.2639126E-011  0.5052884E+02  0.7816164E-02  0.1300439E+00
        -11   -1    0    0    0    0  0.00000000000E+00  0.00000000000E+00  0.45593999997E+02  0.45594000000E+02  0.51100000000E-03 0. -1.
         11   -1    0    0    0    0 -0.00000000000E+00 -0.00000000000E+00 -0.45593999997E+02  0.45594000000E+02  0.51100000000E-03 0.  1.
    9900012    2    1    2    0    0 -0.28726835099E+02 -0.74125629386E+01 -0.27802696069E+02  0.50528842940E+02  0.29999948601E+02 0.  0.
         12    1    1    2    0    0  0.28726835099E+02  0.74125629386E+01  0.27802696069E+02  0.40659157060E+02  0.00000000000E+00 0. -1.
         11    1    3    3    0    0 -0.77311287261E+00 -0.16330803007E+01  0.33131892705E+01  0.37738413037E+01  0.51100000000E-03 0. -1.
        -11    1    3    3    0    0 -0.59420627752E+01  0.40815190092E+01  0.21916721323E+00  0.72121385161E+01  0.51100000000E-03 0.  1.
        -12    1    3    3    0    0 -0.22011659451E+02 -0.98610016470E+01 -0.31335052553E+02  0.39542863120E+02  0.00000000000E+00 0.  1.
</event>
<event>
 7    1  0.2639126E-011  0.5052887E+02  0.7816164E-02  0.1300439E+00
        -11   -1    0    0    0    0  0.00000000000E+00  0.00000000000E+00  0.45593999997E+02  0.45594000000E+02  0.51100000000E-03 0. -1.
         11   -1    0    0    0    0 -0.00000000000E+00 -0.00000000000E+00 -0.45593999997E+02  0.45594000000E+02  0.51100000000E-03 0.  1.
    9900012    2    1    2    0    0 -0.19489027298E+02 -0.27596360631E+02 -0.22622637741E+02  0.50528867650E+02  0.30000023708E+02 0.  0.
         12    1    1    2    0    0  0.19489027298E+02  0.27596360631E+02  0.22622637741E+02  0.40659132350E+02  0.00000000000E+00 0. -1.
         11    1    3    3    0    0  0.15833381054E+01 -0.71850133659E+00 -0.28780222349E+01  0.33624717058E+01  0.51100000000E-03 0. -1.
        -11    1    3    3    0    0 -0.62069510889E+01  0.45537531415E+01 -0.60735468616E+01  0.98056555739E+01  0.51100000000E-03 0.  1.
        -12    1    3    3    0    0 -0.14865414315E+02 -0.31431612436E+02 -0.13671068644E+02  0.37360740370E+02  0.00000000000E+00 0.  1.
</event>
<event>
 7    1  0.2639126E-011  0.5052883E+02  0.7816164E-02  0.1300439E+00
        -11   -1    0    0    0    0  0.00000000000E+00  0.00000000000E+00  0.45593999997E+02  0.45594000000E+02  0.51100000000E-03 0.  1.
         11   -1    0    0    0    0 -0.00000000000E+00 -0.00000000000E+00 -0.45593999997E+02  0.45594000000E+02  0.51100000000E-03 0. -1.
    9900012    2    1    2    0    0  0.12191808705E+01  0.10819978529E+02  0.39174096509E+02  0.50528829144E+02  0.29999906667E+02 0.  0.
         12    1    1    2    0    0 -0.12191808705E+01 -0.10819978529E+02 -0.39174096509E+02  0.40659170856E+02  0.00000000000E+00 0. -1.
         11    1    3    3    0    0  0.97931841627E+01  0.95909605050E+01  0.14528950854E+02  0.19974568647E+02  0.51100000000E-03 0. -1.
        -11    1    3    3    0    0  0.40134671553E+01  0.34325637932E+01  0.71126187948E+01  0.88588802443E+01  0.51100000000E-03 0.  1.
         12    1    3    3    0    0 -0.12587470447E+02 -0.22035457690E+01  0.17532526860E+02  0.21695380253E+02  0.00000000000E+00 0. -1.
</event>
<event>
 7    1  0.2639126E-011  0.5052884E+02  0.7816164E-02  0.1300439E+00
        -11   -1    0    0    0    0  0.00000000000E+00  0.00000000000E+00  0.45593999997E+02  0.45594000000E+02  0.51100000000E-03 0.  1.
         11   -1    0    0    0    0 -0.00000000000E+00 -0.00000000000E+00 -0.45593999997E+02  0.45594000000E+02  0.51100000000E-03 0. -1.
    9900012    2    1    2    0    0 -0.37053461981E+02  0.66434311399E+01  0.15364675406E+02  0.50528837780E+02  0.29999932915E+02 0.  0.
         12    1    1    2    0    0  0.37053461981E+02 -0.66434311399E+01 -0.15364675406E+02  0.40659162220E+02  0.00000000000E+00 0. -1.
         11    1    3    3    0    0  0.15846267020E+01 -0.19976602700E+01  0.76530889560E+00  0.26622145492E+01  0.51100000000E-03 0. -1.
        -11    1    3    3    0    0 -0.37015547804E+02  0.39990593022E+00  0.13466964264E+02  0.39391240533E+02  0.51100000000E-03 0.  1.
         12    1    3    3    0    0 -0.16225408793E+01  0.82411854797E+01  0.11324022463E+01  0.84753826972E+01  0.00000000000E+00 0. -1.
</event>
<event>
 7    1  0.2639126E-011  0.5052886E+02  0.7816164E-02  0.1300439E+00
        -11   -1    0    0    0    0  0.00000000000E+00  0.00000000000E+00  0.45593999997E+02  0.45594000000E+02  0.51100000000E-03 0. -1.
         11   -1    0    0    0    0 -0.00000000000E+00 -0.00000000000E+00 -0.45593999997E+02  0.45594000000E+02  0.51100000000E-03 0.  1.
    9900012    2    1    2    0    0 -0.45129925417E+01 -0.11908613838E+02 -0.38613252890E+02  0.50528862233E+02  0.30000007244E+02 0.  0.
         12    1    1    2    0    0  0.45129925417E+01  0.11908613838E+02  0.38613252890E+02  0.40659137767E+02  0.00000000000E+00 0. -1.
         11    1    3    3    0    0 -0.66615921475E+01 -0.11474491921E+00 -0.11073148235E+02  0.12923025514E+02  0.51100000000E-03 0.  1.
        -11    1    3    3    0    0 -0.84493486774E+01 -0.11459755936E+02 -0.11146696004E+02  0.18082210353E+02  0.51100000000E-03 0. -1.
        -12    1    3    3    0    0  0.10597948283E+02 -0.33411298249E+00 -0.16393408651E+02  0.19523626366E+02  0.00000000000E+00 0.  1.
</event>
<event>
 7    1  0.2639126E-011  0.5052886E+02  0.7816164E-02  0.1300439E+00
        -11   -1    0    0    0    0  0.00000000000E+00  0.00000000000E+00  0.45593999997E+02  0.45594000000E+02  0.51100000000E-03 0.  1.
         11   -1    0    0    0    0 -0.00000000000E+00 -0.00000000000E+00 -0.45593999997E+02  0.45594000000E+02  0.51100000000E-03 0. -1.
    9900012    2    1    2    0    0 -0.48858626047E+01  0.21841896654E+02  0.33944448317E+02  0.50528859891E+02  0.30000000124E+02 0.  0.
         12    1    1    2    0    0  0.48858626047E+01 -0.21841896654E+02 -0.33944448317E+02  0.40659140109E+02  0.00000000000E+00 0. -1.
         11    1    3    3    0    0 -0.12423533351E+00 -0.45715475982E+01  0.20207090678E+01  0.49997747208E+01  0.51100000000E-03 0. -1.
        -11    1    3    3    0    0  0.15481229677E+01  0.45931465928E+01 -0.15389036064E+01  0.50854601480E+01  0.51100000000E-03 0.  1.
         12    1    3    3    0    0 -0.63097502389E+01  0.21820297660E+02  0.33462642856E+02  0.40443625022E+02  0.00000000000E+00 0. -1.
</event>
<event>
 7    1  0.2639126E-011  0.5052886E+02  0.7816164E-02  0.1300439E+00
        -11   -1    0    0    0    0  0.00000000000E+00  0.00000000000E+00  0.45593999997E+02  0.45594000000E+02  0.51100000000E-03 0.  1.
         11   -1    0    0    0    0 -0.00000000000E+00 -0.00000000000E+00 -0.45593999997E+02  0.45594000000E+02  0.51100000000E-03 0. -1.
    9900012    2    1    2    0    0  0.11233863558E+02 -0.10931382850E+02  0.37516276085E+02  0.50528858436E+02  0.29999995701E+02 0.  0.
         12    1    1    2    0    0 -0.11233863558E+02  0.10931382850E+02 -0.37516276085E+02  0.40659141564E+02  0.00000000000E+00 0. -1.
         11    1    3    3    0    0  0.34126440708E+01  0.39736927172E+00 -0.82173843910E-01  0.34366836767E+01  0.51100000000E-03 0. -1.
        -11    1    3    3    0    0 -0.13345735425E+01  0.72907929019E+01  0.75874779620E+01  0.10606911415E+02  0.51100000000E-03 0.  1.
         12    1    3    3    0    0  0.91557930295E+01 -0.18619545024E+02  0.30010971967E+02  0.36485263344E+02  0.00000000000E+00 0. -1.
</event>
<event>
 7    1  0.2639126E-011  0.5052886E+02  0.7816164E-02  0.1300439E+00
        -11   -1    0    0    0    0  0.00000000000E+00  0.00000000000E+00  0.45593999997E+02  0.45594000000E+02  0.51100000000E-03 0. -1.
         11   -1    0    0    0    0 -0.00000000000E+00 -0.00000000000E+00 -0.45593999997E+02  0.45594000000E+02  0.51100000000E-03 0.  1.
    9900012    2    1    2    0    0 -0.21193718766E+02 -0.28155153669E+02 -0.20280015456E+02  0.50528863017E+02  0.30000009627E+02 0.  0.
         12    1    1    2    0    0  0.21193718766E+02  0.28155153669E+02  0.20280015456E+02  0.40659136983E+02  0.00000000000E+00 0. -1.
         11    1    3    3    0    0  0.32860154217E+01 -0.14649044160E+01 -0.26013691152E+01  0.44397031246E+01  0.51100000000E-03 0. -1.
        -11    1    3    3    0    0 -0.98820197012E+01 -0.26083424065E+02 -0.12763821849E+02  0.30674329215E+02  0.51100000000E-03 0.  1.
         12    1    3    3    0    0 -0.14597714487E+02 -0.60682518815E+00 -0.49148244925E+01  0.15414830678E+02  0.00000000000E+00 0. -1.
</event>
<event>
 7    1  0.2639126E-011  0.5052887E+02  0.7816164E-02  0.1300439E+00
        -11   -1    0    0    0    0  0.00000000000E+00  0.00000000000E+00  0.45593999997E+02  0.45594000000E+02  0.51100000000E-03 0. -1.
         11   -1    0    0    0    0 -0.00000000000E+00 -0.00000000000E+00 -0.45593999997E+02  0.45594000000E+02  0.51100000000E-03 0.  1.
    9900012    2    1    2    0    0  0.25370929185E+01  0.23513372847E+02 -0.33073393349E+02  0.50528869528E+02  0.30000029417E+02 0.  0.
         12    1    1    2    0    0 -0.25370929185E+01 -0.23513372847E+02  0.33073393349E+02  0.40659130472E+02  0.00000000000E+00 0. -1.
         11    1    3    3    0    0  0.11900737792E+01  0.50573530275E+01 -0.10630988407E+02  0.11832624815E+02  0.51100000000E-03 0.  1.
        -11    1    3    3    0    0 -0.99901112515E+01  0.13362339542E+02 -0.19972915346E+02  0.26024445979E+02  0.51100000000E-03 0. -1.
        -12    1    3    3    0    0  0.11337130391E+02  0.50936802775E+01 -0.24694895961E+01  0.12671798733E+02  0.00000000000E+00 0.  1.
</event>
<event>
 7    1  0.2639126E-011  0.5052886E+02  0.7816164E-02  0.1300439E+00
        -11   -1    0    0    0    0  0.00000000000E+00  0.00000000000E+00  0.45593999997E+02  0.45594000000E+02  0.51100000000E-03 0.  1.
         11   -1    0    0    0    0 -0.00000000000E+00 -0.00000000000E+00 -0.45593999997E+02  0.45594000000E+02  0.51100000000E-03 0. -1.
    9900012    2    1    2    0    0 -0.58884095648E+00 -0.15253194238E+02  0.37684999737E+02  0.50528857445E+02  0.29999992691E+02 0.  0.
         12    1    1    2    0    0  0.58884095648E+00  0.15253194238E+02 -0.37684999737E+02  0.40659142555E+02  0.00000000000E+00 0. -1.
         11    1    3    3    0    0 -0.32190651412E+01  0.67608832739E+00  0.14192984332E+02  0.14569155100E+02  0.51100000000E-03 0. -1.
        -11    1    3    3    0    0  0.52574984442E+01 -0.15668350235E+02  0.26947023699E+02  0.31611399455E+02  0.51100000000E-03 0.  1.
         12    1    3    3    0    0 -0.26272742595E+01 -0.26093232976E+00 -0.34550082944E+01  0.43483028907E+01  0.00000000000E+00 0. -1.
</event>
<event>
 7    1  0.2639126E-011  0.5052886E+02  0.7816164E-02  0.1300439E+00
        -11   -1    0    0    0    0  0.00000000000E+00  0.00000000000E+00  0.45593999997E+02  0.45594000000E+02  0.51100000000E-03 0.  1.
         11   -1    0    0    0    0 -0.00000000000E+00 -0.00000000000E+00 -0.45593999997E+02  0.45594000000E+02  0.51100000000E-03 0. -1.
    9900012    2    1    2    0    0 -0.19977502860E+02  0.94984567540E+01  0.34115159685E+02  0.50528863001E+02  0.30000009576E+02 0.  0.
         12    1    1    2    0    0  0.19977502860E+02 -0.94984567540E+01 -0.34115159685E+02  0.40659136999E+02  0.00000000000E+00 0. -1.
         11    1    3    3    0    0 -0.13043610240E+02  0.27139456215E+01  0.16699664098E+02  0.21363053391E+02  0.51100000000E-03 0. -1.
        -11    1    3    3    0    0 -0.94100002306E+01 -0.23086209688E+01  0.17197454982E+02  0.19739055024E+02  0.51100000000E-03 0.  1.
         12    1    3    3    0    0  0.24761076106E+01  0.90931321013E+01  0.21804060427E+00  0.94267545855E+01  0.00000000000E+00 0. -1.
</event>
<event>
 7    1  0.3307159E-011  0.5052886E+02  0.7816164E-02  0.1300439E+00
        -11   -1    0    0    0    0  0.00000000000E+00  0.00000000000E+00  0.45593999997E+02  0.45594000000E+02  0.51100000000E-03 0.  1.
         11   -1    0    0    0    0 -0.00000000000E+00 -0.00000000000E+00 -0.45593999997E+02  0.45594000000E+02  0.51100000000E-03 0. -1.
    9900012    2    1    2    0    0 -0.40348683874E+02  0.16122540006E+01 -0.47486996179E+01  0.50528858330E+02  0.29999995379E+02 0.  0.
         12    1    1    2    0    0  0.40348683874E+02 -0.16122540006E+01  0.47486996179E+01  0.40659141670E+02  0.00000000000E+00 0. -1.
         11    1    3    3    0    0 -0.85065489351E+01  0.65216394458E+01  0.32517313179E+01  0.11201201394E+02  0.51100000000E-03 0. -1.
        -11    1    3    3    0    0 -0.32159419146E+02  0.13924043052E+01 -0.69448506124E+01  0.32930198601E+02  0.51100000000E-03 0.  1.
         12    1    3    3    0    0  0.31728420778E+00 -0.63017897505E+01 -0.10555803235E+01  0.63974583350E+01  0.00000000000E+00 0. -1.
</event>
<event>
 7    1  0.2639126E-011  0.5052883E+02  0.7816164E-02  0.1300439E+00
        -11   -1    0    0    0    0  0.00000000000E+00  0.00000000000E+00  0.45593999997E+02  0.45594000000E+02  0.51100000000E-03 0.  1.
         11   -1    0    0    0    0 -0.00000000000E+00 -0.00000000000E+00 -0.45593999997E+02  0.45594000000E+02  0.51100000000E-03 0. -1.
    9900012    2    1    2    0    0 -0.19152662321E+01  0.16311133205E+02  0.37194710056E+02  0.50528834153E+02  0.29999921893E+02 0.  0.
         12    1    1    2    0    0  0.19152662321E+01 -0.16311133205E+02 -0.37194710056E+02  0.40659165847E+02  0.00000000000E+00 0. -1.
         11    1    3    3    0    0 -0.56889404806E+01  0.32855628771E+01 -0.28335562387E+01  0.71545795425E+01  0.51100000000E-03 0. -1.
        -11    1    3    3    0    0  0.36459019101E+01  0.28947492481E+01  0.23739197802E+02  0.24191355615E+02  0.51100000000E-03 0.  1.
        -12    1    3    3    0    0  0.12777233839E+00  0.10130821080E+02  0.16289068493E+02  0.19182898996E+02  0.00000000000E+00 0.  1.
</event>
<event>
 7    1  0.2639126E-011  0.5052884E+02  0.7816164E-02  0.1300439E+00
        -11   -1    0    0    0    0  0.00000000000E+00  0.00000000000E+00  0.45593999997E+02  0.45594000000E+02  0.51100000000E-03 0.  1.
         11   -1    0    0    0    0 -0.00000000000E+00 -0.00000000000E+00 -0.45593999997E+02  0.45594000000E+02  0.51100000000E-03 0. -1.
    9900012    2    1    2    0    0 -0.30063526256E+01 -0.23192388278E+02  0.33260214671E+02  0.50528844695E+02  0.29999953935E+02 0.  0.
         12    1    1    2    0    0  0.30063526256E+01  0.23192388278E+02 -0.33260214671E+02  0.40659155305E+02  0.00000000000E+00 0. -1.
         11    1    3    3    0    0 -0.24085460429E+01  0.12967053883E+01 -0.26653541322E+01  0.38192475458E+01  0.51100000000E-03 0. -1.
        -11    1    3    3    0    0 -0.56567643239E+01 -0.94825290190E+00  0.60103699357E+01  0.83079909248E+01  0.51100000000E-03 0.  1.
        -12    1    3    3    0    0  0.50589577412E+01 -0.23540840765E+02  0.29915198867E+02  0.38401606224E+02  0.00000000000E+00 0.  1.
</event>
<event>
 7    1  0.2639126E-011  0.5052886E+02  0.7816164E-02  0.1300439E+00
        -11   -1    0    0    0    0  0.00000000000E+00  0.00000000000E+00  0.45593999997E+02  0.45594000000E+02  0.51100000000E-03 0.  1.
         11   -1    0    0    0    0 -0.00000000000E+00 -0.00000000000E+00 -0.45593999997E+02  0.45594000000E+02  0.51100000000E-03 0. -1.
    9900012    2    1    2    0    0 -0.36149837105E+02  0.90337954702E+01  0.16271008791E+02  0.50528856989E+02  0.29999991302E+02 0.  0.
         12    1    1    2    0    0  0.36149837105E+02 -0.90337954702E+01 -0.16271008791E+02  0.40659143011E+02  0.00000000000E+00 0. -1.
         11    1    3    3    0    0 -0.20197389732E+01 -0.27394593088E+00 -0.39296970483E+01  0.44268398487E+01  0.51100000000E-03 0. -1.
        -11    1    3    3    0    0 -0.20992849504E+02  0.49623240129E+01 -0.54635708521E-01  0.21571448149E+02  0.51100000000E-03 0.  1.
        -12    1    3    3    0    0 -0.13137248628E+02  0.43454173882E+01  0.20255341548E+02  0.24530568991E+02  0.00000000000E+00 0.  1.
</event>
<event>
 7    1  0.2639126E-011  0.5052886E+02  0.7816164E-02  0.1300439E+00
        -11   -1    0    0    0    0  0.00000000000E+00  0.00000000000E+00  0.45593999997E+02  0.45594000000E+02  0.51100000000E-03 0.  1.
         11   -1    0    0    0    0 -0.00000000000E+00 -0.00000000000E+00 -0.45593999997E+02  0.45594000000E+02  0.51100000000E-03 0. -1.
    9900012    2    1    2    0    0 -0.54976121034E+01  0.20857511586E+02  0.34466011355E+02  0.50528862440E+02  0.30000007873E+02 0.  0.
         12    1    1    2    0    0  0.54976121034E+01 -0.20857511586E+02 -0.34466011355E+02  0.40659137560E+02  0.00000000000E+00 0. -1.
         11    1    3    3    0    0 -0.38652660514E+01  0.52735340527E+01  0.24219490910E+01  0.69725376094E+01  0.51100000000E-03 0.  1.
        -11    1    3    3    0    0 -0.11835576521E+02  0.12691107580E+01  0.13707611073E+02  0.18154616914E+02  0.51100000000E-03 0. -1.
        -12    1    3    3    0    0  0.10203230469E+02  0.14314866775E+02  0.18336451191E+02  0.25401707917E+02  0.00000000000E+00 0.  1.
</event>
<event>
 7    1  0.2639126E-011  0.5052875E+02  0.7816164E-02  0.1300439E+00
        -11   -1    0    0    0    0  0.00000000000E+00  0.00000000000E+00  0.45593999997E+02  0.45594000000E+02  0.51100000000E-03 0.  1.
         11   -1    0    0    0    0 -0.00000000000E+00 -0.00000000000E+00 -0.45593999997E+02  0.45594000000E+02  0.51100000000E-03 0. -1.
    9900012    2    1    2    0    0  0.66928486970E+01 -0.21270976420E+02  0.33998912275E+02  0.50528748932E+02  0.29999662853E+02 0.  0.
         12    1    1    2    0    0 -0.66928486970E+01  0.21270976420E+02 -0.33998912275E+02  0.40659251068E+02  0.00000000000E+00 0. -1.
         11    1    3    3    0    0 -0.39686744609E+01  0.37773137977E+01  0.89697300357E+01  0.10510686642E+02  0.51100000000E-03 0. -1.
        -11    1    3    3    0    0  0.90982666450E+00 -0.26073895569E+01  0.11967229992E+02  0.12281728657E+02  0.51100000000E-03 0.  1.
         12    1    3    3    0    0  0.97516964934E+01 -0.22440900660E+02  0.13061952247E+02  0.27736333634E+02  0.00000000000E+00 0. -1.
</event>
<event>
 7    1  0.2639126E-011  0.5052885E+02  0.7816164E-02  0.1300439E+00
        -11   -1    0    0    0    0  0.00000000000E+00  0.00000000000E+00  0.45593999997E+02  0.45594000000E+02  0.51100000000E-03 0. -1.
         11   -1    0    0    0    0 -0.00000000000E+00 -0.00000000000E+00 -0.45593999997E+02  0.45594000000E+02  0.51100000000E-03 0.  1.
    9900012    2    1    2    0    0 -0.11761927166E+02 -0.23369122306E+01 -0.38850509273E+02  0.50528853917E+02  0.29999981966E+02 0.  0.
         12    1    1    2    0    0  0.11761927166E+02  0.23369122306E+01  0.38850509273E+02  0.40659146083E+02  0.00000000000E+00 0. -1.
         11    1    3    3    0    0 -0.12449078560E+02 -0.11644982944E+01 -0.13548694126E+02  0.18436451016E+02  0.51100000000E-03 0. -1.
        -11    1    3    3    0    0 -0.81786270813E+01  0.40798833350E+01 -0.14684972398E+02  0.17296930466E+02  0.51100000000E-03 0.  1.
        -12    1    3    3    0    0  0.88657784760E+01 -0.52522972712E+01 -0.10616842749E+02  0.14795472435E+02  0.00000000000E+00 0.  1.
</event>
<event>
 7    1  0.2639126E-011  0.5052884E+02  0.7816164E-02  0.1300439E+00
        -11   -1    0    0    0    0  0.00000000000E+00  0.00000000000E+00  0.45593999997E+02  0.45594000000E+02  0.51100000000E-03 0. -1.
         11   -1    0    0    0    0 -0.00000000000E+00 -0.00000000000E+00 -0.45593999997E+02  0.45594000000E+02  0.51100000000E-03 0.  1.
    9900012    2    1    2    0    0 -0.19879305189E+02 -0.14701238408E+01 -0.35437539678E+02  0.50528840425E+02  0.29999940956E+02 0.  0.
         12    1    1    2    0    0  0.19879305189E+02  0.14701238408E+01  0.35437539678E+02  0.40659159575E+02  0.00000000000E+00 0. -1.
         11    1    3    3    0    0  0.83135471695E+00  0.48578318857E+00 -0.42735966553E+00  0.10534574109E+01  0.51100000000E-03 0. -1.
        -11    1    3    3    0    0 -0.20756059233E+02  0.95329284610E+01 -0.27505684863E+02  0.35752670109E+02  0.51100000000E-03 0.  1.
        -12    1    3    3    0    0  0.45399326416E-01 -0.11488835490E+02 -0.75044951494E+01  0.13722712905E+02  0.00000000000E+00 0.  1.
</event>
<event>
 7    1  0.2639126E-011  0.5052889E+02  0.7816164E-02  0.1300439E+00
        -11   -1    0    0    0    0  0.00000000000E+00  0.00000000000E+00  0.45593999997E+02  0.45594000000E+02  0.51100000000E-03 0.  1.
         11   -1    0    0    0    0 -0.00000000000E+00 -0.00000000000E+00 -0.45593999997E+02  0.45594000000E+02  0.51100000000E-03 0. -1.
    9900012    2    1    2    0    0 -0.32140194251E+02 -0.53486024169E+01  0.24322087962E+02  0.50528885436E+02  0.30000077771E+02 0.  0.
         12    1    1    2    0    0  0.32140194251E+02  0.53486024169E+01 -0.24322087962E+02  0.40659114564E+02  0.00000000000E+00 0. -1.
         11    1    3    3    0    0 -0.26823515532E+02  0.19309770272E+01  0.18610892665E+02  0.32704663029E+02  0.51100000000E-03 0. -1.
        -11    1    3    3    0    0 -0.45024477539E+01  0.35806002516E+01  0.34287924798E+01  0.66969658853E+01  0.51100000000E-03 0.  1.
        -12    1    3    3    0    0 -0.81423096506E+00 -0.10860179696E+02  0.22824028174E+01  0.11127256522E+02  0.00000000000E+00 0.  1.
</event>
<event>
 7    1  0.2639126E-011  0.5052886E+02  0.7816164E-02  0.1300439E+00
        -11   -1    0    0    0    0  0.00000000000E+00  0.00000000000E+00  0.45593999997E+02  0.45594000000E+02  0.51100000000E-03 0.  1.
         11   -1    0    0    0    0 -0.00000000000E+00 -0.00000000000E+00 -0.45593999997E+02  0.45594000000E+02  0.51100000000E-03 0. -1.
    9900012    2    1    2    0    0  0.17189366371E+01 -0.39800899332E+02  0.81301459024E+01  0.50528860767E+02  0.30000002787E+02 0.  0.
         12    1    1    2    0    0 -0.17189366371E+01  0.39800899332E+02 -0.81301459024E+01  0.40659139233E+02  0.00000000000E+00 0. -1.
         11    1    3    3    0    0 -0.17510785556E+01 -0.16991204486E+01  0.42251330816E+01  0.48790405025E+01  0.51100000000E-03 0.  1.
        -11    1    3    3    0    0  0.61530075398E+01 -0.93930765964E+00  0.55711169610E+01  0.83533912346E+01  0.51100000000E-03 0. -1.
        -12    1    3    3    0    0 -0.26829923471E+01 -0.37162471223E+02 -0.16661041403E+01  0.37296429030E+02  0.00000000000E+00 0.  1.
</event>
<event>
 7    1  0.2639126E-011  0.5052886E+02  0.7816164E-02  0.1300439E+00
        -11   -1    0    0    0    0  0.00000000000E+00  0.00000000000E+00  0.45593999997E+02  0.45594000000E+02  0.51100000000E-03 0. -1.
         11   -1    0    0    0    0 -0.00000000000E+00 -0.00000000000E+00 -0.45593999997E+02  0.45594000000E+02  0.51100000000E-03 0.  1.
    9900012    2    1    2    0    0 -0.32257458543E+02 -0.21193434271E+02  0.12785167718E+02  0.50528858329E+02  0.29999995377E+02 0.  0.
         12    1    1    2    0    0  0.32257458543E+02  0.21193434271E+02 -0.12785167718E+02  0.40659141671E+02  0.00000000000E+00 0. -1.
         11    1    3    3    0    0 -0.83610904420E+01 -0.43690482082E+01  0.74382897729E+01  0.12013516164E+02  0.51100000000E-03 0. -1.
        -11    1    3    3    0    0 -0.21028683876E+02 -0.89480774123E+01  0.13729958438E+02  0.26660558770E+02  0.51100000000E-03 0.  1.
         12    1    3    3    0    0 -0.28676842248E+01 -0.78763086509E+01 -0.83830804937E+01  0.11854783395E+02  0.00000000000E+00 0. -1.
</event>
<event>
 7    1  0.2639126E-011  0.5052885E+02  0.7816164E-02  0.1300439E+00
        -11   -1    0    0    0    0  0.00000000000E+00  0.00000000000E+00  0.45593999997E+02  0.45594000000E+02  0.51100000000E-03 0. -1.
         11   -1    0    0    0    0 -0.00000000000E+00 -0.00000000000E+00 -0.45593999997E+02  0.45594000000E+02  0.51100000000E-03 0.  1.
    9900012    2    1    2    0    0  0.40260609925E+01  0.32856641026E+01 -0.40325693834E+02  0.50528851720E+02  0.29999975287E+02 0.  0.
         12    1    1    2    0    0 -0.40260609925E+01 -0.32856641026E+01  0.40325693834E+02  0.40659148280E+02  0.00000000000E+00 0. -1.
         11    1    3    3    0    0  0.10956448618E+01  0.36049003337E+01 -0.74955804247E+01  0.83892472990E+01  0.51100000000E-03 0. -1.
        -11    1    3    3    0    0 -0.45084273498E+01 -0.41962227188E+00 -0.34265082832E+02  0.34562955628E+02  0.51100000000E-03 0.  1.
         12    1    3    3    0    0  0.74388434805E+01  0.10038604075E+00  0.14349694227E+01  0.75766487927E+01  0.00000000000E+00 0. -1.
</event>
<event>
 7    1  0.2639126E-011  0.5052886E+02  0.7816164E-02  0.1300439E+00
        -11   -1    0    0    0    0  0.00000000000E+00  0.00000000000E+00  0.45593999997E+02  0.45594000000E+02  0.51100000000E-03 0.  1.
         11   -1    0    0    0    0 -0.00000000000E+00 -0.00000000000E+00 -0.45593999997E+02  0.45594000000E+02  0.51100000000E-03 0. -1.
    9900012    2    1    2    0    0  0.39248398032E+01  0.98638307005E+01  0.39248770882E+02  0.50528861552E+02  0.30000005173E+02 0.  0.
         12    1    1    2    0    0 -0.39248398032E+01 -0.98638307005E+01 -0.39248770882E+02  0.40659138448E+02  0.00000000000E+00 0. -1.
         11    1    3    3    0    0  0.10088084218E+02 -0.95286931538E+00  0.78912299814E+01  0.12843243905E+02  0.51100000000E-03 0. -1.
        -11    1    3    3    0    0  0.15300826636E+01  0.46403010148E+01  0.77585184834E-01  0.48866723021E+01  0.51100000000E-03 0.  1.
        -12    1    3    3    0    0 -0.76933270782E+01  0.61763990010E+01  0.31279955716E+02  0.32798945345E+02  0.00000000000E+00 0.  1.
</event>
<event>
 7    1  0.2639126E-011  0.5052885E+02  0.7816164E-02  0.1300439E+00
        -11   -1    0    0    0    0  0.00000000000E+00  0.00000000000E+00  0.45593999997E+02  0.45594000000E+02  0.51100000000E-03 0.  1.
         11   -1    0    0    0    0 -0.00000000000E+00 -0.00000000000E+00 -0.45593999997E+02  0.45594000000E+02  0.51100000000E-03 0. -1.
    9900012    2    1    2    0    0  0.24039328783E+02 -0.74464008013E+01  0.31934754900E+02  0.50528846249E+02  0.29999958658E+02 0.  0.
         12    1    1    2    0    0 -0.24039328783E+02  0.74464008013E+01 -0.31934754900E+02  0.40659153751E+02  0.00000000000E+00 0. -1.
         11    1    3    3    0    0  0.27737711341E+01 -0.26446337457E+01  0.11751099880E+02  0.12360268711E+02  0.51100000000E-03 0. -1.
        -11    1    3    3    0    0  0.68105599559E+01  0.68341224987E+01  0.16701805037E+02  0.19288318978E+02  0.51100000000E-03 0.  1.
        -12    1    3    3    0    0  0.14454997693E+02 -0.11635889554E+02  0.34818499839E+01  0.18880258561E+02  0.00000000000E+00 0.  1.
</event>
<event>
 7    1  0.2639126E-011  0.5052887E+02  0.7816164E-02  0.1300439E+00
        -11   -1    0    0    0    0  0.00000000000E+00  0.00000000000E+00  0.45593999997E+02  0.45594000000E+02  0.51100000000E-03 0. -1.
         11   -1    0    0    0    0 -0.00000000000E+00 -0.00000000000E+00 -0.45593999997E+02  0.45594000000E+02  0.51100000000E-03 0.  1.
    9900012    2    1    2    0    0  0.19791486585E+02 -0.10856602687E+02 -0.33817098731E+02  0.50528869049E+02  0.30000027961E+02 0.  0.
         12    1    1    2    0    0 -0.19791486585E+02  0.10856602687E+02  0.33817098731E+02  0.40659130951E+02  0.00000000000E+00 0. -1.
         11    1    3    3    0    0  0.97824346325E+01 -0.15877598864E+02 -0.23158265357E+02  0.29733809504E+02  0.51100000000E-03 0. -1.
        -11    1    3    3    0    0  0.12714175884E+02  0.18896730195E+01 -0.10593390422E+02  0.16656561873E+02  0.51100000000E-03 0.  1.
        -12    1    3    3    0    0 -0.27051239323E+01  0.31313231570E+01 -0.65442952318E-01  0.41384976722E+01  0.00000000000E+00 0.  1.
</event>
<event>
 7    1  0.2639126E-011  0.5052886E+02  0.7816164E-02  0.1300439E+00
        -11   -1    0    0    0    0  0.00000000000E+00  0.00000000000E+00  0.45593999997E+02  0.45594000000E+02  0.51100000000E-03 0. -1.
         11   -1    0    0    0    0 -0.00000000000E+00 -0.00000000000E+00 -0.45593999997E+02  0.45594000000E+02  0.51100000000E-03 0.  1.
    9900012    2    1    2    0    0 -0.18374638090E+02  0.15764528521E+02 -0.32665239833E+02  0.50528861079E+02  0.30000003736E+02 0.  0.
         12    1    1    2    0    0  0.18374638090E+02 -0.15764528521E+02  0.32665239833E+02  0.40659138921E+02  0.00000000000E+00 0. -1.
         11    1    3    3    0    0 -0.13499211822E+02  0.10468482465E+02 -0.18643110037E+02  0.25286031659E+02  0.51100000000E-03 0. -1.
        -11    1    3    3    0    0  0.42136778317E+01 -0.45702259984E+01 -0.89590309284E+01  0.10904415710E+02  0.51100000000E-03 0.  1.
         12    1    3    3    0    0 -0.90891040993E+01  0.98662720541E+01 -0.50630988681E+01  0.14338413710E+02  0.00000000000E+00 0. -1.
</event>
<event>
 7    1  0.2639126E-011  0.5052887E+02  0.7816164E-02  0.1300439E+00
        -11   -1    0    0    0    0  0.00000000000E+00  0.00000000000E+00  0.45593999997E+02  0.45594000000E+02  0.51100000000E-03 0.  1.
         11   -1    0    0    0    0 -0.00000000000E+00 -0.00000000000E+00 -0.45593999997E+02  0.45594000000E+02  0.51100000000E-03 0. -1.
    9900012    2    1    2    0    0  0.21217179805E+02 -0.56479188847E+01  0.34221302244E+02  0.50528865309E+02  0.30000016592E+02 0.  0.
         12    1    1    2    0    0 -0.21217179805E+02  0.56479188847E+01 -0.34221302244E+02  0.40659134691E+02  0.00000000000E+00 0. -1.
         11    1    3    3    0    0 -0.49327306743E+01 -0.96726469198E+00  0.62034233327E+01  0.79843530856E+01  0.51100000000E-03 0.  1.
        -11    1    3    3    0    0  0.11649455266E+02 -0.79747949463E+01  0.46822202950E+01  0.14873814224E+02  0.51100000000E-03 0. -1.
        -12    1    3    3    0    0  0.14500455214E+02  0.32941407536E+01  0.23335658616E+02  0.27670697999E+02  0.00000000000E+00 0.  1.
</event>
<event>
 7    1  0.2639126E-011  0.5052887E+02  0.7816164E-02  0.1300439E+00
        -11   -1    0    0    0    0  0.00000000000E+00  0.00000000000E+00  0.45593999997E+02  0.45594000000E+02  0.51100000000E-03 0.  1.
         11   -1    0    0    0    0 -0.00000000000E+00 -0.00000000000E+00 -0.45593999997E+02  0.45594000000E+02  0.51100000000E-03 0. -1.
    9900012    2    1    2    0    0  0.39675301471E+02 -0.30007547900E+01  0.83684237344E+01  0.50528873203E+02  0.30000040588E+02 0.  0.
         12    1    1    2    0    0 -0.39675301471E+02  0.30007547900E+01 -0.83684237344E+01  0.40659126797E+02  0.00000000000E+00 0. -1.
         11    1    3    3    0    0  0.15578743591E+02 -0.19168391554E+01 -0.10814535680E+01  0.15733437841E+02  0.51100000000E-03 0. -1.
        -11    1    3    3    0    0  0.19236203928E+01 -0.95486235945E+01  0.23035369344E+01  0.10009136358E+02  0.51100000000E-03 0.  1.
         12    1    3    3    0    0  0.22172937487E+02  0.84647079599E+01  0.71463403681E+01  0.24786299004E+02  0.00000000000E+00 0. -1.
</event>
<event>
 7    1  0.2639126E-011  0.5052886E+02  0.7816164E-02  0.1300439E+00
        -11   -1    0    0    0    0  0.00000000000E+00  0.00000000000E+00  0.45593999997E+02  0.45594000000E+02  0.51100000000E-03 0.  1.
         11   -1    0    0    0    0 -0.00000000000E+00 -0.00000000000E+00 -0.45593999997E+02  0.45594000000E+02  0.51100000000E-03 0. -1.
    9900012    2    1    2    0    0 -0.23452533043E+02  0.14221122117E+01  0.33183156556E+02  0.50528860950E+02  0.30000003343E+02 0.  0.
         12    1    1    2    0    0  0.23452533043E+02 -0.14221122117E+01 -0.33183156556E+02  0.40659139050E+02  0.00000000000E+00 0. -1.
         11    1    3    3    0    0 -0.95438384078E+01  0.94516541837E+01  0.93981669449E+01  0.16393418208E+02  0.51100000000E-03 0. -1.
        -11    1    3    3    0    0 -0.39939444129E+01  0.34789470909E+01  0.16421221591E+02  0.17254309132E+02  0.51100000000E-03 0.  1.
         12    1    3    3    0    0 -0.99147502221E+01 -0.11508489063E+02  0.73637680204E+01  0.16881133609E+02  0.00000000000E+00 0. -1.
</event>
<event>
 7    1  0.2639126E-011  0.5052886E+02  0.7816164E-02  0.1300439E+00
        -11   -1    0    0    0    0  0.00000000000E+00  0.00000000000E+00  0.45593999997E+02  0.45594000000E+02  0.51100000000E-03 0. -1.
         11   -1    0    0    0    0 -0.00000000000E+00 -0.00000000000E+00 -0.45593999997E+02  0.45594000000E+02  0.51100000000E-03 0.  1.
    9900012    2    1    2    0    0 -0.33376566480E+02  0.18846451162E+02 -0.13563981576E+02  0.50528861942E+02  0.30000006359E+02 0.  0.
         12    1    1    2    0    0  0.33376566480E+02 -0.18846451162E+02  0.13563981576E+02  0.40659138058E+02  0.00000000000E+00 0. -1.
         11    1    3    3    0    0 -0.52570560705E+01  0.41515609233E+01 -0.13040291900E+02  0.14660194737E+02  0.51100000000E-03 0. -1.
        -11    1    3    3    0    0 -0.17257250448E+02  0.11851657155E+02 -0.79644224356E+01  0.22398805668E+02  0.51100000000E-03 0.  1.
         12    1    3    3    0    0 -0.10862259961E+02  0.28432330840E+01  0.74407327594E+01  0.13469861537E+02  0.00000000000E+00 0. -1.
</event>
<event>
 7    1  0.2639126E-011  0.5052886E+02  0.7816164E-02  0.1300439E+00
        -11   -1    0    0    0    0  0.00000000000E+00  0.00000000000E+00  0.45593999997E+02  0.45594000000E+02  0.51100000000E-03 0.  1.
         11   -1    0    0    0    0 -0.00000000000E+00 -0.00000000000E+00 -0.45593999997E+02  0.45594000000E+02  0.51100000000E-03 0. -1.
    9900012    2    1    2    0    0 -0.33620243635E+02 -0.22509360390E+02  0.40216183814E+01  0.50528862015E+02  0.30000006582E+02 0.  0.
         12    1    1    2    0    0  0.33620243635E+02  0.22509360390E+02 -0.40216183814E+01  0.40659137985E+02  0.00000000000E+00 0. -1.
         11    1    3    3    0    0 -0.25735150003E+02 -0.77856347276E+01 -0.13300902028E+01  0.26919940453E+02  0.51100000000E-03 0. -1.
        -11    1    3    3    0    0 -0.70679133513E+01 -0.11068333312E+02 -0.38407501407E+01  0.13682644604E+02  0.51100000000E-03 0.  1.
         12    1    3    3    0    0 -0.81718028084E+00 -0.36553923502E+01  0.91924587249E+01  0.99262769584E+01  0.00000000000E+00 0. -1.
</event>
<event>
 7    1  0.2639126E-011  0.5052886E+02  0.7816164E-02  0.1300439E+00
        -11   -1    0    0    0    0  0.00000000000E+00  0.00000000000E+00  0.45593999997E+02  0.45594000000E+02  0.51100000000E-03 0.  1.
         11   -1    0    0    0    0 -0.00000000000E+00 -0.00000000000E+00 -0.45593999997E+02  0.45594000000E+02  0.51100000000E-03 0. -1.
    9900012    2    1    2    0    0 -0.11400626967E+02 -0.12624165246E+02  0.36929961221E+02  0.50528857373E+02  0.29999992471E+02 0.  0.
         12    1    1    2    0    0  0.11400626967E+02  0.12624165246E+02 -0.36929961221E+02  0.40659142627E+02  0.00000000000E+00 0. -1.
         11    1    3    3    0    0 -0.86479444819E+00 -0.55185012335E-01  0.35585433713E+01  0.36625327316E+01  0.51100000000E-03 0.  1.
        -11    1    3    3    0    0  0.96246809902E+01 -0.10408681854E+01  0.10013280729E+02  0.13927802481E+02  0.51100000000E-03 0. -1.
         12    1    3    3    0    0 -0.20160513509E+02 -0.11528112048E+02  0.23358137121E+02  0.32938522160E+02  0.00000000000E+00 0. -1.
</event>
<event>
 7    1  0.2639126E-011  0.5052886E+02  0.7816164E-02  0.1300439E+00
        -11   -1    0    0    0    0  0.00000000000E+00  0.00000000000E+00  0.45593999997E+02  0.45594000000E+02  0.51100000000E-03 0.  1.
         11   -1    0    0    0    0 -0.00000000000E+00 -0.00000000000E+00 -0.45593999997E+02  0.45594000000E+02  0.51100000000E-03 0. -1.
    9900012    2    1    2    0    0  0.36550886598E+02  0.17357628595E+02 -0.39888955879E+01  0.50528857491E+02  0.29999992829E+02 0.  0.
         12    1    1    2    0    0 -0.36550886598E+02 -0.17357628595E+02  0.39888955879E+01  0.40659142509E+02  0.00000000000E+00 0. -1.
         11    1    3    3    0    0  0.84613385798E+01 -0.49070307218E+01  0.76551243720E+00  0.98111778405E+01  0.51100000000E-03 0. -1.
        -11    1    3    3    0    0  0.10105304555E+02  0.36864899341E+01 -0.95917828437E+01  0.14412136780E+02  0.51100000000E-03 0.  1.
         12    1    3    3    0    0  0.17984243464E+02  0.18578169383E+02  0.48373748187E+01  0.26305542871E+02  0.00000000000E+00 0. -1.
</event>
<event>
 7    1  0.2639126E-011  0.5052886E+02  0.7816164E-02  0.1300439E+00
        -11   -1    0    0    0    0  0.00000000000E+00  0.00000000000E+00  0.45593999997E+02  0.45594000000E+02  0.51100000000E-03 0.  1.
         11   -1    0    0    0    0 -0.00000000000E+00 -0.00000000000E+00 -0.45593999997E+02  0.45594000000E+02  0.51100000000E-03 0. -1.
    9900012    2    1    2    0    0 -0.10669182276E+02  0.23435089930E+02  0.31466340690E+02  0.50528862197E+02  0.30000007135E+02 0.  0.
         12    1    1    2    0    0  0.10669182276E+02 -0.23435089930E+02 -0.31466340690E+02  0.40659137803E+02  0.00000000000E+00 0. -1.
         11    1    3    3    0    0 -0.55723801486E+01  0.82142256695E+01  0.24063794104E+02  0.26030580301E+02  0.51100000000E-03 0. -1.
        -11    1    3    3    0    0  0.17457946422E+01 -0.31591282843E+01  0.21239616670E+01  0.41879713315E+01  0.51100000000E-03 0.  1.
         12    1    3    3    0    0 -0.68425967694E+01  0.18379992544E+02  0.52785849188E+01  0.20310310565E+02  0.00000000000E+00 0. -1.
</event>
<event>
 7    1  0.2639126E-011  0.5052886E+02  0.7816164E-02  0.1300439E+00
        -11   -1    0    0    0    0  0.00000000000E+00  0.00000000000E+00  0.45593999997E+02  0.45594000000E+02  0.51100000000E-03 0. -1.
         11   -1    0    0    0    0 -0.00000000000E+00 -0.00000000000E+00 -0.45593999997E+02  0.45594000000E+02  0.51100000000E-03 0.  1.
    9900012    2    1    2    0    0 -0.37825335947E+02  0.22960858863E+01  0.14735578010E+02  0.50528864382E+02  0.30000013777E+02 0.  0.
         12    1    1    2    0    0  0.37825335947E+02 -0.22960858863E+01 -0.14735578010E+02  0.40659135618E+02  0.00000000000E+00 0. -1.
         11    1    3    3    0    0 -0.14159109155E+02  0.82319464774E+01  0.13702973895E+02  0.21354550070E+02  0.51100000000E-03 0. -1.
        -11    1    3    3    0    0 -0.21564311242E+02 -0.23543063621E+00 -0.31552805107E+01  0.21795199983E+02  0.51100000000E-03 0.  1.
        -12    1    3    3    0    0 -0.21019155498E+01 -0.57004299549E+01  0.41878846255E+01  0.73791143293E+01  0.00000000000E+00 0.  1.
</event>
<event>
 7    1  0.2639126E-011  0.5052886E+02  0.7816164E-02  0.1300439E+00
        -11   -1    0    0    0    0  0.00000000000E+00  0.00000000000E+00  0.45593999997E+02  0.45594000000E+02  0.51100000000E-03 0.  1.
         11   -1    0    0    0    0 -0.00000000000E+00 -0.00000000000E+00 -0.45593999997E+02  0.45594000000E+02  0.51100000000E-03 0. -1.
    9900012    2    1    2    0    0  0.22223625041E+02 -0.24838271511E+02  0.23288126174E+02  0.50528855121E+02  0.29999985625E+02 0.  0.
         12    1    1    2    0    0 -0.22223625041E+02  0.24838271511E+02 -0.23288126174E+02  0.40659144879E+02  0.00000000000E+00 0. -1.
         11    1    3    3    0    0  0.25099570896E+02 -0.23488680196E+02  0.11695965754E+02  0.36311185214E+02  0.51100000000E-03 0. -1.
        -11    1    3    3    0    0  0.25495164426E+01 -0.10608567841E+01  0.32838656147E+01  0.42905972596E+01  0.51100000000E-03 0.  1.
         12    1    3    3    0    0 -0.54254622975E+01 -0.28873453143E+00  0.83082948050E+01  0.99270726469E+01  0.00000000000E+00 0. -1.
</event>
<event>
 7    1  0.2639126E-011  0.5052886E+02  0.7816164E-02  0.1300439E+00
        -11   -1    0    0    0    0  0.00000000000E+00  0.00000000000E+00  0.45593999997E+02  0.45594000000E+02  0.51100000000E-03 0.  1.
         11   -1    0    0    0    0 -0.00000000000E+00 -0.00000000000E+00 -0.45593999997E+02  0.45594000000E+02  0.51100000000E-03 0. -1.
    9900012    2    1    2    0    0 -0.23794767877E+02 -0.32966467482E+02  0.43176846530E+00  0.50528863505E+02  0.30000011108E+02 0.  0.
         12    1    1    2    0    0  0.23794767877E+02  0.32966467482E+02 -0.43176846530E+00  0.40659136495E+02  0.00000000000E+00 0. -1.
         11    1    3    3    0    0  0.43996224209E+01 -0.10583146020E+02 -0.32951139875E+01  0.11925495109E+02  0.51100000000E-03 0. -1.
        -11    1    3    3    0    0  0.71872515871E-01 -0.21603715107E+01  0.31780321953E+01  0.38434697369E+01  0.51100000000E-03 0.  1.
        -12    1    3    3    0    0 -0.28266262814E+02 -0.20222949951E+02  0.54885025752E+00  0.34759898659E+02  0.00000000000E+00 0.  1.
</event>
<event>
 7    1  0.2639126E-011  0.5052886E+02  0.7816164E-02  0.1300439E+00
        -11   -1    0    0    0    0  0.00000000000E+00  0.00000000000E+00  0.45593999997E+02  0.45594000000E+02  0.51100000000E-03 0.  1.
         11   -1    0    0    0    0 -0.00000000000E+00 -0.00000000000E+00 -0.45593999997E+02  0.45594000000E+02  0.51100000000E-03 0. -1.
    9900012    2    1    2    0    0 -0.34755366357E+02  0.19101149169E+02  0.89652716848E+01  0.50528862201E+02  0.30000007146E+02 0.  0.
         12    1    1    2    0    0  0.34755366357E+02 -0.19101149169E+02 -0.89652716848E+01  0.40659137799E+02  0.00000000000E+00 0. -1.
         11    1    3    3    0    0  0.28346504888E+01  0.11581477036E+01  0.10399654875E+01  0.32338951704E+01  0.51100000000E-03 0. -1.
        -11    1    3    3    0    0 -0.20808455127E+02  0.20978538807E+02  0.57579506972E+01  0.30103901603E+02  0.51100000000E-03 0.  1.
        -12    1    3    3    0    0 -0.16781561719E+02 -0.30355373409E+01  0.21673555001E+01  0.17191065427E+02  0.00000000000E+00 0.  1.
</event>
<event>
 7    1  0.2639126E-011  0.5052887E+02  0.7816164E-02  0.1300439E+00
        -11   -1    0    0    0    0  0.00000000000E+00  0.00000000000E+00  0.45593999997E+02  0.45594000000E+02  0.51100000000E-03 0.  1.
         11   -1    0    0    0    0 -0.00000000000E+00 -0.00000000000E+00 -0.45593999997E+02  0.45594000000E+02  0.51100000000E-03 0. -1.
    9900012    2    1    2    0    0  0.21399937735E+01 -0.40092663677E+02 -0.64159061107E+01  0.50528866890E+02  0.30000021399E+02 0.  0.
         12    1    1    2    0    0 -0.21399937735E+01  0.40092663677E+02  0.64159061107E+01  0.40659133110E+02  0.00000000000E+00 0. -1.
         11    1    3    3    0    0  0.13052532292E+01 -0.19148236427E+02 -0.36975994276E+01  0.19545610403E+02  0.51100000000E-03 0. -1.
        -11    1    3    3    0    0  0.41035441879E+01 -0.25146480199E+02 -0.15081527263E+01  0.25523696171E+02  0.51100000000E-03 0.  1.
         12    1    3    3    0    0 -0.32688036436E+01  0.42020529491E+01 -0.12101539568E+01  0.54595603163E+01  0.00000000000E+00 0. -1.
</event>
<event>
 7    1  0.2639126E-011  0.5052886E+02  0.7816164E-02  0.1300439E+00
        -11   -1    0    0    0    0  0.00000000000E+00  0.00000000000E+00  0.45593999997E+02  0.45594000000E+02  0.51100000000E-03 0.  1.
         11   -1    0    0    0    0 -0.00000000000E+00 -0.00000000000E+00 -0.45593999997E+02  0.45594000000E+02  0.51100000000E-03 0. -1.
    9900012    2    1    2    0    0 -0.30167324760E+02 -0.72840850256E+01  0.26268623388E+02  0.50528856471E+02  0.29999989729E+02 0.  0.
         12    1    1    2    0    0  0.30167324760E+02  0.72840850256E+01 -0.26268623388E+02  0.40659143529E+02  0.00000000000E+00 0. -1.
         11    1    3    3    0    0 -0.18659225741E+02  0.94704192015E+00  0.20993766479E+02  0.28103413048E+02  0.51100000000E-03 0. -1.
        -11    1    3    3    0    0 -0.94558235566E+01 -0.53201685176E+00  0.94933640454E+01  0.13409683151E+02  0.51100000000E-03 0.  1.
         12    1    3    3    0    0 -0.20522754622E+01 -0.76991100940E+01 -0.42185071372E+01  0.90157602719E+01  0.00000000000E+00 0. -1.
</event>
<event>
 7    1  0.2639126E-011  0.5052887E+02  0.7816164E-02  0.1300439E+00
        -11   -1    0    0    0    0  0.00000000000E+00  0.00000000000E+00  0.45593999997E+02  0.45594000000E+02  0.51100000000E-03 0. -1.
         11   -1    0    0    0    0 -0.00000000000E+00 -0.00000000000E+00 -0.45593999997E+02  0.45594000000E+02  0.51100000000E-03 0.  1.
    9900012    2    1    2    0    0 -0.21657824231E+02  0.32081036055E+02 -0.12446294781E+02  0.50528874596E+02  0.30000044823E+02 0.  0.
         12    1    1    2    0    0  0.21657824231E+02 -0.32081036055E+02  0.12446294781E+02  0.40659125404E+02  0.00000000000E+00 0. -1.
         11    1    3    3    0    0 -0.64341551590E-01 -0.52175533949E+00 -0.11303416866E+01  0.12466118318E+01  0.51100000000E-03 0. -1.
        -11    1    3    3    0    0 -0.27239968695E+02  0.28954176733E+02 -0.50159428732E+01  0.40068939691E+02  0.51100000000E-03 0.  1.
         12    1    3    3    0    0  0.56464860152E+01  0.36486146620E+01 -0.63000102215E+01  0.92133230738E+01  0.00000000000E+00 0. -1.
</event>
<event>
 7    1  0.2639126E-011  0.5052886E+02  0.7816164E-02  0.1300439E+00
        -11   -1    0    0    0    0  0.00000000000E+00  0.00000000000E+00  0.45593999997E+02  0.45594000000E+02  0.51100000000E-03 0.  1.
         11   -1    0    0    0    0 -0.00000000000E+00 -0.00000000000E+00 -0.45593999997E+02  0.45594000000E+02  0.51100000000E-03 0. -1.
    9900012    2    1    2    0    0 -0.42381499990E+01 -0.35408912348E+02  0.19529788339E+02  0.50528860540E+02  0.30000002097E+02 0.  0.
         12    1    1    2    0    0  0.42381499990E+01  0.35408912348E+02 -0.19529788339E+02  0.40659139460E+02  0.00000000000E+00 0. -1.
         11    1    3    3    0    0  0.24561336811E+01 -0.73101172592E+01 -0.93012676732E+00  0.77675957069E+01  0.51100000000E-03 0. -1.
        -11    1    3    3    0    0 -0.13126692206E+01 -0.29413071924E+02  0.10305166027E+02  0.31193722887E+02  0.51100000000E-03 0.  1.
         12    1    3    3    0    0 -0.53816144595E+01  0.13142768353E+01  0.10154749080E+02  0.11567541946E+02  0.00000000000E+00 0. -1.
</event>
<event>
 7    1  0.2639126E-011  0.5052885E+02  0.7816164E-02  0.1300439E+00
        -11   -1    0    0    0    0  0.00000000000E+00  0.00000000000E+00  0.45593999997E+02  0.45594000000E+02  0.51100000000E-03 0.  1.
         11   -1    0    0    0    0 -0.00000000000E+00 -0.00000000000E+00 -0.45593999997E+02  0.45594000000E+02  0.51100000000E-03 0. -1.
    9900012    2    1    2    0    0  0.13980654802E+02  0.61486882812E+01  0.37681580948E+02  0.50528848275E+02  0.29999964816E+02 0.  0.
         12    1    1    2    0    0 -0.13980654802E+02 -0.61486882812E+01 -0.37681580948E+02  0.40659151725E+02  0.00000000000E+00 0. -1.
         11    1    3    3    0    0  0.71597456712E+01 -0.15078006920E+01  0.12217981970E+02  0.14241295752E+02  0.51100000000E-03 0. -1.
        -11    1    3    3    0    0  0.46371272101E+00  0.86988487684E+01  0.28030482759E+02  0.29352903831E+02  0.51100000000E-03 0.  1.
         12    1    3    3    0    0  0.63571964101E+01 -0.10423597952E+01 -0.25668837805E+01  0.69346486920E+01  0.00000000000E+00 0. -1.
</event>
<event>
 7    1  0.2639126E-011  0.5052883E+02  0.7816164E-02  0.1300439E+00
        -11   -1    0    0    0    0  0.00000000000E+00  0.00000000000E+00  0.45593999997E+02  0.45594000000E+02  0.51100000000E-03 0.  1.
         11   -1    0    0    0    0 -0.00000000000E+00 -0.00000000000E+00 -0.45593999997E+02  0.45594000000E+02  0.51100000000E-03 0. -1.
    9900012    2    1    2    0    0  0.52611666283E+01  0.31010464066E+02  0.25765074094E+02  0.50528833765E+02  0.29999920712E+02 0.  0.
         12    1    1    2    0    0 -0.52611666283E+01 -0.31010464066E+02 -0.25765074094E+02  0.40659166235E+02  0.00000000000E+00 0. -1.
         11    1    3    3    0    0  0.88042973134E+01  0.25092435903E+02  0.21271046912E+02  0.34052950352E+02  0.51100000000E-03 0. -1.
        -11    1    3    3    0    0  0.52292098000E+01  0.33163348185E+01  0.38755919666E+01  0.73049931632E+01  0.51100000000E-03 0.  1.
         12    1    3    3    0    0 -0.87723404852E+01  0.26016933449E+01  0.61843521508E+00  0.91708902492E+01  0.00000000000E+00 0. -1.
</event>
<event>
 7    1  0.2639126E-011  0.5052883E+02  0.7816164E-02  0.1300439E+00
        -11   -1    0    0    0    0  0.00000000000E+00  0.00000000000E+00  0.45593999997E+02  0.45594000000E+02  0.51100000000E-03 0.  1.
         11   -1    0    0    0    0 -0.00000000000E+00 -0.00000000000E+00 -0.45593999997E+02  0.45594000000E+02  0.51100000000E-03 0. -1.
    9900012    2    1    2    0    0 -0.34502599490E+02  0.21422038419E+02 -0.19582455181E+01  0.50528833419E+02  0.29999919660E+02 0.  0.
         12    1    1    2    0    0  0.34502599490E+02 -0.21422038419E+02  0.19582455181E+01  0.40659166581E+02  0.00000000000E+00 0. -1.
         11    1    3    3    0    0 -0.61527375189E+01  0.26371935808E+01 -0.10507659637E+02  0.12458807337E+02  0.51100000000E-03 0. -1.
        -11    1    3    3    0    0  0.16451827932E+01  0.23307875031E+01  0.23542856860E+00  0.28626253125E+01  0.51100000000E-03 0.  1.
        -12    1    3    3    0    0 -0.29995044764E+02  0.16454057335E+02  0.83139855504E+01  0.35207400769E+02  0.00000000000E+00 0.  1.
</event>
<event>
 7    1  0.2639126E-011  0.5052886E+02  0.7816164E-02  0.1300439E+00
        -11   -1    0    0    0    0  0.00000000000E+00  0.00000000000E+00  0.45593999997E+02  0.45594000000E+02  0.51100000000E-03 0.  1.
         11   -1    0    0    0    0 -0.00000000000E+00 -0.00000000000E+00 -0.45593999997E+02  0.45594000000E+02  0.51100000000E-03 0. -1.
    9900012    2    1    2    0    0  0.18526410651E+02  0.35542273903E+02  0.68326259374E+01  0.50528857080E+02  0.29999991579E+02 0.  0.
         12    1    1    2    0    0 -0.18526410651E+02 -0.35542273903E+02 -0.68326259374E+01  0.40659142920E+02  0.00000000000E+00 0. -1.
         11    1    3    3    0    0  0.14078033858E+02  0.32701767366E+02 -0.94223072734E+00  0.35615788987E+02  0.51100000000E-03 0. -1.
        -11    1    3    3    0    0  0.48386622349E+00  0.21151348468E+01 -0.28312232568E+01  0.35670362115E+01  0.51100000000E-03 0.  1.
        -12    1    3    3    0    0  0.39645105693E+01  0.72537169056E+00  0.10606079922E+02  0.11346031881E+02  0.00000000000E+00 0.  1.
</event>
<event>
 7    1  0.2639126E-011  0.5052886E+02  0.7816164E-02  0.1300439E+00
        -11   -1    0    0    0    0  0.00000000000E+00  0.00000000000E+00  0.45593999997E+02  0.45594000000E+02  0.51100000000E-03 0.  1.
         11   -1    0    0    0    0 -0.00000000000E+00 -0.00000000000E+00 -0.45593999997E+02  0.45594000000E+02  0.51100000000E-03 0. -1.
    9900012    2    1    2    0    0 -0.83336263859E+01 -0.13314863348E+02  0.37502412821E+02  0.50528857337E+02  0.29999992360E+02 0.  0.
         12    1    1    2    0    0  0.83336263859E+01  0.13314863348E+02 -0.37502412821E+02  0.40659142663E+02  0.00000000000E+00 0. -1.
         11    1    3    3    0    0 -0.52781214622E+01  0.54609068342E+01  0.91591272328E+01  0.11898305827E+02  0.51100000000E-03 0. -1.
        -11    1    3    3    0    0 -0.88126974088E+01 -0.11956572308E+02  0.25040653190E+02  0.29114559406E+02  0.51100000000E-03 0.  1.
         12    1    3    3    0    0  0.57571924851E+01 -0.68191978737E+01  0.33026323986E+01  0.95159921034E+01  0.00000000000E+00 0. -1.
</event>
<event>
 7    1  0.2639126E-011  0.5052886E+02  0.7816164E-02  0.1300439E+00
        -11   -1    0    0    0    0  0.00000000000E+00  0.00000000000E+00  0.45593999997E+02  0.45594000000E+02  0.51100000000E-03 0.  1.
         11   -1    0    0    0    0 -0.00000000000E+00 -0.00000000000E+00 -0.45593999997E+02  0.45594000000E+02  0.51100000000E-03 0. -1.
    9900012    2    1    2    0    0  0.31205983760E+02  0.14592818597E+01  0.26023500318E+02  0.50528862100E+02  0.30000006839E+02 0.  0.
         12    1    1    2    0    0 -0.31205983760E+02 -0.14592818597E+01 -0.26023500318E+02  0.40659137900E+02  0.00000000000E+00 0. -1.
         11    1    3    3    0    0  0.62381525748E+00  0.34189516114E+01 -0.30086621520E+01  0.45967840718E+01  0.51100000000E-03 0. -1.
        -11    1    3    3    0    0 -0.20962405944E+01 -0.18685549327E+01  0.33368459286E+01  0.43612226702E+01  0.51100000000E-03 0.  1.
        -12    1    3    3    0    0  0.32678409097E+02 -0.91114818944E-01  0.25695316542E+02  0.41570855358E+02  0.00000000000E+00 0.  1.
</event>
<event>
 7    1  0.2639126E-011  0.5052886E+02  0.7816164E-02  0.1300439E+00
        -11   -1    0    0    0    0  0.00000000000E+00  0.00000000000E+00  0.45593999997E+02  0.45594000000E+02  0.51100000000E-03 0. -1.
         11   -1    0    0    0    0 -0.00000000000E+00 -0.00000000000E+00 -0.45593999997E+02  0.45594000000E+02  0.51100000000E-03 0.  1.
    9900012    2    1    2    0    0  0.13630934727E+02  0.82266089052E+01 -0.37412383225E+02  0.50528857188E+02  0.29999991908E+02 0.  0.
         12    1    1    2    0    0 -0.13630934727E+02 -0.82266089052E+01  0.37412383225E+02  0.40659142812E+02  0.00000000000E+00 0. -1.
         11    1    3    3    0    0  0.10311635819E+01  0.13207216149E+02 -0.79612441716E+01  0.15455590113E+02  0.51100000000E-03 0. -1.
        -11    1    3    3    0    0 -0.27642951306E+01 -0.37372934510E-01 -0.29394607326E+01  0.40352390220E+01  0.51100000000E-03 0.  1.
        -12    1    3    3    0    0  0.15364066276E+02 -0.49432343091E+01 -0.26511678321E+02  0.31038028052E+02  0.00000000000E+00 0.  1.
</event>
<event>
 7    1  0.2639126E-011  0.5052887E+02  0.7816164E-02  0.1300439E+00
        -11   -1    0    0    0    0  0.00000000000E+00  0.00000000000E+00  0.45593999997E+02  0.45594000000E+02  0.51100000000E-03 0. -1.
         11   -1    0    0    0    0 -0.00000000000E+00 -0.00000000000E+00 -0.45593999997E+02  0.45594000000E+02  0.51100000000E-03 0.  1.
    9900012    2    1    2    0    0  0.19467211057E+02 -0.21032145671E+02 -0.28841661684E+02  0.50528869334E+02  0.30000028827E+02 0.  0.
         12    1    1    2    0    0 -0.19467211057E+02  0.21032145671E+02  0.28841661684E+02  0.40659130666E+02  0.00000000000E+00 0. -1.
         11    1    3    3    0    0  0.19642510356E+01  0.41674012460E+00 -0.50232282136E+01  0.54096928203E+01  0.51100000000E-03 0. -1.
        -11    1    3    3    0    0  0.15795263534E+02 -0.43329855397E+00 -0.42733829676E+01  0.16368869844E+02  0.51100000000E-03 0.  1.
         12    1    3    3    0    0  0.17076964872E+01 -0.21015587242E+02 -0.19545050502E+02  0.28750306669E+02  0.00000000000E+00 0. -1.
</event>
<event>
 7    1  0.2639126E-011  0.5052883E+02  0.7816164E-02  0.1300439E+00
        -11   -1    0    0    0    0  0.00000000000E+00  0.00000000000E+00  0.45593999997E+02  0.45594000000E+02  0.51100000000E-03 0. -1.
         11   -1    0    0    0    0 -0.00000000000E+00 -0.00000000000E+00 -0.45593999997E+02  0.45594000000E+02  0.51100000000E-03 0.  1.
    9900012    2    1    2    0    0 -0.60345034839E+01 -0.28609887770E+02  0.28252913586E+02  0.50528830842E+02  0.29999911829E+02 0.  0.
         12    1    1    2    0    0  0.60345034839E+01  0.28609887770E+02 -0.28252913586E+02  0.40659169158E+02  0.00000000000E+00 0. -1.
         11    1    3    3    0    0 -0.48065640050E+01 -0.40998758785E+01  0.60615577774E+01  0.87552568611E+01  0.51100000000E-03 0.  1.
        -11    1    3    3    0    0 -0.22883345435E+01 -0.11841114776E+02  0.25866461395E+02  0.28539837061E+02  0.51100000000E-03 0. -1.
        -12    1    3    3    0    0  0.10603950646E+01 -0.12668897115E+02 -0.36751055865E+01  0.13233736920E+02  0.00000000000E+00 0.  1.
</event>
<event>
 7    1  0.2639126E-011  0.5052887E+02  0.7816164E-02  0.1300439E+00
        -11   -1    0    0    0    0  0.00000000000E+00  0.00000000000E+00  0.45593999997E+02  0.45594000000E+02  0.51100000000E-03 0. -1.
         11   -1    0    0    0    0 -0.00000000000E+00 -0.00000000000E+00 -0.45593999997E+02  0.45594000000E+02  0.51100000000E-03 0.  1.
    9900012    2    1    2    0    0  0.24312727483E+02 -0.19205195521E+02 -0.26329003646E+02  0.50528872050E+02  0.30000037084E+02 0.  0.
         12    1    1    2    0    0 -0.24312727483E+02  0.19205195521E+02  0.26329003646E+02  0.40659127950E+02  0.00000000000E+00 0. -1.
         11    1    3    3    0    0 -0.38296649941E+00 -0.10029943793E+02 -0.78488126570E+01  0.12741675565E+02  0.51100000000E-03 0. -1.
        -11    1    3    3    0    0  0.13792274474E+02 -0.33139578621E+00 -0.19300161622E+02  0.23724099503E+02  0.51100000000E-03 0.  1.
         12    1    3    3    0    0  0.10903419508E+02 -0.88438559419E+01  0.81997063267E+00  0.14063096982E+02  0.00000000000E+00 0. -1.
</event>
<event>
 7    1  0.2639126E-011  0.5052886E+02  0.7816164E-02  0.1300439E+00
        -11   -1    0    0    0    0  0.00000000000E+00  0.00000000000E+00  0.45593999997E+02  0.45594000000E+02  0.51100000000E-03 0.  1.
         11   -1    0    0    0    0 -0.00000000000E+00 -0.00000000000E+00 -0.45593999997E+02  0.45594000000E+02  0.51100000000E-03 0. -1.
    9900012    2    1    2    0    0  0.26447899003E+01  0.37873079869E+02  0.14553374380E+02  0.50528858368E+02  0.29999995495E+02 0.  0.
         12    1    1    2    0    0 -0.26447899003E+01 -0.37873079869E+02 -0.14553374380E+02  0.40659141632E+02  0.00000000000E+00 0. -1.
         11    1    3    3    0    0 -0.66338240322E+01  0.12587830309E+02  0.11055843112E+02  0.18019233068E+02  0.51100000000E-03 0. -1.
        -11    1    3    3    0    0 -0.51838383997E+01  0.88594112889E+01 -0.43472126799E+00  0.10273769113E+02  0.51100000000E-03 0.  1.
        -12    1    3    3    0    0  0.14462452332E+02  0.16425838272E+02  0.39322525365E+01  0.22235856188E+02  0.00000000000E+00 0.  1.
</event>
<event>
 7    1  0.2639126E-011  0.5052887E+02  0.7816164E-02  0.1300439E+00
        -11   -1    0    0    0    0  0.00000000000E+00  0.00000000000E+00  0.45593999997E+02  0.45594000000E+02  0.51100000000E-03 0.  1.
         11   -1    0    0    0    0 -0.00000000000E+00 -0.00000000000E+00 -0.45593999997E+02  0.45594000000E+02  0.51100000000E-03 0. -1.
    9900012    2    1    2    0    0  0.39955857848E+02  0.35653925229E+01 -0.66319250246E+01  0.50528867819E+02  0.30000024221E+02 0.  0.
         12    1    1    2    0    0 -0.39955857848E+02 -0.35653925229E+01  0.66319250246E+01  0.40659132181E+02  0.00000000000E+00 0. -1.
         11    1    3    3    0    0  0.23464800952E+01  0.14213677349E+01  0.29925788652E+01  0.40597762994E+01  0.51100000000E-03 0.  1.
        -11    1    3    3    0    0  0.16794136710E+02  0.20427612915E+01  0.84415596480E+01  0.18907031260E+02  0.51100000000E-03 0. -1.
         12    1    3    3    0    0  0.20815241043E+02  0.10126349643E+00 -0.18066063538E+02  0.27562060259E+02  0.00000000000E+00 0. -1.
</event>
<event>
 7    1  0.2639126E-011  0.5052884E+02  0.7816164E-02  0.1300439E+00
        -11   -1    0    0    0    0  0.00000000000E+00  0.00000000000E+00  0.45593999997E+02  0.45594000000E+02  0.51100000000E-03 0. -1.
         11   -1    0    0    0    0 -0.00000000000E+00 -0.00000000000E+00 -0.45593999997E+02  0.45594000000E+02  0.51100000000E-03 0.  1.
    9900012    2    1    2    0    0 -0.34747394994E+02 -0.20887640032E+02  0.30809380829E+01  0.50528841813E+02  0.29999945174E+02 0.  0.
         12    1    1    2    0    0  0.34747394994E+02  0.20887640032E+02 -0.30809380829E+01  0.40659158187E+02  0.00000000000E+00 0. -1.
         11    1    3    3    0    0 -0.27467011668E+02 -0.28367708612E+01 -0.27304385514E+00  0.27614462734E+02  0.51100000000E-03 0. -1.
        -11    1    3    3    0    0 -0.28354691017E+01 -0.24602220188E+01 -0.36666922286E+01  0.52475908347E+01  0.51100000000E-03 0.  1.
        -12    1    3    3    0    0 -0.44449142245E+01 -0.15590647152E+02  0.70206741666E+01  0.17666788244E+02  0.00000000000E+00 0.  1.
</event>
<event>
 7    1  0.2639126E-011  0.5052885E+02  0.7816164E-02  0.1300439E+00
        -11   -1    0    0    0    0  0.00000000000E+00  0.00000000000E+00  0.45593999997E+02  0.45594000000E+02  0.51100000000E-03 0. -1.
         11   -1    0    0    0    0 -0.00000000000E+00 -0.00000000000E+00 -0.45593999997E+02  0.45594000000E+02  0.51100000000E-03 0.  1.
    9900012    2    1    2    0    0 -0.19249249567E+02  0.35813453277E+02 -0.17056333722E+00  0.50528854210E+02  0.29999982856E+02 0.  0.
         12    1    1    2    0    0  0.19249249567E+02 -0.35813453277E+02  0.17056333722E+00  0.40659145790E+02  0.00000000000E+00 0. -1.
         11    1    3    3    0    0 -0.56526011484E+01 -0.16383297042E+01  0.19165528436E+01  0.61894425457E+01  0.51100000000E-03 0. -1.
        -11    1    3    3    0    0 -0.12245722717E+02  0.82770048804E+01 -0.31560934781E+01  0.15113816889E+02  0.51100000000E-03 0.  1.
        -12    1    3    3    0    0 -0.13509257017E+01  0.29174778101E+02  0.10689772973E+01  0.29225594775E+02  0.00000000000E+00 0.  1.
</event>
<event>
 7    1  0.2639126E-011  0.5052890E+02  0.7816164E-02  0.1300439E+00
        -11   -1    0    0    0    0  0.00000000000E+00  0.00000000000E+00  0.45593999997E+02  0.45594000000E+02  0.51100000000E-03 0.  1.
         11   -1    0    0    0    0 -0.00000000000E+00 -0.00000000000E+00 -0.45593999997E+02  0.45594000000E+02  0.51100000000E-03 0. -1.
    9900012    2    1    2    0    0 -0.14350595705E+02 -0.24316191475E+02  0.29256553244E+02  0.50528896804E+02  0.30000112327E+02 0.  0.
         12    1    1    2    0    0  0.14350595705E+02  0.24316191475E+02 -0.29256553244E+02  0.40659103196E+02  0.00000000000E+00 0. -1.
         11    1    3    3    0    0 -0.60840002489E+01 -0.65893885921E+01  0.20348819851E+02  0.22237571150E+02  0.51100000000E-03 0. -1.
        -11    1    3    3    0    0  0.49252652229E+01 -0.97767929370E+01  0.64158269908E+01  0.12688843678E+02  0.51100000000E-03 0.  1.
         12    1    3    3    0    0 -0.13191860679E+02 -0.79500099458E+01  0.24919064022E+01  0.15602481977E+02  0.00000000000E+00 0. -1.
</event>
<event>
 7    1  0.2639126E-011  0.5052887E+02  0.7816164E-02  0.1300439E+00
        -11   -1    0    0    0    0  0.00000000000E+00  0.00000000000E+00  0.45593999997E+02  0.45594000000E+02  0.51100000000E-03 0.  1.
         11   -1    0    0    0    0 -0.00000000000E+00 -0.00000000000E+00 -0.45593999997E+02  0.45594000000E+02  0.51100000000E-03 0. -1.
    9900012    2    1    2    0    0 -0.20027900716E+02 -0.31657019880E+02  0.15807633841E+02  0.50528868155E+02  0.30000025242E+02 0.  0.
         12    1    1    2    0    0  0.20027900716E+02  0.31657019880E+02 -0.15807633841E+02  0.40659131845E+02  0.00000000000E+00 0. -1.
         11    1    3    3    0    0 -0.22991543637E+01 -0.79515613212E+01 -0.45287052462E+01  0.94351793678E+01  0.51100000000E-03 0. -1.
        -11    1    3    3    0    0  0.11447269492E+01 -0.10825918915E+01 -0.30799815934E+01  0.34595797243E+01  0.51100000000E-03 0.  1.
        -12    1    3    3    0    0 -0.18873473302E+02 -0.22622866667E+02  0.23416320680E+02  0.37634109062E+02  0.00000000000E+00 0.  1.
</event>
<event>
 7    1  0.2639126E-011  0.5052886E+02  0.7816164E-02  0.1300439E+00
        -11   -1    0    0    0    0  0.00000000000E+00  0.00000000000E+00  0.45593999997E+02  0.45594000000E+02  0.51100000000E-03 0.  1.
         11   -1    0    0    0    0 -0.00000000000E+00 -0.00000000000E+00 -0.45593999997E+02  0.45594000000E+02  0.51100000000E-03 0. -1.
    9900012    2    1    2    0    0 -0.15672378556E+02  0.20321866063E+02  0.31536712499E+02  0.50528856808E+02  0.29999990754E+02 0.  0.
         12    1    1    2    0    0  0.15672378556E+02 -0.20321866063E+02 -0.31536712499E+02  0.40659143192E+02  0.00000000000E+00 0. -1.
         11    1    3    3    0    0 -0.11780219716E+02  0.61459172673E+01  0.59860804184E+01  0.14573230069E+02  0.51100000000E-03 0. -1.
        -11    1    3    3    0    0 -0.71069299013E+01  0.76757774138E+01  0.11777067723E+01  0.10526775624E+02  0.51100000000E-03 0.  1.
        -12    1    3    3    0    0  0.32147710609E+01  0.65001713815E+01  0.24372925308E+02  0.25428851115E+02  0.00000000000E+00 0.  1.
</event>
<event>
 7    1  0.2639126E-011  0.5052885E+02  0.7816164E-02  0.1300439E+00
        -11   -1    0    0    0    0  0.00000000000E+00  0.00000000000E+00  0.45593999997E+02  0.45594000000E+02  0.51100000000E-03 0.  1.
         11   -1    0    0    0    0 -0.00000000000E+00 -0.00000000000E+00 -0.45593999997E+02  0.45594000000E+02  0.51100000000E-03 0. -1.
    9900012    2    1    2    0    0 -0.18353307699E+02 -0.12057777215E+01  0.36261113199E+02  0.50528854241E+02  0.29999982951E+02 0.  0.
         12    1    1    2    0    0  0.18353307699E+02  0.12057777215E+01 -0.36261113199E+02  0.40659145759E+02  0.00000000000E+00 0. -1.
         11    1    3    3    0    0 -0.50970882143E+01 -0.77548827519E+00  0.10581489689E+02  0.11770710031E+02  0.51100000000E-03 0. -1.
        -11    1    3    3    0    0 -0.18939693446E+02 -0.32371569081E+01  0.96101114303E+01  0.21483608046E+02  0.51100000000E-03 0.  1.
         12    1    3    3    0    0  0.56834739614E+01  0.28068674617E+01  0.16069512080E+02  0.17274536165E+02  0.00000000000E+00 0. -1.
</event>
<event>
 7    1  0.2639126E-011  0.5052888E+02  0.7816164E-02  0.1300439E+00
        -11   -1    0    0    0    0  0.00000000000E+00  0.00000000000E+00  0.45593999997E+02  0.45594000000E+02  0.51100000000E-03 0. -1.
         11   -1    0    0    0    0 -0.00000000000E+00 -0.00000000000E+00 -0.45593999997E+02  0.45594000000E+02  0.51100000000E-03 0.  1.
    9900012    2    1    2    0    0 -0.12481151802E+02 -0.22986469654E+02 -0.31128876267E+02  0.50528882017E+02  0.30000067380E+02 0.  0.
         12    1    1    2    0    0  0.12481151802E+02  0.22986469654E+02  0.31128876267E+02  0.40659117983E+02  0.00000000000E+00 0. -1.
         11    1    3    3    0    0  0.12806819003E+00 -0.43989837769E+01 -0.32475703587E+01  0.54693850867E+01  0.51100000000E-03 0.  1.
        -11    1    3    3    0    0 -0.60740859872E+01 -0.24808515933E+02 -0.24591947244E+02  0.35455900114E+02  0.51100000000E-03 0. -1.
        -12    1    3    3    0    0 -0.65351340044E+01  0.62210300553E+01 -0.32893586648E+01  0.96035968173E+01  0.00000000000E+00 0.  1.
</event>
<event>
 7    1  0.2639126E-011  0.5052883E+02  0.7816164E-02  0.1300439E+00
        -11   -1    0    0    0    0  0.00000000000E+00  0.00000000000E+00  0.45593999997E+02  0.45594000000E+02  0.51100000000E-03 0. -1.
         11   -1    0    0    0    0 -0.00000000000E+00 -0.00000000000E+00 -0.45593999997E+02  0.45594000000E+02  0.51100000000E-03 0.  1.
    9900012    2    1    2    0    0  0.36103823970E+02  0.67018464287E+01 -0.17457587578E+02  0.50528828650E+02  0.29999905166E+02 0.  0.
         12    1    1    2    0    0 -0.36103823970E+02 -0.67018464287E+01  0.17457587578E+02  0.40659171350E+02  0.00000000000E+00 0. -1.
         11    1    3    3    0    0 -0.50193624340E+01  0.13227910310E+01 -0.95997352907E+00  0.52787616723E+01  0.51100000000E-03 0. -1.
        -11    1    3    3    0    0  0.26383621246E+02  0.85213499891E+00 -0.76989007463E+01  0.27497175802E+02  0.51100000000E-03 0.  1.
        -12    1    3    3    0    0  0.14739565157E+02  0.45269203988E+01 -0.87987133029E+01  0.17752891176E+02  0.00000000000E+00 0.  1.
</event>
<event>
 7    1  0.2639126E-011  0.5052886E+02  0.7816164E-02  0.1300439E+00
        -11   -1    0    0    0    0  0.00000000000E+00  0.00000000000E+00  0.45593999997E+02  0.45594000000E+02  0.51100000000E-03 0. -1.
         11   -1    0    0    0    0 -0.00000000000E+00 -0.00000000000E+00 -0.45593999997E+02  0.45594000000E+02  0.51100000000E-03 0.  1.
    9900012    2    1    2    0    0  0.34327596512E+02 -0.21414992625E+02  0.40223767521E+01  0.50528864419E+02  0.30000013888E+02 0.  0.
         12    1    1    2    0    0 -0.34327596512E+02  0.21414992625E+02 -0.40223767521E+01  0.40659135581E+02  0.00000000000E+00 0. -1.
         11    1    3    3    0    0  0.26469114361E+02 -0.11298776097E+02 -0.26053566545E+00  0.28780970022E+02  0.51100000000E-03 0. -1.
        -11    1    3    3    0    0  0.13082641980E+02 -0.77289400795E+01  0.12342377905E+01  0.15245175601E+02  0.51100000000E-03 0.  1.
         12    1    3    3    0    0 -0.52241598283E+01 -0.23872764493E+01  0.30486746271E+01  0.65027187959E+01  0.00000000000E+00 0. -1.
</event>
<event>
 7    1  0.2639126E-011  0.5052889E+02  0.7816164E-02  0.1300439E+00
        -11   -1    0    0    0    0  0.00000000000E+00  0.00000000000E+00  0.45593999997E+02  0.45594000000E+02  0.51100000000E-03 0. -1.
         11   -1    0    0    0    0 -0.00000000000E+00 -0.00000000000E+00 -0.45593999997E+02  0.45594000000E+02  0.51100000000E-03 0.  1.
    9900012    2    1    2    0    0 -0.28775130680E+02 -0.13113778492E+02 -0.25557464790E+02  0.50528888617E+02  0.30000087440E+02 0.  0.
         12    1    1    2    0    0  0.28775130680E+02  0.13113778492E+02  0.25557464790E+02  0.40659111383E+02  0.00000000000E+00 0. -1.
         11    1    3    3    0    0 -0.26371117805E+02 -0.12282869725E+02 -0.11632523596E+02  0.31330821062E+02  0.51100000000E-03 0. -1.
        -11    1    3    3    0    0 -0.45778246588E+01 -0.14540245852E+01 -0.15639339404E+02  0.16360305723E+02  0.51100000000E-03 0.  1.
        -12    1    3    3    0    0  0.21738117838E+01  0.62311581796E+00  0.17143982102E+01  0.28377618323E+01  0.00000000000E+00 0.  1.
</event>
<event>
 7    1  0.2639126E-011  0.5052891E+02  0.7816164E-02  0.1300439E+00
        -11   -1    0    0    0    0  0.00000000000E+00  0.00000000000E+00  0.45593999997E+02  0.45594000000E+02  0.51100000000E-03 0.  1.
         11   -1    0    0    0    0 -0.00000000000E+00 -0.00000000000E+00 -0.45593999997E+02  0.45594000000E+02  0.51100000000E-03 0. -1.
    9900012    2    1    2    0    0 -0.12020391745E+02  0.34699048142E+02  0.17454154406E+02  0.50528914107E+02  0.30000164918E+02 0.  0.
         12    1    1    2    0    0  0.12020391745E+02 -0.34699048142E+02 -0.17454154406E+02  0.40659085893E+02  0.00000000000E+00 0. -1.
         11    1    3    3    0    0 -0.20846717400E+01  0.11461380363E+02 -0.15016887636E+01  0.11745814808E+02  0.51100000000E-03 0. -1.
        -11    1    3    3    0    0 -0.31780462840E+01  0.46091814648E+01 -0.51297323358E+01  0.75933316836E+01  0.51100000000E-03 0.  1.
        -12    1    3    3    0    0 -0.67576737212E+01  0.18628486314E+02  0.24085575506E+02  0.31189767615E+02  0.00000000000E+00 0.  1.
</event>
<event>
 7    1  0.2639126E-011  0.5052886E+02  0.7816164E-02  0.1300439E+00
        -11   -1    0    0    0    0  0.00000000000E+00  0.00000000000E+00  0.45593999997E+02  0.45594000000E+02  0.51100000000E-03 0.  1.
         11   -1    0    0    0    0 -0.00000000000E+00 -0.00000000000E+00 -0.45593999997E+02  0.45594000000E+02  0.51100000000E-03 0. -1.
    9900012    2    1    2    0    0 -0.92731595462E+01  0.20664825325E+02  0.33765951994E+02  0.50528855792E+02  0.29999987666E+02 0.  0.
         12    1    1    2    0    0  0.92731595462E+01 -0.20664825325E+02 -0.33765951994E+02  0.40659144208E+02  0.00000000000E+00 0. -1.
         11    1    3    3    0    0 -0.66722159997E+01 -0.12966951964E+01  0.45034457451E+01  0.81535825634E+01  0.51100000000E-03 0. -1.
        -11    1    3    3    0    0  0.56385434061E+01 -0.14428450245E+01  0.61161020510E+01  0.84428477463E+01  0.51100000000E-03 0.  1.
        -12    1    3    3    0    0 -0.82394869526E+01  0.23404365545E+02  0.23146404198E+02  0.33932425482E+02  0.00000000000E+00 0.  1.
</event>
<event>
 7    1  0.2639126E-011  0.5052883E+02  0.7816164E-02  0.1300439E+00
        -11   -1    0    0    0    0  0.00000000000E+00  0.00000000000E+00  0.45593999997E+02  0.45594000000E+02  0.51100000000E-03 0.  1.
         11   -1    0    0    0    0 -0.00000000000E+00 -0.00000000000E+00 -0.45593999997E+02  0.45594000000E+02  0.51100000000E-03 0. -1.
    9900012    2    1    2    0    0 -0.28367830389E+02  0.20715833180E+02  0.20476534924E+02  0.50528830950E+02  0.29999912156E+02 0.  0.
         12    1    1    2    0    0  0.28367830389E+02 -0.20715833180E+02 -0.20476534924E+02  0.40659169050E+02  0.00000000000E+00 0. -1.
         11    1    3    3    0    0 -0.66131440026E+01  0.88560802696E+01 -0.47801475439E+01  0.12042161025E+02  0.51100000000E-03 0. -1.
        -11    1    3    3    0    0 -0.72844980447E+01 -0.33569524725E+01  0.63373439489E+01  0.10222278134E+02  0.51100000000E-03 0.  1.
        -12    1    3    3    0    0 -0.14470188342E+02  0.15216705383E+02  0.18919338519E+02  0.28264391791E+02  0.00000000000E+00 0.  1.
</event>
<event>
 7    1  0.2639126E-011  0.5052886E+02  0.7816164E-02  0.1300439E+00
        -11   -1    0    0    0    0  0.00000000000E+00  0.00000000000E+00  0.45593999997E+02  0.45594000000E+02  0.51100000000E-03 0. -1.
         11   -1    0    0    0    0 -0.00000000000E+00 -0.00000000000E+00 -0.45593999997E+02  0.45594000000E+02  0.51100000000E-03 0.  1.
    9900012    2    1    2    0    0  0.40628516100E+01  0.76438533673E+00 -0.40448417343E+02  0.50528861867E+02  0.30000006131E+02 0.  0.
         12    1    1    2    0    0 -0.40628516100E+01 -0.76438533673E+00  0.40448417343E+02  0.40659138133E+02  0.00000000000E+00 0. -1.
         11    1    3    3    0    0  0.12820434628E+01  0.58963756720E+01 -0.30606005113E+00  0.60418999100E+01  0.51100000000E-03 0.  1.
        -11    1    3    3    0    0 -0.45048414419E+00  0.11707660418E+01  0.16645582436E+01  0.20843184728E+01  0.51100000000E-03 0. -1.
        -12    1    3    3    0    0  0.32312922914E+01 -0.63027563771E+01 -0.41806915536E+02  0.42402643484E+02  0.00000000000E+00 0.  1.
</event>
<event>
 7    1  0.2639126E-011  0.5052890E+02  0.7816164E-02  0.1300439E+00
        -11   -1    0    0    0    0  0.00000000000E+00  0.00000000000E+00  0.45593999997E+02  0.45594000000E+02  0.51100000000E-03 0.  1.
         11   -1    0    0    0    0 -0.00000000000E+00 -0.00000000000E+00 -0.45593999997E+02  0.45594000000E+02  0.51100000000E-03 0. -1.
    9900012    2    1    2    0    0  0.21425032501E+02  0.19211217469E+02  0.28723850885E+02  0.50528898879E+02  0.30000118632E+02 0.  0.
         12    1    1    2    0    0 -0.21425032501E+02 -0.19211217469E+02 -0.28723850885E+02  0.40659101121E+02  0.00000000000E+00 0. -1.
         11    1    3    3    0    0  0.13583558723E+01 -0.17372092789E+01 -0.33661406190E+01  0.40241681976E+01  0.51100000000E-03 0. -1.
        -11    1    3    3    0    0  0.16740992152E+02  0.69640843279E+01  0.11779024224E+02  0.21621857013E+02  0.51100000000E-03 0.  1.
        -12    1    3    3    0    0  0.33256844769E+01  0.13984342420E+02  0.20310967280E+02  0.24882873669E+02  0.00000000000E+00 0.  1.
</event>
<event>
 7    1  0.2639126E-011  0.5052886E+02  0.7816164E-02  0.1300439E+00
        -11   -1    0    0    0    0  0.00000000000E+00  0.00000000000E+00  0.45593999997E+02  0.45594000000E+02  0.51100000000E-03 0.  1.
         11   -1    0    0    0    0 -0.00000000000E+00 -0.00000000000E+00 -0.45593999997E+02  0.45594000000E+02  0.51100000000E-03 0. -1.
    9900012    2    1    2    0    0  0.19337069675E+02  0.23288680466E+01  0.35690606349E+02  0.50528864845E+02  0.30000015184E+02 0.  0.
         12    1    1    2    0    0 -0.19337069675E+02 -0.23288680466E+01 -0.35690606349E+02  0.40659135155E+02  0.00000000000E+00 0. -1.
         11    1    3    3    0    0  0.26741657329E+01  0.10871485353E+01 -0.12891290984E+01  0.31614725047E+01  0.51100000000E-03 0. -1.
        -11    1    3    3    0    0  0.16237184269E+02 -0.54158763380E+01  0.10545536801E+02  0.20104383009E+02  0.51100000000E-03 0.  1.
        -12    1    3    3    0    0  0.42571967312E+00  0.66575958493E+01  0.26434198647E+02  0.27263009332E+02  0.00000000000E+00 0.  1.
</event>
<event>
 7    1  0.2639126E-011  0.5052885E+02  0.7816164E-02  0.1300439E+00
        -11   -1    0    0    0    0  0.00000000000E+00  0.00000000000E+00  0.45593999997E+02  0.45594000000E+02  0.51100000000E-03 0.  1.
         11   -1    0    0    0    0 -0.00000000000E+00 -0.00000000000E+00 -0.45593999997E+02  0.45594000000E+02  0.51100000000E-03 0. -1.
    9900012    2    1    2    0    0  0.25335997895E+02  0.65443850637E+01  0.31119519451E+02  0.50528852738E+02  0.29999978382E+02 0.  0.
         12    1    1    2    0    0 -0.25335997895E+02 -0.65443850637E+01 -0.31119519451E+02  0.40659147262E+02  0.00000000000E+00 0. -1.
         11    1    3    3    0    0  0.18866679022E+02  0.47120305744E+01  0.33683545687E+02  0.38893907746E+02  0.51100000000E-03 0.  1.
        -11    1    3    3    0    0  0.62606606380E+01 -0.26446941348E+01 -0.90730883241E+00  0.68566382629E+01  0.51100000000E-03 0. -1.
        -12    1    3    3    0    0  0.20865823527E+00  0.44770486241E+01 -0.16567174032E+01  0.47783067289E+01  0.00000000000E+00 0.  1.
</event>
<event>
 7    1  0.2639126E-011  0.5052887E+02  0.7816164E-02  0.1300439E+00
        -11   -1    0    0    0    0  0.00000000000E+00  0.00000000000E+00  0.45593999997E+02  0.45594000000E+02  0.51100000000E-03 0.  1.
         11   -1    0    0    0    0 -0.00000000000E+00 -0.00000000000E+00 -0.45593999997E+02  0.45594000000E+02  0.51100000000E-03 0. -1.
    9900012    2    1    2    0    0 -0.10208422800E+02  0.14300032695E+01  0.39330753415E+02  0.50528868558E+02  0.30000026469E+02 0.  0.
         12    1    1    2    0    0  0.10208422800E+02 -0.14300032695E+01 -0.39330753415E+02  0.40659131442E+02  0.00000000000E+00 0. -1.
         11    1    3    3    0    0 -0.64201922206E+00  0.16067085103E+01 -0.24246777251E+01  0.29787183905E+01  0.51100000000E-03 0. -1.
        -11    1    3    3    0    0 -0.46509442607E+01  0.82969751173E+01  0.80847477868E+01  0.12483357948E+02  0.51100000000E-03 0.  1.
        -12    1    3    3    0    0 -0.49154593171E+01 -0.84736803580E+01  0.33670683353E+02  0.35066792220E+02  0.00000000000E+00 0.  1.
</event>
<event>
 7    1  0.2639126E-011  0.5052886E+02  0.7816164E-02  0.1300439E+00
        -11   -1    0    0    0    0  0.00000000000E+00  0.00000000000E+00  0.45593999997E+02  0.45594000000E+02  0.51100000000E-03 0.  1.
         11   -1    0    0    0    0 -0.00000000000E+00 -0.00000000000E+00 -0.45593999997E+02  0.45594000000E+02  0.51100000000E-03 0. -1.
    9900012    2    1    2    0    0 -0.79026753985E+01  0.32048774138E+02  0.23740043468E+02  0.50528857534E+02  0.29999992960E+02 0.  0.
         12    1    1    2    0    0  0.79026753985E+01 -0.32048774138E+02 -0.23740043468E+02  0.40659142466E+02  0.00000000000E+00 0. -1.
         11    1    3    3    0    0  0.44684697926E+01  0.16654267211E+02  0.97291304120E+01  0.19798682215E+02  0.51100000000E-03 0. -1.
        -11    1    3    3    0    0 -0.43157196910E+01 -0.22866974682E+01  0.96521776572E+01  0.10817530012E+02  0.51100000000E-03 0.  1.
         12    1    3    3    0    0 -0.80554255001E+01  0.17681204395E+02  0.43587353991E+01  0.19912645307E+02  0.00000000000E+00 0. -1.
</event>
<event>
 7    1  0.2639126E-011  0.5052884E+02  0.7816164E-02  0.1300439E+00
        -11   -1    0    0    0    0  0.00000000000E+00  0.00000000000E+00  0.45593999997E+02  0.45594000000E+02  0.51100000000E-03 0. -1.
         11   -1    0    0    0    0 -0.00000000000E+00 -0.00000000000E+00 -0.45593999997E+02  0.45594000000E+02  0.51100000000E-03 0.  1.
    9900012    2    1    2    0    0  0.75860314897E+01 -0.41448735593E+01 -0.39729579528E+02  0.50528839408E+02  0.29999937864E+02 0.  0.
         12    1    1    2    0    0 -0.75860314897E+01  0.41448735593E+01  0.39729579528E+02  0.40659160592E+02  0.00000000000E+00 0. -1.
         11    1    3    3    0    0  0.13967572790E+01  0.64533922202E+00 -0.33262312050E+01  0.36648612386E+01  0.51100000000E-03 0. -1.
        -11    1    3    3    0    0  0.14036119763E+02 -0.11399899767E+02 -0.29136431219E+02  0.34291427459E+02  0.51100000000E-03 0.  1.
        -12    1    3    3    0    0 -0.78468455520E+01  0.66096869861E+01 -0.72669171037E+01  0.12572550710E+02  0.00000000000E+00 0.  1.
</event>
<event>
 7    1  0.2639126E-011  0.5052885E+02  0.7816164E-02  0.1300439E+00
        -11   -1    0    0    0    0  0.00000000000E+00  0.00000000000E+00  0.45593999997E+02  0.45594000000E+02  0.51100000000E-03 0. -1.
         11   -1    0    0    0    0 -0.00000000000E+00 -0.00000000000E+00 -0.45593999997E+02  0.45594000000E+02  0.51100000000E-03 0.  1.
    9900012    2    1    2    0    0  0.94606660163E+01  0.39541794710E+02 -0.32968049757E+00  0.50528850727E+02  0.29999972270E+02 0.  0.
         12    1    1    2    0    0 -0.94606660163E+01 -0.39541794710E+02  0.32968049757E+00  0.40659149273E+02  0.00000000000E+00 0. -1.
         11    1    3    3    0    0  0.13634988262E+02  0.11512335113E+02 -0.63081282248E+00  0.17856222717E+02  0.51100000000E-03 0. -1.
        -11    1    3    3    0    0  0.33445427301E+01  0.21070641745E+02 -0.37394849700E+01  0.21659678154E+02  0.51100000000E-03 0.  1.
         12    1    3    3    0    0 -0.75188649753E+01  0.69588178518E+01  0.40406172949E+01  0.11012949856E+02  0.00000000000E+00 0. -1.
</event>
<event>
 7    1  0.2639126E-011  0.5052887E+02  0.7816164E-02  0.1300439E+00
        -11   -1    0    0    0    0  0.00000000000E+00  0.00000000000E+00  0.45593999997E+02  0.45594000000E+02  0.51100000000E-03 0. -1.
         11   -1    0    0    0    0 -0.00000000000E+00 -0.00000000000E+00 -0.45593999997E+02  0.45594000000E+02  0.51100000000E-03 0.  1.
    9900012    2    1    2    0    0  0.16115701008E+02 -0.32740194100E+01 -0.37185070519E+02  0.50528874437E+02  0.30000044338E+02 0.  0.
         12    1    1    2    0    0 -0.16115701008E+02  0.32740194100E+01  0.37185070519E+02  0.40659125563E+02  0.00000000000E+00 0. -1.
         11    1    3    3    0    0 -0.48400031964E+01 -0.49749768272E+01 -0.10154845874E+01  0.70147868522E+01  0.51100000000E-03 0. -1.
        -11    1    3    3    0    0 -0.72435592588E+00  0.15846316349E+01 -0.57161964107E+00  0.18337115916E+01  0.51100000000E-03 0.  1.
        -12    1    3    3    0    0  0.21680060130E+02  0.11632578226E+00 -0.35597966290E+02  0.41680375993E+02  0.00000000000E+00 0.  1.
</event>
<event>
 7    1  0.2639126E-011  0.5052887E+02  0.7816164E-02  0.1300439E+00
        -11   -1    0    0    0    0  0.00000000000E+00  0.00000000000E+00  0.45593999997E+02  0.45594000000E+02  0.51100000000E-03 0.  1.
         11   -1    0    0    0    0 -0.00000000000E+00 -0.00000000000E+00 -0.45593999997E+02  0.45594000000E+02  0.51100000000E-03 0. -1.
    9900012    2    1    2    0    0  0.36996571818E+02  0.14019594832E+02  0.93738641169E+01  0.50528871947E+02  0.30000036771E+02 0.  0.
         12    1    1    2    0    0 -0.36996571818E+02 -0.14019594832E+02 -0.93738641169E+01  0.40659128053E+02  0.00000000000E+00 0. -1.
         11    1    3    3    0    0  0.92800295325E+01  0.36379518855E+01  0.23007780385E+00  0.99702847554E+01  0.51100000000E-03 0. -1.
        -11    1    3    3    0    0  0.16241050254E+02  0.29186190617E+00 -0.75627608358E+01  0.17917930920E+02  0.51100000000E-03 0.  1.
        -12    1    3    3    0    0  0.11475492031E+02  0.10089781041E+02  0.16706547149E+02  0.22640656272E+02  0.00000000000E+00 0.  1.
</event>
<event>
 7    1  0.2639126E-011  0.5052886E+02  0.7816164E-02  0.1300439E+00
        -11   -1    0    0    0    0  0.00000000000E+00  0.00000000000E+00  0.45593999997E+02  0.45594000000E+02  0.51100000000E-03 0.  1.
         11   -1    0    0    0    0 -0.00000000000E+00 -0.00000000000E+00 -0.45593999997E+02  0.45594000000E+02  0.51100000000E-03 0. -1.
    9900012    2    1    2    0    0 -0.40602827904E+02 -0.21263717455E+01 -0.23338156877E+00  0.50528861328E+02  0.30000004492E+02 0.  0.
         12    1    1    2    0    0  0.40602827904E+02  0.21263717455E+01  0.23338156877E+00  0.40659138672E+02  0.00000000000E+00 0. -1.
         11    1    3    3    0    0  0.82750189567E+00 -0.18748928565E+01 -0.50198181839E+01  0.54220436619E+01  0.51100000000E-03 0. -1.
        -11    1    3    3    0    0 -0.13847503080E+01 -0.42352575300E+01 -0.63181470400E+00  0.45004588480E+01  0.51100000000E-03 0.  1.
        -12    1    3    3    0    0 -0.40045579492E+02  0.39837786410E+01  0.54182513192E+01  0.40606358818E+02  0.00000000000E+00 0.  1.
</event>
<event>
 7    1  0.2639126E-011  0.5052886E+02  0.7816164E-02  0.1300439E+00
        -11   -1    0    0    0    0  0.00000000000E+00  0.00000000000E+00  0.45593999997E+02  0.45594000000E+02  0.51100000000E-03 0. -1.
         11   -1    0    0    0    0 -0.00000000000E+00 -0.00000000000E+00 -0.45593999997E+02  0.45594000000E+02  0.51100000000E-03 0.  1.
    9900012    2    1    2    0    0 -0.18392012071E+02  0.29574914400E+02 -0.20981506103E+02  0.50528864887E+02  0.30000015310E+02 0.  0.
         12    1    1    2    0    0  0.18392012071E+02 -0.29574914400E+02  0.20981506103E+02  0.40659135113E+02  0.00000000000E+00 0. -1.
         11    1    3    3    0    0 -0.22270652947E+01  0.72016906026E+00  0.49501966957E+01  0.54756653376E+01  0.51100000000E-03 0. -1.
        -11    1    3    3    0    0  0.33003504192E+01  0.33873462662E+01 -0.25146829050E+01  0.53563101097E+01  0.51100000000E-03 0.  1.
         12    1    3    3    0    0 -0.19465297196E+02  0.25467399074E+02 -0.23417019893E+02  0.39696889440E+02  0.00000000000E+00 0. -1.
</event>
<event>
 7    1  0.2639126E-011  0.5052887E+02  0.7816164E-02  0.1300439E+00
        -11   -1    0    0    0    0  0.00000000000E+00  0.00000000000E+00  0.45593999997E+02  0.45594000000E+02  0.51100000000E-03 0.  1.
         11   -1    0    0    0    0 -0.00000000000E+00 -0.00000000000E+00 -0.45593999997E+02  0.45594000000E+02  0.51100000000E-03 0. -1.
    9900012    2    1    2    0    0 -0.74036012829E+01  0.39830227978E+02  0.34502674206E+01  0.50528871653E+02  0.30000035875E+02 0.  0.
         12    1    1    2    0    0  0.74036012829E+01 -0.39830227978E+02 -0.34502674206E+01  0.40659128347E+02  0.00000000000E+00 0. -1.
         11    1    3    3    0    0  0.63462987494E+01  0.21924933774E+02  0.42083845701E+01  0.23209668886E+02  0.51100000000E-03 0. -1.
        -11    1    3    3    0    0  0.26726943489E+01  0.70008196796E+01 -0.12641867784E+01  0.75995354950E+01  0.51100000000E-03 0.  1.
        -12    1    3    3    0    0 -0.16422594381E+02  0.10904474524E+02  0.50606962895E+00  0.19719667272E+02  0.00000000000E+00 0.  1.
</event>
<event>
 7    1  0.2639126E-011  0.5052886E+02  0.7816164E-02  0.1300439E+00
        -11   -1    0    0    0    0  0.00000000000E+00  0.00000000000E+00  0.45593999997E+02  0.45594000000E+02  0.51100000000E-03 0. -1.
         11   -1    0    0    0    0 -0.00000000000E+00 -0.00000000000E+00 -0.45593999997E+02  0.45594000000E+02  0.51100000000E-03 0.  1.
    9900012    2    1    2    0    0  0.17159670877E+02  0.13403076236E+02 -0.34337570831E+02  0.50528861694E+02  0.30000005604E+02 0.  0.
         12    1    1    2    0    0 -0.17159670877E+02 -0.13403076236E+02  0.34337570831E+02  0.40659138306E+02  0.00000000000E+00 0. -1.
         11    1    3    3    0    0 -0.24947272601E+01 -0.26138992900E+01 -0.75975286708E+01  0.84130004021E+01  0.51100000000E-03 0. -1.
        -11    1    3    3    0    0  0.80823695145E+01 -0.40044116538E+01 -0.10584207351E+02  0.13906309905E+02  0.51100000000E-03 0.  1.
        -12    1    3    3    0    0  0.11572028623E+02  0.20021387180E+02 -0.16155834809E+02  0.28209551387E+02  0.00000000000E+00 0.  1.
</event>
<event>
 7    1  0.2639126E-011  0.5052886E+02  0.7816164E-02  0.1300439E+00
        -11   -1    0    0    0    0  0.00000000000E+00  0.00000000000E+00  0.45593999997E+02  0.45594000000E+02  0.51100000000E-03 0.  1.
         11   -1    0    0    0    0 -0.00000000000E+00 -0.00000000000E+00 -0.45593999997E+02  0.45594000000E+02  0.51100000000E-03 0. -1.
    9900012    2    1    2    0    0 -0.37288711437E+02 -0.14873373328E+02  0.64420513820E+01  0.50528864978E+02  0.30000015586E+02 0.  0.
         12    1    1    2    0    0  0.37288711437E+02  0.14873373328E+02 -0.64420513820E+01  0.40659135022E+02  0.00000000000E+00 0. -1.
         11    1    3    3    0    0 -0.71604429953E+01 -0.60789958588E+00  0.56755690065E+00  0.72085787012E+01  0.51100000000E-03 0. -1.
        -11    1    3    3    0    0 -0.31018926728E+02 -0.18666263741E+02  0.35348094236E+00  0.36203979981E+02  0.51100000000E-03 0.  1.
         12    1    3    3    0    0  0.89065828625E+00  0.44007899994E+01  0.55210135390E+01  0.71163062961E+01  0.00000000000E+00 0. -1.
</event>
<event>
 7    1  0.2639126E-011  0.5052876E+02  0.7816164E-02  0.1300439E+00
        -11   -1    0    0    0    0  0.00000000000E+00  0.00000000000E+00  0.45593999997E+02  0.45594000000E+02  0.51100000000E-03 0.  1.
         11   -1    0    0    0    0 -0.00000000000E+00 -0.00000000000E+00 -0.45593999997E+02  0.45594000000E+02  0.51100000000E-03 0. -1.
    9900012    2    1    2    0    0 -0.27571767691E+02 -0.85593455192E+01 -0.28630555044E+02  0.50528764254E+02  0.29999709425E+02 0.  0.
         12    1    1    2    0    0  0.27571767691E+02  0.85593455192E+01  0.28630555044E+02  0.40659235746E+02  0.00000000000E+00 0. -1.
         11    1    3    3    0    0 -0.49196767376E+01 -0.73923258560E+01 -0.86482584511E+01  0.12395244058E+02  0.51100000000E-03 0. -1.
        -11    1    3    3    0    0 -0.11972454033E+02 -0.12216330833E+02 -0.10131025820E+02  0.19880042228E+02  0.51100000000E-03 0.  1.
         12    1    3    3    0    0 -0.10679636920E+02  0.11049311169E+02 -0.98512707735E+01  0.18253477967E+02  0.00000000000E+00 0. -1.
</event>
<event>
 7    1  0.2639126E-011  0.5052883E+02  0.7816164E-02  0.1300439E+00
        -11   -1    0    0    0    0  0.00000000000E+00  0.00000000000E+00  0.45593999997E+02  0.45594000000E+02  0.51100000000E-03 0.  1.
         11   -1    0    0    0    0 -0.00000000000E+00 -0.00000000000E+00 -0.45593999997E+02  0.45594000000E+02  0.51100000000E-03 0. -1.
    9900012    2    1    2    0    0 -0.19251747462E+02  0.21035283632E+02  0.28983704050E+02  0.50528830822E+02  0.29999911768E+02 0.  0.
         12    1    1    2    0    0  0.19251747462E+02 -0.21035283632E+02 -0.28983704050E+02  0.40659169178E+02  0.00000000000E+00 0. -1.
         11    1    3    3    0    0 -0.15586408125E+01 -0.31403397081E+01 -0.23742423585E+01  0.42341612750E+01  0.51100000000E-03 0. -1.
        -11    1    3    3    0    0 -0.44592091810E+01  0.40289287406E+01  0.17471832895E+02  0.18476519106E+02  0.51100000000E-03 0.  1.
        -12    1    3    3    0    0 -0.13233897468E+02  0.20146694599E+02  0.13886113513E+02  0.27818150441E+02  0.00000000000E+00 0.  1.
</event>
<event>
 7    1  0.2639126E-011  0.5052886E+02  0.7816164E-02  0.1300439E+00
        -11   -1    0    0    0    0  0.00000000000E+00  0.00000000000E+00  0.45593999997E+02  0.45594000000E+02  0.51100000000E-03 0.  1.
         11   -1    0    0    0    0 -0.00000000000E+00 -0.00000000000E+00 -0.45593999997E+02  0.45594000000E+02  0.51100000000E-03 0. -1.
    9900012    2    1    2    0    0  0.23695883452E+02  0.28835485401E+02  0.16130259326E+02  0.50528863551E+02  0.30000011249E+02 0.  0.
         12    1    1    2    0    0 -0.23695883452E+02 -0.28835485401E+02 -0.16130259326E+02  0.40659136449E+02  0.00000000000E+00 0. -1.
         11    1    3    3    0    0  0.18139026914E+01  0.21548309845E-01 -0.19500095833E+01  0.26633146527E+01  0.51100000000E-03 0. -1.
        -11    1    3    3    0    0  0.13572207881E+02  0.22494227949E+02 -0.80815484139E+00  0.26283991940E+02  0.51100000000E-03 0.  1.
        -12    1    3    3    0    0  0.83097728799E+01  0.63197091421E+01  0.18888423751E+02  0.21581556958E+02  0.00000000000E+00 0.  1.
</event>
<event>
 7    1  0.2639126E-011  0.5052886E+02  0.7816164E-02  0.1300439E+00
        -11   -1    0    0    0    0  0.00000000000E+00  0.00000000000E+00  0.45593999997E+02  0.45594000000E+02  0.51100000000E-03 0.  1.
         11   -1    0    0    0    0 -0.00000000000E+00 -0.00000000000E+00 -0.45593999997E+02  0.45594000000E+02  0.51100000000E-03 0. -1.
    9900012    2    1    2    0    0  0.24049589921E+02 -0.32393155661E+02  0.50464166769E+01  0.50528860433E+02  0.30000001773E+02 0.  0.
         12    1    1    2    0    0 -0.24049589921E+02  0.32393155661E+02 -0.50464166769E+01  0.40659139567E+02  0.00000000000E+00 0. -1.
         11    1    3    3    0    0  0.33071117325E+00 -0.94034296395E+01  0.77373091436E+01  0.12181946146E+02  0.51100000000E-03 0. -1.
        -11    1    3    3    0    0  0.19457028809E+02 -0.22341371557E+02  0.44968385037E+01  0.29965553722E+02  0.51100000000E-03 0.  1.
         12    1    3    3    0    0  0.42618499388E+01 -0.64835446494E+00 -0.71877309705E+01  0.83813605648E+01  0.00000000000E+00 0. -1.
</event>
<event>
 7    1  0.2639126E-011  0.5052886E+02  0.7816164E-02  0.1300439E+00
        -11   -1    0    0    0    0  0.00000000000E+00  0.00000000000E+00  0.45593999997E+02  0.45594000000E+02  0.51100000000E-03 0.  1.
         11   -1    0    0    0    0 -0.00000000000E+00 -0.00000000000E+00 -0.45593999997E+02  0.45594000000E+02  0.51100000000E-03 0. -1.
    9900012    2    1    2    0    0  0.78829922246E+00  0.28289820776E+02  0.29192985373E+02  0.50528858713E+02  0.29999996544E+02 0.  0.
         12    1    1    2    0    0 -0.78829922246E+00 -0.28289820776E+02 -0.29192985373E+02  0.40659141287E+02  0.00000000000E+00 0. -1.
         11    1    3    3    0    0 -0.16234574425E+01  0.15284343914E+02  0.13790505753E+01  0.15432062846E+02  0.51100000000E-03 0. -1.
        -11    1    3    3    0    0  0.94737430750E+01  0.96004132461E+01  0.16127642265E+02  0.21024285663E+02  0.51100000000E-03 0.  1.
        -12    1    3    3    0    0 -0.70619864101E+01  0.34050636166E+01  0.11686292533E+02  0.14072510204E+02  0.00000000000E+00 0.  1.
</event>
<event>
 7    1  0.2639126E-011  0.5052886E+02  0.7816164E-02  0.1300439E+00
        -11   -1    0    0    0    0  0.00000000000E+00  0.00000000000E+00  0.45593999997E+02  0.45594000000E+02  0.51100000000E-03 0. -1.
         11   -1    0    0    0    0 -0.00000000000E+00 -0.00000000000E+00 -0.45593999997E+02  0.45594000000E+02  0.51100000000E-03 0.  1.
    9900012    2    1    2    0    0 -0.38107311764E+02  0.13245443808E+02  0.50553495514E+01  0.50528861413E+02  0.30000004750E+02 0.  0.
         12    1    1    2    0    0  0.38107311764E+02 -0.13245443808E+02 -0.50553495514E+01  0.40659138587E+02  0.00000000000E+00 0. -1.
         11    1    3    3    0    0 -0.74866399516E+01  0.99057278259E+01 -0.37177896279E+01  0.12961295518E+02  0.51100000000E-03 0. -1.
        -11    1    3    3    0    0 -0.31291898666E+01  0.28000572857E+01 -0.52327354937E+01  0.67092228338E+01  0.51100000000E-03 0.  1.
        -12    1    3    3    0    0 -0.27491481946E+02  0.53965869618E+00  0.14005874673E+02  0.30858343061E+02  0.00000000000E+00 0.  1.
</event>
<event>
 7    1  0.2639126E-011  0.5052885E+02  0.7816164E-02  0.1300439E+00
        -11   -1    0    0    0    0  0.00000000000E+00  0.00000000000E+00  0.45593999997E+02  0.45594000000E+02  0.51100000000E-03 0.  1.
         11   -1    0    0    0    0 -0.00000000000E+00 -0.00000000000E+00 -0.45593999997E+02  0.45594000000E+02  0.51100000000E-03 0. -1.
    9900012    2    1    2    0    0  0.26540316805E+02  0.26299476159E+02  0.16034819148E+02  0.50528852352E+02  0.29999977208E+02 0.  0.
         12    1    1    2    0    0 -0.26540316805E+02 -0.26299476159E+02 -0.16034819148E+02  0.40659147648E+02  0.00000000000E+00 0. -1.
         11    1    3    3    0    0  0.17412930703E+02  0.24322322877E+02  0.10465811633E+02  0.31690988612E+02  0.51100000000E-03 0.  1.
        -11    1    3    3    0    0  0.28530548074E+01 -0.26083736352E+01  0.94070855974E+01  0.10170388117E+02  0.51100000000E-03 0. -1.
         12    1    3    3    0    0  0.62743312951E+01  0.45855269176E+01 -0.38380780819E+01  0.86674756230E+01  0.00000000000E+00 0. -1.
</event>
<event>
 7    1  0.2639126E-011  0.5052886E+02  0.7816164E-02  0.1300439E+00
        -11   -1    0    0    0    0  0.00000000000E+00  0.00000000000E+00  0.45593999997E+02  0.45594000000E+02  0.51100000000E-03 0. -1.
         11   -1    0    0    0    0 -0.00000000000E+00 -0.00000000000E+00 -0.45593999997E+02  0.45594000000E+02  0.51100000000E-03 0.  1.
    9900012    2    1    2    0    0 -0.23648599343E+02 -0.30650268281E+02  0.12428607921E+02  0.50528862141E+02  0.30000006963E+02 0.  0.
         12    1    1    2    0    0  0.23648599343E+02  0.30650268281E+02 -0.12428607921E+02  0.40659137859E+02  0.00000000000E+00 0. -1.
         11    1    3    3    0    0 -0.66580611716E+01 -0.16932173262E+02 -0.12716023808E+01  0.18238564713E+02  0.51100000000E-03 0. -1.
        -11    1    3    3    0    0 -0.10143519596E+02 -0.12570610166E+02 -0.84326568572E+00  0.16174743492E+02  0.51100000000E-03 0.  1.
         12    1    3    3    0    0 -0.68470185750E+01 -0.11474848534E+01  0.14543475987E+02  0.16115553936E+02  0.00000000000E+00 0. -1.
</event>
<event>
 7    1  0.2639126E-011  0.5052890E+02  0.7816164E-02  0.1300439E+00
        -11   -1    0    0    0    0  0.00000000000E+00  0.00000000000E+00  0.45593999997E+02  0.45594000000E+02  0.51100000000E-03 0.  1.
         11   -1    0    0    0    0 -0.00000000000E+00 -0.00000000000E+00 -0.45593999997E+02  0.45594000000E+02  0.51100000000E-03 0. -1.
    9900012    2    1    2    0    0 -0.13549096989E+02 -0.17457970277E+02  0.34129217651E+02  0.50528901967E+02  0.30000128018E+02 0.  0.
         12    1    1    2    0    0  0.13549096989E+02  0.17457970277E+02 -0.34129217651E+02  0.40659098033E+02  0.00000000000E+00 0. -1.
         11    1    3    3    0    0 -0.50207903954E+01 -0.16774044664E+01 -0.11104438402E+01  0.54087991016E+01  0.51100000000E-03 0. -1.
        -11    1    3    3    0    0 -0.99775057003E+01 -0.13920980415E+02  0.10127470628E+02  0.19897486708E+02  0.51100000000E-03 0.  1.
        -12    1    3    3    0    0  0.14491991072E+01 -0.18595853961E+01  0.25112190863E+02  0.25222616157E+02  0.00000000000E+00 0.  1.
</event>
<event>
 7    1  0.2639126E-011  0.5052887E+02  0.7816164E-02  0.1300439E+00
        -11   -1    0    0    0    0  0.00000000000E+00  0.00000000000E+00  0.45593999997E+02  0.45594000000E+02  0.51100000000E-03 0.  1.
         11   -1    0    0    0    0 -0.00000000000E+00 -0.00000000000E+00 -0.45593999997E+02  0.45594000000E+02  0.51100000000E-03 0. -1.
    9900012    2    1    2    0    0  0.11986535204E+02  0.32012014713E+02  0.22016334095E+02  0.50528867211E+02  0.30000022373E+02 0.  0.
         12    1    1    2    0    0 -0.11986535204E+02 -0.32012014713E+02 -0.22016334095E+02  0.40659132789E+02  0.00000000000E+00 0. -1.
         11    1    3    3    0    0  0.14051708309E+01  0.12727868817E+02 -0.21587064602E+01  0.12985883240E+02  0.51100000000E-03 0. -1.
        -11    1    3    3    0    0  0.77353092648E+01  0.15848042482E+02  0.56947830302E+01  0.18531756905E+02  0.51100000000E-03 0.  1.
        -12    1    3    3    0    0  0.28460551081E+01  0.34361034140E+01  0.18480257525E+02  0.19011227066E+02  0.00000000000E+00 0.  1.
</event>
<event>
 7    1  0.2639126E-011  0.5052891E+02  0.7816164E-02  0.1300439E+00
        -11   -1    0    0    0    0  0.00000000000E+00  0.00000000000E+00  0.45593999997E+02  0.45594000000E+02  0.51100000000E-03 0.  1.
         11   -1    0    0    0    0 -0.00000000000E+00 -0.00000000000E+00 -0.45593999997E+02  0.45594000000E+02  0.51100000000E-03 0. -1.
    9900012    2    1    2    0    0  0.34822403380E+02 -0.19035175156E+02  0.88444345567E+01  0.50528908851E+02  0.30000148944E+02 0.  0.
         12    1    1    2    0    0 -0.34822403380E+02  0.19035175156E+02 -0.88444345567E+01  0.40659091149E+02  0.00000000000E+00 0. -1.
         11    1    3    3    0    0 -0.16693213418E+01 -0.32935285065E+01  0.28397262372E+01  0.46581121850E+01  0.51100000000E-03 0. -1.
        -11    1    3    3    0    0  0.35685655350E+01 -0.93501461191E+01 -0.41425986192E+01  0.10831482632E+02  0.51100000000E-03 0.  1.
        -12    1    3    3    0    0  0.32923159187E+02 -0.63915005307E+01  0.10147306939E+02  0.35039314034E+02  0.00000000000E+00 0.  1.
</event>
<event>
 7    1  0.2639126E-011  0.5052886E+02  0.7816164E-02  0.1300439E+00
        -11   -1    0    0    0    0  0.00000000000E+00  0.00000000000E+00  0.45593999997E+02  0.45594000000E+02  0.51100000000E-03 0.  1.
         11   -1    0    0    0    0 -0.00000000000E+00 -0.00000000000E+00 -0.45593999997E+02  0.45594000000E+02  0.51100000000E-03 0. -1.
    9900012    2    1    2    0    0  0.22862465675E+02 -0.19642863646E+02  0.27287926551E+02  0.50528863703E+02  0.30000011711E+02 0.  0.
         12    1    1    2    0    0 -0.22862465675E+02  0.19642863646E+02 -0.27287926551E+02  0.40659136297E+02  0.00000000000E+00 0. -1.
         11    1    3    3    0    0  0.15943198471E+02 -0.38641451348E+01  0.52341344571E+01  0.17219563260E+02  0.51100000000E-03 0. -1.
        -11    1    3    3    0    0  0.61470969713E+01 -0.64935836323E+01 -0.44998936937E+00  0.89529838745E+01  0.51100000000E-03 0.  1.
        -12    1    3    3    0    0  0.77217023322E+00 -0.92851348791E+01  0.22503781464E+02  0.24356316568E+02  0.00000000000E+00 0.  1.
</event>
<event>
 7    1  0.2639126E-011  0.5052885E+02  0.7816164E-02  0.1300439E+00
        -11   -1    0    0    0    0  0.00000000000E+00  0.00000000000E+00  0.45593999997E+02  0.45594000000E+02  0.51100000000E-03 0.  1.
         11   -1    0    0    0    0 -0.00000000000E+00 -0.00000000000E+00 -0.45593999997E+02  0.45594000000E+02  0.51100000000E-03 0. -1.
    9900012    2    1    2    0    0 -0.18157052102E+01  0.16503296295E+02  0.37114830556E+02  0.50528853166E+02  0.29999979685E+02 0.  0.
         12    1    1    2    0    0  0.18157052102E+01 -0.16503296295E+02 -0.37114830556E+02  0.40659146834E+02  0.00000000000E+00 0. -1.
         11    1    3    3    0    0  0.11892457975E+01  0.78142554691E+01  0.14664986398E+02  0.16659493402E+02  0.51100000000E-03 0. -1.
        -11    1    3    3    0    0 -0.86601639899E+00  0.16671339010E+02  0.17731046453E+02  0.24353101186E+02  0.51100000000E-03 0.  1.
         12    1    3    3    0    0 -0.21389346087E+01 -0.79822981835E+01  0.47187977046E+01  0.95162585783E+01  0.00000000000E+00 0. -1.
</event>
<event>
 7    1  0.2639126E-011  0.5052886E+02  0.7816164E-02  0.1300439E+00
        -11   -1    0    0    0    0  0.00000000000E+00  0.00000000000E+00  0.45593999997E+02  0.45594000000E+02  0.51100000000E-03 0.  1.
         11   -1    0    0    0    0 -0.00000000000E+00 -0.00000000000E+00 -0.45593999997E+02  0.45594000000E+02  0.51100000000E-03 0. -1.
    9900012    2    1    2    0    0  0.94578737619E+00  0.10082738358E+02  0.39377775909E+02  0.50528863731E+02  0.30000011798E+02 0.  0.
         12    1    1    2    0    0 -0.94578737619E+00 -0.10082738358E+02 -0.39377775909E+02  0.40659136269E+02  0.00000000000E+00 0. -1.
         11    1    3    3    0    0  0.68354053349E+01  0.51057749628E+01  0.57403371515E+01  0.10283150049E+02  0.51100000000E-03 0. -1.
        -11    1    3    3    0    0 -0.44273144240E+01 -0.50692468716E+01  0.20029150768E+01  0.70221112153E+01  0.51100000000E-03 0.  1.
         12    1    3    3    0    0 -0.14623035347E+01  0.10046210266E+02  0.31634523681E+02  0.33223602467E+02  0.00000000000E+00 0. -1.
</event>
<event>
 7    1  0.2639126E-011  0.5052885E+02  0.7816164E-02  0.1300439E+00
        -11   -1    0    0    0    0  0.00000000000E+00  0.00000000000E+00  0.45593999997E+02  0.45594000000E+02  0.51100000000E-03 0.  1.
         11   -1    0    0    0    0 -0.00000000000E+00 -0.00000000000E+00 -0.45593999997E+02  0.45594000000E+02  0.51100000000E-03 0. -1.
    9900012    2    1    2    0    0 -0.14930903691E+02 -0.16505999679E+02  0.34026258542E+02  0.50528853664E+02  0.29999981196E+02 0.  0.
         12    1    1    2    0    0  0.14930903691E+02  0.16505999679E+02 -0.34026258542E+02  0.40659146336E+02  0.00000000000E+00 0. -1.
         11    1    3    3    0    0 -0.50289441853E+01 -0.10714540750E+02 -0.26363930521E+00  0.11838968242E+02  0.51100000000E-03 0. -1.
        -11    1    3    3    0    0  0.34888767512E+01 -0.19099820415E+01  0.76440252354E+01  0.86169260438E+01  0.51100000000E-03 0.  1.
         12    1    3    3    0    0 -0.13390836257E+02 -0.38814768878E+01  0.26645872612E+02  0.30072959378E+02  0.00000000000E+00 0. -1.
</event>
<event>
 7    1  0.2639126E-011  0.5052885E+02  0.7816164E-02  0.1300439E+00
        -11   -1    0    0    0    0  0.00000000000E+00  0.00000000000E+00  0.45593999997E+02  0.45594000000E+02  0.51100000000E-03 0. -1.
         11   -1    0    0    0    0 -0.00000000000E+00 -0.00000000000E+00 -0.45593999997E+02  0.45594000000E+02  0.51100000000E-03 0.  1.
    9900012    2    1    2    0    0 -0.33828219656E+02 -0.58680656785E+01 -0.21780357503E+02  0.50528848351E+02  0.29999965047E+02 0.  0.
         12    1    1    2    0    0  0.33828219656E+02  0.58680656785E+01  0.21780357503E+02  0.40659151649E+02  0.00000000000E+00 0. -1.
         11    1    3    3    0    0 -0.87268027167E+00  0.44525696804E+01 -0.41795595437E+01  0.61689274478E+01  0.51100000000E-03 0. -1.
        -11    1    3    3    0    0 -0.16042783152E+02 -0.15992619686E+02 -0.12161070625E+02  0.25710433965E+02  0.51100000000E-03 0.  1.
         12    1    3    3    0    0 -0.16912756232E+02  0.56719843271E+01 -0.54397273347E+01  0.18649486937E+02  0.00000000000E+00 0. -1.
</event>
<event>
 7    1  0.2639126E-011  0.5052886E+02  0.7816164E-02  0.1300439E+00
        -11   -1    0    0    0    0  0.00000000000E+00  0.00000000000E+00  0.45593999997E+02  0.45594000000E+02  0.51100000000E-03 0. -1.
         11   -1    0    0    0    0 -0.00000000000E+00 -0.00000000000E+00 -0.45593999997E+02  0.45594000000E+02  0.51100000000E-03 0.  1.
    9900012    2    1    2    0    0  0.36158877322E+02 -0.13908820969E+02 -0.12338786092E+02  0.50528863854E+02  0.30000012169E+02 0.  0.
         12    1    1    2    0    0 -0.36158877322E+02  0.13908820969E+02  0.12338786092E+02  0.40659136146E+02  0.00000000000E+00 0. -1.
         11    1    3    3    0    0  0.14311210386E+02 -0.26039638009E+00 -0.57223295382E+01  0.15415044748E+02  0.51100000000E-03 0. -1.
        -11    1    3    3    0    0  0.21550283232E+02 -0.11072461195E+01 -0.66124301892E+01  0.22569114618E+02  0.51100000000E-03 0.  1.
         12    1    3    3    0    0  0.29738370443E+00 -0.12541178470E+02 -0.40263642402E-02  0.12544704488E+02  0.00000000000E+00 0. -1.
</event>
<event>
 7    1  0.2639126E-011  0.5052886E+02  0.7816164E-02  0.1300439E+00
        -11   -1    0    0    0    0  0.00000000000E+00  0.00000000000E+00  0.45593999997E+02  0.45594000000E+02  0.51100000000E-03 0. -1.
         11   -1    0    0    0    0 -0.00000000000E+00 -0.00000000000E+00 -0.45593999997E+02  0.45594000000E+02  0.51100000000E-03 0.  1.
    9900012    2    1    2    0    0  0.73571674269E+01  0.39924701276E+02 -0.22484692641E+01  0.50528864513E+02  0.30000014175E+02 0.  0.
         12    1    1    2    0    0 -0.73571674269E+01 -0.39924701276E+02  0.22484692641E+01  0.40659135487E+02  0.00000000000E+00 0. -1.
         11    1    3    3    0    0  0.46922367078E+01  0.12480136015E+01 -0.26559705472E+01  0.55343295059E+01  0.51100000000E-03 0. -1.
        -11    1    3    3    0    0  0.92576122677E+01  0.21514961098E+02 -0.80380011723E+01  0.24763004645E+02  0.51100000000E-03 0.  1.
        -12    1    3    3    0    0 -0.65926815486E+01  0.17161726576E+02  0.84455024554E+01  0.20231530362E+02  0.00000000000E+00 0.  1.
</event>
<event>
 7    1  0.2639126E-011  0.5052887E+02  0.7816164E-02  0.1300439E+00
        -11   -1    0    0    0    0  0.00000000000E+00  0.00000000000E+00  0.45593999997E+02  0.45594000000E+02  0.51100000000E-03 0.  1.
         11   -1    0    0    0    0 -0.00000000000E+00 -0.00000000000E+00 -0.45593999997E+02  0.45594000000E+02  0.51100000000E-03 0. -1.
    9900012    2    1    2    0    0  0.31657522751E+02  0.10876943879E+02  0.23079391337E+02  0.50528868684E+02  0.30000026852E+02 0.  0.
         12    1    1    2    0    0 -0.31657522751E+02 -0.10876943879E+02 -0.23079391337E+02  0.40659131316E+02  0.00000000000E+00 0. -1.
         11    1    3    3    0    0  0.21884283893E+01 -0.21824965799E+01  0.10741353449E+02  0.11177172465E+02  0.51100000000E-03 0. -1.
        -11    1    3    3    0    0  0.24163358663E+01  0.57610066211E+01  0.92500932619E+01  0.11162083225E+02  0.51100000000E-03 0.  1.
        -12    1    3    3    0    0  0.27052758496E+02  0.72984338381E+01  0.30879446254E+01  0.28189612994E+02  0.00000000000E+00 0.  1.
</event>
<event>
 7    1  0.2639126E-011  0.5052885E+02  0.7816164E-02  0.1300439E+00
        -11   -1    0    0    0    0  0.00000000000E+00  0.00000000000E+00  0.45593999997E+02  0.45594000000E+02  0.51100000000E-03 0.  1.
         11   -1    0    0    0    0 -0.00000000000E+00 -0.00000000000E+00 -0.45593999997E+02  0.45594000000E+02  0.51100000000E-03 0. -1.
    9900012    2    1    2    0    0 -0.35775270360E+02  0.18946115866E+02  0.37869612869E+01  0.50528851564E+02  0.29999974814E+02 0.  0.
         12    1    1    2    0    0  0.35775270360E+02 -0.18946115866E+02 -0.37869612869E+01  0.40659148436E+02  0.00000000000E+00 0. -1.
         11    1    3    3    0    0 -0.74687347376E+01  0.34314626545E+01  0.49522544137E+01  0.95959240602E+01  0.51100000000E-03 0. -1.
        -11    1    3    3    0    0  0.60822149289E+00  0.84933241212E+01  0.58890035667E+01  0.10353108291E+02  0.51100000000E-03 0.  1.
         12    1    3    3    0    0 -0.28914757116E+02  0.70213290902E+01 -0.70542966935E+01  0.30579819213E+02  0.00000000000E+00 0. -1.
</event>
<event>
 7    1  0.2639126E-011  0.5052884E+02  0.7816164E-02  0.1300439E+00
        -11   -1    0    0    0    0  0.00000000000E+00  0.00000000000E+00  0.45593999997E+02  0.45594000000E+02  0.51100000000E-03 0. -1.
         11   -1    0    0    0    0 -0.00000000000E+00 -0.00000000000E+00 -0.45593999997E+02  0.45594000000E+02  0.51100000000E-03 0.  1.
    9900012    2    1    2    0    0 -0.29049176586E+02  0.46658158760E+00 -0.28444596365E+02  0.50528838412E+02  0.29999934836E+02 0.  0.
         12    1    1    2    0    0  0.29049176586E+02 -0.46658158760E+00  0.28444596365E+02  0.40659161588E+02  0.00000000000E+00 0. -1.
         11    1    3    3    0    0 -0.52839514944E+01  0.11832531308E+01  0.48054252421E+01  0.72396369650E+01  0.51100000000E-03 0. -1.
        -11    1    3    3    0    0 -0.11725427351E+02  0.13331822746E+01 -0.56005182916E+01  0.13062496964E+02  0.51100000000E-03 0.  1.
         12    1    3    3    0    0 -0.12039797741E+02 -0.20498538178E+01 -0.27649503315E+02  0.30226704483E+02  0.00000000000E+00 0. -1.
</event>
<event>
 7    1  0.2639126E-011  0.5052886E+02  0.7816164E-02  0.1300439E+00
        -11   -1    0    0    0    0  0.00000000000E+00  0.00000000000E+00  0.45593999997E+02  0.45594000000E+02  0.51100000000E-03 0. -1.
         11   -1    0    0    0    0 -0.00000000000E+00 -0.00000000000E+00 -0.45593999997E+02  0.45594000000E+02  0.51100000000E-03 0.  1.
    9900012    2    1    2    0    0  0.17670879708E+02 -0.21544617448E+02 -0.29609716008E+02  0.50528858191E+02  0.29999994956E+02 0.  0.
         12    1    1    2    0    0 -0.17670879708E+02  0.21544617448E+02  0.29609716008E+02  0.40659141809E+02  0.00000000000E+00 0. -1.
         11    1    3    3    0    0  0.56866012303E+01 -0.26003926661E+01  0.15294862415E+01  0.64372978799E+01  0.51100000000E-03 0. -1.
        -11    1    3    3    0    0  0.32598688359E+01 -0.29436187236E+01 -0.24192430937E+02  0.24587910666E+02  0.51100000000E-03 0.  1.
         12    1    3    3    0    0  0.87244096417E+01 -0.16000606058E+02 -0.69467713126E+01  0.19503649645E+02  0.00000000000E+00 0. -1.
</event>
<event>
 7    1  0.2639126E-011  0.5052885E+02  0.7816164E-02  0.1300439E+00
        -11   -1    0    0    0    0  0.00000000000E+00  0.00000000000E+00  0.45593999997E+02  0.45594000000E+02  0.51100000000E-03 0.  1.
         11   -1    0    0    0    0 -0.00000000000E+00 -0.00000000000E+00 -0.45593999997E+02  0.45594000000E+02  0.51100000000E-03 0. -1.
    9900012    2    1    2    0    0  0.18054143451E+02 -0.18336910099E+02  0.31479711879E+02  0.50528848168E+02  0.29999964492E+02 0.  0.
         12    1    1    2    0    0 -0.18054143451E+02  0.18336910099E+02 -0.31479711879E+02  0.40659151832E+02  0.00000000000E+00 0. -1.
         11    1    3    3    0    0  0.64160375433E+01 -0.44229236231E+01  0.19761925183E+02  0.21242915956E+02  0.51100000000E-03 0. -1.
        -11    1    3    3    0    0  0.13422004412E+02 -0.53470216004E+01  0.14129966408E+02  0.20208829590E+02  0.51100000000E-03 0.  1.
         12    1    3    3    0    0 -0.17838985048E+01 -0.85669648755E+01 -0.24121797121E+01  0.90771026224E+01  0.00000000000E+00 0. -1.
</event>
<event>
 7    1  0.2639126E-011  0.5052886E+02  0.7816164E-02  0.1300439E+00
        -11   -1    0    0    0    0  0.00000000000E+00  0.00000000000E+00  0.45593999997E+02  0.45594000000E+02  0.51100000000E-03 0.  1.
         11   -1    0    0    0    0 -0.00000000000E+00 -0.00000000000E+00 -0.45593999997E+02  0.45594000000E+02  0.51100000000E-03 0. -1.
    9900012    2    1    2    0    0 -0.12255900483E+02 -0.36262820582E+02  0.13710080750E+02  0.50528861207E+02  0.30000004124E+02 0.  0.
         12    1    1    2    0    0  0.12255900483E+02  0.36262820582E+02 -0.13710080750E+02  0.40659138793E+02  0.00000000000E+00 0. -1.
         11    1    3    3    0    0  0.46321425748E+00 -0.34494025378E+01 -0.17983232000E+01  0.39175134855E+01  0.51100000000E-03 0. -1.
        -11    1    3    3    0    0 -0.11706420116E+02 -0.36392781507E+02  0.92524052106E+01  0.39332960989E+02  0.51100000000E-03 0.  1.
        -12    1    3    3    0    0 -0.10126946245E+01  0.35793634624E+01  0.62559987391E+01  0.72783867321E+01  0.00000000000E+00 0.  1.
</event>
<event>
 7    1  0.2639126E-011  0.5052885E+02  0.7816164E-02  0.1300439E+00
        -11   -1    0    0    0    0  0.00000000000E+00  0.00000000000E+00  0.45593999997E+02  0.45594000000E+02  0.51100000000E-03 0.  1.
         11   -1    0    0    0    0 -0.00000000000E+00 -0.00000000000E+00 -0.45593999997E+02  0.45594000000E+02  0.51100000000E-03 0. -1.
    9900012    2    1    2    0    0  0.38852848410E+02  0.16545831581E+01  0.11869490656E+02  0.50528852402E+02  0.29999977361E+02 0.  0.
         12    1    1    2    0    0 -0.38852848410E+02 -0.16545831581E+01 -0.11869490656E+02  0.40659147598E+02  0.00000000000E+00 0. -1.
         11    1    3    3    0    0  0.28231911868E+00 -0.80797367456E+00 -0.15564791633E+01  0.17762750886E+01  0.51100000000E-03 0. -1.
        -11    1    3    3    0    0  0.18555762981E+02 -0.11581866881E+02  0.10042761465E+02  0.24068922668E+02  0.51100000000E-03 0.  1.
        -12    1    3    3    0    0  0.20014766310E+02  0.14044423714E+02  0.33832083540E+01  0.24683654646E+02  0.00000000000E+00 0.  1.
</event>
<event>
 7    1  0.2639126E-011  0.5052886E+02  0.7816164E-02  0.1300439E+00
        -11   -1    0    0    0    0  0.00000000000E+00  0.00000000000E+00  0.45593999997E+02  0.45594000000E+02  0.51100000000E-03 0. -1.
         11   -1    0    0    0    0 -0.00000000000E+00 -0.00000000000E+00 -0.45593999997E+02  0.45594000000E+02  0.51100000000E-03 0.  1.
    9900012    2    1    2    0    0  0.12159045609E+02 -0.38770690649E+02  0.14685676605E+01  0.50528861611E+02  0.30000005353E+02 0.  0.
         12    1    1    2    0    0 -0.12159045609E+02  0.38770690649E+02 -0.14685676605E+01  0.40659138389E+02  0.00000000000E+00 0. -1.
         11    1    3    3    0    0 -0.81457906031E+01 -0.10771456210E+02 -0.66350679312E+00  0.13521036016E+02  0.51100000000E-03 0. -1.
        -11    1    3    3    0    0  0.20956385016E+00  0.62699302148E+00 -0.16991089124E+01  0.18231863903E+01  0.51100000000E-03 0.  1.
        -12    1    3    3    0    0  0.20095272362E+02 -0.28626227461E+02  0.38311833661E+01  0.35184639205E+02  0.00000000000E+00 0.  1.
</event>
<event>
 7    1  0.2639126E-011  0.5052886E+02  0.7816164E-02  0.1300439E+00
        -11   -1    0    0    0    0  0.00000000000E+00  0.00000000000E+00  0.45593999997E+02  0.45594000000E+02  0.51100000000E-03 0. -1.
         11   -1    0    0    0    0 -0.00000000000E+00 -0.00000000000E+00 -0.45593999997E+02  0.45594000000E+02  0.51100000000E-03 0.  1.
    9900012    2    1    2    0    0  0.11701656075E+02 -0.12617951821E+02 -0.36837811283E+02  0.50528858307E+02  0.29999995310E+02 0.  0.
         12    1    1    2    0    0 -0.11701656075E+02  0.12617951821E+02  0.36837811283E+02  0.40659141693E+02  0.00000000000E+00 0. -1.
         11    1    3    3    0    0  0.90641875633E+01 -0.86177200915E+01 -0.20569368917E+01  0.12674998438E+02  0.51100000000E-03 0. -1.
        -11    1    3    3    0    0 -0.45922107201E+01 -0.40627217007E+01 -0.78017168488E+01  0.99227462411E+01  0.51100000000E-03 0.  1.
        -12    1    3    3    0    0  0.72296792315E+01  0.62489971000E-01 -0.26979157543E+02  0.27931113628E+02  0.00000000000E+00 0.  1.
</event>
<event>
 7    1  0.2639126E-011  0.5052886E+02  0.7816164E-02  0.1300439E+00
        -11   -1    0    0    0    0  0.00000000000E+00  0.00000000000E+00  0.45593999997E+02  0.45594000000E+02  0.51100000000E-03 0.  1.
         11   -1    0    0    0    0 -0.00000000000E+00 -0.00000000000E+00 -0.45593999997E+02  0.45594000000E+02  0.51100000000E-03 0. -1.
    9900012    2    1    2    0    0  0.38603881701E+02 -0.63821837173E+01  0.11053238062E+02  0.50528855604E+02  0.29999987095E+02 0.  0.
         12    1    1    2    0    0 -0.38603881701E+02  0.63821837173E+01 -0.11053238062E+02  0.40659144396E+02  0.00000000000E+00 0. -1.
         11    1    3    3    0    0  0.65907277289E+01  0.89596494360E+01  0.27977385096E+01  0.11469104195E+02  0.51100000000E-03 0. -1.
        -11    1    3    3    0    0  0.26933302363E+02 -0.70435794437E+01  0.29967985294E+01  0.27999921237E+02  0.51100000000E-03 0.  1.
        -12    1    3    3    0    0  0.50798516082E+01 -0.82982537096E+01  0.52587010226E+01  0.11059830172E+02  0.00000000000E+00 0.  1.
</event>
<event>
 7    1  0.2639126E-011  0.5052896E+02  0.7816164E-02  0.1300438E+00
        -11   -1    0    0    0    0  0.00000000000E+00  0.00000000000E+00  0.45593999997E+02  0.45594000000E+02  0.51100000000E-03 0.  1.
         11   -1    0    0    0    0 -0.00000000000E+00 -0.00000000000E+00 -0.45593999997E+02  0.45594000000E+02  0.51100000000E-03 0. -1.
    9900012    2    1    2    0    0  0.37668706021E+02  0.15115443324E+02 -0.23978685643E+01  0.50528956555E+02  0.30000293944E+02 0.  0.
         12    1    1    2    0    0 -0.37668706021E+02 -0.15115443324E+02  0.23978685643E+01  0.40659043445E+02  0.00000000000E+00 0. -1.
         11    1    3    3    0    0 -0.23321110521E+01 -0.26915077209E+01 -0.20544426363E+01  0.41114098042E+01  0.51100000000E-03 0. -1.
        -11    1    3    3    0    0  0.15571756854E+02 -0.86989264639E+00  0.10849198019E+01  0.15633725594E+02  0.51100000000E-03 0.  1.
        -12    1    3    3    0    0  0.24429060220E+02  0.18676843691E+02 -0.14283457298E+01  0.30783821157E+02  0.00000000000E+00 0.  1.
</event>
<event>
 7    1  0.2639126E-011  0.5052887E+02  0.7816164E-02  0.1300439E+00
        -11   -1    0    0    0    0  0.00000000000E+00  0.00000000000E+00  0.45593999997E+02  0.45594000000E+02  0.51100000000E-03 0.  1.
         11   -1    0    0    0    0 -0.00000000000E+00 -0.00000000000E+00 -0.45593999997E+02  0.45594000000E+02  0.51100000000E-03 0. -1.
    9900012    2    1    2    0    0 -0.21586694473E+02 -0.21429602598E+02  0.26980585202E+02  0.50528865434E+02  0.30000016974E+02 0.  0.
         12    1    1    2    0    0  0.21586694473E+02  0.21429602598E+02 -0.26980585202E+02  0.40659134566E+02  0.00000000000E+00 0. -1.
         11    1    3    3    0    0 -0.59216328177E+01 -0.15564466531E+02  0.11022112604E+02  0.19970110669E+02  0.51100000000E-03 0. -1.
        -11    1    3    3    0    0 -0.14233515849E+02 -0.11524598582E+02  0.64799479579E+01  0.19426761740E+02  0.51100000000E-03 0.  1.
         12    1    3    3    0    0 -0.14315458060E+01  0.56594625148E+01  0.94785246403E+01  0.11131993025E+02  0.00000000000E+00 0. -1.
</event>
<event>
 7    1  0.2639126E-011  0.5052879E+02  0.7816164E-02  0.1300439E+00
        -11   -1    0    0    0    0  0.00000000000E+00  0.00000000000E+00  0.45593999997E+02  0.45594000000E+02  0.51100000000E-03 0.  1.
         11   -1    0    0    0    0 -0.00000000000E+00 -0.00000000000E+00 -0.45593999997E+02  0.45594000000E+02  0.51100000000E-03 0. -1.
    9900012    2    1    2    0    0 -0.14362735273E+02 -0.41649756646E+00  0.38035642331E+02  0.50528785518E+02  0.29999774060E+02 0.  0.
         12    1    1    2    0    0  0.14362735273E+02  0.41649756646E+00 -0.38035642331E+02  0.40659214482E+02  0.00000000000E+00 0. -1.
         11    1    3    3    0    0 -0.11703727583E+02 -0.80429324236E+01  0.11399689537E+02  0.18210407000E+02  0.51100000000E-03 0. -1.
        -11    1    3    3    0    0 -0.13080595038E+01 -0.38929825564E+01  0.16212097950E+02  0.16724187665E+02  0.51100000000E-03 0.  1.
         12    1    3    3    0    0 -0.13509481861E+01  0.11519417414E+02  0.10423854844E+02  0.15594190853E+02  0.00000000000E+00 0. -1.
</event>
<event>
 7    1  0.2639126E-011  0.5052887E+02  0.7816164E-02  0.1300439E+00
        -11   -1    0    0    0    0  0.00000000000E+00  0.00000000000E+00  0.45593999997E+02  0.45594000000E+02  0.51100000000E-03 0.  1.
         11   -1    0    0    0    0 -0.00000000000E+00 -0.00000000000E+00 -0.45593999997E+02  0.45594000000E+02  0.51100000000E-03 0. -1.
    9900012    2    1    2    0    0  0.13810383550E+01 -0.53888954886E+01  0.40276760934E+02  0.50528869010E+02  0.30000027843E+02 0.  0.
         12    1    1    2    0    0 -0.13810383550E+01  0.53888954886E+01 -0.40276760934E+02  0.40659130990E+02  0.00000000000E+00 0. -1.
         11    1    3    3    0    0  0.11782497597E+01  0.11798064646E+02  0.94756425680E+01  0.15177957841E+02  0.51100000000E-03 0. -1.
        -11    1    3    3    0    0 -0.40941611800E+00 -0.12982944603E+01  0.15945097260E+01  0.20965809287E+01  0.51100000000E-03 0.  1.
         12    1    3    3    0    0  0.61220471323E+00 -0.15888665674E+02  0.29206608640E+02  0.33254330241E+02  0.00000000000E+00 0. -1.
</event>
<event>
 7    1  0.2639126E-011  0.5052887E+02  0.7816164E-02  0.1300439E+00
        -11   -1    0    0    0    0  0.00000000000E+00  0.00000000000E+00  0.45593999997E+02  0.45594000000E+02  0.51100000000E-03 0. -1.
         11   -1    0    0    0    0 -0.00000000000E+00 -0.00000000000E+00 -0.45593999997E+02  0.45594000000E+02  0.51100000000E-03 0.  1.
    9900012    2    1    2    0    0 -0.80531590048E+01  0.20456896187E+02 -0.34202736764E+02  0.50528866048E+02  0.30000018840E+02 0.  0.
         12    1    1    2    0    0  0.80531590048E+01 -0.20456896187E+02  0.34202736764E+02  0.40659133952E+02  0.00000000000E+00 0. -1.
         11    1    3    3    0    0 -0.48882571573E+01  0.19472280027E+02 -0.10754558984E+02  0.22775541414E+02  0.51100000000E-03 0. -1.
        -11    1    3    3    0    0 -0.61064839922E+00  0.65198470730E+01 -0.47589641976E+01  0.80950007917E+01  0.51100000000E-03 0.  1.
        -12    1    3    3    0    0 -0.25542534483E+01 -0.55352309138E+01 -0.18689213583E+02  0.19658323842E+02  0.00000000000E+00 0.  1.
</event>
<event>
 7    1  0.2639126E-011  0.5052888E+02  0.7816164E-02  0.1300439E+00
        -11   -1    0    0    0    0  0.00000000000E+00  0.00000000000E+00  0.45593999997E+02  0.45594000000E+02  0.51100000000E-03 0.  1.
         11   -1    0    0    0    0 -0.00000000000E+00 -0.00000000000E+00 -0.45593999997E+02  0.45594000000E+02  0.51100000000E-03 0. -1.
    9900012    2    1    2    0    0 -0.78860887920E+01 -0.39437084015E+02  0.59741314018E+01  0.50528877554E+02  0.30000053813E+02 0.  0.
         12    1    1    2    0    0  0.78860887920E+01  0.39437084015E+02 -0.59741314018E+01  0.40659122446E+02  0.00000000000E+00 0. -1.
         11    1    3    3    0    0 -0.11756047766E+02 -0.23703903365E+01  0.47117148869E+01  0.12885017146E+02  0.51100000000E-03 0. -1.
        -11    1    3    3    0    0 -0.10855501273E+01 -0.62281423235E+01  0.10520877666E+01  0.64089831339E+01  0.51100000000E-03 0.  1.
         12    1    3    3    0    0  0.49555091010E+01 -0.30838551355E+02  0.21032874840E+00  0.31234877274E+02  0.00000000000E+00 0. -1.
</event>
<event>
 7    1  0.2639126E-011  0.5052886E+02  0.7816164E-02  0.1300439E+00
        -11   -1    0    0    0    0  0.00000000000E+00  0.00000000000E+00  0.45593999997E+02  0.45594000000E+02  0.51100000000E-03 0.  1.
         11   -1    0    0    0    0 -0.00000000000E+00 -0.00000000000E+00 -0.45593999997E+02  0.45594000000E+02  0.51100000000E-03 0. -1.
    9900012    2    1    2    0    0 -0.21310978059E+02  0.26404094605E+01  0.34525871185E+02  0.50528864138E+02  0.30000013034E+02 0.  0.
         12    1    1    2    0    0  0.21310978059E+02 -0.26404094605E+01 -0.34525871185E+02  0.40659135862E+02  0.00000000000E+00 0. -1.
         11    1    3    3    0    0  0.81000127527E-01 -0.18393679289E+01  0.54795593813E+01  0.57806060817E+01  0.51100000000E-03 0. -1.
        -11    1    3    3    0    0 -0.62569961179E+01 -0.32196659793E+00  0.28156258832E+02  0.28844905523E+02  0.51100000000E-03 0.  1.
         12    1    3    3    0    0 -0.15134982068E+02  0.48017439873E+01  0.89005297154E+00  0.15903352534E+02  0.00000000000E+00 0. -1.
</event>
<event>
 7    1  0.2639126E-011  0.5052886E+02  0.7816164E-02  0.1300439E+00
        -11   -1    0    0    0    0  0.00000000000E+00  0.00000000000E+00  0.45593999997E+02  0.45594000000E+02  0.51100000000E-03 0. -1.
         11   -1    0    0    0    0 -0.00000000000E+00 -0.00000000000E+00 -0.45593999997E+02  0.45594000000E+02  0.51100000000E-03 0.  1.
    9900012    2    1    2    0    0 -0.23389016021E+02  0.30543184891E+02  0.13161823994E+02  0.50528858045E+02  0.29999994512E+02 0.  0.
         12    1    1    2    0    0  0.23389016021E+02 -0.30543184891E+02 -0.13161823994E+02  0.40659141955E+02  0.00000000000E+00 0. -1.
         11    1    3    3    0    0 -0.61173990546E+01  0.17897528405E+02  0.14841637779E+02  0.24042011281E+02  0.51100000000E-03 0. -1.
        -11    1    3    3    0    0 -0.16161795845E+02  0.13432166134E+02  0.33465177119E+01  0.21279706602E+02  0.51100000000E-03 0.  1.
         12    1    3    3    0    0 -0.11098211209E+01 -0.78650964828E+00 -0.50263314969E+01  0.52071401618E+01  0.00000000000E+00 0. -1.
</event>
<event>
 7    1  0.2639126E-011  0.5052886E+02  0.7816164E-02  0.1300439E+00
        -11   -1    0    0    0    0  0.00000000000E+00  0.00000000000E+00  0.45593999997E+02  0.45594000000E+02  0.51100000000E-03 0.  1.
         11   -1    0    0    0    0 -0.00000000000E+00 -0.00000000000E+00 -0.45593999997E+02  0.45594000000E+02  0.51100000000E-03 0. -1.
    9900012    2    1    2    0    0  0.19002171202E+02  0.32839685365E+02  0.14616377200E+02  0.50528856776E+02  0.29999990657E+02 0.  0.
         12    1    1    2    0    0 -0.19002171202E+02 -0.32839685365E+02 -0.14616377200E+02  0.40659143224E+02  0.00000000000E+00 0. -1.
         11    1    3    3    0    0 -0.95149727051E+00  0.25088062684E+02  0.52482501795E+01  0.25648788792E+02  0.51100000000E-03 0.  1.
        -11    1    3    3    0    0  0.49825393234E+01  0.20889195234E+01 -0.14094247468E+01  0.55835258809E+01  0.51100000000E-03 0. -1.
        -12    1    3    3    0    0  0.14971129149E+02  0.56627031572E+01  0.10777551767E+02  0.19296542103E+02  0.00000000000E+00 0.  1.
</event>
<event>
 7    1  0.2639126E-011  0.5052886E+02  0.7816164E-02  0.1300439E+00
        -11   -1    0    0    0    0  0.00000000000E+00  0.00000000000E+00  0.45593999997E+02  0.45594000000E+02  0.51100000000E-03 0. -1.
         11   -1    0    0    0    0 -0.00000000000E+00 -0.00000000000E+00 -0.45593999997E+02  0.45594000000E+02  0.51100000000E-03 0.  1.
    9900012    2    1    2    0    0  0.27407353144E+02  0.11945533348E+02 -0.27555521785E+02  0.50528861369E+02  0.30000004618E+02 0.  0.
         12    1    1    2    0    0 -0.27407353144E+02 -0.11945533348E+02  0.27555521785E+02  0.40659138631E+02  0.00000000000E+00 0. -1.
         11    1    3    3    0    0  0.11697010921E+02  0.13479357355E+01 -0.20289389073E+00  0.11776169217E+02  0.51100000000E-03 0. -1.
        -11    1    3    3    0    0  0.13685892760E+01  0.12843960519E+02 -0.13591396995E+02  0.18750104825E+02  0.51100000000E-03 0.  1.
         12    1    3    3    0    0  0.14341752947E+02 -0.22463629065E+01 -0.13761230900E+02  0.20002587328E+02  0.00000000000E+00 0. -1.
</event>
<event>
 7    1  0.2639126E-011  0.5052886E+02  0.7816164E-02  0.1300439E+00
        -11   -1    0    0    0    0  0.00000000000E+00  0.00000000000E+00  0.45593999997E+02  0.45594000000E+02  0.51100000000E-03 0. -1.
         11   -1    0    0    0    0 -0.00000000000E+00 -0.00000000000E+00 -0.45593999997E+02  0.45594000000E+02  0.51100000000E-03 0.  1.
    9900012    2    1    2    0    0  0.16802520396E+02  0.34383492293E+02 -0.13733777969E+02  0.50528857225E+02  0.29999992020E+02 0.  0.
         12    1    1    2    0    0 -0.16802520396E+02 -0.34383492293E+02  0.13733777969E+02  0.40659142775E+02  0.00000000000E+00 0. -1.
         11    1    3    3    0    0  0.19268647404E+01  0.23558134921E+02 -0.30300253094E+01  0.23830224135E+02  0.51100000000E-03 0. -1.
        -11    1    3    3    0    0  0.29786904758E+01  0.12011536829E+02 -0.68056477175E+01  0.14123259364E+02  0.51100000000E-03 0.  1.
         12    1    3    3    0    0  0.11896965180E+02 -0.11861794572E+01 -0.38981049423E+01  0.12575373726E+02  0.00000000000E+00 0. -1.
</event>
<event>
 7    1  0.2639126E-011  0.5052886E+02  0.7816164E-02  0.1300439E+00
        -11   -1    0    0    0    0  0.00000000000E+00  0.00000000000E+00  0.45593999997E+02  0.45594000000E+02  0.51100000000E-03 0.  1.
         11   -1    0    0    0    0 -0.00000000000E+00 -0.00000000000E+00 -0.45593999997E+02  0.45594000000E+02  0.51100000000E-03 0. -1.
    9900012    2    1    2    0    0  0.39479580099E+02 -0.92592668578E+01 -0.29655512465E+01  0.50528858817E+02  0.29999996861E+02 0.  0.
         12    1    1    2    0    0 -0.39479580099E+02  0.92592668578E+01  0.29655512465E+01  0.40659141183E+02  0.00000000000E+00 0. -1.
         11    1    3    3    0    0  0.56951705849E+01 -0.34098651973E+01 -0.66655400467E+01  0.94069959621E+01  0.51100000000E-03 0. -1.
        -11    1    3    3    0    0  0.16088309961E+02 -0.99121133580E+01  0.10637627864E+02  0.21685083248E+02  0.51100000000E-03 0.  1.
         12    1    3    3    0    0  0.17696099553E+02  0.40627116975E+01 -0.69376390640E+01  0.19436779607E+02  0.00000000000E+00 0. -1.
</event>
<event>
 7    1  0.2639126E-011  0.5052885E+02  0.7816164E-02  0.1300439E+00
        -11   -1    0    0    0    0  0.00000000000E+00  0.00000000000E+00  0.45593999997E+02  0.45594000000E+02  0.51100000000E-03 0.  1.
         11   -1    0    0    0    0 -0.00000000000E+00 -0.00000000000E+00 -0.45593999997E+02  0.45594000000E+02  0.51100000000E-03 0. -1.
    9900012    2    1    2    0    0  0.58902323002E+00  0.14476672268E+02  0.37990068919E+02  0.50528851893E+02  0.29999975813E+02 0.  0.
         12    1    1    2    0    0 -0.58902323002E+00 -0.14476672268E+02 -0.37990068919E+02  0.40659148107E+02  0.00000000000E+00 0. -1.
         11    1    3    3    0    0  0.35508497671E+01  0.12347095274E+02  0.48055377397E+01  0.13716868775E+02  0.51100000000E-03 0. -1.
        -11    1    3    3    0    0 -0.33781373250E+01  0.75010241281E+01  0.97064795982E+01  0.12723714914E+02  0.51100000000E-03 0.  1.
        -12    1    3    3    0    0  0.41631078794E+00 -0.53714471343E+01  0.23478051581E+02  0.24088268204E+02  0.00000000000E+00 0.  1.
</event>
<event>
 7    1  0.2639126E-011  0.5052888E+02  0.7816164E-02  0.1300439E+00
        -11   -1    0    0    0    0  0.00000000000E+00  0.00000000000E+00  0.45593999997E+02  0.45594000000E+02  0.51100000000E-03 0. -1.
         11   -1    0    0    0    0 -0.00000000000E+00 -0.00000000000E+00 -0.45593999997E+02  0.45594000000E+02  0.51100000000E-03 0.  1.
    9900012    2    1    2    0    0 -0.31264908400E+02 -0.60762622286E+00 -0.25986537538E+02  0.50528882448E+02  0.30000068688E+02 0.  0.
         12    1    1    2    0    0  0.31264908400E+02  0.60762622286E+00  0.25986537538E+02  0.40659117552E+02  0.00000000000E+00 0. -1.
         11    1    3    3    0    0  0.60779827993E+00  0.78607139818E+01 -0.21534126892E+01  0.81729694435E+01  0.51100000000E-03 0. -1.
        -11    1    3    3    0    0 -0.25403271990E-01  0.15656545663E+01 -0.59575833692E+00  0.16753649764E+01  0.51100000000E-03 0.  1.
        -12    1    3    3    0    0 -0.31847303408E+02 -0.10033994771E+02 -0.23237366512E+02  0.40680548028E+02  0.00000000000E+00 0.  1.
</event>
<event>
 7    1  0.2639126E-011  0.5052889E+02  0.7816164E-02  0.1300439E+00
        -11   -1    0    0    0    0  0.00000000000E+00  0.00000000000E+00  0.45593999997E+02  0.45594000000E+02  0.51100000000E-03 0.  1.
         11   -1    0    0    0    0 -0.00000000000E+00 -0.00000000000E+00 -0.45593999997E+02  0.45594000000E+02  0.51100000000E-03 0. -1.
    9900012    2    1    2    0    0  0.67764229879E+01 -0.46223087611E+01  0.39823078570E+02  0.50528889906E+02  0.30000091359E+02 0.  0.
         12    1    1    2    0    0 -0.67764229879E+01  0.46223087611E+01 -0.39823078570E+02  0.40659110094E+02  0.00000000000E+00 0. -1.
         11    1    3    3    0    0  0.81692761797E+01  0.75502845018E+01  0.10495167901E+02  0.15293541738E+02  0.51100000000E-03 0. -1.
        -11    1    3    3    0    0  0.61667750708E+01 -0.14029134871E+01  0.10691614092E+02  0.12422072822E+02  0.51100000000E-03 0.  1.
        -12    1    3    3    0    0 -0.75596282626E+01 -0.10769679776E+02  0.18636296577E+02  0.22813275347E+02  0.00000000000E+00 0.  1.
</event>
<event>
 7    1  0.2639126E-011  0.5052886E+02  0.7816164E-02  0.1300439E+00
        -11   -1    0    0    0    0  0.00000000000E+00  0.00000000000E+00  0.45593999997E+02  0.45594000000E+02  0.51100000000E-03 0.  1.
         11   -1    0    0    0    0 -0.00000000000E+00 -0.00000000000E+00 -0.45593999997E+02  0.45594000000E+02  0.51100000000E-03 0. -1.
    9900012    2    1    2    0    0  0.11590908978E+02  0.23002144688E+02  0.31459776632E+02  0.50528863550E+02  0.30000011245E+02 0.  0.
         12    1    1    2    0    0 -0.11590908978E+02 -0.23002144688E+02 -0.31459776632E+02  0.40659136450E+02  0.00000000000E+00 0. -1.
         11    1    3    3    0    0 -0.98905857619E+00 -0.48942889744E+01 -0.15446227606E+01  0.52266778326E+01  0.51100000000E-03 0.  1.
        -11    1    3    3    0    0 -0.48428150016E+00  0.66554660216E+00  0.73253113614E+00  0.11018543359E+01  0.51100000000E-03 0. -1.
        -12    1    3    3    0    0  0.13064249054E+02  0.27230887060E+02  0.32271868256E+02  0.44200331381E+02  0.00000000000E+00 0.  1.
</event>
<event>
 7    1  0.2639126E-011  0.5052889E+02  0.7816164E-02  0.1300439E+00
        -11   -1    0    0    0    0  0.00000000000E+00  0.00000000000E+00  0.45593999997E+02  0.45594000000E+02  0.51100000000E-03 0.  1.
         11   -1    0    0    0    0 -0.00000000000E+00 -0.00000000000E+00 -0.45593999997E+02  0.45594000000E+02  0.51100000000E-03 0. -1.
    9900012    2    1    2    0    0 -0.20529766828E+02 -0.35086582047E+02 -0.78954130025E+00  0.50528893502E+02  0.30000102289E+02 0.  0.
         12    1    1    2    0    0  0.20529766828E+02  0.35086582047E+02  0.78954130025E+00  0.40659106498E+02  0.00000000000E+00 0. -1.
         11    1    3    3    0    0 -0.18823433069E+02 -0.11916141639E+02  0.42671819584E+01  0.22683141453E+02  0.51100000000E-03 0. -1.
        -11    1    3    3    0    0 -0.67727974188E+01 -0.71402579627E+01  0.11853257178E+01  0.99125711079E+01  0.51100000000E-03 0.  1.
         12    1    3    3    0    0  0.50664636598E+01 -0.16030182445E+02 -0.62420489765E+01  0.17933180941E+02  0.00000000000E+00 0. -1.
</event>
<event>
 7    1  0.2639126E-011  0.5052887E+02  0.7816164E-02  0.1300439E+00
        -11   -1    0    0    0    0  0.00000000000E+00  0.00000000000E+00  0.45593999997E+02  0.45594000000E+02  0.51100000000E-03 0.  1.
         11   -1    0    0    0    0 -0.00000000000E+00 -0.00000000000E+00 -0.45593999997E+02  0.45594000000E+02  0.51100000000E-03 0. -1.
    9900012    2    1    2    0    0 -0.26801758591E+02  0.27413947919E+02  0.13539063060E+02  0.50528867783E+02  0.30000024113E+02 0.  0.
         12    1    1    2    0    0  0.26801758591E+02 -0.27413947919E+02 -0.13539063060E+02  0.40659132217E+02  0.00000000000E+00 0. -1.
         11    1    3    3    0    0 -0.16740424087E+02  0.31789443528E+02  0.73860264501E+01  0.36679202628E+02  0.51100000000E-03 0.  1.
        -11    1    3    3    0    0 -0.27033983287E+01 -0.29877859718E+01 -0.19386485331E+00  0.40339572853E+01  0.51100000000E-03 0. -1.
        -12    1    3    3    0    0 -0.73579361753E+01 -0.13877096369E+01  0.63469014634E+01  0.98157078696E+01  0.00000000000E+00 0.  1.
</event>
<event>
 7    1  0.2639126E-011  0.5052886E+02  0.7816164E-02  0.1300439E+00
        -11   -1    0    0    0    0  0.00000000000E+00  0.00000000000E+00  0.45593999997E+02  0.45594000000E+02  0.51100000000E-03 0.  1.
         11   -1    0    0    0    0 -0.00000000000E+00 -0.00000000000E+00 -0.45593999997E+02  0.45594000000E+02  0.51100000000E-03 0. -1.
    9900012    2    1    2    0    0 -0.10579299311E+02  0.22841454872E+02  0.31929792661E+02  0.50528864569E+02  0.30000014345E+02 0.  0.
         12    1    1    2    0    0  0.10579299311E+02 -0.22841454872E+02 -0.31929792661E+02  0.40659135431E+02  0.00000000000E+00 0. -1.
         11    1    3    3    0    0 -0.16894415575E+02  0.12345952342E+02  0.96252659762E+01  0.23032359024E+02  0.51100000000E-03 0. -1.
        -11    1    3    3    0    0 -0.28463044287E+01  0.34593864344E+01  0.72217647742E+01  0.84983933845E+01  0.51100000000E-03 0.  1.
         12    1    3    3    0    0  0.91614206923E+01  0.70361160958E+01  0.15082761910E+02  0.18998112160E+02  0.00000000000E+00 0. -1.
</event>
<event>
 7    1  0.2639126E-011  0.5052886E+02  0.7816164E-02  0.1300439E+00
        -11   -1    0    0    0    0  0.00000000000E+00  0.00000000000E+00  0.45593999997E+02  0.45594000000E+02  0.51100000000E-03 0.  1.
         11   -1    0    0    0    0 -0.00000000000E+00 -0.00000000000E+00 -0.45593999997E+02  0.45594000000E+02  0.51100000000E-03 0. -1.
    9900012    2    1    2    0    0  0.16664912693E+02 -0.69940990153E+01  0.36421548218E+02  0.50528856985E+02  0.29999991293E+02 0.  0.
         12    1    1    2    0    0 -0.16664912693E+02  0.69940990153E+01 -0.36421548218E+02  0.40659143015E+02  0.00000000000E+00 0. -1.
         11    1    3    3    0    0  0.24833866765E+01  0.78436487528E+01  0.20256033873E+02  0.21863141212E+02  0.51100000000E-03 0. -1.
        -11    1    3    3    0    0  0.21433096444E+01 -0.18746646657E+01  0.92382092037E+01  0.96670912582E+01  0.51100000000E-03 0.  1.
         12    1    3    3    0    0  0.12038216372E+02 -0.12963083102E+02  0.69273051409E+01  0.18998624515E+02  0.00000000000E+00 0. -1.
</event>
<event>
 7    1  0.2639126E-011  0.5052887E+02  0.7816164E-02  0.1300439E+00
        -11   -1    0    0    0    0  0.00000000000E+00  0.00000000000E+00  0.45593999997E+02  0.45594000000E+02  0.51100000000E-03 0.  1.
         11   -1    0    0    0    0 -0.00000000000E+00 -0.00000000000E+00 -0.45593999997E+02  0.45594000000E+02  0.51100000000E-03 0. -1.
    9900012    2    1    2    0    0  0.13373272525E+02  0.14143103892E+02  0.35697246058E+02  0.50528865948E+02  0.30000018535E+02 0.  0.
         12    1    1    2    0    0 -0.13373272525E+02 -0.14143103892E+02 -0.35697246058E+02  0.40659134052E+02  0.00000000000E+00 0. -1.
         11    1    3    3    0    0  0.74523426445E+01  0.19343606217E+02  0.15592627678E+02  0.25939208749E+02  0.51100000000E-03 0. -1.
        -11    1    3    3    0    0  0.26689557798E+01  0.36158891262E+01  0.44075777918E+01  0.62948170251E+01  0.51100000000E-03 0.  1.
        -12    1    3    3    0    0  0.32519741008E+01 -0.88163914502E+01  0.15697040588E+02  0.18294840174E+02  0.00000000000E+00 0.  1.
</event>
<event>
 7    1  0.2639126E-011  0.5052886E+02  0.7816164E-02  0.1300439E+00
        -11   -1    0    0    0    0  0.00000000000E+00  0.00000000000E+00  0.45593999997E+02  0.45594000000E+02  0.51100000000E-03 0.  1.
         11   -1    0    0    0    0 -0.00000000000E+00 -0.00000000000E+00 -0.45593999997E+02  0.45594000000E+02  0.51100000000E-03 0. -1.
    9900012    2    1    2    0    0  0.14175803886E+02  0.11482536733E+02  0.36336807015E+02  0.50528860687E+02  0.30000002544E+02 0.  0.
         12    1    1    2    0    0 -0.14175803886E+02 -0.11482536733E+02 -0.36336807015E+02  0.40659139313E+02  0.00000000000E+00 0. -1.
         11    1    3    3    0    0 -0.82516349707E+00  0.30243197144E+01 -0.47891086001E+00  0.31712395692E+01  0.51100000000E-03 0.  1.
        -11    1    3    3    0    0  0.20005914118E+02  0.11829065709E+02  0.25287380466E+02  0.34345523819E+02  0.51100000000E-03 0. -1.
         12    1    3    3    0    0 -0.50049467356E+01 -0.33708486898E+01  0.11528337409E+02  0.13012097299E+02  0.00000000000E+00 0. -1.
</event>
<event>
 7    1  0.2639126E-011  0.5052886E+02  0.7816164E-02  0.1300439E+00
        -11   -1    0    0    0    0  0.00000000000E+00  0.00000000000E+00  0.45593999997E+02  0.45594000000E+02  0.51100000000E-03 0. -1.
         11   -1    0    0    0    0 -0.00000000000E+00 -0.00000000000E+00 -0.45593999997E+02  0.45594000000E+02  0.51100000000E-03 0.  1.
    9900012    2    1    2    0    0 -0.96336488508E+01  0.33783476377E+01 -0.39356643842E+02  0.50528857886E+02  0.29999994032E+02 0.  0.
         12    1    1    2    0    0  0.96336488508E+01 -0.33783476377E+01  0.39356643842E+02  0.40659142114E+02  0.00000000000E+00 0. -1.
         11    1    3    3    0    0 -0.95025999068E+01  0.36047872734E+01 -0.25011705450E+02  0.26997764835E+02  0.51100000000E-03 0. -1.
        -11    1    3    3    0    0  0.33423639201E+01 -0.15473917240E+00 -0.18105090300E+02  0.18411671184E+02  0.51100000000E-03 0.  1.
         12    1    3    3    0    0 -0.34734128641E+01 -0.71700463266E-01  0.37601519084E+01  0.51194218673E+01  0.00000000000E+00 0. -1.
</event>
<event>
 7    1  0.2639126E-011  0.5052885E+02  0.7816164E-02  0.1300439E+00
        -11   -1    0    0    0    0  0.00000000000E+00  0.00000000000E+00  0.45593999997E+02  0.45594000000E+02  0.51100000000E-03 0.  1.
         11   -1    0    0    0    0 -0.00000000000E+00 -0.00000000000E+00 -0.45593999997E+02  0.45594000000E+02  0.51100000000E-03 0. -1.
    9900012    2    1    2    0    0 -0.15167783841E+02  0.16209976779E+02  0.34063781526E+02  0.50528853112E+02  0.29999979519E+02 0.  0.
         12    1    1    2    0    0  0.15167783841E+02 -0.16209976779E+02 -0.34063781526E+02  0.40659146888E+02  0.00000000000E+00 0. -1.
         11    1    3    3    0    0  0.15631634101E+01  0.12973053731E+01 -0.62983755580E+00  0.21267761249E+01  0.51100000000E-03 0. -1.
        -11    1    3    3    0    0 -0.11219378142E+02  0.13961559930E+02  0.55856571725E+01  0.18761640863E+02  0.51100000000E-03 0.  1.
        -12    1    3    3    0    0 -0.55115691089E+01  0.95111147584E+00  0.29107961910E+02  0.29640436124E+02  0.00000000000E+00 0.  1.
</event>
<event>
 7    1  0.2639126E-011  0.5052882E+02  0.7816164E-02  0.1300439E+00
        -11   -1    0    0    0    0  0.00000000000E+00  0.00000000000E+00  0.45593999997E+02  0.45594000000E+02  0.51100000000E-03 0. -1.
         11   -1    0    0    0    0 -0.00000000000E+00 -0.00000000000E+00 -0.45593999997E+02  0.45594000000E+02  0.51100000000E-03 0.  1.
    9900012    2    1    2    0    0  0.18799360643E+02 -0.15183945679E+02  0.32698632092E+02  0.50528822590E+02  0.29999886744E+02 0.  0.
         12    1    1    2    0    0 -0.18799360643E+02  0.15183945679E+02 -0.32698632092E+02  0.40659177410E+02  0.00000000000E+00 0. -1.
         11    1    3    3    0    0  0.22988833774E+01 -0.72904283180E+01  0.61362609147E+01  0.98024949945E+01  0.51100000000E-03 0. -1.
        -11    1    3    3    0    0 -0.61696923732E+01 -0.51470392581E+01  0.70730939344E+01  0.10704474540E+02  0.51100000000E-03 0.  1.
        -12    1    3    3    0    0  0.22670169639E+02 -0.27464781031E+01  0.19489277243E+02  0.30021853056E+02  0.00000000000E+00 0.  1.
</event>
<event>
 7    1  0.2639126E-011  0.5052886E+02  0.7816164E-02  0.1300439E+00
        -11   -1    0    0    0    0  0.00000000000E+00  0.00000000000E+00  0.45593999997E+02  0.45594000000E+02  0.51100000000E-03 0.  1.
         11   -1    0    0    0    0 -0.00000000000E+00 -0.00000000000E+00 -0.45593999997E+02  0.45594000000E+02  0.51100000000E-03 0. -1.
    9900012    2    1    2    0    0  0.49126215943E+01  0.36451848258E+02  0.17329014176E+02  0.50528858044E+02  0.29999994509E+02 0.  0.
         12    1    1    2    0    0 -0.49126215943E+01 -0.36451848258E+02 -0.17329014176E+02  0.40659141956E+02  0.00000000000E+00 0. -1.
         11    1    3    3    0    0 -0.56362957326E+01  0.56006428321E+01 -0.11173193152E+01  0.80239287404E+01  0.51100000000E-03 0. -1.
        -11    1    3    3    0    0 -0.56783617582E+01  0.11470026927E+02  0.83727178925E+01  0.15294041818E+02  0.51100000000E-03 0.  1.
        -12    1    3    3    0    0  0.16227279085E+02  0.19381178498E+02  0.10073615598E+02  0.27210887485E+02  0.00000000000E+00 0.  1.
</event>
<event>
 7    1  0.2639126E-011  0.5052887E+02  0.7816164E-02  0.1300439E+00
        -11   -1    0    0    0    0  0.00000000000E+00  0.00000000000E+00  0.45593999997E+02  0.45594000000E+02  0.51100000000E-03 0.  1.
         11   -1    0    0    0    0 -0.00000000000E+00 -0.00000000000E+00 -0.45593999997E+02  0.45594000000E+02  0.51100000000E-03 0. -1.
    9900012    2    1    2    0    0 -0.79242177103E+01 -0.34332292191E+02  0.20289543988E+02  0.50528866849E+02  0.30000021273E+02 0.  0.
         12    1    1    2    0    0  0.79242177103E+01  0.34332292191E+02 -0.20289543988E+02  0.40659133151E+02  0.00000000000E+00 0. -1.
         11    1    3    3    0    0  0.43356963058E+01  0.20706607216E+01  0.15704004371E+01  0.50549041607E+01  0.51100000000E-03 0. -1.
        -11    1    3    3    0    0 -0.19286365040E+01  0.94215239608E+00  0.29314408047E+01  0.36332678617E+01  0.51100000000E-03 0.  1.
        -12    1    3    3    0    0 -0.10331277512E+02 -0.37345105309E+02  0.15787702746E+02  0.41840694826E+02  0.00000000000E+00 0.  1.
</event>
<event>
 7    1  0.2639126E-011  0.5052880E+02  0.7816164E-02  0.1300439E+00
        -11   -1    0    0    0    0  0.00000000000E+00  0.00000000000E+00  0.45593999997E+02  0.45594000000E+02  0.51100000000E-03 0. -1.
         11   -1    0    0    0    0 -0.00000000000E+00 -0.00000000000E+00 -0.45593999997E+02  0.45594000000E+02  0.51100000000E-03 0.  1.
    9900012    2    1    2    0    0 -0.32496118901E+02  0.10184949510E+02 -0.22213495196E+02  0.50528802899E+02  0.29999826890E+02 0.  0.
         12    1    1    2    0    0  0.32496118901E+02 -0.10184949510E+02  0.22213495196E+02  0.40659197101E+02  0.00000000000E+00 0. -1.
         11    1    3    3    0    0 -0.78509321633E+00 -0.26237689136E+01  0.31466917328E+01  0.41715948740E+01  0.51100000000E-03 0. -1.
        -11    1    3    3    0    0  0.50207260764E+00 -0.83296430273E+00 -0.65816949287E+01  0.66531657749E+01  0.51100000000E-03 0.  1.
         12    1    3    3    0    0 -0.32213098292E+02  0.13641682727E+02 -0.18778492000E+02  0.39704042250E+02  0.00000000000E+00 0. -1.
</event>
<event>
 7    1  0.2639126E-011  0.5052886E+02  0.7816164E-02  0.1300439E+00
        -11   -1    0    0    0    0  0.00000000000E+00  0.00000000000E+00  0.45593999997E+02  0.45594000000E+02  0.51100000000E-03 0.  1.
         11   -1    0    0    0    0 -0.00000000000E+00 -0.00000000000E+00 -0.45593999997E+02  0.45594000000E+02  0.51100000000E-03 0. -1.
    9900012    2    1    2    0    0 -0.28693337375E+02 -0.24335023427E+02  0.15416385533E+02  0.50528856898E+02  0.29999991027E+02 0.  0.
         12    1    1    2    0    0  0.28693337375E+02  0.24335023427E+02 -0.15416385533E+02  0.40659143102E+02  0.00000000000E+00 0. -1.
         11    1    3    3    0    0 -0.64054916189E+01 -0.18237720973E+02  0.79515285841E+00  0.19346241431E+02  0.51100000000E-03 0. -1.
        -11    1    3    3    0    0 -0.14928114987E+02 -0.47855192998E+01  0.10783957020E+01  0.15713457594E+02  0.51100000000E-03 0.  1.
        -12    1    3    3    0    0 -0.73597307695E+01 -0.13117831541E+01  0.13542836972E+02  0.15469157873E+02  0.00000000000E+00 0.  1.
</event>
<event>
 7    1  0.2639126E-011  0.5052887E+02  0.7816164E-02  0.1300439E+00
        -11   -1    0    0    0    0  0.00000000000E+00  0.00000000000E+00  0.45593999997E+02  0.45594000000E+02  0.51100000000E-03 0.  1.
         11   -1    0    0    0    0 -0.00000000000E+00 -0.00000000000E+00 -0.45593999997E+02  0.45594000000E+02  0.51100000000E-03 0. -1.
    9900012    2    1    2    0    0 -0.29151273917E+02 -0.75546780888E+01  0.27318399334E+02  0.50528869732E+02  0.30000030037E+02 0.  0.
         12    1    1    2    0    0  0.29151273917E+02  0.75546780888E+01 -0.27318399334E+02  0.40659130268E+02  0.00000000000E+00 0. -1.
         11    1    3    3    0    0 -0.64540647387E+01 -0.54021569592E+00 -0.44284907907E+01  0.78459107562E+01  0.51100000000E-03 0. -1.
        -11    1    3    3    0    0 -0.21964009880E+01  0.60297432145E+00  0.14908577466E+02  0.15081559524E+02  0.51100000000E-03 0.  1.
        -12    1    3    3    0    0 -0.20500808190E+02 -0.76174367143E+01  0.16838312658E+02  0.27601399452E+02  0.00000000000E+00 0.  1.
</event>
<event>
 7    1  0.2639126E-011  0.5052880E+02  0.7816164E-02  0.1300439E+00
        -11   -1    0    0    0    0  0.00000000000E+00  0.00000000000E+00  0.45593999997E+02  0.45594000000E+02  0.51100000000E-03 0. -1.
         11   -1    0    0    0    0 -0.00000000000E+00 -0.00000000000E+00 -0.45593999997E+02  0.45594000000E+02  0.51100000000E-03 0.  1.
    9900012    2    1    2    0    0  0.30622645766E+01 -0.30656117268E+02 -0.26532918894E+02  0.50528797163E+02  0.29999809457E+02 0.  0.
         12    1    1    2    0    0 -0.30622645766E+01  0.30656117268E+02  0.26532918894E+02  0.40659202837E+02  0.00000000000E+00 0. -1.
         11    1    3    3    0    0  0.89603243616E+00 -0.14088889967E+02 -0.10808784438E+02  0.17780031381E+02  0.51100000000E-03 0. -1.
        -11    1    3    3    0    0  0.54952013551E+01 -0.21259643039E+02 -0.85778452760E+01  0.23574331166E+02  0.51100000000E-03 0.  1.
        -12    1    3    3    0    0 -0.33289692147E+01  0.46924157376E+01 -0.71462891799E+01  0.91744346164E+01  0.00000000000E+00 0.  1.
</event>
<event>
 7    1  0.2639126E-011  0.5052886E+02  0.7816164E-02  0.1300439E+00
        -11   -1    0    0    0    0  0.00000000000E+00  0.00000000000E+00  0.45593999997E+02  0.45594000000E+02  0.51100000000E-03 0.  1.
         11   -1    0    0    0    0 -0.00000000000E+00 -0.00000000000E+00 -0.45593999997E+02  0.45594000000E+02  0.51100000000E-03 0. -1.
    9900012    2    1    2    0    0 -0.13281684484E+02 -0.15146648650E+02  0.35317724961E+02  0.50528858291E+02  0.29999995262E+02 0.  0.
         12    1    1    2    0    0  0.13281684484E+02  0.15146648650E+02 -0.35317724961E+02  0.40659141709E+02  0.00000000000E+00 0. -1.
         11    1    3    3    0    0 -0.16754560708E+02 -0.11864320804E+02  0.26137650500E+02  0.33236338345E+02  0.51100000000E-03 0. -1.
        -11    1    3    3    0    0 -0.19995481688E+01 -0.57454149232E+01  0.95021715039E+01  0.11282696888E+02  0.51100000000E-03 0.  1.
         12    1    3    3    0    0  0.54724243930E+01  0.24630870766E+01 -0.32209704303E+00  0.60098230580E+01  0.00000000000E+00 0. -1.
</event>
<event>
 7    1  0.2639126E-011  0.5052887E+02  0.7816164E-02  0.1300439E+00
        -11   -1    0    0    0    0  0.00000000000E+00  0.00000000000E+00  0.45593999997E+02  0.45594000000E+02  0.51100000000E-03 0. -1.
         11   -1    0    0    0    0 -0.00000000000E+00 -0.00000000000E+00 -0.45593999997E+02  0.45594000000E+02  0.51100000000E-03 0.  1.
    9900012    2    1    2    0    0 -0.24936240728E+02 -0.12460627253E+02 -0.29598673950E+02  0.50528870241E+02  0.30000031585E+02 0.  0.
         12    1    1    2    0    0  0.24936240728E+02  0.12460627253E+02  0.29598673950E+02  0.40659129759E+02  0.00000000000E+00 0. -1.
         11    1    3    3    0    0  0.59791120848E+00 -0.92671151996E+01 -0.13906726861E+02  0.16722259840E+02  0.51100000000E-03 0. -1.
        -11    1    3    3    0    0 -0.62799696256E+01 -0.39201293013E+01 -0.12132393351E+02  0.14212684508E+02  0.51100000000E-03 0.  1.
         12    1    3    3    0    0 -0.19254182311E+02  0.72661724822E+00 -0.35595537384E+01  0.19593925893E+02  0.00000000000E+00 0. -1.
</event>
<event>
 7    1  0.2639126E-011  0.5052887E+02  0.7816164E-02  0.1300439E+00
        -11   -1    0    0    0    0  0.00000000000E+00  0.00000000000E+00  0.45593999997E+02  0.45594000000E+02  0.51100000000E-03 0. -1.
         11   -1    0    0    0    0 -0.00000000000E+00 -0.00000000000E+00 -0.45593999997E+02  0.45594000000E+02  0.51100000000E-03 0.  1.
    9900012    2    1    2    0    0 -0.12557376134E+02  0.37333423869E+02  0.10084289980E+02  0.50528866493E+02  0.30000020193E+02 0.  0.
         12    1    1    2    0    0  0.12557376134E+02 -0.37333423869E+02 -0.10084289980E+02  0.40659133507E+02  0.00000000000E+00 0. -1.
         11    1    3    3    0    0  0.68760912753E+01  0.10903263679E+02  0.29560712398E+01  0.13224981948E+02  0.51100000000E-03 0. -1.
        -11    1    3    3    0    0  0.20948502076E+01  0.24445500603E-01  0.19140386773E+01  0.28376996483E+01  0.51100000000E-03 0.  1.
        -12    1    3    3    0    0 -0.21528317617E+02  0.26405714689E+02  0.52141800631E+01  0.34466184897E+02  0.00000000000E+00 0.  1.
</event>
<event>
 7    1  0.2639126E-011  0.5052886E+02  0.7816164E-02  0.1300439E+00
        -11   -1    0    0    0    0  0.00000000000E+00  0.00000000000E+00  0.45593999997E+02  0.45594000000E+02  0.51100000000E-03 0.  1.
         11   -1    0    0    0    0 -0.00000000000E+00 -0.00000000000E+00 -0.45593999997E+02  0.45594000000E+02  0.51100000000E-03 0. -1.
    9900012    2    1    2    0    0 -0.25738881072E+02  0.31441584525E+02 -0.14500784179E+01  0.50528856333E+02  0.29999989311E+02 0.  0.
         12    1    1    2    0    0  0.25738881072E+02 -0.31441584525E+02  0.14500784179E+01  0.40659143667E+02  0.00000000000E+00 0. -1.
         11    1    3    3    0    0 -0.32716590369E+01  0.18645667241E+02  0.86448430700E+01  0.20811006023E+02  0.51100000000E-03 0. -1.
        -11    1    3    3    0    0 -0.91104193999E+01  0.42386968813E+01  0.13760931937E+01  0.10141988249E+02  0.51100000000E-03 0.  1.
         12    1    3    3    0    0 -0.13356802635E+02  0.85572204033E+01 -0.11471014682E+02  0.19575862062E+02  0.00000000000E+00 0. -1.
</event>
<event>
 7    1  0.2639126E-011  0.5052887E+02  0.7816164E-02  0.1300439E+00
        -11   -1    0    0    0    0  0.00000000000E+00  0.00000000000E+00  0.45593999997E+02  0.45594000000E+02  0.51100000000E-03 0. -1.
         11   -1    0    0    0    0 -0.00000000000E+00 -0.00000000000E+00 -0.45593999997E+02  0.45594000000E+02  0.51100000000E-03 0.  1.
    9900012    2    1    2    0    0  0.37340266454E+02 -0.12811160633E+02 -0.97336406579E+01  0.50528867003E+02  0.30000021741E+02 0.  0.
         12    1    1    2    0    0 -0.37340266454E+02  0.12811160633E+02  0.97336406579E+01  0.40659132997E+02  0.00000000000E+00 0. -1.
         11    1    3    3    0    0  0.31724211890E+01 -0.66357429303E+01 -0.11039830188E+02  0.13265564115E+02  0.51100000000E-03 0. -1.
        -11    1    3    3    0    0  0.18419862774E+02 -0.10104849674E+02  0.77548255006E+00  0.21023812808E+02  0.51100000000E-03 0.  1.
        -12    1    3    3    0    0  0.15747982491E+02  0.39294319708E+01  0.53070697995E+00  0.16239490080E+02  0.00000000000E+00 0.  1.
</event>
<event>
 7    1  0.2639126E-011  0.5052888E+02  0.7816164E-02  0.1300439E+00
        -11   -1    0    0    0    0  0.00000000000E+00  0.00000000000E+00  0.45593999997E+02  0.45594000000E+02  0.51100000000E-03 0. -1.
         11   -1    0    0    0    0 -0.00000000000E+00 -0.00000000000E+00 -0.45593999997E+02  0.45594000000E+02  0.51100000000E-03 0.  1.
    9900012    2    1    2    0    0  0.29401673549E+02 -0.20617118888E+02 -0.19069347247E+02  0.50528880443E+02  0.30000062594E+02 0.  0.
         12    1    1    2    0    0 -0.29401673549E+02  0.20617118888E+02  0.19069347247E+02  0.40659119557E+02  0.00000000000E+00 0. -1.
         11    1    3    3    0    0  0.66521872711E+01 -0.14074568466E+02  0.29612527589E+01  0.15846579794E+02  0.51100000000E-03 0. -1.
        -11    1    3    3    0    0  0.21303381979E+02 -0.91837503225E+01 -0.16785800335E+02  0.28634567342E+02  0.51100000000E-03 0.  1.
         12    1    3    3    0    0  0.14461042985E+01  0.26411999005E+01 -0.52447996711E+01  0.60477333065E+01  0.00000000000E+00 0. -1.
</event>
<event>
 7    1  0.2639126E-011  0.5052884E+02  0.7816164E-02  0.1300439E+00
        -11   -1    0    0    0    0  0.00000000000E+00  0.00000000000E+00  0.45593999997E+02  0.45594000000E+02  0.51100000000E-03 0. -1.
         11   -1    0    0    0    0 -0.00000000000E+00 -0.00000000000E+00 -0.45593999997E+02  0.45594000000E+02  0.51100000000E-03 0.  1.
    9900012    2    1    2    0    0  0.32220736846E+02  0.19737232323E+02 -0.15014432055E+02  0.50528838761E+02  0.29999935899E+02 0.  0.
         12    1    1    2    0    0 -0.32220736846E+02 -0.19737232323E+02  0.15014432055E+02  0.40659161239E+02  0.00000000000E+00 0. -1.
         11    1    3    3    0    0  0.19497587331E+01  0.56660458558E+01  0.31206435652E+01  0.67560381349E+01  0.51100000000E-03 0. -1.
        -11    1    3    3    0    0  0.80309413228E+01  0.15318911885E+02 -0.54275541566E+01  0.18127973528E+02  0.51100000000E-03 0.  1.
         12    1    3    3    0    0  0.22240036790E+02 -0.12477254172E+01 -0.12707521464E+02  0.25644827098E+02  0.00000000000E+00 0. -1.
</event>
<event>
 7    1  0.2639126E-011  0.5052886E+02  0.7816164E-02  0.1300439E+00
        -11   -1    0    0    0    0  0.00000000000E+00  0.00000000000E+00  0.45593999997E+02  0.45594000000E+02  0.51100000000E-03 0. -1.
         11   -1    0    0    0    0 -0.00000000000E+00 -0.00000000000E+00 -0.45593999997E+02  0.45594000000E+02  0.51100000000E-03 0.  1.
    9900012    2    1    2    0    0 -0.34871381204E+02  0.40155317429E+01 -0.20518955763E+02  0.50528864891E+02  0.30000015322E+02 0.  0.
         12    1    1    2    0    0  0.34871381204E+02 -0.40155317429E+01  0.20518955763E+02  0.40659135109E+02  0.00000000000E+00 0. -1.
         11    1    3    3    0    0 -0.59174415994E+01  0.70194965598E+01 -0.15453202395E+02  0.17974729805E+02  0.51100000000E-03 0. -1.
        -11    1    3    3    0    0 -0.11371305488E+02 -0.15901834551E+01 -0.88701836900E+01  0.14509149902E+02  0.51100000000E-03 0.  1.
         12    1    3    3    0    0 -0.17582634116E+02 -0.14137813618E+01  0.38044303220E+01  0.18044985184E+02  0.00000000000E+00 0. -1.
</event>
<event>
 7    1  0.2639126E-011  0.5052886E+02  0.7816164E-02  0.1300439E+00
        -11   -1    0    0    0    0  0.00000000000E+00  0.00000000000E+00  0.45593999997E+02  0.45594000000E+02  0.51100000000E-03 0. -1.
         11   -1    0    0    0    0 -0.00000000000E+00 -0.00000000000E+00 -0.45593999997E+02  0.45594000000E+02  0.51100000000E-03 0.  1.
    9900012    2    1    2    0    0 -0.37066975230E+02 -0.13749259461E+02 -0.94953960125E+01  0.50528864079E+02  0.30000012854E+02 0.  0.
         12    1    1    2    0    0  0.37066975230E+02  0.13749259461E+02  0.94953960125E+01  0.40659135921E+02  0.00000000000E+00 0. -1.
         11    1    3    3    0    0 -0.23510218996E+00 -0.76834103220E+01 -0.70513525098E+01  0.10431281786E+02  0.51100000000E-03 0. -1.
        -11    1    3    3    0    0 -0.10126757121E+02 -0.69258546829E+01 -0.50175328827E+01  0.13254973005E+02  0.51100000000E-03 0.  1.
        -12    1    3    3    0    0 -0.26705115919E+02  0.86000554401E+00  0.25734893800E+01  0.26842609288E+02  0.00000000000E+00 0.  1.
</event>
<event>
 7    1  0.2639126E-011  0.5052886E+02  0.7816164E-02  0.1300439E+00
        -11   -1    0    0    0    0  0.00000000000E+00  0.00000000000E+00  0.45593999997E+02  0.45594000000E+02  0.51100000000E-03 0. -1.
         11   -1    0    0    0    0 -0.00000000000E+00 -0.00000000000E+00 -0.45593999997E+02  0.45594000000E+02  0.51100000000E-03 0.  1.
    9900012    2    1    2    0    0  0.30200508882E+02  0.25777758070E+02 -0.87522689583E+01  0.50528858841E+02  0.29999996934E+02 0.  0.
         12    1    1    2    0    0 -0.30200508882E+02 -0.25777758070E+02  0.87522689583E+01  0.40659141159E+02  0.00000000000E+00 0. -1.
         11    1    3    3    0    0  0.27597496382E+01  0.45324076156E+01  0.22083920632E+00  0.53110928325E+01  0.51100000000E-03 0. -1.
        -11    1    3    3    0    0  0.20725880299E+01  0.11781185689E+02 -0.13199907543E+02  0.17813745164E+02  0.51100000000E-03 0.  1.
         12    1    3    3    0    0  0.25368171214E+02  0.94641647651E+01  0.42267993780E+01  0.27404020844E+02  0.00000000000E+00 0. -1.
</event>
<event>
 7    1  0.2639126E-011  0.5052885E+02  0.7816164E-02  0.1300439E+00
        -11   -1    0    0    0    0  0.00000000000E+00  0.00000000000E+00  0.45593999997E+02  0.45594000000E+02  0.51100000000E-03 0.  1.
         11   -1    0    0    0    0 -0.00000000000E+00 -0.00000000000E+00 -0.45593999997E+02  0.45594000000E+02  0.51100000000E-03 0. -1.
    9900012    2    1    2    0    0 -0.26363638725E+02  0.92846017283E+01  0.29528309123E+02  0.50528852004E+02  0.29999976151E+02 0.  0.
         12    1    1    2    0    0  0.26363638725E+02 -0.92846017283E+01 -0.29528309123E+02  0.40659147996E+02  0.00000000000E+00 0. -1.
         11    1    3    3    0    0  0.27150861244E+01  0.16446319267E+01 -0.35419675482E+01  0.47562633665E+01  0.51100000000E-03 0. -1.
        -11    1    3    3    0    0 -0.95164937154E+01  0.66665686664E+01  0.87471375479E+01  0.14543699872E+02  0.51100000000E-03 0.  1.
        -12    1    3    3    0    0 -0.19562231134E+02  0.97340113518E+00  0.24323139124E+02  0.31228888766E+02  0.00000000000E+00 0.  1.
</event>
<event>
 7    1  0.2639126E-011  0.5052886E+02  0.7816164E-02  0.1300439E+00
        -11   -1    0    0    0    0  0.00000000000E+00  0.00000000000E+00  0.45593999997E+02  0.45594000000E+02  0.51100000000E-03 0.  1.
         11   -1    0    0    0    0 -0.00000000000E+00 -0.00000000000E+00 -0.45593999997E+02  0.45594000000E+02  0.51100000000E-03 0. -1.
    9900012    2    1    2    0    0  0.19920183953E+02 -0.34542268073E+02  0.79487916401E+01  0.50528864484E+02  0.30000014086E+02 0.  0.
         12    1    1    2    0    0 -0.19920183953E+02  0.34542268073E+02 -0.79487916401E+01  0.40659135516E+02  0.00000000000E+00 0. -1.
         11    1    3    3    0    0  0.91965734483E+01 -0.29650698219E+01 -0.25084085919E+01  0.99830213945E+01  0.51100000000E-03 0. -1.
        -11    1    3    3    0    0 -0.43921698373E+01 -0.18961845352E+02  0.45220451359E+01  0.19982282840E+02  0.51100000000E-03 0.  1.
         12    1    3    3    0    0  0.15115780342E+02 -0.12615352900E+02  0.59351550962E+01  0.20563560250E+02  0.00000000000E+00 0. -1.
</event>
<event>
 7    1  0.2639126E-011  0.5052885E+02  0.7816164E-02  0.1300439E+00
        -11   -1    0    0    0    0  0.00000000000E+00  0.00000000000E+00  0.45593999997E+02  0.45594000000E+02  0.51100000000E-03 0.  1.
         11   -1    0    0    0    0 -0.00000000000E+00 -0.00000000000E+00 -0.45593999997E+02  0.45594000000E+02  0.51100000000E-03 0. -1.
    9900012    2    1    2    0    0 -0.97838588467E+01 -0.73199630569E+01  0.38779640318E+02  0.50528852736E+02  0.29999978375E+02 0.  0.
         12    1    1    2    0    0  0.97838588467E+01  0.73199630569E+01 -0.38779640318E+02  0.40659147264E+02  0.00000000000E+00 0. -1.
         11    1    3    3    0    0 -0.83539461657E+00 -0.28923220186E+01 -0.73012120632E+00  0.30978198885E+01  0.51100000000E-03 0. -1.
        -11    1    3    3    0    0 -0.13396341991E+02 -0.58831504888E+01  0.10408311429E+02  0.17955678363E+02  0.51100000000E-03 0.  1.
         12    1    3    3    0    0  0.44478777607E+01  0.14555094505E+01  0.29101450095E+02  0.29475354484E+02  0.00000000000E+00 0. -1.
</event>
<event>
 7    1  0.2639126E-011  0.5052886E+02  0.7816164E-02  0.1300439E+00
        -11   -1    0    0    0    0  0.00000000000E+00  0.00000000000E+00  0.45593999997E+02  0.45594000000E+02  0.51100000000E-03 0.  1.
         11   -1    0    0    0    0 -0.00000000000E+00 -0.00000000000E+00 -0.45593999997E+02  0.45594000000E+02  0.51100000000E-03 0. -1.
    9900012    2    1    2    0    0  0.59538187336E+00 -0.36268688773E+02  0.18368277449E+02  0.50528857347E+02  0.29999992391E+02 0.  0.
         12    1    1    2    0    0 -0.59538187336E+00  0.36268688773E+02 -0.18368277449E+02  0.40659142653E+02  0.00000000000E+00 0. -1.
         11    1    3    3    0    0 -0.28519229376E+01 -0.12863004942E+02  0.50863220740E+01  0.14123067411E+02  0.51100000000E-03 0. -1.
        -11    1    3    3    0    0  0.74645473808E+01 -0.26931417783E+02  0.84390813341E+01  0.29193129764E+02  0.51100000000E-03 0.  1.
         12    1    3    3    0    0 -0.40172425698E+01  0.35257339529E+01  0.48428740411E+01  0.72126601715E+01  0.00000000000E+00 0. -1.
</event>
<event>
 7    1  0.2639126E-011  0.5052885E+02  0.7816164E-02  0.1300439E+00
        -11   -1    0    0    0    0  0.00000000000E+00  0.00000000000E+00  0.45593999997E+02  0.45594000000E+02  0.51100000000E-03 0.  1.
         11   -1    0    0    0    0 -0.00000000000E+00 -0.00000000000E+00 -0.45593999997E+02  0.45594000000E+02  0.51100000000E-03 0. -1.
    9900012    2    1    2    0    0 -0.12108944374E+02 -0.10189433429E+02  0.37452838498E+02  0.50528853440E+02  0.29999980515E+02 0.  0.
         12    1    1    2    0    0  0.12108944374E+02  0.10189433429E+02 -0.37452838498E+02  0.40659146560E+02  0.00000000000E+00 0. -1.
         11    1    3    3    0    0  0.66324539811E-01 -0.98042669447E+01  0.15773078022E+02  0.18571969196E+02  0.51100000000E-03 0. -1.
        -11    1    3    3    0    0 -0.17339975980E+01 -0.75386272774E+01  0.16609320936E+02  0.18322314021E+02  0.51100000000E-03 0.  1.
         12    1    3    3    0    0 -0.10441271316E+02  0.71534607928E+01  0.50704395399E+01  0.13634570222E+02  0.00000000000E+00 0. -1.
</event>
<event>
 7    1  0.2639126E-011  0.5052886E+02  0.7816164E-02  0.1300439E+00
        -11   -1    0    0    0    0  0.00000000000E+00  0.00000000000E+00  0.45593999997E+02  0.45594000000E+02  0.51100000000E-03 0.  1.
         11   -1    0    0    0    0 -0.00000000000E+00 -0.00000000000E+00 -0.45593999997E+02  0.45594000000E+02  0.51100000000E-03 0. -1.
    9900012    2    1    2    0    0 -0.27700914966E+02 -0.19597034578E+02  0.22400467798E+02  0.50528863120E+02  0.30000009940E+02 0.  0.
         12    1    1    2    0    0  0.27700914966E+02  0.19597034578E+02 -0.22400467798E+02  0.40659136880E+02  0.00000000000E+00 0. -1.
         11    1    3    3    0    0  0.47242767247E+00  0.61635913817E+01  0.34377597633E+01  0.70732764033E+01  0.51100000000E-03 0. -1.
        -11    1    3    3    0    0 -0.28609896037E+01  0.70101973348E-01  0.21139193435E+01  0.35579251047E+01  0.51100000000E-03 0.  1.
        -12    1    3    3    0    0 -0.25312353035E+02 -0.25830727933E+02  0.16848788692E+02  0.39897661612E+02  0.00000000000E+00 0.  1.
</event>
<event>
 7    1  0.2639126E-011  0.5052887E+02  0.7816164E-02  0.1300439E+00
        -11   -1    0    0    0    0  0.00000000000E+00  0.00000000000E+00  0.45593999997E+02  0.45594000000E+02  0.51100000000E-03 0.  1.
         11   -1    0    0    0    0 -0.00000000000E+00 -0.00000000000E+00 -0.45593999997E+02  0.45594000000E+02  0.51100000000E-03 0. -1.
    9900012    2    1    2    0    0  0.23456054872E+01  0.42975814038E+01  0.40363274272E+02  0.50528868419E+02  0.30000026046E+02 0.  0.
         12    1    1    2    0    0 -0.23456054872E+01 -0.42975814038E+01 -0.40363274272E+02  0.40659131581E+02  0.00000000000E+00 0. -1.
         11    1    3    3    0    0  0.15139355783E+01 -0.47689434598E+01  0.20902164593E+01  0.54225296464E+01  0.51100000000E-03 0. -1.
        -11    1    3    3    0    0 -0.61606292072E+01  0.11619402815E+02  0.34154663302E+02  0.36599247254E+02  0.51100000000E-03 0.  1.
         12    1    3    3    0    0  0.69922991160E+01 -0.25528779515E+01  0.41183945103E+01  0.85070915186E+01  0.00000000000E+00 0. -1.
</event>
<event>
 7    1  0.2639126E-011  0.5052886E+02  0.7816164E-02  0.1300439E+00
        -11   -1    0    0    0    0  0.00000000000E+00  0.00000000000E+00  0.45593999997E+02  0.45594000000E+02  0.51100000000E-03 0. -1.
         11   -1    0    0    0    0 -0.00000000000E+00 -0.00000000000E+00 -0.45593999997E+02  0.45594000000E+02  0.51100000000E-03 0.  1.
    9900012    2    1    2    0    0 -0.12184469685E+02  0.23887750057E+02 -0.30562712358E+02  0.50528864606E+02  0.30000014456E+02 0.  0.
         12    1    1    2    0    0  0.12184469685E+02 -0.23887750057E+02  0.30562712358E+02  0.40659135394E+02  0.00000000000E+00 0. -1.
         11    1    3    3    0    0 -0.21739095741E+01 -0.12768422091E+01  0.15954190537E+01  0.29835500803E+01  0.51100000000E-03 0. -1.
        -11    1    3    3    0    0  0.12080191417E+01 -0.23488846250E+01  0.11757072451E+01  0.28911687975E+01  0.51100000000E-03 0.  1.
        -12    1    3    3    0    0 -0.11218579253E+02  0.27513476891E+02 -0.33333838657E+02  0.44654145728E+02  0.00000000000E+00 0.  1.
</event>
<event>
 7    1  0.2639126E-011  0.5052887E+02  0.7816164E-02  0.1300439E+00
        -11   -1    0    0    0    0  0.00000000000E+00  0.00000000000E+00  0.45593999997E+02  0.45594000000E+02  0.51100000000E-03 0.  1.
         11   -1    0    0    0    0 -0.00000000000E+00 -0.00000000000E+00 -0.45593999997E+02  0.45594000000E+02  0.51100000000E-03 0. -1.
    9900012    2    1    2    0    0  0.89352232582E+01  0.15649764861E+02  0.36447377407E+02  0.50528872185E+02  0.30000037493E+02 0.  0.
         12    1    1    2    0    0 -0.89352232582E+01 -0.15649764861E+02 -0.36447377407E+02  0.40659127815E+02  0.00000000000E+00 0. -1.
         11    1    3    3    0    0 -0.45510558690E+01 -0.68453129683E+00  0.42729709423E+01  0.62800456649E+01  0.51100000000E-03 0. -1.
        -11    1    3    3    0    0 -0.58072407571E+01  0.65164876554E+01  0.93723199570E+01  0.12807382176E+02  0.51100000000E-03 0.  1.
         12    1    3    3    0    0  0.19293519884E+02  0.98178085022E+01  0.22802086507E+02  0.31441444343E+02  0.00000000000E+00 0. -1.
</event>
<event>
 7    1  0.2639126E-011  0.5052882E+02  0.7816164E-02  0.1300439E+00
        -11   -1    0    0    0    0  0.00000000000E+00  0.00000000000E+00  0.45593999997E+02  0.45594000000E+02  0.51100000000E-03 0. -1.
         11   -1    0    0    0    0 -0.00000000000E+00 -0.00000000000E+00 -0.45593999997E+02  0.45594000000E+02  0.51100000000E-03 0.  1.
    9900012    2    1    2    0    0  0.43931458374E+01  0.22796910086E+02 -0.33379183645E+02  0.50528822184E+02  0.29999885512E+02 0.  0.
         12    1    1    2    0    0 -0.43931458374E+01 -0.22796910086E+02  0.33379183645E+02  0.40659177816E+02  0.00000000000E+00 0. -1.
         11    1    3    3    0    0  0.36913135163E+01  0.72097828975E+01 -0.13338418395E+02  0.15605132823E+02  0.51100000000E-03 0. -1.
        -11    1    3    3    0    0  0.47230108608E+01  0.21121809223E+02 -0.13837403494E+02  0.25688740571E+02  0.51100000000E-03 0.  1.
         12    1    3    3    0    0 -0.40211785396E+01 -0.55346820341E+01 -0.62033617563E+01  0.92349487895E+01  0.00000000000E+00 0. -1.
</event>
<event>
 7    1  0.2639126E-011  0.5052886E+02  0.7816164E-02  0.1300439E+00
        -11   -1    0    0    0    0  0.00000000000E+00  0.00000000000E+00  0.45593999997E+02  0.45594000000E+02  0.51100000000E-03 0. -1.
         11   -1    0    0    0    0 -0.00000000000E+00 -0.00000000000E+00 -0.45593999997E+02  0.45594000000E+02  0.51100000000E-03 0.  1.
    9900012    2    1    2    0    0  0.25511813169E+02 -0.19117925050E+02 -0.25235256821E+02  0.50528857655E+02  0.29999993329E+02 0.  0.
         12    1    1    2    0    0 -0.25511813169E+02  0.19117925050E+02  0.25235256821E+02  0.40659142345E+02  0.00000000000E+00 0. -1.
         11    1    3    3    0    0  0.16498168057E+01  0.34764013316E+01 -0.33176626122E+01  0.50807624605E+01  0.51100000000E-03 0. -1.
        -11    1    3    3    0    0  0.23578036530E+02 -0.99580243083E+01 -0.20375993265E+02  0.32714937820E+02  0.51100000000E-03 0.  1.
        -12    1    3    3    0    0  0.28395983374E+00 -0.12636302073E+02 -0.15416009431E+01  0.12733157375E+02  0.00000000000E+00 0.  1.
</event>
<event>
 7    1  0.2639126E-011  0.5052886E+02  0.7816164E-02  0.1300439E+00
        -11   -1    0    0    0    0  0.00000000000E+00  0.00000000000E+00  0.45593999997E+02  0.45594000000E+02  0.51100000000E-03 0.  1.
         11   -1    0    0    0    0 -0.00000000000E+00 -0.00000000000E+00 -0.45593999997E+02  0.45594000000E+02  0.51100000000E-03 0. -1.
    9900012    2    1    2    0    0  0.77973431475E+01 -0.35862654897E+02  0.17499636130E+02  0.50528857841E+02  0.29999993893E+02 0.  0.
         12    1    1    2    0    0 -0.77973431475E+01  0.35862654897E+02 -0.17499636130E+02  0.40659142159E+02  0.00000000000E+00 0. -1.
         11    1    3    3    0    0  0.77069445438E+01 -0.18787662756E+02  0.14602714956E+02  0.25012248007E+02  0.51100000000E-03 0.  1.
        -11    1    3    3    0    0  0.42659397568E+01 -0.18037469558E+02 -0.24150782780E+01  0.18691740246E+02  0.51100000000E-03 0. -1.
        -12    1    3    3    0    0 -0.41755411531E+01  0.96247741770E+00  0.53119994529E+01  0.68248695876E+01  0.00000000000E+00 0.  1.
</event>
<event>
 7    1  0.2639126E-011  0.5052884E+02  0.7816164E-02  0.1300439E+00
        -11   -1    0    0    0    0  0.00000000000E+00  0.00000000000E+00  0.45593999997E+02  0.45594000000E+02  0.51100000000E-03 0.  1.
         11   -1    0    0    0    0 -0.00000000000E+00 -0.00000000000E+00 -0.45593999997E+02  0.45594000000E+02  0.51100000000E-03 0. -1.
    9900012    2    1    2    0    0  0.29553967835E+02  0.12770597012E+02  0.24832274556E+02  0.50528843313E+02  0.29999949735E+02 0.  0.
         12    1    1    2    0    0 -0.29553967835E+02 -0.12770597012E+02 -0.24832274556E+02  0.40659156687E+02  0.00000000000E+00 0. -1.
         11    1    3    3    0    0 -0.32266816112E+01  0.11664987119E+01  0.77342499134E+01  0.84611355886E+01  0.51100000000E-03 0. -1.
        -11    1    3    3    0    0  0.78521211414E+00 -0.17744006500E+01  0.49583372047E+01  0.53244871891E+01  0.51100000000E-03 0.  1.
        -12    1    3    3    0    0  0.31995437332E+02  0.13378498950E+02  0.12139687438E+02  0.36743220536E+02  0.00000000000E+00 0.  1.
</event>
<event>
 7    1  0.2639126E-011  0.5052878E+02  0.7816164E-02  0.1300439E+00
        -11   -1    0    0    0    0  0.00000000000E+00  0.00000000000E+00  0.45593999997E+02  0.45594000000E+02  0.51100000000E-03 0. -1.
         11   -1    0    0    0    0 -0.00000000000E+00 -0.00000000000E+00 -0.45593999997E+02  0.45594000000E+02  0.51100000000E-03 0.  1.
    9900012    2    1    2    0    0  0.26095796792E+02  0.30571525617E+02  0.61288956151E+01  0.50528780256E+02  0.29999758064E+02 0.  0.
         12    1    1    2    0    0 -0.26095796792E+02 -0.30571525617E+02 -0.61288956151E+01  0.40659219744E+02  0.00000000000E+00 0. -1.
         11    1    3    3    0    0  0.27119014657E+01  0.39638349916E+01 -0.68591306101E+01  0.83734145000E+01  0.51100000000E-03 0. -1.
        -11    1    3    3    0    0  0.84317949767E+01  0.78799973230E+01 -0.46059185660E+01  0.12425941028E+02  0.51100000000E-03 0.  1.
         12    1    3    3    0    0  0.14952100350E+02  0.18727693302E+02  0.17593944791E+02  0.29729424727E+02  0.00000000000E+00 0. -1.
</event>
<event>
 7    1  0.2639126E-011  0.5052885E+02  0.7816164E-02  0.1300439E+00
        -11   -1    0    0    0    0  0.00000000000E+00  0.00000000000E+00  0.45593999997E+02  0.45594000000E+02  0.51100000000E-03 0.  1.
         11   -1    0    0    0    0 -0.00000000000E+00 -0.00000000000E+00 -0.45593999997E+02  0.45594000000E+02  0.51100000000E-03 0. -1.
    9900012    2    1    2    0    0 -0.32581841169E+01 -0.83128881804E+01  0.39666695520E+02  0.50528848421E+02  0.29999965261E+02 0.  0.
         12    1    1    2    0    0  0.32581841169E+01  0.83128881804E+01 -0.39666695520E+02  0.40659151579E+02  0.00000000000E+00 0. -1.
         11    1    3    3    0    0  0.33187049678E+01  0.27050678189E+01 -0.47480881308E+00  0.43077416634E+01  0.51100000000E-03 0. -1.
        -11    1    3    3    0    0  0.21818629689E+01 -0.16482735100E+01 -0.11626430458E+01  0.29713752189E+01  0.51100000000E-03 0.  1.
        -12    1    3    3    0    0 -0.87587520536E+01 -0.93696824894E+01  0.41304147379E+02  0.43249731539E+02  0.00000000000E+00 0.  1.
</event>
<event>
 7    1  0.2639126E-011  0.5052886E+02  0.7816164E-02  0.1300439E+00
        -11   -1    0    0    0    0  0.00000000000E+00  0.00000000000E+00  0.45593999997E+02  0.45594000000E+02  0.51100000000E-03 0.  1.
         11   -1    0    0    0    0 -0.00000000000E+00 -0.00000000000E+00 -0.45593999997E+02  0.45594000000E+02  0.51100000000E-03 0. -1.
    9900012    2    1    2    0    0  0.17359011136E+02  0.36725926370E+02  0.17425989340E+01  0.50528860974E+02  0.30000003415E+02 0.  0.
         12    1    1    2    0    0 -0.17359011136E+02 -0.36725926370E+02 -0.17425989340E+01  0.40659139026E+02  0.00000000000E+00 0. -1.
         11    1    3    3    0    0 -0.32575140587E+01  0.36317048526E+01 -0.54158646736E+01  0.72891884598E+01  0.51100000000E-03 0.  1.
        -11    1    3    3    0    0  0.19559187247E+01  0.50199271292E+01 -0.50524147100E+01  0.73859448348E+01  0.51100000000E-03 0. -1.
        -12    1    3    3    0    0  0.18660606470E+02  0.28074294388E+02  0.12210878318E+02  0.35853727679E+02  0.00000000000E+00 0.  1.
</event>
<event>
 7    1  0.2639126E-011  0.5052884E+02  0.7816164E-02  0.1300439E+00
        -11   -1    0    0    0    0  0.00000000000E+00  0.00000000000E+00  0.45593999997E+02  0.45594000000E+02  0.51100000000E-03 0.  1.
         11   -1    0    0    0    0 -0.00000000000E+00 -0.00000000000E+00 -0.45593999997E+02  0.45594000000E+02  0.51100000000E-03 0. -1.
    9900012    2    1    2    0    0 -0.14967657404E+02  0.13611549994E+02  0.35268427030E+02  0.50528843509E+02  0.29999950330E+02 0.  0.
         12    1    1    2    0    0  0.14967657404E+02 -0.13611549994E+02 -0.35268427030E+02  0.40659156491E+02  0.00000000000E+00 0. -1.
         11    1    3    3    0    0  0.87505982880E+00  0.11467682088E+01  0.15474778351E+01  0.21155365608E+01  0.51100000000E-03 0. -1.
        -11    1    3    3    0    0 -0.54575628949E+01  0.69197858476E+01  0.35436718182E+02  0.36516152928E+02  0.51100000000E-03 0.  1.
         12    1    3    3    0    0 -0.10385154337E+02  0.55449959375E+01 -0.17157689868E+01  0.11897154020E+02  0.00000000000E+00 0. -1.
</event>
<event>
 7    1  0.2639126E-011  0.5052887E+02  0.7816164E-02  0.1300439E+00
        -11   -1    0    0    0    0  0.00000000000E+00  0.00000000000E+00  0.45593999997E+02  0.45594000000E+02  0.51100000000E-03 0.  1.
         11   -1    0    0    0    0 -0.00000000000E+00 -0.00000000000E+00 -0.45593999997E+02  0.45594000000E+02  0.51100000000E-03 0. -1.
    9900012    2    1    2    0    0  0.33127100971E+01  0.20440098579E+02  0.34991332491E+02  0.50528867845E+02  0.30000024301E+02 0.  0.
         12    1    1    2    0    0 -0.33127100971E+01 -0.20440098579E+02 -0.34991332491E+02  0.40659132155E+02  0.00000000000E+00 0. -1.
         11    1    3    3    0    0 -0.32716588802E+01 -0.29285494939E+01  0.70302330896E+01  0.82888076055E+01  0.51100000000E-03 0. -1.
        -11    1    3    3    0    0 -0.25554154444E+01 -0.17630949934E+01 -0.54686344456E+00  0.31524136685E+01  0.51100000000E-03 0.  1.
        -12    1    3    3    0    0  0.91397844216E+01  0.25131743066E+02  0.28507962846E+02  0.39087646571E+02  0.00000000000E+00 0.  1.
</event>
<event>
 7    1  0.2639126E-011  0.5052883E+02  0.7816164E-02  0.1300439E+00
        -11   -1    0    0    0    0  0.00000000000E+00  0.00000000000E+00  0.45593999997E+02  0.45594000000E+02  0.51100000000E-03 0. -1.
         11   -1    0    0    0    0 -0.00000000000E+00 -0.00000000000E+00 -0.45593999997E+02  0.45594000000E+02  0.51100000000E-03 0.  1.
    9900012    2    1    2    0    0 -0.30346923076E+02 -0.15371171505E+02 -0.22270148701E+02  0.50528829119E+02  0.29999906589E+02 0.  0.
         12    1    1    2    0    0  0.30346923076E+02  0.15371171505E+02  0.22270148701E+02  0.40659170881E+02  0.00000000000E+00 0. -1.
         11    1    3    3    0    0 -0.19899197669E+02 -0.13515584246E+02 -0.15961707248E+02  0.28869104314E+02  0.51100000000E-03 0. -1.
        -11    1    3    3    0    0 -0.14249809403E+02 -0.35506321396E+01 -0.84867762488E+01  0.16961409964E+02  0.51100000000E-03 0.  1.
         12    1    3    3    0    0  0.38020839963E+01  0.16950448800E+01  0.21783347956E+01  0.46983148406E+01  0.00000000000E+00 0. -1.
</event>
<event>
 7    1  0.2639126E-011  0.5052888E+02  0.7816164E-02  0.1300439E+00
        -11   -1    0    0    0    0  0.00000000000E+00  0.00000000000E+00  0.45593999997E+02  0.45594000000E+02  0.51100000000E-03 0. -1.
         11   -1    0    0    0    0 -0.00000000000E+00 -0.00000000000E+00 -0.45593999997E+02  0.45594000000E+02  0.51100000000E-03 0.  1.
    9900012    2    1    2    0    0  0.19740879410E+02  0.33864613622E+01  0.35383526805E+02  0.50528875445E+02  0.30000047402E+02 0.  0.
         12    1    1    2    0    0 -0.19740879410E+02 -0.33864613622E+01 -0.35383526805E+02  0.40659124555E+02  0.00000000000E+00 0. -1.
         11    1    3    3    0    0  0.33213475935E+01 -0.35030149039E+01  0.75976740788E+01  0.90015062586E+01  0.51100000000E-03 0. -1.
        -11    1    3    3    0    0  0.12504788065E+02 -0.58249196485E+01  0.41514344053E+01  0.14406034199E+02  0.51100000000E-03 0.  1.
         12    1    3    3    0    0  0.39147437512E+01  0.12714395915E+02  0.23634418321E+02  0.27121334987E+02  0.00000000000E+00 0. -1.
</event>
<event>
 7    1  0.2639126E-011  0.5052885E+02  0.7816164E-02  0.1300439E+00
        -11   -1    0    0    0    0  0.00000000000E+00  0.00000000000E+00  0.45593999997E+02  0.45594000000E+02  0.51100000000E-03 0.  1.
         11   -1    0    0    0    0 -0.00000000000E+00 -0.00000000000E+00 -0.45593999997E+02  0.45594000000E+02  0.51100000000E-03 0. -1.
    9900012    2    1    2    0    0 -0.17438511616E+02 -0.14636638171E+02  0.33687288037E+02  0.50528852940E+02  0.29999978998E+02 0.  0.
         12    1    1    2    0    0  0.17438511616E+02  0.14636638171E+02 -0.33687288037E+02  0.40659147060E+02  0.00000000000E+00 0. -1.
         11    1    3    3    0    0 -0.62389451725E+00  0.26589320490E+01  0.76846918041E+01  0.81555902542E+01  0.51100000000E-03 0. -1.
        -11    1    3    3    0    0  0.15087219693E+01  0.14237410710E+01 -0.27714254707E+01  0.34618030012E+01  0.51100000000E-03 0.  1.
        -12    1    3    3    0    0 -0.18323339068E+02 -0.18719311291E+02  0.28774021703E+02  0.38911459685E+02  0.00000000000E+00 0.  1.
</event>
<event>
 7    1  0.2639126E-011  0.5052886E+02  0.7816164E-02  0.1300439E+00
        -11   -1    0    0    0    0  0.00000000000E+00  0.00000000000E+00  0.45593999997E+02  0.45594000000E+02  0.51100000000E-03 0.  1.
         11   -1    0    0    0    0 -0.00000000000E+00 -0.00000000000E+00 -0.45593999997E+02  0.45594000000E+02  0.51100000000E-03 0. -1.
    9900012    2    1    2    0    0 -0.20715161393E+02  0.99585556870E+01  0.33539149125E+02  0.50528864902E+02  0.30000015356E+02 0.  0.
         12    1    1    2    0    0  0.20715161393E+02 -0.99585556870E+01 -0.33539149125E+02  0.40659135098E+02  0.00000000000E+00 0. -1.
         11    1    3    3    0    0 -0.11845389899E+02 -0.15854934196E+01 -0.13978835584E+01  0.12032503062E+02  0.51100000000E-03 0. -1.
        -11    1    3    3    0    0 -0.78860107147E+01  0.69319673758E+01  0.17274275617E+02  0.20214893891E+02  0.51100000000E-03 0.  1.
        -12    1    3    3    0    0 -0.98376077912E+00  0.46120817307E+01  0.17662757066E+02  0.18281467948E+02  0.00000000000E+00 0.  1.
</event>
<event>
 7    1  0.2639126E-011  0.5052889E+02  0.7816164E-02  0.1300439E+00
        -11   -1    0    0    0    0  0.00000000000E+00  0.00000000000E+00  0.45593999997E+02  0.45594000000E+02  0.51100000000E-03 0. -1.
         11   -1    0    0    0    0 -0.00000000000E+00 -0.00000000000E+00 -0.45593999997E+02  0.45594000000E+02  0.51100000000E-03 0.  1.
    9900012    2    1    2    0    0 -0.20679769937E+02  0.77414169874E+01 -0.34140606449E+02  0.50528887487E+02  0.30000084005E+02 0.  0.
         12    1    1    2    0    0  0.20679769937E+02 -0.77414169874E+01  0.34140606449E+02  0.40659112513E+02  0.00000000000E+00 0. -1.
         11    1    3    3    0    0 -0.53117985586E+01  0.44099276086E+01 -0.31812465438E+01  0.76015126964E+01  0.51100000000E-03 0. -1.
        -11    1    3    3    0    0  0.12361355797E+01  0.70281394778E+00  0.39407700485E+01  0.41894686361E+01  0.51100000000E-03 0.  1.
        -12    1    3    3    0    0 -0.16604106958E+02  0.26286754311E+01 -0.34900129954E+02  0.38737906154E+02  0.00000000000E+00 0.  1.
</event>
<event>
 7    1  0.2639126E-011  0.5052886E+02  0.7816164E-02  0.1300439E+00
        -11   -1    0    0    0    0  0.00000000000E+00  0.00000000000E+00  0.45593999997E+02  0.45594000000E+02  0.51100000000E-03 0. -1.
         11   -1    0    0    0    0 -0.00000000000E+00 -0.00000000000E+00 -0.45593999997E+02  0.45594000000E+02  0.51100000000E-03 0.  1.
    9900012    2    1    2    0    0 -0.25741072308E+02 -0.31369696364E+02  0.25504225216E+01  0.50528864389E+02  0.30000013798E+02 0.  0.
         12    1    1    2    0    0  0.25741072308E+02  0.31369696364E+02 -0.25504225216E+01  0.40659135611E+02  0.00000000000E+00 0. -1.
         11    1    3    3    0    0 -0.13520957844E+02 -0.20097589741E+00 -0.18017770682E+01  0.13641960753E+02  0.51100000000E-03 0. -1.
        -11    1    3    3    0    0 -0.26042357303E+01  0.11814713592E+01  0.67336922156E+00  0.29379150228E+01  0.51100000000E-03 0.  1.
        -12    1    3    3    0    0 -0.96158787342E+01 -0.32350191826E+02  0.36788303682E+01  0.33948988613E+02  0.00000000000E+00 0.  1.
</event>
<event>
 7    1  0.2639126E-011  0.5052885E+02  0.7816164E-02  0.1300439E+00
        -11   -1    0    0    0    0  0.00000000000E+00  0.00000000000E+00  0.45593999997E+02  0.45594000000E+02  0.51100000000E-03 0.  1.
         11   -1    0    0    0    0 -0.00000000000E+00 -0.00000000000E+00 -0.45593999997E+02  0.45594000000E+02  0.51100000000E-03 0. -1.
    9900012    2    1    2    0    0 -0.17520305901E+02  0.27738983093E+01  0.36585662481E+02  0.50528851830E+02  0.29999975624E+02 0.  0.
         12    1    1    2    0    0  0.17520305901E+02 -0.27738983093E+01 -0.36585662481E+02  0.40659148170E+02  0.00000000000E+00 0. -1.
         11    1    3    3    0    0 -0.13197241424E+02 -0.98142642206E+01  0.15424000588E+02  0.22547433508E+02  0.51100000000E-03 0. -1.
        -11    1    3    3    0    0 -0.24520888882E+01 -0.17950623653E+01  0.73478168473E+01  0.79514402150E+01  0.51100000000E-03 0.  1.
        -12    1    3    3    0    0 -0.18709755889E+01  0.14383224895E+02  0.13813845046E+02  0.20029978108E+02  0.00000000000E+00 0.  1.
</event>
<event>
 7    1  0.2639126E-011  0.5052887E+02  0.7816164E-02  0.1300439E+00
        -11   -1    0    0    0    0  0.00000000000E+00  0.00000000000E+00  0.45593999997E+02  0.45594000000E+02  0.51100000000E-03 0.  1.
         11   -1    0    0    0    0 -0.00000000000E+00 -0.00000000000E+00 -0.45593999997E+02  0.45594000000E+02  0.51100000000E-03 0. -1.
    9900012    2    1    2    0    0 -0.22317299838E+02  0.18006801195E+02  0.28824602223E+02  0.50528874890E+02  0.30000045716E+02 0.  0.
         12    1    1    2    0    0  0.22317299838E+02 -0.18006801195E+02 -0.28824602223E+02  0.40659125110E+02  0.00000000000E+00 0. -1.
         11    1    3    3    0    0 -0.88742207704E+01  0.13329115839E+02  0.20450608955E+02  0.25973920194E+02  0.51100000000E-03 0. -1.
        -11    1    3    3    0    0 -0.70192957133E+01  0.99881568953E+01  0.10332194474E+02  0.15993374672E+02  0.51100000000E-03 0.  1.
         12    1    3    3    0    0 -0.64237833546E+01 -0.53104715393E+01 -0.19582012059E+01  0.85615800248E+01  0.00000000000E+00 0. -1.
</event>
<event>
 7    1  0.2639126E-011  0.5052886E+02  0.7816164E-02  0.1300439E+00
        -11   -1    0    0    0    0  0.00000000000E+00  0.00000000000E+00  0.45593999997E+02  0.45594000000E+02  0.51100000000E-03 0. -1.
         11   -1    0    0    0    0 -0.00000000000E+00 -0.00000000000E+00 -0.45593999997E+02  0.45594000000E+02  0.51100000000E-03 0.  1.
    9900012    2    1    2    0    0 -0.35371371408E+02 -0.77120791422E+01 -0.18508251763E+02  0.50528862487E+02  0.30000008016E+02 0.  0.
         12    1    1    2    0    0  0.35371371408E+02  0.77120791422E+01  0.18508251763E+02  0.40659137513E+02  0.00000000000E+00 0. -1.
         11    1    3    3    0    0 -0.23156960131E+02 -0.11916064699E+02 -0.11917874586E+02  0.28640410879E+02  0.51100000000E-03 0. -1.
        -11    1    3    3    0    0 -0.43078127857E+01  0.45243622056E+01 -0.11131669111E+02  0.12764840846E+02  0.51100000000E-03 0.  1.
         12    1    3    3    0    0 -0.79065984913E+01 -0.32037664901E+00  0.45412919350E+01  0.91236107621E+01  0.00000000000E+00 0. -1.
</event>
<event>
 7    1  0.2639126E-011  0.5052886E+02  0.7816164E-02  0.1300439E+00
        -11   -1    0    0    0    0  0.00000000000E+00  0.00000000000E+00  0.45593999997E+02  0.45594000000E+02  0.51100000000E-03 0.  1.
         11   -1    0    0    0    0 -0.00000000000E+00 -0.00000000000E+00 -0.45593999997E+02  0.45594000000E+02  0.51100000000E-03 0. -1.
    9900012    2    1    2    0    0 -0.88727009792E+01 -0.39528602559E+02  0.34540072238E+01  0.50528863157E+02  0.30000010053E+02 0.  0.
         12    1    1    2    0    0  0.88727009792E+01  0.39528602559E+02 -0.34540072238E+01  0.40659136843E+02  0.00000000000E+00 0. -1.
         11    1    3    3    0    0  0.11649995410E+01 -0.12965782610E+02  0.61991045827E+01  0.14418655988E+02  0.51100000000E-03 0. -1.
        -11    1    3    3    0    0 -0.24896401740E+01 -0.19582601912E+01  0.77069421735E+01  0.83324695679E+01  0.51100000000E-03 0.  1.
         12    1    3    3    0    0 -0.75480603461E+01 -0.24604559757E+02 -0.10452039532E+02  0.27777737601E+02  0.00000000000E+00 0. -1.
</event>
<event>
 7    1  0.2639126E-011  0.5052886E+02  0.7816164E-02  0.1300439E+00
        -11   -1    0    0    0    0  0.00000000000E+00  0.00000000000E+00  0.45593999997E+02  0.45594000000E+02  0.51100000000E-03 0.  1.
         11   -1    0    0    0    0 -0.00000000000E+00 -0.00000000000E+00 -0.45593999997E+02  0.45594000000E+02  0.51100000000E-03 0. -1.
    9900012    2    1    2    0    0 -0.10478855271E+02  0.33488704851E+02  0.20539378651E+02  0.50528857907E+02  0.29999994093E+02 0.  0.
         12    1    1    2    0    0  0.10478855271E+02 -0.33488704851E+02 -0.20539378651E+02  0.40659142093E+02  0.00000000000E+00 0. -1.
         11    1    3    3    0    0 -0.22493244915E+01  0.12412876510E+02  0.13453082439E+02  0.18442461638E+02  0.51100000000E-03 0. -1.
        -11    1    3    3    0    0 -0.25956643875E+01  0.10971941173E+02  0.14483872197E+02  0.18354931784E+02  0.51100000000E-03 0.  1.
         12    1    3    3    0    0 -0.56338663917E+01  0.10103887169E+02 -0.73975759849E+01  0.13731464484E+02  0.00000000000E+00 0. -1.
</event>
<event>
 7    1  0.2639126E-011  0.5052885E+02  0.7816164E-02  0.1300439E+00
        -11   -1    0    0    0    0  0.00000000000E+00  0.00000000000E+00  0.45593999997E+02  0.45594000000E+02  0.51100000000E-03 0.  1.
         11   -1    0    0    0    0 -0.00000000000E+00 -0.00000000000E+00 -0.45593999997E+02  0.45594000000E+02  0.51100000000E-03 0. -1.
    9900012    2    1    2    0    0  0.24935064711E+02 -0.23045355614E+02  0.22367840520E+02  0.50528853956E+02  0.29999982085E+02 0.  0.
         12    1    1    2    0    0 -0.24935064711E+02  0.23045355614E+02 -0.22367840520E+02  0.40659146044E+02  0.00000000000E+00 0. -1.
         11    1    3    3    0    0  0.82908656846E+01 -0.10449913085E+02 -0.51909396964E+01  0.14313804263E+02  0.51100000000E-03 0. -1.
        -11    1    3    3    0    0  0.20607480115E+00 -0.35956721754E+01  0.10511998980E+01  0.37518457729E+01  0.51100000000E-03 0.  1.
        -12    1    3    3    0    0  0.16438124225E+02 -0.89997703535E+01  0.26507580318E+02  0.32463203920E+02  0.00000000000E+00 0.  1.
</event>
<event>
 7    1  0.2639126E-011  0.5052888E+02  0.7816164E-02  0.1300439E+00
        -11   -1    0    0    0    0  0.00000000000E+00  0.00000000000E+00  0.45593999997E+02  0.45594000000E+02  0.51100000000E-03 0. -1.
         11   -1    0    0    0    0 -0.00000000000E+00 -0.00000000000E+00 -0.45593999997E+02  0.45594000000E+02  0.51100000000E-03 0.  1.
    9900012    2    1    2    0    0 -0.35129760353E+02  0.78495726607E+01  0.18906293356E+02  0.50528883164E+02  0.30000070865E+02 0.  0.
         12    1    1    2    0    0  0.35129760353E+02 -0.78495726607E+01 -0.18906293356E+02  0.40659116836E+02  0.00000000000E+00 0. -1.
         11    1    3    3    0    0 -0.59513813150E+01 -0.12492864816E+01 -0.99414026737E+00  0.61618155930E+01  0.51100000000E-03 0. -1.
        -11    1    3    3    0    0 -0.15032029302E+02 -0.60789466276E+01  0.91000071473E+00  0.16240184685E+02  0.51100000000E-03 0.  1.
         12    1    3    3    0    0 -0.14146349736E+02  0.15177805770E+02  0.18990432908E+02  0.28126882886E+02  0.00000000000E+00 0. -1.
</event>
<event>
 7    1  0.2639126E-011  0.5052886E+02  0.7816164E-02  0.1300439E+00
        -11   -1    0    0    0    0  0.00000000000E+00  0.00000000000E+00  0.45593999997E+02  0.45594000000E+02  0.51100000000E-03 0.  1.
         11   -1    0    0    0    0 -0.00000000000E+00 -0.00000000000E+00 -0.45593999997E+02  0.45594000000E+02  0.51100000000E-03 0. -1.
    9900012    2    1    2    0    0  0.81888336612E+01 -0.39639689183E+02  0.38475985741E+01  0.50528856255E+02  0.29999989072E+02 0.  0.
         12    1    1    2    0    0 -0.81888336612E+01  0.39639689183E+02 -0.38475985741E+01  0.40659143745E+02  0.00000000000E+00 0. -1.
         11    1    3    3    0    0  0.74429110940E+00 -0.14563674206E+02 -0.87297983988E+01  0.16995998234E+02  0.51100000000E-03 0. -1.
        -11    1    3    3    0    0  0.50162757519E-01 -0.19610477543E+01 -0.37851085891E+01  0.42632466372E+01  0.51100000000E-03 0.  1.
        -12    1    3    3    0    0  0.73943797943E+01 -0.23114967223E+02  0.16362505562E+02  0.29269611384E+02  0.00000000000E+00 0.  1.
</event>
<event>
 7    1  0.2639126E-011  0.5052882E+02  0.7816164E-02  0.1300439E+00
        -11   -1    0    0    0    0  0.00000000000E+00  0.00000000000E+00  0.45593999997E+02  0.45594000000E+02  0.51100000000E-03 0.  1.
         11   -1    0    0    0    0 -0.00000000000E+00 -0.00000000000E+00 -0.45593999997E+02  0.45594000000E+02  0.51100000000E-03 0. -1.
    9900012    2    1    2    0    0 -0.31785282242E+02  0.15395415557E+02 -0.20145613775E+02  0.50528822171E+02  0.29999885471E+02 0.  0.
         12    1    1    2    0    0  0.31785282242E+02 -0.15395415557E+02  0.20145613775E+02  0.40659177829E+02  0.00000000000E+00 0. -1.
         11    1    3    3    0    0 -0.10351886873E+01  0.79852280920E+00  0.12357144840E+01  0.17989565982E+01  0.51100000000E-03 0. -1.
        -11    1    3    3    0    0 -0.20810476577E+02  0.14915394970E+02 -0.50806611055E+00  0.25608652326E+02  0.51100000000E-03 0.  1.
         12    1    3    3    0    0 -0.99396169769E+01 -0.31850222257E+00 -0.20873262148E+02  0.23121213247E+02  0.00000000000E+00 0. -1.
</event>
<event>
 7    1  0.2639126E-011  0.5052886E+02  0.7816164E-02  0.1300439E+00
        -11   -1    0    0    0    0  0.00000000000E+00  0.00000000000E+00  0.45593999997E+02  0.45594000000E+02  0.51100000000E-03 0.  1.
         11   -1    0    0    0    0 -0.00000000000E+00 -0.00000000000E+00 -0.45593999997E+02  0.45594000000E+02  0.51100000000E-03 0. -1.
    9900012    2    1    2    0    0 -0.20756389306E+02  0.32515227593E+02  0.12849039935E+02  0.50528861425E+02  0.30000004787E+02 0.  0.
         12    1    1    2    0    0  0.20756389306E+02 -0.32515227593E+02 -0.12849039935E+02  0.40659138575E+02  0.00000000000E+00 0. -1.
         11    1    3    3    0    0  0.54220623452E+01  0.82738875402E+01  0.70555545984E+01  0.12150589535E+02  0.51100000000E-03 0. -1.
        -11    1    3    3    0    0 -0.89748795276E+01  0.29034457457E+01  0.55968609966E+01  0.10968286694E+02  0.51100000000E-03 0.  1.
        -12    1    3    3    0    0 -0.17203572124E+02  0.21337894307E+02  0.19662433981E+00  0.27409985195E+02  0.00000000000E+00 0.  1.
</event>
<event>
 7    1  0.2639126E-011  0.5052886E+02  0.7816164E-02  0.1300439E+00
        -11   -1    0    0    0    0  0.00000000000E+00  0.00000000000E+00  0.45593999997E+02  0.45594000000E+02  0.51100000000E-03 0.  1.
         11   -1    0    0    0    0 -0.00000000000E+00 -0.00000000000E+00 -0.45593999997E+02  0.45594000000E+02  0.51100000000E-03 0. -1.
    9900012    2    1    2    0    0  0.32043406835E+02  0.12986442103E+01  0.24993986240E+02  0.50528859004E+02  0.29999997428E+02 0.  0.
         12    1    1    2    0    0 -0.32043406835E+02 -0.12986442103E+01 -0.24993986240E+02  0.40659140996E+02  0.00000000000E+00 0. -1.
         11    1    3    3    0    0  0.43404629134E+01  0.83033926925E+01  0.11922234506E+02  0.15163298598E+02  0.51100000000E-03 0. -1.
        -11    1    3    3    0    0  0.17190901234E+02 -0.14959241017E+01  0.15564805722E+02  0.23238503644E+02  0.51100000000E-03 0.  1.
         12    1    3    3    0    0  0.10512042687E+02 -0.55088243806E+01 -0.24930539882E+01  0.12127056762E+02  0.00000000000E+00 0. -1.
</event>
<event>
 7    1  0.2639126E-011  0.5052886E+02  0.7816164E-02  0.1300439E+00
        -11   -1    0    0    0    0  0.00000000000E+00  0.00000000000E+00  0.45593999997E+02  0.45594000000E+02  0.51100000000E-03 0.  1.
         11   -1    0    0    0    0 -0.00000000000E+00 -0.00000000000E+00 -0.45593999997E+02  0.45594000000E+02  0.51100000000E-03 0. -1.
    9900012    2    1    2    0    0 -0.52462770194E+01 -0.29795795254E+02  0.27163449630E+02  0.50528857939E+02  0.29999994191E+02 0.  0.
         12    1    1    2    0    0  0.52462770194E+01  0.29795795254E+02 -0.27163449630E+02  0.40659142061E+02  0.00000000000E+00 0. -1.
         11    1    3    3    0    0 -0.90056788880E+01 -0.21141101079E+02  0.17346023747E+02  0.28791195654E+02  0.51100000000E-03 0. -1.
        -11    1    3    3    0    0 -0.39854747719E+01  0.50617373601E+00  0.88300983648E+01  0.97010751158E+01  0.51100000000E-03 0.  1.
         12    1    3    3    0    0  0.77448766406E+01 -0.91608679101E+01  0.98732751778E+00  0.12036587169E+02  0.00000000000E+00 0. -1.
</event>
<event>
 7    1  0.2639126E-011  0.5052886E+02  0.7816164E-02  0.1300439E+00
        -11   -1    0    0    0    0  0.00000000000E+00  0.00000000000E+00  0.45593999997E+02  0.45594000000E+02  0.51100000000E-03 0.  1.
         11   -1    0    0    0    0 -0.00000000000E+00 -0.00000000000E+00 -0.45593999997E+02  0.45594000000E+02  0.51100000000E-03 0. -1.
    9900012    2    1    2    0    0  0.25745274451E+02  0.27386068642E+02  0.15503224313E+02  0.50528857408E+02  0.29999992577E+02 0.  0.
         12    1    1    2    0    0 -0.25745274451E+02 -0.27386068642E+02 -0.15503224313E+02  0.40659142592E+02  0.00000000000E+00 0. -1.
         11    1    3    3    0    0  0.39083291098E+01 -0.45888819451E+01  0.16691678978E+01  0.62545180205E+01  0.51100000000E-03 0. -1.
        -11    1    3    3    0    0  0.15670890053E+02  0.16419996360E+02  0.15460349801E+02  0.27462984028E+02  0.51100000000E-03 0.  1.
        -12    1    3    3    0    0  0.61660552883E+01  0.15554954228E+02 -0.16262933857E+01  0.16811355359E+02  0.00000000000E+00 0.  1.
</event>
<event>
 7    1  0.2639126E-011  0.5052888E+02  0.7816164E-02  0.1300439E+00
        -11   -1    0    0    0    0  0.00000000000E+00  0.00000000000E+00  0.45593999997E+02  0.45594000000E+02  0.51100000000E-03 0. -1.
         11   -1    0    0    0    0 -0.00000000000E+00 -0.00000000000E+00 -0.45593999997E+02  0.45594000000E+02  0.51100000000E-03 0.  1.
    9900012    2    1    2    0    0 -0.32025774118E+02  0.54835583166E+00 -0.25044216185E+02  0.50528884586E+02  0.30000075187E+02 0.  0.
         12    1    1    2    0    0  0.32025774118E+02 -0.54835583166E+00  0.25044216185E+02  0.40659115414E+02  0.00000000000E+00 0. -1.
         11    1    3    3    0    0  0.25463768088E+01  0.24150584125E+01 -0.62267962009E+01  0.71476942560E+01  0.51100000000E-03 0. -1.
        -11    1    3    3    0    0 -0.86421375090E+01 -0.82262482705E+01 -0.28316061982E+01  0.12262776817E+02  0.51100000000E-03 0.  1.
        -12    1    3    3    0    0 -0.25930013417E+02  0.63595456896E+01 -0.15985813786E+02  0.31118413513E+02  0.00000000000E+00 0.  1.
</event>
<event>
 7    1  0.2639126E-011  0.5052886E+02  0.7816164E-02  0.1300439E+00
        -11   -1    0    0    0    0  0.00000000000E+00  0.00000000000E+00  0.45593999997E+02  0.45594000000E+02  0.51100000000E-03 0.  1.
         11   -1    0    0    0    0 -0.00000000000E+00 -0.00000000000E+00 -0.45593999997E+02  0.45594000000E+02  0.51100000000E-03 0. -1.
    9900012    2    1    2    0    0 -0.37778456794E+02 -0.12709855503E+01  0.14977940669E+02  0.50528857010E+02  0.29999991369E+02 0.  0.
         12    1    1    2    0    0  0.37778456794E+02  0.12709855503E+01 -0.14977940669E+02  0.40659142990E+02  0.00000000000E+00 0. -1.
         11    1    3    3    0    0  0.23916129452E+01 -0.77790671016E+00  0.58293290548E+01  0.63487029242E+01  0.51100000000E-03 0. -1.
        -11    1    3    3    0    0 -0.15177742060E+01  0.40255857533E+01  0.11090530211E+01  0.44428569708E+01  0.51100000000E-03 0.  1.
         12    1    3    3    0    0 -0.38652295533E+02 -0.45186645935E+01  0.80395585926E+01  0.39737297115E+02  0.00000000000E+00 0. -1.
</event>
<event>
 7    1  0.2639126E-011  0.5052889E+02  0.7816164E-02  0.1300439E+00
        -11   -1    0    0    0    0  0.00000000000E+00  0.00000000000E+00  0.45593999997E+02  0.45594000000E+02  0.51100000000E-03 0.  1.
         11   -1    0    0    0    0 -0.00000000000E+00 -0.00000000000E+00 -0.45593999997E+02  0.45594000000E+02  0.51100000000E-03 0. -1.
    9900012    2    1    2    0    0  0.25990694944E+02  0.31208353879E+02  0.19198109070E+01  0.50528889712E+02  0.30000090767E+02 0.  0.
         12    1    1    2    0    0 -0.25990694944E+02 -0.31208353879E+02 -0.19198109070E+01  0.40659110288E+02  0.00000000000E+00 0. -1.
         11    1    3    3    0    0  0.20369142665E+02  0.31126073285E+02 -0.61667804558E+01  0.37706280545E+02  0.51100000000E-03 0. -1.
        -11    1    3    3    0    0 -0.67163027987E+00  0.26745292131E+01  0.84398683638E+00  0.28838356031E+01  0.51100000000E-03 0.  1.
         12    1    3    3    0    0  0.62931825590E+01 -0.25922486192E+01  0.72426045264E+01  0.99387735637E+01  0.00000000000E+00 0. -1.
</event>
<event>
 7    1  0.2639126E-011  0.5052885E+02  0.7816164E-02  0.1300439E+00
        -11   -1    0    0    0    0  0.00000000000E+00  0.00000000000E+00  0.45593999997E+02  0.45594000000E+02  0.51100000000E-03 0. -1.
         11   -1    0    0    0    0 -0.00000000000E+00 -0.00000000000E+00 -0.45593999997E+02  0.45594000000E+02  0.51100000000E-03 0.  1.
    9900012    2    1    2    0    0  0.73403696015E+01 -0.25629002344E+02 -0.30699181812E+02  0.50528849112E+02  0.29999967360E+02 0.  0.
         12    1    1    2    0    0 -0.73403696015E+01  0.25629002344E+02  0.30699181812E+02  0.40659150888E+02  0.00000000000E+00 0. -1.
         11    1    3    3    0    0  0.15625149135E+02 -0.86215375025E+01 -0.98420814025E+01  0.20379959789E+02  0.51100000000E-03 0. -1.
        -11    1    3    3    0    0  0.12296577806E+01 -0.53509872085E+01 -0.10603951822E+02  0.11941060123E+02  0.51100000000E-03 0.  1.
        -12    1    3    3    0    0 -0.95144373140E+01 -0.11656477633E+02 -0.10253148587E+02  0.18207829200E+02  0.00000000000E+00 0.  1.
</event>
<event>
 7    1  0.2639126E-011  0.5052887E+02  0.7816164E-02  0.1300439E+00
        -11   -1    0    0    0    0  0.00000000000E+00  0.00000000000E+00  0.45593999997E+02  0.45594000000E+02  0.51100000000E-03 0. -1.
         11   -1    0    0    0    0 -0.00000000000E+00 -0.00000000000E+00 -0.45593999997E+02  0.45594000000E+02  0.51100000000E-03 0.  1.
    9900012    2    1    2    0    0  0.31415797382E+02  0.25298971836E+02  0.51161384038E+01  0.50528866053E+02  0.30000018856E+02 0.  0.
         12    1    1    2    0    0 -0.31415797382E+02 -0.25298971836E+02 -0.51161384038E+01  0.40659133947E+02  0.00000000000E+00 0. -1.
         11    1    3    3    0    0  0.12105026519E+01 -0.18727794069E+01  0.12745397943E+01  0.25684764600E+01  0.51100000000E-03 0. -1.
        -11    1    3    3    0    0  0.15484354541E+02  0.19631240597E+01 -0.66146891839E+01  0.16952085561E+02  0.51100000000E-03 0.  1.
         12    1    3    3    0    0  0.14720940190E+02  0.25208627183E+02  0.10456287793E+02  0.31008304032E+02  0.00000000000E+00 0. -1.
</event>
<event>
 7    1  0.2639126E-011  0.5052887E+02  0.7816164E-02  0.1300439E+00
        -11   -1    0    0    0    0  0.00000000000E+00  0.00000000000E+00  0.45593999997E+02  0.45594000000E+02  0.51100000000E-03 0.  1.
         11   -1    0    0    0    0 -0.00000000000E+00 -0.00000000000E+00 -0.45593999997E+02  0.45594000000E+02  0.51100000000E-03 0. -1.
    9900012    2    1    2    0    0 -0.10876898190E+02  0.23942186985E+02  0.31010152783E+02  0.50528870552E+02  0.30000032529E+02 0.  0.
         12    1    1    2    0    0  0.10876898190E+02 -0.23942186985E+02 -0.31010152783E+02  0.40659129448E+02  0.00000000000E+00 0. -1.
         11    1    3    3    0    0 -0.47373892163E+01  0.10544708779E+02  0.69401702005E+00  0.11580820338E+02  0.51100000000E-03 0. -1.
        -11    1    3    3    0    0 -0.10178625387E+02  0.10243038887E+02  0.89795519030E+01  0.17004605642E+02  0.51100000000E-03 0.  1.
         12    1    3    3    0    0  0.40391164134E+01  0.31544393192E+01  0.21336583860E+02  0.21943444571E+02  0.00000000000E+00 0. -1.
</event>
<event>
 7    1  0.2639126E-011  0.5052885E+02  0.7816164E-02  0.1300439E+00
        -11   -1    0    0    0    0  0.00000000000E+00  0.00000000000E+00  0.45593999997E+02  0.45594000000E+02  0.51100000000E-03 0. -1.
         11   -1    0    0    0    0 -0.00000000000E+00 -0.00000000000E+00 -0.45593999997E+02  0.45594000000E+02  0.51100000000E-03 0.  1.
    9900012    2    1    2    0    0  0.15289787626E+02 -0.37381411700E+02 -0.46923982492E+01  0.50528854072E+02  0.29999982436E+02 0.  0.
         12    1    1    2    0    0 -0.15289787626E+02  0.37381411700E+02  0.46923982492E+01  0.40659145928E+02  0.00000000000E+00 0. -1.
         11    1    3    3    0    0  0.21615680424E+00 -0.14221725519E+02 -0.76090637298E+00  0.14243706655E+02  0.51100000000E-03 0. -1.
        -11    1    3    3    0    0 -0.27851925501E+01 -0.13703649148E+02  0.40496068697E+01  0.14558386366E+02  0.51100000000E-03 0.  1.
        -12    1    3    3    0    0  0.17858823371E+02 -0.94560370328E+01 -0.79810987459E+01  0.21726761051E+02  0.00000000000E+00 0.  1.
</event>
<event>
 7    1  0.2639126E-011  0.5052886E+02  0.7816164E-02  0.1300439E+00
        -11   -1    0    0    0    0  0.00000000000E+00  0.00000000000E+00  0.45593999997E+02  0.45594000000E+02  0.51100000000E-03 0.  1.
         11   -1    0    0    0    0 -0.00000000000E+00 -0.00000000000E+00 -0.45593999997E+02  0.45594000000E+02  0.51100000000E-03 0. -1.
    9900012    2    1    2    0    0 -0.28583769090E+02 -0.14077652142E+02  0.25257744380E+02  0.50528858390E+02  0.29999995564E+02 0.  0.
         12    1    1    2    0    0  0.28583769090E+02  0.14077652142E+02 -0.25257744380E+02  0.40659141610E+02  0.00000000000E+00 0. -1.
         11    1    3    3    0    0 -0.63421545392E+01 -0.45605124414E+01  0.99527202771E+01  0.12652187127E+02  0.51100000000E-03 0. -1.
        -11    1    3    3    0    0 -0.77729462103E+01 -0.13318909441E+02  0.16844987160E+02  0.22837811502E+02  0.51100000000E-03 0.  1.
         12    1    3    3    0    0 -0.14468668341E+02  0.38017697401E+01 -0.15399630572E+01  0.15038859762E+02  0.00000000000E+00 0. -1.
</event>
<event>
 7    1  0.2639126E-011  0.5052886E+02  0.7816164E-02  0.1300439E+00
        -11   -1    0    0    0    0  0.00000000000E+00  0.00000000000E+00  0.45593999997E+02  0.45594000000E+02  0.51100000000E-03 0.  1.
         11   -1    0    0    0    0 -0.00000000000E+00 -0.00000000000E+00 -0.45593999997E+02  0.45594000000E+02  0.51100000000E-03 0. -1.
    9900012    2    1    2    0    0  0.16833916873E+02 -0.22404722341E+02  0.29458672571E+02  0.50528859206E+02  0.29999998042E+02 0.  0.
         12    1    1    2    0    0 -0.16833916873E+02  0.22404722341E+02 -0.29458672571E+02  0.40659140794E+02  0.00000000000E+00 0. -1.
         11    1    3    3    0    0  0.92138267227E+01  0.30357319920E+00  0.14731203113E+02  0.17378006358E+02  0.51100000000E-03 0. -1.
        -11    1    3    3    0    0  0.96081322130E+01 -0.97538229594E+01  0.14639872590E+02  0.20044429068E+02  0.51100000000E-03 0.  1.
        -12    1    3    3    0    0 -0.19880420624E+01 -0.12954472580E+02  0.87596868212E-01  0.13106423780E+02  0.00000000000E+00 0.  1.
</event>
<event>
 7    1  0.2639126E-011  0.5052887E+02  0.7816164E-02  0.1300439E+00
        -11   -1    0    0    0    0  0.00000000000E+00  0.00000000000E+00  0.45593999997E+02  0.45594000000E+02  0.51100000000E-03 0.  1.
         11   -1    0    0    0    0 -0.00000000000E+00 -0.00000000000E+00 -0.45593999997E+02  0.45594000000E+02  0.51100000000E-03 0. -1.
    9900012    2    1    2    0    0  0.36291571117E+02 -0.84366331523E+01  0.16276051546E+02  0.50528871049E+02  0.30000034041E+02 0.  0.
         12    1    1    2    0    0 -0.36291571117E+02  0.84366331523E+01 -0.16276051546E+02  0.40659128951E+02  0.00000000000E+00 0. -1.
         11    1    3    3    0    0  0.15615120981E+02 -0.44631943594E+01  0.16926064660E+02  0.23457275466E+02  0.51100000000E-03 0. -1.
        -11    1    3    3    0    0  0.12393840768E+02 -0.73384658270E+01  0.63263912197E+01  0.15731611354E+02  0.51100000000E-03 0.  1.
         12    1    3    3    0    0  0.82826093687E+01  0.33650270341E+01 -0.69764043338E+01  0.11339984229E+02  0.00000000000E+00 0. -1.
</event>
<event>
 7    1  0.2639126E-011  0.5052886E+02  0.7816164E-02  0.1300439E+00
        -11   -1    0    0    0    0  0.00000000000E+00  0.00000000000E+00  0.45593999997E+02  0.45594000000E+02  0.51100000000E-03 0. -1.
         11   -1    0    0    0    0 -0.00000000000E+00 -0.00000000000E+00 -0.45593999997E+02  0.45594000000E+02  0.51100000000E-03 0.  1.
    9900012    2    1    2    0    0  0.77435108634E+01  0.30551677463E+02 -0.25686545807E+02  0.50528860907E+02  0.30000003212E+02 0.  0.
         12    1    1    2    0    0 -0.77435108634E+01 -0.30551677463E+02  0.25686545807E+02  0.40659139093E+02  0.00000000000E+00 0. -1.
         11    1    3    3    0    0 -0.75911906372E+00  0.40504668111E+01 -0.77767148878E+01  0.88011270783E+01  0.51100000000E-03 0. -1.
        -11    1    3    3    0    0  0.92267637826E+01  0.25706482812E+02 -0.37980070361E+01  0.27575011989E+02  0.51100000000E-03 0.  1.
        -12    1    3    3    0    0 -0.72413385548E+00  0.79472784040E+00 -0.14111823883E+02  0.14152721840E+02  0.00000000000E+00 0.  1.
</event>
<event>
 7    1  0.2639126E-011  0.5052886E+02  0.7816164E-02  0.1300439E+00
        -11   -1    0    0    0    0  0.00000000000E+00  0.00000000000E+00  0.45593999997E+02  0.45594000000E+02  0.51100000000E-03 0. -1.
         11   -1    0    0    0    0 -0.00000000000E+00 -0.00000000000E+00 -0.45593999997E+02  0.45594000000E+02  0.51100000000E-03 0.  1.
    9900012    2    1    2    0    0  0.13748122974E+02 -0.68621121272E+01 -0.37643940105E+02  0.50528859640E+02  0.29999999362E+02 0.  0.
         12    1    1    2    0    0 -0.13748122974E+02  0.68621121272E+01  0.37643940105E+02  0.40659140360E+02  0.00000000000E+00 0. -1.
         11    1    3    3    0    0 -0.22702764716E+01 -0.95567117776E+01 -0.96015464958E+01  0.13735886962E+02  0.51100000000E-03 0. -1.
        -11    1    3    3    0    0 -0.47451328293E+00  0.66536512342E+01 -0.10086202953E+02  0.12092465748E+02  0.51100000000E-03 0.  1.
        -12    1    3    3    0    0  0.16492912728E+02 -0.39590515839E+01 -0.17956190657E+02  0.24700506930E+02  0.00000000000E+00 0.  1.
</event>
<event>
 7    1  0.2639126E-011  0.5052886E+02  0.7816164E-02  0.1300439E+00
        -11   -1    0    0    0    0  0.00000000000E+00  0.00000000000E+00  0.45593999997E+02  0.45594000000E+02  0.51100000000E-03 0. -1.
         11   -1    0    0    0    0 -0.00000000000E+00 -0.00000000000E+00 -0.45593999997E+02  0.45594000000E+02  0.51100000000E-03 0.  1.
    9900012    2    1    2    0    0 -0.36877634721E+02  0.15546654351E+02 -0.71768407148E+01  0.50528862690E+02  0.30000008634E+02 0.  0.
         12    1    1    2    0    0  0.36877634721E+02 -0.15546654351E+02  0.71768407148E+01  0.40659137310E+02  0.00000000000E+00 0. -1.
         11    1    3    3    0    0 -0.13165963648E+02 -0.48446659662E+01 -0.81966430009E+01  0.16248025845E+02  0.51100000000E-03 0. -1.
        -11    1    3    3    0    0 -0.11577200267E+02  0.13736580103E+01  0.12083582098E+01  0.11720863116E+02  0.51100000000E-03 0.  1.
        -12    1    3    3    0    0 -0.12134470805E+02  0.19017662307E+02 -0.18855592377E+00  0.22559973729E+02  0.00000000000E+00 0.  1.
</event>
<event>
 7    1  0.2639126E-011  0.5052885E+02  0.7816164E-02  0.1300439E+00
        -11   -1    0    0    0    0  0.00000000000E+00  0.00000000000E+00  0.45593999997E+02  0.45594000000E+02  0.51100000000E-03 0. -1.
         11   -1    0    0    0    0 -0.00000000000E+00 -0.00000000000E+00 -0.45593999997E+02  0.45594000000E+02  0.51100000000E-03 0.  1.
    9900012    2    1    2    0    0  0.37825286970E+02  0.81444565297E+01  0.12493265300E+02  0.50528853619E+02  0.29999981060E+02 0.  0.
         12    1    1    2    0    0 -0.37825286970E+02 -0.81444565297E+01 -0.12493265300E+02  0.40659146381E+02  0.00000000000E+00 0. -1.
         11    1    3    3    0    0 -0.11334355171E+01  0.17670930412E+01 -0.35801694652E+01  0.41502900559E+01  0.51100000000E-03 0. -1.
        -11    1    3    3    0    0  0.18796074572E+02 -0.52218849039E+01  0.31256774789E+01  0.19756780133E+02  0.51100000000E-03 0.  1.
        -12    1    3    3    0    0  0.20162647915E+02  0.11599248392E+02  0.12947757287E+02  0.26621783430E+02  0.00000000000E+00 0.  1.
</event>
<event>
 7    1  0.2639126E-011  0.5052886E+02  0.7816164E-02  0.1300439E+00
        -11   -1    0    0    0    0  0.00000000000E+00  0.00000000000E+00  0.45593999997E+02  0.45594000000E+02  0.51100000000E-03 0. -1.
         11   -1    0    0    0    0 -0.00000000000E+00 -0.00000000000E+00 -0.45593999997E+02  0.45594000000E+02  0.51100000000E-03 0.  1.
    9900012    2    1    2    0    0 -0.23835143304E+02  0.31400350681E+02 -0.99533831111E+01  0.50528856938E+02  0.29999991147E+02 0.  0.
         12    1    1    2    0    0  0.23835143304E+02 -0.31400350681E+02  0.99533831111E+01  0.40659143062E+02  0.00000000000E+00 0. -1.
         11    1    3    3    0    0  0.86028515697E+00 -0.24001491398E+01  0.30091127055E+01  0.39440545103E+01  0.51100000000E-03 0. -1.
        -11    1    3    3    0    0 -0.18580742053E+02  0.24612029868E+02 -0.16525352062E+02  0.34986901127E+02  0.51100000000E-03 0.  1.
         12    1    3    3    0    0 -0.61146864079E+01  0.91884699532E+01  0.35628562449E+01  0.11597901300E+02  0.00000000000E+00 0. -1.
</event>
<event>
 7    1  0.2639126E-011  0.5052885E+02  0.7816164E-02  0.1300439E+00
        -11   -1    0    0    0    0  0.00000000000E+00  0.00000000000E+00  0.45593999997E+02  0.45594000000E+02  0.51100000000E-03 0.  1.
         11   -1    0    0    0    0 -0.00000000000E+00 -0.00000000000E+00 -0.45593999997E+02  0.45594000000E+02  0.51100000000E-03 0. -1.
    9900012    2    1    2    0    0  0.91442455642E+01 -0.17271960531E+02  0.35654289353E+02  0.50528853467E+02  0.29999980599E+02 0.  0.
         12    1    1    2    0    0 -0.91442455642E+01  0.17271960531E+02 -0.35654289353E+02  0.40659146533E+02  0.00000000000E+00 0. -1.
         11    1    3    3    0    0  0.33270458326E+01  0.34378163454E+01  0.12672474333E+01  0.49491142152E+01  0.51100000000E-03 0. -1.
        -11    1    3    3    0    0 -0.33143239571E+01  0.21752754892E+01  0.10062361527E+01  0.40901195829E+01  0.51100000000E-03 0.  1.
        -12    1    3    3    0    0  0.91315236887E+01 -0.22885052366E+02  0.33380805767E+02  0.41489619669E+02  0.00000000000E+00 0.  1.
</event>
<event>
 7    1  0.2639126E-011  0.5052886E+02  0.7816164E-02  0.1300439E+00
        -11   -1    0    0    0    0  0.00000000000E+00  0.00000000000E+00  0.45593999997E+02  0.45594000000E+02  0.51100000000E-03 0.  1.
         11   -1    0    0    0    0 -0.00000000000E+00 -0.00000000000E+00 -0.45593999997E+02  0.45594000000E+02  0.51100000000E-03 0. -1.
    9900012    2    1    2    0    0  0.21336591001E+02  0.99440687441E+01  0.33151640242E+02  0.50528857492E+02  0.29999992833E+02 0.  0.
         12    1    1    2    0    0 -0.21336591001E+02 -0.99440687441E+01 -0.33151640242E+02  0.40659142508E+02  0.00000000000E+00 0. -1.
         11    1    3    3    0    0  0.53176935841E+01 -0.40900278406E+01  0.76748425479E+01  0.10193596087E+02  0.51100000000E-03 0. -1.
        -11    1    3    3    0    0  0.13378210409E+02 -0.31328615275E+01  0.92324987495E+01  0.16553862646E+02  0.51100000000E-03 0.  1.
        -12    1    3    3    0    0  0.26406870080E+01  0.17166958112E+02  0.16244298945E+02  0.23781398759E+02  0.00000000000E+00 0.  1.
</event>
<event>
 7    1  0.2639126E-011  0.5052893E+02  0.7816164E-02  0.1300439E+00
        -11   -1    0    0    0    0  0.00000000000E+00  0.00000000000E+00  0.45593999997E+02  0.45594000000E+02  0.51100000000E-03 0.  1.
         11   -1    0    0    0    0 -0.00000000000E+00 -0.00000000000E+00 -0.45593999997E+02  0.45594000000E+02  0.51100000000E-03 0. -1.
    9900012    2    1    2    0    0 -0.30960228966E+00  0.17312884961E+02  0.36787613376E+02  0.50528925525E+02  0.30000199625E+02 0.  0.
         12    1    1    2    0    0  0.30960228966E+00 -0.17312884961E+02 -0.36787613376E+02  0.40659074475E+02  0.00000000000E+00 0. -1.
         11    1    3    3    0    0 -0.23263941306E+01  0.19105072816E+02  0.10196824973E+02  0.21780522417E+02  0.51100000000E-03 0. -1.
        -11    1    3    3    0    0  0.54288410595E+01  0.67229898508E+00  0.80291485003E+01  0.97155302005E+01  0.51100000000E-03 0.  1.
        -12    1    3    3    0    0 -0.34120492186E+01 -0.24644868396E+01  0.18561639903E+02  0.19032872908E+02  0.00000000000E+00 0.  1.
</event>
<event>
 7    1  0.2639126E-011  0.5052888E+02  0.7816164E-02  0.1300439E+00
        -11   -1    0    0    0    0  0.00000000000E+00  0.00000000000E+00  0.45593999997E+02  0.45594000000E+02  0.51100000000E-03 0.  1.
         11   -1    0    0    0    0 -0.00000000000E+00 -0.00000000000E+00 -0.45593999997E+02  0.45594000000E+02  0.51100000000E-03 0. -1.
    9900012    2    1    2    0    0 -0.36811417432E+02  0.23569607670E+01  0.17103469639E+02  0.50528875672E+02  0.30000048094E+02 0.  0.
         12    1    1    2    0    0  0.36811417432E+02 -0.23569607670E+01 -0.17103469639E+02  0.40659124328E+02  0.00000000000E+00 0. -1.
         11    1    3    3    0    0 -0.46426511218E+01 -0.59403500907E+01  0.69004742122E+01  0.10220494766E+02  0.51100000000E-03 0.  1.
        -11    1    3    3    0    0 -0.14763711905E+02 -0.60969446402E+01  0.12824335734E+01  0.16024498722E+02  0.51100000000E-03 0. -1.
        -12    1    3    3    0    0 -0.17405054405E+02  0.14394255498E+02  0.89205618530E+01  0.24283882185E+02  0.00000000000E+00 0.  1.
</event>
<event>
 7    1  0.2639126E-011  0.5052885E+02  0.7816164E-02  0.1300439E+00
        -11   -1    0    0    0    0  0.00000000000E+00  0.00000000000E+00  0.45593999997E+02  0.45594000000E+02  0.51100000000E-03 0.  1.
         11   -1    0    0    0    0 -0.00000000000E+00 -0.00000000000E+00 -0.45593999997E+02  0.45594000000E+02  0.51100000000E-03 0. -1.
    9900012    2    1    2    0    0  0.12000379964E+02 -0.21367870706E+02  0.32443353153E+02  0.50528853654E+02  0.29999981166E+02 0.  0.
         12    1    1    2    0    0 -0.12000379964E+02  0.21367870706E+02 -0.32443353153E+02  0.40659146346E+02  0.00000000000E+00 0. -1.
         11    1    3    3    0    0 -0.82754708043E+01 -0.43513852342E+01  0.67581172022E+01  0.11536469082E+02  0.51100000000E-03 0. -1.
        -11    1    3    3    0    0  0.68447448738E+01 -0.11644959348E+02  0.65698272490E+01  0.15020593895E+02  0.51100000000E-03 0.  1.
        -12    1    3    3    0    0  0.13431105895E+02 -0.53715261239E+01  0.19115408702E+02  0.23971790678E+02  0.00000000000E+00 0.  1.
</event>
<event>
 7    1  0.2639126E-011  0.5052886E+02  0.7816164E-02  0.1300439E+00
        -11   -1    0    0    0    0  0.00000000000E+00  0.00000000000E+00  0.45593999997E+02  0.45594000000E+02  0.51100000000E-03 0.  1.
         11   -1    0    0    0    0 -0.00000000000E+00 -0.00000000000E+00 -0.45593999997E+02  0.45594000000E+02  0.51100000000E-03 0. -1.
    9900012    2    1    2    0    0 -0.17751511764E+02 -0.90725725841E+01  0.35436397787E+02  0.50528855502E+02  0.29999986783E+02 0.  0.
         12    1    1    2    0    0  0.17751511764E+02  0.90725725841E+01 -0.35436397787E+02  0.40659144498E+02  0.00000000000E+00 0. -1.
         11    1    3    3    0    0  0.26236377809E+01 -0.41594414784E+01  0.86935910120E+01  0.99881406460E+01  0.51100000000E-03 0. -1.
        -11    1    3    3    0    0 -0.18011567400E+02 -0.84975952544E+01  0.29385987699E+02  0.35498759959E+02  0.51100000000E-03 0.  1.
        -12    1    3    3    0    0 -0.23635821452E+01  0.35844641487E+01 -0.26431809238E+01  0.50419548973E+01  0.00000000000E+00 0.  1.
</event>
<event>
 7    1  0.3725326E-011  0.5052888E+02  0.7816164E-02  0.1300439E+00
        -11   -1    0    0    0    0  0.00000000000E+00  0.00000000000E+00  0.45593999997E+02  0.45594000000E+02  0.51100000000E-03 0. -1.
         11   -1    0    0    0    0 -0.00000000000E+00 -0.00000000000E+00 -0.45593999997E+02  0.45594000000E+02  0.51100000000E-03 0.  1.
    9900012    2    1    2    0    0 -0.26019462873E+01 -0.34678113242E+02 -0.21067087937E+02  0.50528882244E+02  0.30000068070E+02 0.  0.
         12    1    1    2    0    0  0.26019462873E+01  0.34678113242E+02  0.21067087937E+02  0.40659117756E+02  0.00000000000E+00 0. -1.
         11    1    3    3    0    0  0.80938074872E+01 -0.78925360233E+01 -0.23276317010E+01  0.11542084479E+02  0.51100000000E-03 0. -1.
        -11    1    3    3    0    0 -0.52111505911E+01 -0.24689025003E+02 -0.20865044656E+02  0.32742237780E+02  0.51100000000E-03 0.  1.
         12    1    3    3    0    0 -0.54846031834E+01 -0.20965522157E+01  0.21255884206E+01  0.62445599850E+01  0.00000000000E+00 0. -1.
</event>
<event>
 7    1  0.2639126E-011  0.5052885E+02  0.7816164E-02  0.1300439E+00
        -11   -1    0    0    0    0  0.00000000000E+00  0.00000000000E+00  0.45593999997E+02  0.45594000000E+02  0.51100000000E-03 0.  1.
         11   -1    0    0    0    0 -0.00000000000E+00 -0.00000000000E+00 -0.45593999997E+02  0.45594000000E+02  0.51100000000E-03 0. -1.
    9900012    2    1    2    0    0  0.28745131222E+02  0.57105830160E+01  0.28182846274E+02  0.50528854024E+02  0.29999982293E+02 0.  0.
         12    1    1    2    0    0 -0.28745131222E+02 -0.57105830160E+01 -0.28182846274E+02  0.40659145976E+02  0.00000000000E+00 0. -1.
         11    1    3    3    0    0  0.17142821694E+02 -0.13269286907E+01  0.15539143628E+02  0.23175462462E+02  0.51100000000E-03 0. -1.
        -11    1    3    3    0    0  0.95375434162E+01 -0.58536109361E+01  0.62233967745E+01  0.12804693010E+02  0.51100000000E-03 0.  1.
         12    1    3    3    0    0  0.20647661117E+01  0.12891122643E+02  0.64203058724E+01  0.14548698553E+02  0.00000000000E+00 0. -1.
</event>
<event>
 7    1  0.2639126E-011  0.5052886E+02  0.7816164E-02  0.1300439E+00
        -11   -1    0    0    0    0  0.00000000000E+00  0.00000000000E+00  0.45593999997E+02  0.45594000000E+02  0.51100000000E-03 0.  1.
         11   -1    0    0    0    0 -0.00000000000E+00 -0.00000000000E+00 -0.45593999997E+02  0.45594000000E+02  0.51100000000E-03 0. -1.
    9900012    2    1    2    0    0  0.80085766671E+01 -0.12678915636E+02  0.37792507932E+02  0.50528857637E+02  0.29999993273E+02 0.  0.
         12    1    1    2    0    0 -0.80085766671E+01  0.12678915636E+02 -0.37792507932E+02  0.40659142363E+02  0.00000000000E+00 0. -1.
         11    1    3    3    0    0  0.54144151144E+01 -0.10246672015E+02  0.14978840181E+02  0.18938738919E+02  0.51100000000E-03 0. -1.
        -11    1    3    3    0    0 -0.13038502821E-01 -0.55912603181E+00  0.26611418758E+02  0.26617295139E+02  0.51100000000E-03 0.  1.
        -12    1    3    3    0    0  0.26072000555E+01 -0.18731175886E+01 -0.37977510074E+01  0.49728235787E+01  0.00000000000E+00 0.  1.
</event>
<event>
 7    1  0.2639126E-011  0.5052887E+02  0.7816164E-02  0.1300439E+00
        -11   -1    0    0    0    0  0.00000000000E+00  0.00000000000E+00  0.45593999997E+02  0.45594000000E+02  0.51100000000E-03 0.  1.
         11   -1    0    0    0    0 -0.00000000000E+00 -0.00000000000E+00 -0.45593999997E+02  0.45594000000E+02  0.51100000000E-03 0. -1.
    9900012    2    1    2    0    0  0.21013036588E+02  0.32402479201E+02  0.12715993536E+02  0.50528869947E+02  0.30000030691E+02 0.  0.
         12    1    1    2    0    0 -0.21013036588E+02 -0.32402479201E+02 -0.12715993536E+02  0.40659130053E+02  0.00000000000E+00 0. -1.
         11    1    3    3    0    0  0.45893829367E+01  0.19504764496E+02  0.11886566184E+02  0.23297826717E+02  0.51100000000E-03 0. -1.
        -11    1    3    3    0    0  0.77731047262E+01  0.16062557771E+02  0.19546745593E+01  0.17951258232E+02  0.51100000000E-03 0.  1.
         12    1    3    3    0    0  0.86505489251E+01 -0.31648430657E+01 -0.11252472074E+01  0.92797849983E+01  0.00000000000E+00 0. -1.
</event>
<event>
 7    1  0.2639126E-011  0.5052883E+02  0.7816164E-02  0.1300439E+00
        -11   -1    0    0    0    0  0.00000000000E+00  0.00000000000E+00  0.45593999997E+02  0.45594000000E+02  0.51100000000E-03 0.  1.
         11   -1    0    0    0    0 -0.00000000000E+00 -0.00000000000E+00 -0.45593999997E+02  0.45594000000E+02  0.51100000000E-03 0. -1.
    9900012    2    1    2    0    0 -0.37923696911E+02  0.77360873522E+01  0.12454502289E+02  0.50528825609E+02  0.29999895921E+02 0.  0.
         12    1    1    2    0    0  0.37923696911E+02 -0.77360873522E+01 -0.12454502289E+02  0.40659174391E+02  0.00000000000E+00 0. -1.
         11    1    3    3    0    0 -0.17975671063E+01 -0.18032921330E+01  0.87574374005E+01  0.91200778562E+01  0.51100000000E-03 0. -1.
        -11    1    3    3    0    0 -0.21022060965E-01 -0.29484787949E+01  0.98557022373E+00  0.31089094645E+01  0.51100000000E-03 0.  1.
         12    1    3    3    0    0 -0.36105107743E+02  0.12487858280E+02  0.27114946652E+01  0.38299838288E+02  0.00000000000E+00 0. -1.
</event>
<event>
 7    1  0.3361557E-011  0.5052885E+02  0.7816164E-02  0.1300439E+00
        -11   -1    0    0    0    0  0.00000000000E+00  0.00000000000E+00  0.45593999997E+02  0.45594000000E+02  0.51100000000E-03 0. -1.
         11   -1    0    0    0    0 -0.00000000000E+00 -0.00000000000E+00 -0.45593999997E+02  0.45594000000E+02  0.51100000000E-03 0.  1.
    9900012    2    1    2    0    0 -0.20083099702E+02  0.32820445637E+02 -0.13139769530E+02  0.50528854796E+02  0.29999984637E+02 0.  0.
         12    1    1    2    0    0  0.20083099702E+02 -0.32820445637E+02  0.13139769530E+02  0.40659145204E+02  0.00000000000E+00 0. -1.
         11    1    3    3    0    0 -0.90562000645E+00  0.10466527688E+02  0.31955191353E+01  0.10980878483E+02  0.51100000000E-03 0. -1.
        -11    1    3    3    0    0 -0.55533240011E+01  0.21145265808E+02 -0.68765681236E+01  0.22918308467E+02  0.51100000000E-03 0.  1.
         12    1    3    3    0    0 -0.13624155695E+02  0.12086521402E+01 -0.94587205415E+01  0.16629667846E+02  0.00000000000E+00 0. -1.
</event>
<event>
 7    1  0.2639126E-011  0.5052886E+02  0.7816164E-02  0.1300439E+00
        -11   -1    0    0    0    0  0.00000000000E+00  0.00000000000E+00  0.45593999997E+02  0.45594000000E+02  0.51100000000E-03 0.  1.
         11   -1    0    0    0    0 -0.00000000000E+00 -0.00000000000E+00 -0.45593999997E+02  0.45594000000E+02  0.51100000000E-03 0. -1.
    9900012    2    1    2    0    0 -0.21539427622E+02  0.34249634311E+02  0.40226097005E+01  0.50528858574E+02  0.29999996120E+02 0.  0.
         12    1    1    2    0    0  0.21539427622E+02 -0.34249634311E+02 -0.40226097005E+01  0.40659141426E+02  0.00000000000E+00 0. -1.
         11    1    3    3    0    0 -0.59171231142E+01  0.21804258096E+02  0.66753709211E+01  0.23558408144E+02  0.51100000000E-03 0. -1.
        -11    1    3    3    0    0 -0.11882428559E+02  0.12704360129E+02  0.52947414481E+01  0.18183155997E+02  0.51100000000E-03 0.  1.
         12    1    3    3    0    0 -0.37398759493E+01 -0.25898391427E+00 -0.79475026687E+01  0.87872944331E+01  0.00000000000E+00 0. -1.
</event>
<event>
 7    1  0.2639126E-011  0.5052886E+02  0.7816164E-02  0.1300439E+00
        -11   -1    0    0    0    0  0.00000000000E+00  0.00000000000E+00  0.45593999997E+02  0.45594000000E+02  0.51100000000E-03 0.  1.
         11   -1    0    0    0    0 -0.00000000000E+00 -0.00000000000E+00 -0.45593999997E+02  0.45594000000E+02  0.51100000000E-03 0. -1.
    9900012    2    1    2    0    0  0.25235599987E+02 -0.26589804190E+02  0.17587274952E+02  0.50528862850E+02  0.30000009119E+02 0.  0.
         12    1    1    2    0    0 -0.25235599987E+02  0.26589804190E+02 -0.17587274952E+02  0.40659137150E+02  0.00000000000E+00 0. -1.
         11    1    3    3    0    0  0.32990021298E+01 -0.13923045488E+02  0.14077475550E+02  0.20072616393E+02  0.51100000000E-03 0. -1.
        -11    1    3    3    0    0  0.51722572403E+01 -0.12444063051E+02  0.19788160163E+01  0.13620670441E+02  0.51100000000E-03 0.  1.
        -12    1    3    3    0    0  0.16764340617E+02 -0.22269565079E+00  0.15309833851E+01  0.16835576016E+02  0.00000000000E+00 0.  1.
</event>
<event>
 7    1  0.2639126E-011  0.5052886E+02  0.7816164E-02  0.1300439E+00
        -11   -1    0    0    0    0  0.00000000000E+00  0.00000000000E+00  0.45593999997E+02  0.45594000000E+02  0.51100000000E-03 0.  1.
         11   -1    0    0    0    0 -0.00000000000E+00 -0.00000000000E+00 -0.45593999997E+02  0.45594000000E+02  0.51100000000E-03 0. -1.
    9900012    2    1    2    0    0 -0.31500493945E+02  0.22272935613E+02  0.12837486052E+02  0.50528858005E+02  0.29999994392E+02 0.  0.
         12    1    1    2    0    0  0.31500493945E+02 -0.22272935613E+02 -0.12837486052E+02  0.40659141995E+02  0.00000000000E+00 0. -1.
         11    1    3    3    0    0  0.20213925929E+00 -0.57811986632E-01 -0.58209087773E+01  0.58247044354E+01  0.51100000000E-03 0. -1.
        -11    1    3    3    0    0 -0.40347488114E+01  0.68172634530E+01  0.79551782300E+01  0.11226715454E+02  0.51100000000E-03 0.  1.
         12    1    3    3    0    0 -0.27667884393E+02  0.15513484147E+02  0.10703216600E+02  0.33477438115E+02  0.00000000000E+00 0. -1.
</event>
<event>
 7    1  0.2639126E-011  0.5052886E+02  0.7816164E-02  0.1300439E+00
        -11   -1    0    0    0    0  0.00000000000E+00  0.00000000000E+00  0.45593999997E+02  0.45594000000E+02  0.51100000000E-03 0.  1.
         11   -1    0    0    0    0 -0.00000000000E+00 -0.00000000000E+00 -0.45593999997E+02  0.45594000000E+02  0.51100000000E-03 0. -1.
    9900012    2    1    2    0    0  0.35132534952E+02  0.18258598282E+02  0.92463289072E+01  0.50528855621E+02  0.29999987145E+02 0.  0.
         12    1    1    2    0    0 -0.35132534952E+02 -0.18258598282E+02 -0.92463289072E+01  0.40659144379E+02  0.00000000000E+00 0. -1.
         11    1    3    3    0    0  0.97723323477E+01  0.65633174562E+01  0.41790445701E+01  0.12491598349E+02  0.51100000000E-03 0. -1.
        -11    1    3    3    0    0  0.24893847018E+02  0.14921017148E+02  0.11186388717E+02  0.31104270847E+02  0.51100000000E-03 0.  1.
         12    1    3    3    0    0  0.46635558607E+00 -0.32257363225E+01 -0.61191043799E+01  0.69329864249E+01  0.00000000000E+00 0. -1.
</event>
<event>
 7    1  0.2639126E-011  0.5052887E+02  0.7816164E-02  0.1300439E+00
        -11   -1    0    0    0    0  0.00000000000E+00  0.00000000000E+00  0.45593999997E+02  0.45594000000E+02  0.51100000000E-03 0. -1.
         11   -1    0    0    0    0 -0.00000000000E+00 -0.00000000000E+00 -0.45593999997E+02  0.45594000000E+02  0.51100000000E-03 0.  1.
    9900012    2    1    2    0    0 -0.13602885017E+02 -0.38309791097E+02 -0.69749878431E+00  0.50528867210E+02  0.30000022372E+02 0.  0.
         12    1    1    2    0    0  0.13602885017E+02  0.38309791097E+02  0.69749878431E+00  0.40659132790E+02  0.00000000000E+00 0. -1.
         11    1    3    3    0    0 -0.16150594924E+02 -0.17017966055E+02 -0.26884673938E+00  0.23463272660E+02  0.51100000000E-03 0. -1.
        -11    1    3    3    0    0 -0.49162568078E+01 -0.11490330924E+02  0.51803004824E+01  0.13528961493E+02  0.51100000000E-03 0.  1.
         12    1    3    3    0    0  0.74639667153E+01 -0.98014941179E+01 -0.56089525273E+01  0.13536633057E+02  0.00000000000E+00 0. -1.
</event>
<event>
 7    1  0.2639126E-011  0.5052886E+02  0.7816164E-02  0.1300439E+00
        -11   -1    0    0    0    0  0.00000000000E+00  0.00000000000E+00  0.45593999997E+02  0.45594000000E+02  0.51100000000E-03 0. -1.
         11   -1    0    0    0    0 -0.00000000000E+00 -0.00000000000E+00 -0.45593999997E+02  0.45594000000E+02  0.51100000000E-03 0.  1.
    9900012    2    1    2    0    0  0.10778155999E+02  0.34357873708E+02 -0.18882098892E+02  0.50528858457E+02  0.29999995765E+02 0.  0.
         12    1    1    2    0    0 -0.10778155999E+02 -0.34357873708E+02  0.18882098892E+02  0.40659141543E+02  0.00000000000E+00 0. -1.
         11    1    3    3    0    0 -0.12557220837E+01  0.34055213455E+01 -0.49294607086E+01  0.61216008303E+01  0.51100000000E-03 0.  1.
        -11    1    3    3    0    0 -0.64903462430E+01  0.15387944575E+01  0.65425150637E+00  0.67022778241E+01  0.51100000000E-03 0. -1.
         12    1    3    3    0    0  0.18524224325E+02  0.29413557905E+02 -0.14606889690E+02  0.37704979802E+02  0.00000000000E+00 0. -1.
</event>
<event>
 7    1  0.2639126E-011  0.5052899E+02  0.7816164E-02  0.1300438E+00
        -11   -1    0    0    0    0  0.00000000000E+00  0.00000000000E+00  0.45593999997E+02  0.45594000000E+02  0.51100000000E-03 0. -1.
         11   -1    0    0    0    0 -0.00000000000E+00 -0.00000000000E+00 -0.45593999997E+02  0.45594000000E+02  0.51100000000E-03 0.  1.
    9900012    2    1    2    0    0 -0.33164695126E+02 -0.23424167774E+02 -0.21369738626E+01  0.50528987518E+02  0.30000388059E+02 0.  0.
         12    1    1    2    0    0  0.33164695126E+02  0.23424167774E+02  0.21369738626E+01  0.40659012482E+02  0.00000000000E+00 0. -1.
         11    1    3    3    0    0 -0.10957643235E+01  0.18712457759E+01 -0.55044680732E+00  0.22372420868E+01  0.51100000000E-03 0. -1.
        -11    1    3    3    0    0 -0.21210262528E+02 -0.60059986463E+00 -0.19910374237E+01  0.21311972855E+02  0.51100000000E-03 0.  1.
        -12    1    3    3    0    0 -0.10858668274E+02 -0.24694813685E+02  0.40451036842E+00  0.26979772577E+02  0.00000000000E+00 0.  1.
</event>
<event>
 7    1  0.2639126E-011  0.5052886E+02  0.7816164E-02  0.1300439E+00
        -11   -1    0    0    0    0  0.00000000000E+00  0.00000000000E+00  0.45593999997E+02  0.45594000000E+02  0.51100000000E-03 0.  1.
         11   -1    0    0    0    0 -0.00000000000E+00 -0.00000000000E+00 -0.45593999997E+02  0.45594000000E+02  0.51100000000E-03 0. -1.
    9900012    2    1    2    0    0  0.36134470323E+02 -0.12668211711E+02 -0.13674137487E+02  0.50528861181E+02  0.30000004046E+02 0.  0.
         12    1    1    2    0    0 -0.36134470323E+02  0.12668211711E+02  0.13674137487E+02  0.40659138819E+02  0.00000000000E+00 0. -1.
         11    1    3    3    0    0  0.24527356052E+01 -0.12191813217E+02 -0.26563620195E+01  0.12716622229E+02  0.51100000000E-03 0. -1.
        -11    1    3    3    0    0  0.56507184019E+01 -0.37120747933E+01  0.15285063412E+01  0.69315546326E+01  0.51100000000E-03 0.  1.
        -12    1    3    3    0    0  0.28031016316E+02  0.32356762995E+01 -0.12546281809E+02  0.30880684320E+02  0.00000000000E+00 0.  1.
</event>
<event>
 7    1  0.2639126E-011  0.5052886E+02  0.7816164E-02  0.1300439E+00
        -11   -1    0    0    0    0  0.00000000000E+00  0.00000000000E+00  0.45593999997E+02  0.45594000000E+02  0.51100000000E-03 0.  1.
         11   -1    0    0    0    0 -0.00000000000E+00 -0.00000000000E+00 -0.45593999997E+02  0.45594000000E+02  0.51100000000E-03 0. -1.
    9900012    2    1    2    0    0 -0.27293827323E+02  0.21286618158E+02 -0.21332897654E+02  0.50528860254E+02  0.30000001228E+02 0.  0.
         12    1    1    2    0    0  0.27293827323E+02 -0.21286618158E+02  0.21332897654E+02  0.40659139746E+02  0.00000000000E+00 0. -1.
         11    1    3    3    0    0  0.16338397255E+01  0.14095398815E+02 -0.84629742406E+00  0.14214989258E+02  0.51100000000E-03 0.  1.
        -11    1    3    3    0    0 -0.29255726059E+01  0.97264296193E+00 -0.10386174819E+01  0.32532654270E+01  0.51100000000E-03 0. -1.
        -12    1    3    3    0    0 -0.26002094443E+02  0.62185763810E+01 -0.19447982749E+02  0.33060605569E+02  0.00000000000E+00 0.  1.
</event>
<event>
 7    1  0.2639126E-011  0.5052893E+02  0.7816164E-02  0.1300439E+00
        -11   -1    0    0    0    0  0.00000000000E+00  0.00000000000E+00  0.45593999997E+02  0.45594000000E+02  0.51100000000E-03 0. -1.
         11   -1    0    0    0    0 -0.00000000000E+00 -0.00000000000E+00 -0.45593999997E+02  0.45594000000E+02  0.51100000000E-03 0.  1.
    9900012    2    1    2    0    0  0.25305610930E+02  0.26791291679E+02 -0.17175932437E+02  0.50528930785E+02  0.30000215614E+02 0.  0.
         12    1    1    2    0    0 -0.25305610930E+02 -0.26791291679E+02  0.17175932437E+02  0.40659069215E+02  0.00000000000E+00 0. -1.
         11    1    3    3    0    0  0.46412870926E+01  0.53026519569E+00  0.39443081508E+01  0.61139425990E+01  0.51100000000E-03 0. -1.
        -11    1    3    3    0    0  0.11721360900E+02  0.19148339168E+02 -0.25291023100E+01  0.22593042137E+02  0.51100000000E-03 0.  1.
         12    1    3    3    0    0  0.89429629374E+01  0.71126873150E+01 -0.18591138277E+02  0.21821946050E+02  0.00000000000E+00 0. -1.
</event>
<event>
 7    1  0.2639126E-011  0.5052887E+02  0.7816164E-02  0.1300439E+00
        -11   -1    0    0    0    0  0.00000000000E+00  0.00000000000E+00  0.45593999997E+02  0.45594000000E+02  0.51100000000E-03 0.  1.
         11   -1    0    0    0    0 -0.00000000000E+00 -0.00000000000E+00 -0.45593999997E+02  0.45594000000E+02  0.51100000000E-03 0. -1.
    9900012    2    1    2    0    0 -0.56891790839E+01  0.20309354125E+02  0.34761019482E+02  0.50528866966E+02  0.30000021630E+02 0.  0.
         12    1    1    2    0    0  0.56891790839E+01 -0.20309354125E+02 -0.34761019482E+02  0.40659133034E+02  0.00000000000E+00 0. -1.
         11    1    3    3    0    0 -0.84847079962E+01  0.24189925740E+01  0.80513966710E+00  0.88594607623E+01  0.51100000000E-03 0. -1.
        -11    1    3    3    0    0 -0.21944321576E+01 -0.21888088418E+01  0.72646331827E+01  0.78981841065E+01  0.51100000000E-03 0.  1.
         12    1    3    3    0    0  0.49899610700E+01  0.20079170393E+02  0.26691246632E+02  0.33771222097E+02  0.00000000000E+00 0. -1.
</event>
<event>
 7    1  0.2639126E-011  0.5052886E+02  0.7816164E-02  0.1300439E+00
        -11   -1    0    0    0    0  0.00000000000E+00  0.00000000000E+00  0.45593999997E+02  0.45594000000E+02  0.51100000000E-03 0.  1.
         11   -1    0    0    0    0 -0.00000000000E+00 -0.00000000000E+00 -0.45593999997E+02  0.45594000000E+02  0.51100000000E-03 0. -1.
    9900012    2    1    2    0    0  0.10565017510E+02  0.10296139468E+02  0.37888458183E+02  0.50528863925E+02  0.30000012386E+02 0.  0.
         12    1    1    2    0    0 -0.10565017510E+02 -0.10296139468E+02 -0.37888458183E+02  0.40659136075E+02  0.00000000000E+00 0. -1.
         11    1    3    3    0    0  0.91001373749E+01 -0.46279342315E+01  0.81719335702E+00  0.10241976408E+02  0.51100000000E-03 0. -1.
        -11    1    3    3    0    0  0.18140394793E+01  0.15764281013E+01  0.50197151532E+01  0.55653755732E+01  0.51100000000E-03 0.  1.
         12    1    3    3    0    0 -0.34915934379E+00  0.13347645598E+02  0.32051549672E+02  0.34721511944E+02  0.00000000000E+00 0. -1.
</event>
<event>
 7    1  0.2639126E-011  0.5052885E+02  0.7816164E-02  0.1300439E+00
        -11   -1    0    0    0    0  0.00000000000E+00  0.00000000000E+00  0.45593999997E+02  0.45594000000E+02  0.51100000000E-03 0.  1.
         11   -1    0    0    0    0 -0.00000000000E+00 -0.00000000000E+00 -0.45593999997E+02  0.45594000000E+02  0.51100000000E-03 0. -1.
    9900012    2    1    2    0    0 -0.12378314395E+02 -0.19373005816E+02  0.33535515641E+02  0.50528845669E+02  0.29999956894E+02 0.  0.
         12    1    1    2    0    0  0.12378314395E+02  0.19373005816E+02 -0.33535515641E+02  0.40659154331E+02  0.00000000000E+00 0. -1.
         11    1    3    3    0    0  0.13909022512E+01  0.35768504073E+01  0.39105354172E+01  0.54791199493E+01  0.51100000000E-03 0. -1.
        -11    1    3    3    0    0  0.33017884542E+00 -0.18783657449E+02  0.20201377791E+02  0.27586780714E+02  0.51100000000E-03 0.  1.
         12    1    3    3    0    0 -0.14099395491E+02 -0.41661987746E+01  0.94236024330E+01  0.17462945006E+02  0.00000000000E+00 0. -1.
</event>
<event>
 7    1  0.2639126E-011  0.5052887E+02  0.7816164E-02  0.1300439E+00
        -11   -1    0    0    0    0  0.00000000000E+00  0.00000000000E+00  0.45593999997E+02  0.45594000000E+02  0.51100000000E-03 0.  1.
         11   -1    0    0    0    0 -0.00000000000E+00 -0.00000000000E+00 -0.45593999997E+02  0.45594000000E+02  0.51100000000E-03 0. -1.
    9900012    2    1    2    0    0  0.39658888219E+02  0.61899401242E+01  0.64824543905E+01  0.50528868327E+02  0.30000025766E+02 0.  0.
         12    1    1    2    0    0 -0.39658888219E+02 -0.61899401242E+01 -0.64824543905E+01  0.40659131673E+02  0.00000000000E+00 0. -1.
         11    1    3    3    0    0  0.20866692128E+01 -0.30586204586E+01  0.89476209520E+01  0.96834533342E+01  0.51100000000E-03 0. -1.
        -11    1    3    3    0    0  0.18823734087E+02  0.99437143105E+01  0.25083823121E+01  0.21436007122E+02  0.51100000000E-03 0.  1.
        -12    1    3    3    0    0  0.18748484919E+02 -0.69515372763E+00 -0.49735488735E+01  0.19409407870E+02  0.00000000000E+00 0.  1.
</event>
<event>
 7    1  0.2639126E-011  0.5052886E+02  0.7816164E-02  0.1300439E+00
        -11   -1    0    0    0    0  0.00000000000E+00  0.00000000000E+00  0.45593999997E+02  0.45594000000E+02  0.51100000000E-03 0.  1.
         11   -1    0    0    0    0 -0.00000000000E+00 -0.00000000000E+00 -0.45593999997E+02  0.45594000000E+02  0.51100000000E-03 0. -1.
    9900012    2    1    2    0    0  0.18156438626E+02  0.17080942889E+02  0.32120874453E+02  0.50528862660E+02  0.30000008541E+02 0.  0.
         12    1    1    2    0    0 -0.18156438626E+02 -0.17080942889E+02 -0.32120874453E+02  0.40659137340E+02  0.00000000000E+00 0. -1.
         11    1    3    3    0    0  0.18084458861E+01  0.35852206019E+01  0.26159730254E+01  0.47924522342E+01  0.51100000000E-03 0. -1.
        -11    1    3    3    0    0  0.21949367616E+02  0.11286993668E+02  0.30908515496E+02  0.39553853102E+02  0.51100000000E-03 0.  1.
         12    1    3    3    0    0 -0.56013748755E+01  0.22087286190E+01 -0.14036140680E+01  0.61825573236E+01  0.00000000000E+00 0. -1.
</event>
<event>
 7    1  0.2639126E-011  0.5052875E+02  0.7816164E-02  0.1300439E+00
        -11   -1    0    0    0    0  0.00000000000E+00  0.00000000000E+00  0.45593999997E+02  0.45594000000E+02  0.51100000000E-03 0.  1.
         11   -1    0    0    0    0 -0.00000000000E+00 -0.00000000000E+00 -0.45593999997E+02  0.45594000000E+02  0.51100000000E-03 0. -1.
    9900012    2    1    2    0    0  0.20222568732E+02 -0.31884581586E+02  0.15086277692E+02  0.50528750086E+02  0.29999666359E+02 0.  0.
         12    1    1    2    0    0 -0.20222568732E+02  0.31884581586E+02 -0.15086277692E+02  0.40659249914E+02  0.00000000000E+00 0. -1.
         11    1    3    3    0    0 -0.22960579702E+01 -0.15538939554E+01 -0.34149899487E+01  0.43987072235E+01  0.51100000000E-03 0. -1.
        -11    1    3    3    0    0  0.38023566225E+01  0.22490137952E+01  0.43454303368E+00  0.44390096694E+01  0.51100000000E-03 0.  1.
        -12    1    3    3    0    0  0.18716270079E+02 -0.32579701426E+02  0.18066724607E+02  0.41691033193E+02  0.00000000000E+00 0.  1.
</event>
<event>
 7    1  0.2639126E-011  0.5052886E+02  0.7816164E-02  0.1300439E+00
        -11   -1    0    0    0    0  0.00000000000E+00  0.00000000000E+00  0.45593999997E+02  0.45594000000E+02  0.51100000000E-03 0. -1.
         11   -1    0    0    0    0 -0.00000000000E+00 -0.00000000000E+00 -0.45593999997E+02  0.45594000000E+02  0.51100000000E-03 0.  1.
    9900012    2    1    2    0    0 -0.28892461550E+02  0.13009776403E+02 -0.25478165113E+02  0.50528861864E+02  0.30000006122E+02 0.  0.
         12    1    1    2    0    0  0.28892461550E+02 -0.13009776403E+02  0.25478165113E+02  0.40659138136E+02  0.00000000000E+00 0. -1.
         11    1    3    3    0    0 -0.25070539257E+01 -0.59586748616E+00  0.32774418747E+01  0.41691729336E+01  0.51100000000E-03 0. -1.
        -11    1    3    3    0    0 -0.14707788275E+00  0.40214264305E+01  0.22630890330E+01  0.46168251723E+01  0.51100000000E-03 0.  1.
        -12    1    3    3    0    0 -0.26238329741E+02  0.95842174590E+01 -0.31018696020E+02  0.41742863758E+02  0.00000000000E+00 0.  1.
</event>
<event>
 7    1  0.2639126E-011  0.5052882E+02  0.7816164E-02  0.1300439E+00
        -11   -1    0    0    0    0  0.00000000000E+00  0.00000000000E+00  0.45593999997E+02  0.45594000000E+02  0.51100000000E-03 0.  1.
         11   -1    0    0    0    0 -0.00000000000E+00 -0.00000000000E+00 -0.45593999997E+02  0.45594000000E+02  0.51100000000E-03 0. -1.
    9900012    2    1    2    0    0 -0.88484944171E+01  0.24582119561E+02  0.31154326538E+02  0.50528824927E+02  0.29999893848E+02 0.  0.
         12    1    1    2    0    0  0.88484944171E+01 -0.24582119561E+02 -0.31154326538E+02  0.40659175073E+02  0.00000000000E+00 0. -1.
         11    1    3    3    0    0 -0.70246275671E+01  0.10525260941E+01 -0.50909947512E+00  0.71212629618E+01  0.51100000000E-03 0. -1.
        -11    1    3    3    0    0 -0.84842682277E+01  0.65629887412E+01  0.72759652984E+01  0.12961300084E+02  0.51100000000E-03 0.  1.
         12    1    3    3    0    0  0.66604013777E+01  0.16966604725E+02  0.24387460715E+02  0.30446261881E+02  0.00000000000E+00 0. -1.
</event>
<event>
 7    1  0.2639126E-011  0.5052884E+02  0.7816164E-02  0.1300439E+00
        -11   -1    0    0    0    0  0.00000000000E+00  0.00000000000E+00  0.45593999997E+02  0.45594000000E+02  0.51100000000E-03 0. -1.
         11   -1    0    0    0    0 -0.00000000000E+00 -0.00000000000E+00 -0.45593999997E+02  0.45594000000E+02  0.51100000000E-03 0.  1.
    9900012    2    1    2    0    0 -0.26101355754E+02 -0.27026613781E+02  0.15538617845E+02  0.50528840279E+02  0.29999940513E+02 0.  0.
         12    1    1    2    0    0  0.26101355754E+02  0.27026613781E+02 -0.15538617845E+02  0.40659159721E+02  0.00000000000E+00 0. -1.
         11    1    3    3    0    0 -0.10342229123E+01 -0.60577547334E+01  0.10113238179E+02  0.11834001697E+02  0.51100000000E-03 0. -1.
        -11    1    3    3    0    0 -0.97214339459E+00 -0.46872817512E+01 -0.58025697553E+01  0.75223326848E+01  0.51100000000E-03 0.  1.
        -12    1    3    3    0    0 -0.24094989447E+02 -0.16281577296E+02  0.11227949421E+02  0.31172505897E+02  0.00000000000E+00 0.  1.
</event>
<event>
 7    1  0.2639126E-011  0.5052886E+02  0.7816164E-02  0.1300439E+00
        -11   -1    0    0    0    0  0.00000000000E+00  0.00000000000E+00  0.45593999997E+02  0.45594000000E+02  0.51100000000E-03 0.  1.
         11   -1    0    0    0    0 -0.00000000000E+00 -0.00000000000E+00 -0.45593999997E+02  0.45594000000E+02  0.51100000000E-03 0. -1.
    9900012    2    1    2    0    0 -0.18406237503E+02 -0.27122158741E+02  0.24057529698E+02  0.50528858237E+02  0.29999995096E+02 0.  0.
         12    1    1    2    0    0  0.18406237503E+02  0.27122158741E+02 -0.24057529698E+02  0.40659141763E+02  0.00000000000E+00 0. -1.
         11    1    3    3    0    0 -0.57048942061E+00  0.16912519099E+01  0.22342962069E+01  0.28596977118E+01  0.51100000000E-03 0. -1.
        -11    1    3    3    0    0 -0.91565366216E+01  0.21245236591E+01  0.91804221373E+01  0.13139098697E+02  0.51100000000E-03 0.  1.
        -12    1    3    3    0    0 -0.86792114609E+01 -0.30937934310E+02  0.12642811354E+02  0.34530061828E+02  0.00000000000E+00 0.  1.
</event>
<event>
 7    1  0.2639126E-011  0.5052886E+02  0.7816164E-02  0.1300439E+00
        -11   -1    0    0    0    0  0.00000000000E+00  0.00000000000E+00  0.45593999997E+02  0.45594000000E+02  0.51100000000E-03 0. -1.
         11   -1    0    0    0    0 -0.00000000000E+00 -0.00000000000E+00 -0.45593999997E+02  0.45594000000E+02  0.51100000000E-03 0.  1.
    9900012    2    1    2    0    0 -0.32553676432E+02 -0.17762634418E+01 -0.24295442954E+02  0.50528861920E+02  0.30000006292E+02 0.  0.
         12    1    1    2    0    0  0.32553676432E+02  0.17762634418E+01  0.24295442954E+02  0.40659138080E+02  0.00000000000E+00 0. -1.
         11    1    3    3    0    0  0.26398642844E+01 -0.26133740658E+01 -0.86265857267E+00  0.38135006912E+01  0.51100000000E-03 0. -1.
        -11    1    3    3    0    0  0.15232886638E+00 -0.10051612505E+01 -0.80656022411E+01  0.81294214429E+01  0.51100000000E-03 0.  1.
        -12    1    3    3    0    0 -0.35345869583E+02  0.18422718746E+01 -0.15367182140E+02  0.38585939786E+02  0.00000000000E+00 0.  1.
</event>
<event>
 7    1  0.2639126E-011  0.5052886E+02  0.7816164E-02  0.1300439E+00
        -11   -1    0    0    0    0  0.00000000000E+00  0.00000000000E+00  0.45593999997E+02  0.45594000000E+02  0.51100000000E-03 0.  1.
         11   -1    0    0    0    0 -0.00000000000E+00 -0.00000000000E+00 -0.45593999997E+02  0.45594000000E+02  0.51100000000E-03 0. -1.
    9900012    2    1    2    0    0 -0.23351782904E+02  0.31427341529E+02  0.10962771082E+02  0.50528856992E+02  0.29999991313E+02 0.  0.
         12    1    1    2    0    0  0.23351782904E+02 -0.31427341529E+02 -0.10962771082E+02  0.40659143008E+02  0.00000000000E+00 0. -1.
         11    1    3    3    0    0 -0.60106999100E+01  0.23169493210E+01 -0.29920227202E+01  0.71027436800E+01  0.51100000000E-03 0. -1.
        -11    1    3    3    0    0 -0.78279259219E+01  0.27925412445E+02  0.34529329362E+01  0.29206640180E+02  0.51100000000E-03 0.  1.
        -12    1    3    3    0    0 -0.95131570719E+01  0.11849797623E+01  0.10501860866E+02  0.14219473132E+02  0.00000000000E+00 0.  1.
</event>
<event>
 7    1  0.2639126E-011  0.5052887E+02  0.7816164E-02  0.1300439E+00
        -11   -1    0    0    0    0  0.00000000000E+00  0.00000000000E+00  0.45593999997E+02  0.45594000000E+02  0.51100000000E-03 0.  1.
         11   -1    0    0    0    0 -0.00000000000E+00 -0.00000000000E+00 -0.45593999997E+02  0.45594000000E+02  0.51100000000E-03 0. -1.
    9900012    2    1    2    0    0 -0.31173220396E+02 -0.12946828704E+02  0.22666597781E+02  0.50528871894E+02  0.30000036610E+02 0.  0.
         12    1    1    2    0    0  0.31173220396E+02  0.12946828704E+02 -0.22666597781E+02  0.40659128106E+02  0.00000000000E+00 0. -1.
         11    1    3    3    0    0 -0.87781889129E+01  0.75444686626E+00  0.90952631681E+01  0.12662922373E+02  0.51100000000E-03 0. -1.
        -11    1    3    3    0    0 -0.13686704939E+02  0.51177300882E+01  0.58062507491E+01  0.15723536541E+02  0.51100000000E-03 0.  1.
         12    1    3    3    0    0 -0.87083265443E+01 -0.18819005658E+02  0.77650838640E+01  0.22142412980E+02  0.00000000000E+00 0. -1.
</event>
<event>
 7    1  0.2639126E-011  0.5052883E+02  0.7816164E-02  0.1300439E+00
        -11   -1    0    0    0    0  0.00000000000E+00  0.00000000000E+00  0.45593999997E+02  0.45594000000E+02  0.51100000000E-03 0. -1.
         11   -1    0    0    0    0 -0.00000000000E+00 -0.00000000000E+00 -0.45593999997E+02  0.45594000000E+02  0.51100000000E-03 0.  1.
    9900012    2    1    2    0    0  0.30786875276E+02 -0.58814082030E+01 -0.25898754354E+02  0.50528829709E+02  0.29999908383E+02 0.  0.
         12    1    1    2    0    0 -0.30786875276E+02  0.58814082030E+01  0.25898754354E+02  0.40659170291E+02  0.00000000000E+00 0. -1.
         11    1    3    3    0    0 -0.34099326002E+01  0.29050212207E+01 -0.34205397591E+01  0.56362115943E+01  0.51100000000E-03 0. -1.
        -11    1    3    3    0    0  0.18429112496E+02 -0.12548220832E+02 -0.15968544305E+02  0.27424157980E+02  0.51100000000E-03 0.  1.
        -12    1    3    3    0    0  0.15767695380E+02  0.37617914078E+01 -0.65096702898E+01  0.17468460135E+02  0.00000000000E+00 0.  1.
</event>
<event>
 7    1  0.2639126E-011  0.5052888E+02  0.7816164E-02  0.1300439E+00
        -11   -1    0    0    0    0  0.00000000000E+00  0.00000000000E+00  0.45593999997E+02  0.45594000000E+02  0.51100000000E-03 0.  1.
         11   -1    0    0    0    0 -0.00000000000E+00 -0.00000000000E+00 -0.45593999997E+02  0.45594000000E+02  0.51100000000E-03 0. -1.
    9900012    2    1    2    0    0  0.10371913702E+02 -0.37616373714E+02  0.11427840426E+02  0.50528884146E+02  0.30000073851E+02 0.  0.
         12    1    1    2    0    0 -0.10371913702E+02  0.37616373714E+02 -0.11427840426E+02  0.40659115854E+02  0.00000000000E+00 0. -1.
         11    1    3    3    0    0 -0.40316807018E+01 -0.61926291187E+01  0.57660446236E+01  0.93728531166E+01  0.51100000000E-03 0. -1.
        -11    1    3    3    0    0  0.53782423280E+01  0.20731900099E+01 -0.94516143408E+00  0.58409706174E+01  0.51100000000E-03 0.  1.
        -12    1    3    3    0    0  0.90253520754E+01 -0.33496934605E+02  0.66069572365E+01  0.35315060412E+02  0.00000000000E+00 0.  1.
</event>
<event>
 7    1  0.2639126E-011  0.5052883E+02  0.7816164E-02  0.1300439E+00
        -11   -1    0    0    0    0  0.00000000000E+00  0.00000000000E+00  0.45593999997E+02  0.45594000000E+02  0.51100000000E-03 0.  1.
         11   -1    0    0    0    0 -0.00000000000E+00 -0.00000000000E+00 -0.45593999997E+02  0.45594000000E+02  0.51100000000E-03 0. -1.
    9900012    2    1    2    0    0 -0.25196389141E+02 -0.29930399503E+02 -0.11067118427E+02  0.50528831902E+02  0.29999915050E+02 0.  0.
         12    1    1    2    0    0  0.25196389141E+02  0.29930399503E+02  0.11067118427E+02  0.40659168098E+02  0.00000000000E+00 0. -1.
         11    1    3    3    0    0  0.28377130729E+01 -0.14562588808E+02 -0.66428157706E+01  0.16255725450E+02  0.51100000000E-03 0. -1.
        -11    1    3    3    0    0 -0.36045607343E+01 -0.74143727219E+01 -0.27618508205E+00  0.82487610832E+01  0.51100000000E-03 0.  1.
         12    1    3    3    0    0 -0.24429541479E+02 -0.79534379727E+01 -0.41481175743E+01  0.26024345369E+02  0.00000000000E+00 0. -1.
</event>
<event>
 7    1  0.2639126E-011  0.5052883E+02  0.7816164E-02  0.1300439E+00
        -11   -1    0    0    0    0  0.00000000000E+00  0.00000000000E+00  0.45593999997E+02  0.45594000000E+02  0.51100000000E-03 0.  1.
         11   -1    0    0    0    0 -0.00000000000E+00 -0.00000000000E+00 -0.45593999997E+02  0.45594000000E+02  0.51100000000E-03 0. -1.
    9900012    2    1    2    0    0 -0.13452148819E+02 -0.16473359571E+02  0.34653082810E+02  0.50528830903E+02  0.29999912013E+02 0.  0.
         12    1    1    2    0    0  0.13452148819E+02  0.16473359571E+02 -0.34653082810E+02  0.40659169097E+02  0.00000000000E+00 0. -1.
         11    1    3    3    0    0  0.83553987281E+01 -0.30245864371E+01  0.48832313559E+01  0.10139366832E+02  0.51100000000E-03 0. -1.
        -11    1    3    3    0    0 -0.11101778964E+01  0.14195844049E+01  0.17110214734E+01  0.24850170196E+01  0.51100000000E-03 0.  1.
        -12    1    3    3    0    0 -0.20697369651E+02 -0.14868357539E+02  0.28058829981E+02  0.37904447051E+02  0.00000000000E+00 0.  1.
</event>
<event>
 7    1  0.2639126E-011  0.5052885E+02  0.7816164E-02  0.1300439E+00
        -11   -1    0    0    0    0  0.00000000000E+00  0.00000000000E+00  0.45593999997E+02  0.45594000000E+02  0.51100000000E-03 0.  1.
         11   -1    0    0    0    0 -0.00000000000E+00 -0.00000000000E+00 -0.45593999997E+02  0.45594000000E+02  0.51100000000E-03 0. -1.
    9900012    2    1    2    0    0 -0.25586820476E+02  0.82059264354E+00  0.31588090311E+02  0.50528853380E+02  0.29999980335E+02 0.  0.
         12    1    1    2    0    0  0.25586820476E+02 -0.82059264354E+00 -0.31588090311E+02  0.40659146620E+02  0.00000000000E+00 0. -1.
         11    1    3    3    0    0 -0.31437422486E+01  0.80564582641E+00 -0.36518698180E+01  0.48855228944E+01  0.51100000000E-03 0.  1.
        -11    1    3    3    0    0 -0.62001981092E+01 -0.58040967977E+01  0.28745861213E+01  0.89662278501E+01  0.51100000000E-03 0. -1.
        -12    1    3    3    0    0 -0.16242880118E+02  0.58190436148E+01  0.32365374008E+02  0.36677102636E+02  0.00000000000E+00 0.  1.
</event>
<event>
 7    1  0.2639126E-011  0.5052882E+02  0.7816164E-02  0.1300439E+00
        -11   -1    0    0    0    0  0.00000000000E+00  0.00000000000E+00  0.45593999997E+02  0.45594000000E+02  0.51100000000E-03 0. -1.
         11   -1    0    0    0    0 -0.00000000000E+00 -0.00000000000E+00 -0.45593999997E+02  0.45594000000E+02  0.51100000000E-03 0.  1.
    9900012    2    1    2    0    0  0.38940378037E+02  0.10471717208E+02 -0.52114041435E+01  0.50528823470E+02  0.29999889421E+02 0.  0.
         12    1    1    2    0    0 -0.38940378037E+02 -0.10471717208E+02  0.52114041435E+01  0.40659176530E+02  0.00000000000E+00 0. -1.
         11    1    3    3    0    0  0.90326670892E+01 -0.74405820853E+00 -0.49105389272E+01  0.10308059477E+02  0.51100000000E-03 0. -1.
        -11    1    3    3    0    0  0.28524571579E+02  0.27874084667E+01 -0.68382487619E+01  0.29464936384E+02  0.51100000000E-03 0.  1.
         12    1    3    3    0    0  0.13831393687E+01  0.84283669496E+01  0.65373835455E+01  0.10755827610E+02  0.00000000000E+00 0. -1.
</event>
<event>
 7    1  0.2639126E-011  0.5052886E+02  0.7816164E-02  0.1300439E+00
        -11   -1    0    0    0    0  0.00000000000E+00  0.00000000000E+00  0.45593999997E+02  0.45594000000E+02  0.51100000000E-03 0. -1.
         11   -1    0    0    0    0 -0.00000000000E+00 -0.00000000000E+00 -0.45593999997E+02  0.45594000000E+02  0.51100000000E-03 0.  1.
    9900012    2    1    2    0    0  0.10817071735E+02 -0.14913168682E+02 -0.36245747764E+02  0.50528857461E+02  0.29999992738E+02 0.  0.
         12    1    1    2    0    0 -0.10817071735E+02  0.14913168682E+02  0.36245747764E+02  0.40659142539E+02  0.00000000000E+00 0. -1.
         11    1    3    3    0    0  0.85680563716E+01 -0.77028170770E+01 -0.70027069386E+01  0.13482688368E+02  0.51100000000E-03 0. -1.
        -11    1    3    3    0    0 -0.94900701924E+01 -0.33212729075E+01 -0.10064367611E+02  0.14226165388E+02  0.51100000000E-03 0.  1.
         12    1    3    3    0    0  0.11739085556E+02 -0.38890786979E+01 -0.19178673215E+02  0.22820003705E+02  0.00000000000E+00 0. -1.
</event>
<event>
 7    1  0.2639126E-011  0.5052887E+02  0.7816164E-02  0.1300439E+00
        -11   -1    0    0    0    0  0.00000000000E+00  0.00000000000E+00  0.45593999997E+02  0.45594000000E+02  0.51100000000E-03 0.  1.
         11   -1    0    0    0    0 -0.00000000000E+00 -0.00000000000E+00 -0.45593999997E+02  0.45594000000E+02  0.51100000000E-03 0. -1.
    9900012    2    1    2    0    0 -0.34576735074E+02 -0.30609231460E+01  0.21171791615E+02  0.50528872869E+02  0.30000039573E+02 0.  0.
         12    1    1    2    0    0  0.34576735074E+02  0.30609231460E+01 -0.21171791615E+02  0.40659127131E+02  0.00000000000E+00 0. -1.
         11    1    3    3    0    0 -0.20389863499E+01 -0.68352356293E+01  0.77432429990E+01  0.10527854665E+02  0.51100000000E-03 0. -1.
        -11    1    3    3    0    0 -0.22503829266E+01 -0.52476490908E+01  0.41691520269E+01  0.70699273816E+01  0.51100000000E-03 0.  1.
        -12    1    3    3    0    0 -0.30287365797E+02  0.90219615741E+01  0.92593965889E+01  0.32931090823E+02  0.00000000000E+00 0.  1.
</event>
<event>
 7    1  0.2639126E-011  0.5052876E+02  0.7816164E-02  0.1300439E+00
        -11   -1    0    0    0    0  0.00000000000E+00  0.00000000000E+00  0.45593999997E+02  0.45594000000E+02  0.51100000000E-03 0.  1.
         11   -1    0    0    0    0 -0.00000000000E+00 -0.00000000000E+00 -0.45593999997E+02  0.45594000000E+02  0.51100000000E-03 0. -1.
    9900012    2    1    2    0    0  0.38636719953E+02  0.58083172567E+01  0.11253479326E+02  0.50528763964E+02  0.29999708545E+02 0.  0.
         12    1    1    2    0    0 -0.38636719953E+02 -0.58083172567E+01 -0.11253479326E+02  0.40659236036E+02  0.00000000000E+00 0. -1.
         11    1    3    3    0    0  0.13243959009E+02  0.82535630411E+01 -0.14132667153E+01  0.15669112169E+02  0.51100000000E-03 0. -1.
        -11    1    3    3    0    0 -0.32794224018E+01 -0.17832441033E+01  0.77685357248E+00  0.38128824471E+01  0.51100000000E-03 0.  1.
        -12    1    3    3    0    0  0.28672183346E+02 -0.66200168111E+00  0.11889892469E+02  0.31046769348E+02  0.00000000000E+00 0.  1.
</event>
<event>
 7    1  0.2639126E-011  0.5052886E+02  0.7816164E-02  0.1300439E+00
        -11   -1    0    0    0    0  0.00000000000E+00  0.00000000000E+00  0.45593999997E+02  0.45594000000E+02  0.51100000000E-03 0.  1.
         11   -1    0    0    0    0 -0.00000000000E+00 -0.00000000000E+00 -0.45593999997E+02  0.45594000000E+02  0.51100000000E-03 0. -1.
    9900012    2    1    2    0    0 -0.49089911411E+01 -0.36075937452E+02  0.18099564888E+02  0.50528859500E+02  0.29999998937E+02 0.  0.
         12    1    1    2    0    0  0.49089911411E+01  0.36075937452E+02 -0.18099564888E+02  0.40659140500E+02  0.00000000000E+00 0. -1.
         11    1    3    3    0    0 -0.47794394688E+01 -0.11659245961E+02 -0.95842817103E+00  0.12637232404E+02  0.51100000000E-03 0. -1.
        -11    1    3    3    0    0 -0.36846077902E+01 -0.26050086005E+02  0.10216850555E+02  0.28223524779E+02  0.51100000000E-03 0.  1.
         12    1    3    3    0    0  0.35550561179E+01  0.16333945137E+01  0.88411425044E+01  0.96681023175E+01  0.00000000000E+00 0. -1.
</event>
<event>
 7    1  0.2639126E-011  0.5052886E+02  0.7816164E-02  0.1300439E+00
        -11   -1    0    0    0    0  0.00000000000E+00  0.00000000000E+00  0.45593999997E+02  0.45594000000E+02  0.51100000000E-03 0. -1.
         11   -1    0    0    0    0 -0.00000000000E+00 -0.00000000000E+00 -0.45593999997E+02  0.45594000000E+02  0.51100000000E-03 0.  1.
    9900012    2    1    2    0    0  0.15956903164E+02  0.20439528746E+02 -0.31317225662E+02  0.50528859366E+02  0.29999998530E+02 0.  0.
         12    1    1    2    0    0 -0.15956903164E+02 -0.20439528746E+02  0.31317225662E+02  0.40659140634E+02  0.00000000000E+00 0. -1.
         11    1    3    3    0    0  0.41483899043E+01  0.79556191877E+01 -0.27954260798E+01  0.93976285672E+01  0.51100000000E-03 0. -1.
        -11    1    3    3    0    0 -0.24151937104E+01  0.53547648728E+01  0.24084318983E+01  0.63487961041E+01  0.51100000000E-03 0.  1.
        -12    1    3    3    0    0  0.14223706970E+02  0.71291446850E+01 -0.30930231480E+02  0.34782434695E+02  0.00000000000E+00 0.  1.
</event>
<event>
 7    1  0.2639126E-011  0.5052887E+02  0.7816164E-02  0.1300439E+00
        -11   -1    0    0    0    0  0.00000000000E+00  0.00000000000E+00  0.45593999997E+02  0.45594000000E+02  0.51100000000E-03 0.  1.
         11   -1    0    0    0    0 -0.00000000000E+00 -0.00000000000E+00 -0.45593999997E+02  0.45594000000E+02  0.51100000000E-03 0. -1.
    9900012    2    1    2    0    0  0.37470004209E+02 -0.43695617926E+01  0.15168087302E+02  0.50528866241E+02  0.30000019425E+02 0.  0.
         12    1    1    2    0    0 -0.37470004209E+02  0.43695617926E+01 -0.15168087302E+02  0.40659133759E+02  0.00000000000E+00 0. -1.
         11    1    3    3    0    0  0.18402518831E+02  0.14204971958E+01  0.73804683076E+01  0.19878174572E+02  0.51100000000E-03 0. -1.
        -11    1    3    3    0    0  0.17942061646E+02  0.29213537589E+01  0.11058391400E+02  0.21277685600E+02  0.51100000000E-03 0.  1.
         12    1    3    3    0    0  0.11254237321E+01 -0.87114127473E+01 -0.32707724057E+01  0.93730060685E+01  0.00000000000E+00 0. -1.
</event>
<event>
 7    1  0.2639126E-011  0.5052883E+02  0.7816164E-02  0.1300439E+00
        -11   -1    0    0    0    0  0.00000000000E+00  0.00000000000E+00  0.45593999997E+02  0.45594000000E+02  0.51100000000E-03 0.  1.
         11   -1    0    0    0    0 -0.00000000000E+00 -0.00000000000E+00 -0.45593999997E+02  0.45594000000E+02  0.51100000000E-03 0. -1.
    9900012    2    1    2    0    0  0.17110489774E+02 -0.27577325728E+02  0.24492662386E+02  0.50528828029E+02  0.29999903278E+02 0.  0.
         12    1    1    2    0    0 -0.17110489774E+02  0.27577325728E+02 -0.24492662386E+02  0.40659171971E+02  0.00000000000E+00 0. -1.
         11    1    3    3    0    0  0.83357839091E+01 -0.54653952225E+00  0.21446283265E+01  0.86245828739E+01  0.51100000000E-03 0. -1.
        -11    1    3    3    0    0 -0.30377631895E+01 -0.67670752553E+01  0.15952350078E+02  0.17592577582E+02  0.51100000000E-03 0.  1.
        -12    1    3    3    0    0  0.11812469054E+02 -0.20263710950E+02  0.63956839819E+01  0.24311667574E+02  0.00000000000E+00 0.  1.
</event>
<event>
 7    1  0.2639126E-011  0.5052886E+02  0.7816164E-02  0.1300439E+00
        -11   -1    0    0    0    0  0.00000000000E+00  0.00000000000E+00  0.45593999997E+02  0.45594000000E+02  0.51100000000E-03 0.  1.
         11   -1    0    0    0    0 -0.00000000000E+00 -0.00000000000E+00 -0.45593999997E+02  0.45594000000E+02  0.51100000000E-03 0. -1.
    9900012    2    1    2    0    0 -0.35995428543E+02 -0.77924282956E+01  0.17227090108E+02  0.50528862671E+02  0.30000008574E+02 0.  0.
         12    1    1    2    0    0  0.35995428543E+02  0.77924282956E+01 -0.17227090108E+02  0.40659137329E+02  0.00000000000E+00 0. -1.
         11    1    3    3    0    0 -0.32285006193E+01 -0.69221097516E+01 -0.26018262987E-01  0.76380296460E+01  0.51100000000E-03 0. -1.
        -11    1    3    3    0    0 -0.16397366951E+02 -0.53172995156E+01 -0.18576478833E+01  0.17337767243E+02  0.51100000000E-03 0.  1.
        -12    1    3    3    0    0 -0.16369560973E+02  0.44469809717E+01  0.19110756254E+02  0.25553065781E+02  0.00000000000E+00 0.  1.
</event>
<event>
 7    1  0.2639126E-011  0.5052885E+02  0.7816164E-02  0.1300439E+00
        -11   -1    0    0    0    0  0.00000000000E+00  0.00000000000E+00  0.45593999997E+02  0.45594000000E+02  0.51100000000E-03 0.  1.
         11   -1    0    0    0    0 -0.00000000000E+00 -0.00000000000E+00 -0.45593999997E+02  0.45594000000E+02  0.51100000000E-03 0. -1.
    9900012    2    1    2    0    0 -0.23596612400E+02 -0.19321563568E+02  0.26889469111E+02  0.50528849928E+02  0.29999969841E+02 0.  0.
         12    1    1    2    0    0  0.23596612400E+02  0.19321563568E+02 -0.26889469111E+02  0.40659150072E+02  0.00000000000E+00 0. -1.
         11    1    3    3    0    0  0.43737191219E+01 -0.44937461369E+01  0.11780093626E+01  0.63805077869E+01  0.51100000000E-03 0. -1.
        -11    1    3    3    0    0 -0.10947741946E+02 -0.15143582451E+02  0.11261891782E+02  0.21817684339E+02  0.51100000000E-03 0.  1.
         12    1    3    3    0    0 -0.17022589576E+02  0.31576501980E+00  0.14449567967E+02  0.22330657802E+02  0.00000000000E+00 0. -1.
</event>
<event>
 7    1  0.2639126E-011  0.5052887E+02  0.7816164E-02  0.1300439E+00
        -11   -1    0    0    0    0  0.00000000000E+00  0.00000000000E+00  0.45593999997E+02  0.45594000000E+02  0.51100000000E-03 0. -1.
         11   -1    0    0    0    0 -0.00000000000E+00 -0.00000000000E+00 -0.45593999997E+02  0.45594000000E+02  0.51100000000E-03 0.  1.
    9900012    2    1    2    0    0 -0.38042247822E+02 -0.54585862335E+01  0.13272374524E+02  0.50528871769E+02  0.30000036228E+02 0.  0.
         12    1    1    2    0    0  0.38042247822E+02  0.54585862335E+01 -0.13272374524E+02  0.40659128231E+02  0.00000000000E+00 0. -1.
         11    1    3    3    0    0 -0.73475286188E+01  0.88276171794E+01  0.50712564539E+01  0.12555104307E+02  0.51100000000E-03 0.  1.
        -11    1    3    3    0    0  0.10081542641E+01  0.13552604048E+01  0.73693225665E+00  0.18428714543E+01  0.51100000000E-03 0. -1.
        -12    1    3    3    0    0 -0.31702873467E+02 -0.15641463818E+02  0.74641858138E+01  0.36130896008E+02  0.00000000000E+00 0.  1.
</event>
<event>
 7    1  0.2639126E-011  0.5052885E+02  0.7816164E-02  0.1300439E+00
        -11   -1    0    0    0    0  0.00000000000E+00  0.00000000000E+00  0.45593999997E+02  0.45594000000E+02  0.51100000000E-03 0. -1.
         11   -1    0    0    0    0 -0.00000000000E+00 -0.00000000000E+00 -0.45593999997E+02  0.45594000000E+02  0.51100000000E-03 0.  1.
    9900012    2    1    2    0    0  0.14019881353E+02  0.35483514372E+02 -0.14054515657E+02  0.50528852496E+02  0.29999977648E+02 0.  0.
         12    1    1    2    0    0 -0.14019881353E+02 -0.35483514372E+02  0.14054515657E+02  0.40659147504E+02  0.00000000000E+00 0. -1.
         11    1    3    3    0    0 -0.70314587582E+00  0.39693236874E+01  0.16229123909E+01  0.43455482447E+01  0.51100000000E-03 0. -1.
        -11    1    3    3    0    0 -0.53255397724E+01  0.14134740745E+02 -0.12214615686E+02  0.19425475706E+02  0.51100000000E-03 0.  1.
         12    1    3    3    0    0  0.20048567001E+02  0.17379449940E+02 -0.34628123623E+01  0.26757828546E+02  0.00000000000E+00 0. -1.
</event>
<event>
 7    1  0.2639126E-011  0.5052886E+02  0.7816164E-02  0.1300439E+00
        -11   -1    0    0    0    0  0.00000000000E+00  0.00000000000E+00  0.45593999997E+02  0.45594000000E+02  0.51100000000E-03 0. -1.
         11   -1    0    0    0    0 -0.00000000000E+00 -0.00000000000E+00 -0.45593999997E+02  0.45594000000E+02  0.51100000000E-03 0.  1.
    9900012    2    1    2    0    0 -0.37372765013E+02 -0.52165961528E+01 -0.15140319784E+02  0.50528859290E+02  0.29999998297E+02 0.  0.
         12    1    1    2    0    0  0.37372765013E+02  0.52165961528E+01  0.15140319784E+02  0.40659140710E+02  0.00000000000E+00 0. -1.
         11    1    3    3    0    0  0.16416572005E+01 -0.36961795431E+01 -0.62505886357E+01  0.74449069928E+01  0.51100000000E-03 0. -1.
        -11    1    3    3    0    0 -0.74871321145E+01 -0.46504465187E+01 -0.71580836520E+01  0.11354380738E+02  0.51100000000E-03 0.  1.
        -12    1    3    3    0    0 -0.31527290099E+02  0.31300299090E+01 -0.17316474966E+01  0.31729571558E+02  0.00000000000E+00 0.  1.
</event>
<event>
 7    1  0.2639126E-011  0.5052886E+02  0.7816164E-02  0.1300439E+00
        -11   -1    0    0    0    0  0.00000000000E+00  0.00000000000E+00  0.45593999997E+02  0.45594000000E+02  0.51100000000E-03 0. -1.
         11   -1    0    0    0    0 -0.00000000000E+00 -0.00000000000E+00 -0.45593999997E+02  0.45594000000E+02  0.51100000000E-03 0.  1.
    9900012    2    1    2    0    0 -0.20647206152E+02 -0.34515595299E+02 -0.59609109414E+01  0.50528857117E+02  0.29999991693E+02 0.  0.
         12    1    1    2    0    0  0.20647206152E+02  0.34515595299E+02  0.59609109414E+01  0.40659142883E+02  0.00000000000E+00 0. -1.
         11    1    3    3    0    0  0.10739795312E+01  0.10468464041E+01  0.44120173544E+01  0.46599588865E+01  0.51100000000E-03 0. -1.
        -11    1    3    3    0    0 -0.17563680564E+01 -0.17540238168E+02 -0.59917106630E+01  0.18618415096E+02  0.51100000000E-03 0.  1.
        -12    1    3    3    0    0 -0.19964817627E+02 -0.18022203534E+02 -0.43812176328E+01  0.27250483134E+02  0.00000000000E+00 0.  1.
</event>
<event>
 7    1  0.2639126E-011  0.5052887E+02  0.7816164E-02  0.1300439E+00
        -11   -1    0    0    0    0  0.00000000000E+00  0.00000000000E+00  0.45593999997E+02  0.45594000000E+02  0.51100000000E-03 0. -1.
         11   -1    0    0    0    0 -0.00000000000E+00 -0.00000000000E+00 -0.45593999997E+02  0.45594000000E+02  0.51100000000E-03 0.  1.
    9900012    2    1    2    0    0  0.32025526055E+02 -0.24282388407E+02 -0.61560067025E+01  0.50528866655E+02  0.30000020685E+02 0.  0.
         12    1    1    2    0    0 -0.32025526055E+02  0.24282388407E+02  0.61560067025E+01  0.40659133345E+02  0.00000000000E+00 0. -1.
         11    1    3    3    0    0  0.76291568586E+01  0.21041552458E+01  0.26734628272E+01  0.83533770070E+01  0.51100000000E-03 0. -1.
        -11    1    3    3    0    0  0.94871979196E+01 -0.42171720974E+01  0.56160062730E+01  0.11803854946E+02  0.51100000000E-03 0.  1.
        -12    1    3    3    0    0  0.14909171276E+02 -0.22169371556E+02 -0.14445475803E+02  0.30371634702E+02  0.00000000000E+00 0.  1.
</event>
<event>
 7    1  0.2639126E-011  0.5052890E+02  0.7816164E-02  0.1300439E+00
        -11   -1    0    0    0    0  0.00000000000E+00  0.00000000000E+00  0.45593999997E+02  0.45594000000E+02  0.51100000000E-03 0. -1.
         11   -1    0    0    0    0 -0.00000000000E+00 -0.00000000000E+00 -0.45593999997E+02  0.45594000000E+02  0.51100000000E-03 0.  1.
    9900012    2    1    2    0    0  0.35882877294E+02 -0.78887561393E+01 -0.17416915139E+02  0.50528901519E+02  0.30000126658E+02 0.  0.
         12    1    1    2    0    0 -0.35882877294E+02  0.78887561393E+01  0.17416915139E+02  0.40659098481E+02  0.00000000000E+00 0. -1.
         11    1    3    3    0    0 -0.39978281259E+00 -0.26876672679E+01 -0.37327563757E+01  0.46170176588E+01  0.51100000000E-03 0. -1.
        -11    1    3    3    0    0  0.15335358344E+02 -0.12208645509E+02 -0.13539342785E+02  0.23823056983E+02  0.51100000000E-03 0.  1.
         12    1    3    3    0    0  0.20947301763E+02  0.70075566375E+01 -0.14481597759E+00  0.22088826878E+02  0.00000000000E+00 0. -1.
</event>
<event>
 7    1  0.2639126E-011  0.5052887E+02  0.7816164E-02  0.1300439E+00
        -11   -1    0    0    0    0  0.00000000000E+00  0.00000000000E+00  0.45593999997E+02  0.45594000000E+02  0.51100000000E-03 0.  1.
         11   -1    0    0    0    0 -0.00000000000E+00 -0.00000000000E+00 -0.45593999997E+02  0.45594000000E+02  0.51100000000E-03 0. -1.
    9900012    2    1    2    0    0 -0.26598273985E+02 -0.25965340910E+02  0.16477200534E+02  0.50528865172E+02  0.30000016177E+02 0.  0.
         12    1    1    2    0    0  0.26598273985E+02  0.25965340910E+02 -0.16477200534E+02  0.40659134828E+02  0.00000000000E+00 0. -1.
         11    1    3    3    0    0 -0.14367236410E+02 -0.25217468291E+02 -0.43026610241E+00  0.29026252225E+02  0.51100000000E-03 0.  1.
        -11    1    3    3    0    0 -0.19876174694E+01  0.38688582705E+00  0.43397095543E+00  0.20709019531E+01  0.51100000000E-03 0. -1.
        -12    1    3    3    0    0 -0.10243420106E+02 -0.11347584457E+01  0.16473495681E+02  0.19431710993E+02  0.00000000000E+00 0.  1.
</event>
<event>
 7    1  0.2639126E-011  0.5052886E+02  0.7816164E-02  0.1300439E+00
        -11   -1    0    0    0    0  0.00000000000E+00  0.00000000000E+00  0.45593999997E+02  0.45594000000E+02  0.51100000000E-03 0.  1.
         11   -1    0    0    0    0 -0.00000000000E+00 -0.00000000000E+00 -0.45593999997E+02  0.45594000000E+02  0.51100000000E-03 0. -1.
    9900012    2    1    2    0    0  0.11367513275E+02  0.31624834626E+02 -0.22887002525E+02  0.50528863170E+02  0.30000010092E+02 0.  0.
         12    1    1    2    0    0 -0.11367513275E+02 -0.31624834626E+02  0.22887002525E+02  0.40659136830E+02  0.00000000000E+00 0. -1.
         11    1    3    3    0    0  0.23599652128E+01 -0.14066370073E-01  0.36657039673E+01  0.43597040616E+01  0.51100000000E-03 0. -1.
        -11    1    3    3    0    0  0.68140696993E+01  0.34388186715E+01 -0.12350287814E+02  0.14518492659E+02  0.51100000000E-03 0.  1.
         12    1    3    3    0    0  0.21934783632E+01  0.28200082324E+02 -0.14202418678E+02  0.31650666450E+02  0.00000000000E+00 0. -1.
</event>
<event>
 7    1  0.2639126E-011  0.5052879E+02  0.7816164E-02  0.1300439E+00
        -11   -1    0    0    0    0  0.00000000000E+00  0.00000000000E+00  0.45593999997E+02  0.45594000000E+02  0.51100000000E-03 0.  1.
         11   -1    0    0    0    0 -0.00000000000E+00 -0.00000000000E+00 -0.45593999997E+02  0.45594000000E+02  0.51100000000E-03 0. -1.
    9900012    2    1    2    0    0 -0.14975729678E+02 -0.29189962858E+02  0.24017604344E+02  0.50528785430E+02  0.29999773791E+02 0.  0.
         12    1    1    2    0    0  0.14975729678E+02  0.29189962858E+02 -0.24017604344E+02  0.40659214570E+02  0.00000000000E+00 0. -1.
         11    1    3    3    0    0 -0.90832923039E+01 -0.49416571621E+00  0.81200066362E+01  0.12193642067E+02  0.51100000000E-03 0.  1.
        -11    1    3    3    0    0  0.36774925226E+01 -0.10081489853E+02  0.13533441297E+02  0.17271781104E+02  0.51100000000E-03 0. -1.
         12    1    3    3    0    0 -0.95699298969E+01 -0.18614307289E+02  0.23641564106E+01  0.21063362258E+02  0.00000000000E+00 0. -1.
</event>
<event>
 7    1  0.2639126E-011  0.5052886E+02  0.7816164E-02  0.1300439E+00
        -11   -1    0    0    0    0  0.00000000000E+00  0.00000000000E+00  0.45593999997E+02  0.45594000000E+02  0.51100000000E-03 0.  1.
         11   -1    0    0    0    0 -0.00000000000E+00 -0.00000000000E+00 -0.45593999997E+02  0.45594000000E+02  0.51100000000E-03 0. -1.
    9900012    2    1    2    0    0 -0.14036298717E+01  0.40625859354E+02 -0.85720433511E+00  0.50528862966E+02  0.30000009472E+02 0.  0.
         12    1    1    2    0    0  0.14036298717E+01 -0.40625859354E+02  0.85720433511E+00  0.40659137034E+02  0.00000000000E+00 0. -1.
         11    1    3    3    0    0 -0.62926989169E+01  0.25122578650E+02  0.82962336236E+01  0.27195027308E+02  0.51100000000E-03 0. -1.
        -11    1    3    3    0    0 -0.42654907605E+01  0.90063184405E+01 -0.24615220917E+01  0.10264856285E+02  0.51100000000E-03 0.  1.
         12    1    3    3    0    0  0.91545598058E+01  0.64969622635E+01 -0.66919158670E+01  0.13068979373E+02  0.00000000000E+00 0. -1.
</event>
<event>
 7    1  0.2639126E-011  0.5052886E+02  0.7816164E-02  0.1300439E+00
        -11   -1    0    0    0    0  0.00000000000E+00  0.00000000000E+00  0.45593999997E+02  0.45594000000E+02  0.51100000000E-03 0.  1.
         11   -1    0    0    0    0 -0.00000000000E+00 -0.00000000000E+00 -0.45593999997E+02  0.45594000000E+02  0.51100000000E-03 0. -1.
    9900012    2    1    2    0    0  0.15019518403E+02  0.32976861950E+02  0.18441973602E+02  0.50528858993E+02  0.29999997394E+02 0.  0.
         12    1    1    2    0    0 -0.15019518403E+02 -0.32976861950E+02 -0.18441973602E+02  0.40659141007E+02  0.00000000000E+00 0. -1.
         11    1    3    3    0    0 -0.89578025993E+00 -0.19703731973E+00 -0.26769334310E+01  0.28297029587E+01  0.51100000000E-03 0. -1.
        -11    1    3    3    0    0  0.19596736258E+01  0.27270509225E+02  0.16139621311E+02  0.31749147554E+02  0.51100000000E-03 0.  1.
         12    1    3    3    0    0  0.13955625038E+02  0.59033900447E+01  0.49792857217E+01  0.15950008480E+02  0.00000000000E+00 0. -1.
</event>
<event>
 7    1  0.2639126E-011  0.5052886E+02  0.7816164E-02  0.1300439E+00
        -11   -1    0    0    0    0  0.00000000000E+00  0.00000000000E+00  0.45593999997E+02  0.45594000000E+02  0.51100000000E-03 0.  1.
         11   -1    0    0    0    0 -0.00000000000E+00 -0.00000000000E+00 -0.45593999997E+02  0.45594000000E+02  0.51100000000E-03 0. -1.
    9900012    2    1    2    0    0  0.12957061888E+02 -0.38314210359E+02 -0.41594957072E+01  0.50528861142E+02  0.30000003926E+02 0.  0.
         12    1    1    2    0    0 -0.12957061888E+02  0.38314210359E+02  0.41594957072E+01  0.40659138858E+02  0.00000000000E+00 0. -1.
         11    1    3    3    0    0  0.10806245466E+02 -0.11738930353E+02  0.18015298700E+01  0.16056865729E+02  0.51100000000E-03 0. -1.
        -11    1    3    3    0    0  0.92563817244E+01 -0.11644690821E+02  0.36901310282E+01  0.15326333359E+02  0.51100000000E-03 0.  1.
         12    1    3    3    0    0 -0.71055653028E+01 -0.14930589184E+02 -0.96511566054E+01  0.19145662054E+02  0.00000000000E+00 0. -1.
</event>
<event>
 7    1  0.2639126E-011  0.5052886E+02  0.7816164E-02  0.1300439E+00
        -11   -1    0    0    0    0  0.00000000000E+00  0.00000000000E+00  0.45593999997E+02  0.45594000000E+02  0.51100000000E-03 0.  1.
         11   -1    0    0    0    0 -0.00000000000E+00 -0.00000000000E+00 -0.45593999997E+02  0.45594000000E+02  0.51100000000E-03 0. -1.
    9900012    2    1    2    0    0  0.40330442570E+01  0.25011231797E+02  0.31801553638E+02  0.50528856185E+02  0.29999988860E+02 0.  0.
         12    1    1    2    0    0 -0.40330442570E+01 -0.25011231797E+02 -0.31801553638E+02  0.40659143815E+02  0.00000000000E+00 0. -1.
         11    1    3    3    0    0 -0.25570210129E+01  0.59188804871E+00 -0.19615594801E+01  0.32766452017E+01  0.51100000000E-03 0. -1.
        -11    1    3    3    0    0  0.74176862612E+01  0.10224753110E+01  0.16639802122E+02  0.18246932349E+02  0.51100000000E-03 0.  1.
        -12    1    3    3    0    0 -0.82762099135E+00  0.23396868438E+02  0.17123310996E+02  0.29005278634E+02  0.00000000000E+00 0.  1.
</event>
<event>
 7    1  0.2639126E-011  0.5052886E+02  0.7816164E-02  0.1300439E+00
        -11   -1    0    0    0    0  0.00000000000E+00  0.00000000000E+00  0.45593999997E+02  0.45594000000E+02  0.51100000000E-03 0.  1.
         11   -1    0    0    0    0 -0.00000000000E+00 -0.00000000000E+00 -0.45593999997E+02  0.45594000000E+02  0.51100000000E-03 0. -1.
    9900012    2    1    2    0    0 -0.37559689469E+02  0.54040988692E+01  0.14602441572E+02  0.50528857640E+02  0.29999993283E+02 0.  0.
         12    1    1    2    0    0  0.37559689469E+02 -0.54040988692E+01 -0.14602441572E+02  0.40659142360E+02  0.00000000000E+00 0. -1.
         11    1    3    3    0    0 -0.88516568667E+01 -0.15006904673E+00 -0.42846536570E+01  0.98352736224E+01  0.51100000000E-03 0. -1.
        -11    1    3    3    0    0 -0.58841997885E+01  0.40598786657E+01 -0.41203496995E+01  0.82512849811E+01  0.51100000000E-03 0.  1.
        -12    1    3    3    0    0 -0.22823832813E+02  0.14942892503E+01  0.23007444928E+02  0.32442299037E+02  0.00000000000E+00 0.  1.
</event>
<event>
 7    1  0.2639126E-011  0.5052884E+02  0.7816164E-02  0.1300439E+00
        -11   -1    0    0    0    0  0.00000000000E+00  0.00000000000E+00  0.45593999997E+02  0.45594000000E+02  0.51100000000E-03 0.  1.
         11   -1    0    0    0    0 -0.00000000000E+00 -0.00000000000E+00 -0.45593999997E+02  0.45594000000E+02  0.51100000000E-03 0. -1.
    9900012    2    1    2    0    0 -0.14471574183E+01 -0.40628723005E+02  0.61619779370E+00  0.50528842393E+02  0.29999946938E+02 0.  0.
         12    1    1    2    0    0  0.14471574183E+01  0.40628723005E+02 -0.61619779370E+00  0.40659157607E+02  0.00000000000E+00 0. -1.
         11    1    3    3    0    0 -0.30231163776E+01 -0.15908079200E+02 -0.22308598306E+00  0.16194319501E+02  0.51100000000E-03 0. -1.
        -11    1    3    3    0    0  0.86768678936E+01 -0.16716342635E+02  0.90034534819E+01  0.20875495740E+02  0.51100000000E-03 0.  1.
         12    1    3    3    0    0 -0.71009089344E+01 -0.80043011693E+01 -0.81641697051E+01  0.13459027152E+02  0.00000000000E+00 0. -1.
</event>
<event>
 7    1  0.2639126E-011  0.5052886E+02  0.7816164E-02  0.1300439E+00
        -11   -1    0    0    0    0  0.00000000000E+00  0.00000000000E+00  0.45593999997E+02  0.45594000000E+02  0.51100000000E-03 0. -1.
         11   -1    0    0    0    0 -0.00000000000E+00 -0.00000000000E+00 -0.45593999997E+02  0.45594000000E+02  0.51100000000E-03 0.  1.
    9900012    2    1    2    0    0  0.40232052159E+02 -0.58749879548E+01 -0.17983415667E+00  0.50528857796E+02  0.29999993757E+02 0.  0.
         12    1    1    2    0    0 -0.40232052159E+02  0.58749879548E+01  0.17983415667E+00  0.40659142204E+02  0.00000000000E+00 0. -1.
         11    1    3    3    0    0  0.70093930993E+01  0.87076320800E+01  0.14357394281E+01  0.11270128483E+02  0.51100000000E-03 0. -1.
        -11    1    3    3    0    0  0.26264958860E+02 -0.51611379572E+01  0.24065661037E+01  0.26875211062E+02  0.51100000000E-03 0.  1.
        -12    1    3    3    0    0  0.69577002000E+01 -0.94214820776E+01 -0.40221396884E+01  0.12383518252E+02  0.00000000000E+00 0.  1.
</event>
<event>
 7    1  0.2639126E-011  0.5052886E+02  0.7816164E-02  0.1300439E+00
        -11   -1    0    0    0    0  0.00000000000E+00  0.00000000000E+00  0.45593999997E+02  0.45594000000E+02  0.51100000000E-03 0. -1.
         11   -1    0    0    0    0 -0.00000000000E+00 -0.00000000000E+00 -0.45593999997E+02  0.45594000000E+02  0.51100000000E-03 0.  1.
    9900012    2    1    2    0    0 -0.18619406129E+02  0.17873925654E+02 -0.31416660459E+02  0.50528855183E+02  0.29999985813E+02 0.  0.
         12    1    1    2    0    0  0.18619406129E+02 -0.17873925654E+02  0.31416660459E+02  0.40659144817E+02  0.00000000000E+00 0. -1.
         11    1    3    3    0    0 -0.75592514549E+01  0.10102857586E+02  0.60016906187E+00  0.12632110557E+02  0.51100000000E-03 0. -1.
        -11    1    3    3    0    0  0.36438100754E+01  0.37175863831E-01 -0.51733210351E+01  0.63278736321E+01  0.51100000000E-03 0.  1.
        -12    1    3    3    0    0 -0.14703964749E+02  0.77338922038E+01 -0.26843508486E+02  0.31568870993E+02  0.00000000000E+00 0.  1.
</event>
<event>
 7    1  0.2639126E-011  0.5052885E+02  0.7816164E-02  0.1300439E+00
        -11   -1    0    0    0    0  0.00000000000E+00  0.00000000000E+00  0.45593999997E+02  0.45594000000E+02  0.51100000000E-03 0.  1.
         11   -1    0    0    0    0 -0.00000000000E+00 -0.00000000000E+00 -0.45593999997E+02  0.45594000000E+02  0.51100000000E-03 0. -1.
    9900012    2    1    2    0    0 -0.15733384996E+02  0.36715058139E+02  0.75915435564E+01  0.50528850585E+02  0.29999971839E+02 0.  0.
         12    1    1    2    0    0  0.15733384996E+02 -0.36715058139E+02 -0.75915435564E+01  0.40659149415E+02  0.00000000000E+00 0. -1.
         11    1    3    3    0    0  0.22114839999E+01  0.13570685769E+01  0.26699328647E+01  0.37230146880E+01  0.51100000000E-03 0. -1.
        -11    1    3    3    0    0 -0.13190058290E+02  0.29901836905E+02 -0.64638612385E+01  0.33314846396E+02  0.51100000000E-03 0.  1.
         12    1    3    3    0    0 -0.47548107059E+01  0.54561526568E+01  0.11385471930E+02  0.13490989502E+02  0.00000000000E+00 0. -1.
</event>
<event>
 7    1  0.2639126E-011  0.5052887E+02  0.7816164E-02  0.1300439E+00
        -11   -1    0    0    0    0  0.00000000000E+00  0.00000000000E+00  0.45593999997E+02  0.45594000000E+02  0.51100000000E-03 0.  1.
         11   -1    0    0    0    0 -0.00000000000E+00 -0.00000000000E+00 -0.45593999997E+02  0.45594000000E+02  0.51100000000E-03 0. -1.
    9900012    2    1    2    0    0 -0.36761757294E+02 -0.15250844832E+02  0.83156488193E+01  0.50528867168E+02  0.30000022243E+02 0.  0.
         12    1    1    2    0    0  0.36761757294E+02  0.15250844832E+02 -0.83156488193E+01  0.40659132832E+02  0.00000000000E+00 0. -1.
         11    1    3    3    0    0 -0.11266552496E+02  0.30368882974E+01  0.27746049489E+01  0.11994012196E+02  0.51100000000E-03 0. -1.
        -11    1    3    3    0    0 -0.14911988823E+02 -0.14694131914E+01  0.10198097501E+02  0.18125335271E+02  0.51100000000E-03 0.  1.
        -12    1    3    3    0    0 -0.10583215975E+02 -0.16818319938E+02 -0.46570536307E+01  0.20409519701E+02  0.00000000000E+00 0.  1.
</event>
<event>
 7    1  0.2639126E-011  0.5052885E+02  0.7816164E-02  0.1300439E+00
        -11   -1    0    0    0    0  0.00000000000E+00  0.00000000000E+00  0.45593999997E+02  0.45594000000E+02  0.51100000000E-03 0.  1.
         11   -1    0    0    0    0 -0.00000000000E+00 -0.00000000000E+00 -0.45593999997E+02  0.45594000000E+02  0.51100000000E-03 0. -1.
    9900012    2    1    2    0    0 -0.32971825553E+02 -0.16522652597E+02  0.17118029820E+02  0.50528852517E+02  0.29999977712E+02 0.  0.
         12    1    1    2    0    0  0.32971825553E+02  0.16522652597E+02 -0.17118029820E+02  0.40659147483E+02  0.00000000000E+00 0. -1.
         11    1    3    3    0    0  0.31104551038E+01  0.21719374096E+01  0.88036971731E+00  0.38945210443E+01  0.51100000000E-03 0. -1.
        -11    1    3    3    0    0 -0.52209664484E+00  0.21963840840E+01 -0.13274375640E+00  0.22614838308E+01  0.51100000000E-03 0.  1.
        -12    1    3    3    0    0 -0.35560184012E+02 -0.20890974090E+02  0.16370403859E+02  0.44372847642E+02  0.00000000000E+00 0.  1.
</event>
<event>
 7    1  0.2639126E-011  0.5052887E+02  0.7816164E-02  0.1300439E+00
        -11   -1    0    0    0    0  0.00000000000E+00  0.00000000000E+00  0.45593999997E+02  0.45594000000E+02  0.51100000000E-03 0.  1.
         11   -1    0    0    0    0 -0.00000000000E+00 -0.00000000000E+00 -0.45593999997E+02  0.45594000000E+02  0.51100000000E-03 0. -1.
    9900012    2    1    2    0    0  0.20179840715E+02 -0.28150242149E+02 -0.21295601386E+02  0.50528871349E+02  0.30000034952E+02 0.  0.
         12    1    1    2    0    0 -0.20179840715E+02  0.28150242149E+02  0.21295601386E+02  0.40659128651E+02  0.00000000000E+00 0. -1.
         11    1    3    3    0    0  0.11082304424E+02 -0.10317130363E+02  0.54121648783E-01  0.15141452364E+02  0.51100000000E-03 0.  1.
        -11    1    3    3    0    0  0.13740420337E+02 -0.74385990112E+01 -0.71373696942E+01  0.17177716748E+02  0.51100000000E-03 0. -1.
         12    1    3    3    0    0 -0.46428840454E+01 -0.10394512774E+02 -0.14212353340E+02  0.18209702236E+02  0.00000000000E+00 0. -1.
</event>
<event>
 7    1  0.2639126E-011  0.5052886E+02  0.7816164E-02  0.1300439E+00
        -11   -1    0    0    0    0  0.00000000000E+00  0.00000000000E+00  0.45593999997E+02  0.45594000000E+02  0.51100000000E-03 0.  1.
         11   -1    0    0    0    0 -0.00000000000E+00 -0.00000000000E+00 -0.45593999997E+02  0.45594000000E+02  0.51100000000E-03 0. -1.
    9900012    2    1    2    0    0 -0.14676683883E+02  0.22239386648E+02  0.30711077899E+02  0.50528859896E+02  0.30000000139E+02 0.  0.
         12    1    1    2    0    0  0.14676683883E+02 -0.22239386648E+02 -0.30711077899E+02  0.40659140104E+02  0.00000000000E+00 0. -1.
         11    1    3    3    0    0 -0.38348117295E+01  0.11584475285E+02  0.15525695529E+02  0.19747229440E+02  0.51100000000E-03 0. -1.
        -11    1    3    3    0    0 -0.38246206401E+01  0.16814393462E+02  0.80504672820E+01  0.19030543194E+02  0.51100000000E-03 0.  1.
         12    1    3    3    0    0 -0.70172515130E+01 -0.61594820986E+01  0.71349150878E+01  0.11751087262E+02  0.00000000000E+00 0. -1.
</event>
<event>
 7    1  0.2639126E-011  0.5052885E+02  0.7816164E-02  0.1300439E+00
        -11   -1    0    0    0    0  0.00000000000E+00  0.00000000000E+00  0.45593999997E+02  0.45594000000E+02  0.51100000000E-03 0.  1.
         11   -1    0    0    0    0 -0.00000000000E+00 -0.00000000000E+00 -0.45593999997E+02  0.45594000000E+02  0.51100000000E-03 0. -1.
    9900012    2    1    2    0    0 -0.35123468433E+02  0.37620162117E+01  0.20133444771E+02  0.50528850980E+02  0.29999973038E+02 0.  0.
         12    1    1    2    0    0  0.35123468433E+02 -0.37620162117E+01 -0.20133444771E+02  0.40659149020E+02  0.00000000000E+00 0. -1.
         11    1    3    3    0    0 -0.21153990943E+02 -0.45862392822E+01  0.70304739767E+00  0.21656851098E+02  0.51100000000E-03 0. -1.
        -11    1    3    3    0    0 -0.18278758577E+01 -0.36314728504E+01  0.21814394593E+01  0.46138274339E+01  0.51100000000E-03 0.  1.
         12    1    3    3    0    0 -0.12141601632E+02  0.11979728344E+02  0.17248957914E+02  0.24258172448E+02  0.00000000000E+00 0. -1.
</event>
<event>
 7    1  0.2639126E-011  0.5052881E+02  0.7816164E-02  0.1300439E+00
        -11   -1    0    0    0    0  0.00000000000E+00  0.00000000000E+00  0.45593999997E+02  0.45594000000E+02  0.51100000000E-03 0.  1.
         11   -1    0    0    0    0 -0.00000000000E+00 -0.00000000000E+00 -0.45593999997E+02  0.45594000000E+02  0.51100000000E-03 0. -1.
    9900012    2    1    2    0    0  0.26247187333E+02 -0.18158718459E+02  0.25189600561E+02  0.50528808230E+02  0.29999843095E+02 0.  0.
         12    1    1    2    0    0 -0.26247187333E+02  0.18158718459E+02 -0.25189600561E+02  0.40659191770E+02  0.00000000000E+00 0. -1.
         11    1    3    3    0    0  0.11285943578E+02 -0.18199271525E+02  0.89461759776E+01  0.23208189748E+02  0.51100000000E-03 0. -1.
        -11    1    3    3    0    0  0.13661905645E+02 -0.56226566268E+01  0.15582677311E+02  0.21472814577E+02  0.51100000000E-03 0.  1.
         12    1    3    3    0    0  0.12993381100E+01  0.56632096932E+01  0.66074727228E+00  0.58478039050E+01  0.00000000000E+00 0. -1.
</event>
<event>
 7    1  0.2639126E-011  0.5052886E+02  0.7816164E-02  0.1300439E+00
        -11   -1    0    0    0    0  0.00000000000E+00  0.00000000000E+00  0.45593999997E+02  0.45594000000E+02  0.51100000000E-03 0.  1.
         11   -1    0    0    0    0 -0.00000000000E+00 -0.00000000000E+00 -0.45593999997E+02  0.45594000000E+02  0.51100000000E-03 0. -1.
    9900012    2    1    2    0    0 -0.36324822966E+02  0.11509602668E+02  0.14184576840E+02  0.50528856659E+02  0.29999990300E+02 0.  0.
         12    1    1    2    0    0  0.36324822966E+02 -0.11509602668E+02 -0.14184576840E+02  0.40659143341E+02  0.00000000000E+00 0. -1.
         11    1    3    3    0    0 -0.11520975912E+01 -0.87078054000E+00 -0.21812618892E+01  0.26160067468E+01  0.51100000000E-03 0. -1.
        -11    1    3    3    0    0 -0.13455582111E+02  0.14867397217E+02 -0.87729763762E+00  0.20071418519E+02  0.51100000000E-03 0.  1.
        -12    1    3    3    0    0 -0.21717143264E+02 -0.24870140095E+01  0.17243136367E+02  0.27841431393E+02  0.00000000000E+00 0.  1.
</event>
<event>
 7    1  0.2639126E-011  0.5052886E+02  0.7816164E-02  0.1300439E+00
        -11   -1    0    0    0    0  0.00000000000E+00  0.00000000000E+00  0.45593999997E+02  0.45594000000E+02  0.51100000000E-03 0. -1.
         11   -1    0    0    0    0 -0.00000000000E+00 -0.00000000000E+00 -0.45593999997E+02  0.45594000000E+02  0.51100000000E-03 0.  1.
    9900012    2    1    2    0    0  0.14224232202E+02 -0.33543684587E+02 -0.18046006162E+02  0.50528857168E+02  0.29999991849E+02 0.  0.
         12    1    1    2    0    0 -0.14224232202E+02  0.33543684587E+02  0.18046006162E+02  0.40659142832E+02  0.00000000000E+00 0. -1.
         11    1    3    3    0    0 -0.40091880080E+01 -0.21089874294E+01 -0.13664539930E+01  0.47316607271E+01  0.51100000000E-03 0. -1.
        -11    1    3    3    0    0  0.14741108621E+02 -0.11794942575E+02 -0.17624220960E+02  0.25827003667E+02  0.51100000000E-03 0.  1.
        -12    1    3    3    0    0  0.34923115891E+01 -0.19639754583E+02  0.94466879098E+00  0.19970192774E+02  0.00000000000E+00 0.  1.
</event>
<event>
 7    1  0.2639126E-011  0.5052886E+02  0.7816164E-02  0.1300439E+00
        -11   -1    0    0    0    0  0.00000000000E+00  0.00000000000E+00  0.45593999997E+02  0.45594000000E+02  0.51100000000E-03 0.  1.
         11   -1    0    0    0    0 -0.00000000000E+00 -0.00000000000E+00 -0.45593999997E+02  0.45594000000E+02  0.51100000000E-03 0. -1.
    9900012    2    1    2    0    0  0.12331905018E+02 -0.37956237785E+02 -0.77726318217E+01  0.50528859901E+02  0.30000000154E+02 0.  0.
         12    1    1    2    0    0 -0.12331905018E+02  0.37956237785E+02  0.77726318217E+01  0.40659140099E+02  0.00000000000E+00 0. -1.
         11    1    3    3    0    0 -0.43090962891E+01 -0.11773438229E+02 -0.61091676896E+01  0.13946472267E+02  0.51100000000E-03 0. -1.
        -11    1    3    3    0    0  0.92997261986E+00 -0.11983072891E+02  0.67620948096E+01  0.13790750939E+02  0.51100000000E-03 0.  1.
         12    1    3    3    0    0  0.15711028687E+02 -0.14199726665E+02 -0.84255589416E+01  0.22791636696E+02  0.00000000000E+00 0. -1.
</event>
<event>
 7    1  0.2639126E-011  0.5052884E+02  0.7816164E-02  0.1300439E+00
        -11   -1    0    0    0    0  0.00000000000E+00  0.00000000000E+00  0.45593999997E+02  0.45594000000E+02  0.51100000000E-03 0.  1.
         11   -1    0    0    0    0 -0.00000000000E+00 -0.00000000000E+00 -0.45593999997E+02  0.45594000000E+02  0.51100000000E-03 0. -1.
    9900012    2    1    2    0    0 -0.33042803469E+02  0.18954666151E+02  0.14214825559E+02  0.50528837495E+02  0.29999932048E+02 0.  0.
         12    1    1    2    0    0  0.33042803469E+02 -0.18954666151E+02 -0.14214825559E+02  0.40659162505E+02  0.00000000000E+00 0. -1.
         11    1    3    3    0    0 -0.12897530979E+02  0.37834060593E+01  0.43414935401E+01  0.14124766659E+02  0.51100000000E-03 0. -1.
        -11    1    3    3    0    0 -0.24315241542E+02  0.98280635337E+01  0.24322826840E+01  0.26338902851E+02  0.51100000000E-03 0.  1.
         12    1    3    3    0    0  0.41699690520E+01  0.53431965582E+01  0.74410493351E+01  0.10065167985E+02  0.00000000000E+00 0. -1.
</event>
<event>
 7    1  0.2639126E-011  0.5052886E+02  0.7816164E-02  0.1300439E+00
        -11   -1    0    0    0    0  0.00000000000E+00  0.00000000000E+00  0.45593999997E+02  0.45594000000E+02  0.51100000000E-03 0.  1.
         11   -1    0    0    0    0 -0.00000000000E+00 -0.00000000000E+00 -0.45593999997E+02  0.45594000000E+02  0.51100000000E-03 0. -1.
    9900012    2    1    2    0    0 -0.29823319656E+02  0.25829881481E+02  0.98261060604E+01  0.50528861631E+02  0.30000005413E+02 0.  0.
         12    1    1    2    0    0  0.29823319656E+02 -0.25829881481E+02 -0.98261060604E+01  0.40659138369E+02  0.00000000000E+00 0. -1.
         11    1    3    3    0    0 -0.57544262591E+01  0.11063529439E+02 -0.91249192212E+00  0.12503909268E+02  0.51100000000E-03 0. -1.
        -11    1    3    3    0    0 -0.16233203912E+02 -0.30495704203E+01  0.80592576463E+01  0.18378477169E+02  0.51100000000E-03 0.  1.
         12    1    3    3    0    0 -0.78356894847E+01  0.17815922462E+02  0.26793403362E+01  0.19646475193E+02  0.00000000000E+00 0. -1.
</event>
<event>
 7    1  0.2639126E-011  0.5052886E+02  0.7816164E-02  0.1300439E+00
        -11   -1    0    0    0    0  0.00000000000E+00  0.00000000000E+00  0.45593999997E+02  0.45594000000E+02  0.51100000000E-03 0.  1.
         11   -1    0    0    0    0 -0.00000000000E+00 -0.00000000000E+00 -0.45593999997E+02  0.45594000000E+02  0.51100000000E-03 0. -1.
    9900012    2    1    2    0    0  0.13338659687E+02  0.33814962878E+02  0.18215213977E+02  0.50528861090E+02  0.30000003769E+02 0.  0.
         12    1    1    2    0    0 -0.13338659687E+02 -0.33814962878E+02 -0.18215213977E+02  0.40659138910E+02  0.00000000000E+00 0. -1.
         11    1    3    3    0    0 -0.43727469249E+01  0.24393853191E+01  0.10365055332E+01  0.51133022976E+01  0.51100000000E-03 0. -1.
        -11    1    3    3    0    0  0.21772480892E+01 -0.32610300130E+01  0.28213547913E+01  0.48306075299E+01  0.51100000000E-03 0.  1.
        -12    1    3    3    0    0  0.15534158523E+02  0.34636607571E+02  0.14357353653E+02  0.40584951263E+02  0.00000000000E+00 0.  1.
</event>
<event>
 7    1  0.2639126E-011  0.5052886E+02  0.7816164E-02  0.1300439E+00
        -11   -1    0    0    0    0  0.00000000000E+00  0.00000000000E+00  0.45593999997E+02  0.45594000000E+02  0.51100000000E-03 0.  1.
         11   -1    0    0    0    0 -0.00000000000E+00 -0.00000000000E+00 -0.45593999997E+02  0.45594000000E+02  0.51100000000E-03 0. -1.
    9900012    2    1    2    0    0 -0.11956994829E+02 -0.10211051323E+01  0.38847820221E+02  0.50528861827E+02  0.30000006009E+02 0.  0.
         12    1    1    2    0    0  0.11956994829E+02  0.10211051323E+01 -0.38847820221E+02  0.40659138173E+02  0.00000000000E+00 0. -1.
         11    1    3    3    0    0 -0.32795538555E+01  0.10824718197E+01 -0.14693130496E+01  0.37531453250E+01  0.51100000000E-03 0. -1.
        -11    1    3    3    0    0 -0.98649431444E+01  0.83585639154E+01  0.25597980853E+02  0.28678202838E+02  0.51100000000E-03 0.  1.
        -12    1    3    3    0    0  0.11875021711E+01 -0.10462140867E+02  0.14719152418E+02  0.18097513664E+02  0.00000000000E+00 0.  1.
</event>
<event>
 7    1  0.2639126E-011  0.5052886E+02  0.7816164E-02  0.1300439E+00
        -11   -1    0    0    0    0  0.00000000000E+00  0.00000000000E+00  0.45593999997E+02  0.45594000000E+02  0.51100000000E-03 0.  1.
         11   -1    0    0    0    0 -0.00000000000E+00 -0.00000000000E+00 -0.45593999997E+02  0.45594000000E+02  0.51100000000E-03 0. -1.
    9900012    2    1    2    0    0 -0.30452492305E+02  0.77785610044E+00  0.26929660397E+02  0.50528856418E+02  0.29999989567E+02 0.  0.
         12    1    1    2    0    0  0.30452492305E+02 -0.77785610044E+00 -0.26929660397E+02  0.40659143582E+02  0.00000000000E+00 0. -1.
         11    1    3    3    0    0 -0.59257840428E+01  0.78069449349E+01  0.76083598321E+01  0.12407676871E+02  0.51100000000E-03 0. -1.
        -11    1    3    3    0    0  0.24357236585E+01  0.31106841537E+01  0.33737936740E+01  0.51953430744E+01  0.51100000000E-03 0.  1.
        -12    1    3    3    0    0 -0.26962431921E+02 -0.10139772988E+02  0.15947506891E+02  0.32925836472E+02  0.00000000000E+00 0.  1.
</event>
<event>
 7    1  0.2639126E-011  0.5052886E+02  0.7816164E-02  0.1300439E+00
        -11   -1    0    0    0    0  0.00000000000E+00  0.00000000000E+00  0.45593999997E+02  0.45594000000E+02  0.51100000000E-03 0.  1.
         11   -1    0    0    0    0 -0.00000000000E+00 -0.00000000000E+00 -0.45593999997E+02  0.45594000000E+02  0.51100000000E-03 0. -1.
    9900012    2    1    2    0    0  0.15381673526E+02  0.31112818991E+02  0.21179287325E+02  0.50528860836E+02  0.30000002996E+02 0.  0.
         12    1    1    2    0    0 -0.15381673526E+02 -0.31112818991E+02 -0.21179287325E+02  0.40659139164E+02  0.00000000000E+00 0. -1.
         11    1    3    3    0    0  0.61551840351E+01 -0.32323122832E+01  0.37836105330E+01  0.79151653254E+01  0.51100000000E-03 0. -1.
        -11    1    3    3    0    0  0.12490826364E+02  0.17334819915E+02  0.11819339217E+02  0.24417483583E+02  0.51100000000E-03 0.  1.
        -12    1    3    3    0    0 -0.32643368729E+01  0.17010311359E+02  0.55763375745E+01  0.18196211927E+02  0.00000000000E+00 0.  1.
</event>
<event>
 7    1  0.2639126E-011  0.5052886E+02  0.7816164E-02  0.1300439E+00
        -11   -1    0    0    0    0  0.00000000000E+00  0.00000000000E+00  0.45593999997E+02  0.45594000000E+02  0.51100000000E-03 0.  1.
         11   -1    0    0    0    0 -0.00000000000E+00 -0.00000000000E+00 -0.45593999997E+02  0.45594000000E+02  0.51100000000E-03 0. -1.
    9900012    2    1    2    0    0  0.32164567969E+02  0.13478389473E+02  0.20903093054E+02  0.50528859396E+02  0.29999998619E+02 0.  0.
         12    1    1    2    0    0 -0.32164567969E+02 -0.13478389473E+02 -0.20903093054E+02  0.40659140604E+02  0.00000000000E+00 0. -1.
         11    1    3    3    0    0  0.12405905872E+00  0.18217492802E+01 -0.24271074382E+01  0.30372704633E+01  0.51100000000E-03 0. -1.
        -11    1    3    3    0    0  0.11729535125E+01 -0.44344624003E+01  0.84908959975E+01  0.96506783090E+01  0.51100000000E-03 0.  1.
         12    1    3    3    0    0  0.30867555398E+02  0.16091102593E+02  0.14839304495E+02  0.37840910623E+02  0.00000000000E+00 0. -1.
</event>
<event>
 7    1  0.2639126E-011  0.5052885E+02  0.7816164E-02  0.1300439E+00
        -11   -1    0    0    0    0  0.00000000000E+00  0.00000000000E+00  0.45593999997E+02  0.45594000000E+02  0.51100000000E-03 0. -1.
         11   -1    0    0    0    0 -0.00000000000E+00 -0.00000000000E+00 -0.45593999997E+02  0.45594000000E+02  0.51100000000E-03 0.  1.
    9900012    2    1    2    0    0 -0.37088495290E+02 -0.45050027431E+01  0.16041043121E+02  0.50528848546E+02  0.29999965639E+02 0.  0.
         12    1    1    2    0    0  0.37088495290E+02  0.45050027431E+01 -0.16041043121E+02  0.40659151454E+02  0.00000000000E+00 0. -1.
         11    1    3    3    0    0 -0.54614506427E+01 -0.76186863669E+01  0.90523937103E+01  0.13031410408E+02  0.51100000000E-03 0. -1.
        -11    1    3    3    0    0  0.72020835752E+00 -0.36806030215E+01  0.20912582005E+00  0.37562311630E+01  0.51100000000E-03 0.  1.
         12    1    3    3    0    0 -0.32347253005E+02  0.67942866452E+01  0.67795235901E+01  0.33741206974E+02  0.00000000000E+00 0. -1.
</event>
<event>
 7    1  0.2639126E-011  0.5052886E+02  0.7816164E-02  0.1300439E+00
        -11   -1    0    0    0    0  0.00000000000E+00  0.00000000000E+00  0.45593999997E+02  0.45594000000E+02  0.51100000000E-03 0.  1.
         11   -1    0    0    0    0 -0.00000000000E+00 -0.00000000000E+00 -0.45593999997E+02  0.45594000000E+02  0.51100000000E-03 0. -1.
    9900012    2    1    2    0    0  0.32840013229E+02  0.16909723531E+02  0.16992946804E+02  0.50528862529E+02  0.30000008143E+02 0.  0.
         12    1    1    2    0    0 -0.32840013229E+02 -0.16909723531E+02 -0.16992946804E+02  0.40659137471E+02  0.00000000000E+00 0. -1.
         11    1    3    3    0    0  0.91792693378E+01  0.11491363053E+02  0.14838317325E+02  0.20892249081E+02  0.51100000000E-03 0. -1.
        -11    1    3    3    0    0  0.16441311532E+02  0.11516547793E+02  0.79771656694E+00  0.20089398944E+02  0.51100000000E-03 0.  1.
         12    1    3    3    0    0  0.72194323591E+01 -0.60981873150E+01  0.13569129127E+01  0.95472145031E+01  0.00000000000E+00 0. -1.
</event>
<event>
 7    1  0.2639126E-011  0.5052885E+02  0.7816164E-02  0.1300439E+00
        -11   -1    0    0    0    0  0.00000000000E+00  0.00000000000E+00  0.45593999997E+02  0.45594000000E+02  0.51100000000E-03 0.  1.
         11   -1    0    0    0    0 -0.00000000000E+00 -0.00000000000E+00 -0.45593999997E+02  0.45594000000E+02  0.51100000000E-03 0. -1.
    9900012    2    1    2    0    0  0.40294905972E+02  0.46417540092E+01  0.28179453640E+01  0.50528854120E+02  0.29999982584E+02 0.  0.
         12    1    1    2    0    0 -0.40294905972E+02 -0.46417540092E+01 -0.28179453640E+01  0.40659145880E+02  0.00000000000E+00 0. -1.
         11    1    3    3    0    0 -0.41455824020E+01 -0.13661822213E+00 -0.89983394454E+00  0.42443161262E+01  0.51100000000E-03 0. -1.
        -11    1    3    3    0    0  0.22174706446E+02  0.54405330873E+01  0.67362398348E+01  0.23805334142E+02  0.51100000000E-03 0.  1.
        -12    1    3    3    0    0  0.22265781928E+02 -0.66216085604E+00 -0.30184605263E+01  0.22479203852E+02  0.00000000000E+00 0.  1.
</event>
<event>
 7    1  0.2639126E-011  0.5052886E+02  0.7816164E-02  0.1300439E+00
        -11   -1    0    0    0    0  0.00000000000E+00  0.00000000000E+00  0.45593999997E+02  0.45594000000E+02  0.51100000000E-03 0.  1.
         11   -1    0    0    0    0 -0.00000000000E+00 -0.00000000000E+00 -0.45593999997E+02  0.45594000000E+02  0.51100000000E-03 0. -1.
    9900012    2    1    2    0    0  0.29806227301E+02 -0.15773939433E+02  0.22714260781E+02  0.50528855961E+02  0.29999988180E+02 0.  0.
         12    1    1    2    0    0 -0.29806227301E+02  0.15773939433E+02 -0.22714260781E+02  0.40659144039E+02  0.00000000000E+00 0. -1.
         11    1    3    3    0    0 -0.36520889767E+01 -0.62850912446E+01  0.83251912450E+01  0.11052100948E+02  0.51100000000E-03 0. -1.
        -11    1    3    3    0    0  0.11533618561E+01  0.21356281603E+01  0.10241077350E+01  0.26343781286E+01  0.51100000000E-03 0.  1.
         12    1    3    3    0    0  0.32304954422E+02 -0.11624476348E+02  0.13364961801E+02  0.36842376884E+02  0.00000000000E+00 0. -1.
</event>
<event>
 7    1  0.2639126E-011  0.5052888E+02  0.7816164E-02  0.1300439E+00
        -11   -1    0    0    0    0  0.00000000000E+00  0.00000000000E+00  0.45593999997E+02  0.45594000000E+02  0.51100000000E-03 0. -1.
         11   -1    0    0    0    0 -0.00000000000E+00 -0.00000000000E+00 -0.45593999997E+02  0.45594000000E+02  0.51100000000E-03 0.  1.
    9900012    2    1    2    0    0 -0.34460419467E+02 -0.19064619102E+02 -0.10108606329E+02  0.50528878843E+02  0.30000057731E+02 0.  0.
         12    1    1    2    0    0  0.34460419467E+02  0.19064619102E+02  0.10108606329E+02  0.40659121157E+02  0.00000000000E+00 0. -1.
         11    1    3    3    0    0 -0.53566852303E+01  0.37667587637E+01  0.18691216240E+01  0.68100047098E+01  0.51100000000E-03 0. -1.
        -11    1    3    3    0    0 -0.14409586492E+02  0.59915121673E-01 -0.71723668128E+01  0.16096043572E+02  0.51100000000E-03 0.  1.
         12    1    3    3    0    0 -0.14694147745E+02 -0.22891292987E+02 -0.48053611402E+01  0.27622830562E+02  0.00000000000E+00 0. -1.
</event>
<event>
 7    1  0.2639126E-011  0.5052886E+02  0.7816164E-02  0.1300439E+00
        -11   -1    0    0    0    0  0.00000000000E+00  0.00000000000E+00  0.45593999997E+02  0.45594000000E+02  0.51100000000E-03 0.  1.
         11   -1    0    0    0    0 -0.00000000000E+00 -0.00000000000E+00 -0.45593999997E+02  0.45594000000E+02  0.51100000000E-03 0. -1.
    9900012    2    1    2    0    0 -0.26143308871E+02 -0.94763001272E+01  0.29662987836E+02  0.50528859451E+02  0.29999998787E+02 0.  0.
         12    1    1    2    0    0  0.26143308871E+02  0.94763001272E+01 -0.29662987836E+02  0.40659140549E+02  0.00000000000E+00 0. -1.
         11    1    3    3    0    0 -0.16221182503E+02  0.17027030572E+01  0.21705896983E+02  0.27150910180E+02  0.51100000000E-03 0.  1.
        -11    1    3    3    0    0 -0.10365719756E+01 -0.89801315973E+01  0.10521898659E+02  0.13871827444E+02  0.51100000000E-03 0. -1.
         12    1    3    3    0    0 -0.88855543926E+01 -0.21988715871E+01 -0.25648078060E+01  0.95061218276E+01  0.00000000000E+00 0. -1.
</event>
<event>
 7    1  0.2639126E-011  0.5052885E+02  0.7816164E-02  0.1300439E+00
        -11   -1    0    0    0    0  0.00000000000E+00  0.00000000000E+00  0.45593999997E+02  0.45594000000E+02  0.51100000000E-03 0.  1.
         11   -1    0    0    0    0 -0.00000000000E+00 -0.00000000000E+00 -0.45593999997E+02  0.45594000000E+02  0.51100000000E-03 0. -1.
    9900012    2    1    2    0    0  0.36413573227E+02  0.21234824796E+01  0.17964093180E+02  0.50528854205E+02  0.29999982841E+02 0.  0.
         12    1    1    2    0    0 -0.36413573227E+02 -0.21234824796E+01 -0.17964093180E+02  0.40659145795E+02  0.00000000000E+00 0. -1.
         11    1    3    3    0    0  0.13181828951E+01  0.37748108312E+01  0.59524084795E+01  0.71706324633E+01  0.51100000000E-03 0. -1.
        -11    1    3    3    0    0  0.38161870860E+02 -0.26263000096E+01  0.99102077667E+01  0.39515035841E+02  0.51100000000E-03 0.  1.
         12    1    3    3    0    0 -0.30664805279E+01  0.97497165801E+00  0.21014769335E+01  0.38431859003E+01  0.00000000000E+00 0. -1.
</event>
<event>
 7    1  0.2639126E-011  0.5052887E+02  0.7816164E-02  0.1300439E+00
        -11   -1    0    0    0    0  0.00000000000E+00  0.00000000000E+00  0.45593999997E+02  0.45594000000E+02  0.51100000000E-03 0.  1.
         11   -1    0    0    0    0 -0.00000000000E+00 -0.00000000000E+00 -0.45593999997E+02  0.45594000000E+02  0.51100000000E-03 0. -1.
    9900012    2    1    2    0    0  0.86783544504E+01 -0.27380001390E+02  0.28778236207E+02  0.50528865832E+02  0.30000018184E+02 0.  0.
         12    1    1    2    0    0 -0.86783544504E+01  0.27380001390E+02 -0.28778236207E+02  0.40659134168E+02  0.00000000000E+00 0. -1.
         11    1    3    3    0    0 -0.31089159308E+01  0.10829171208E+01 -0.11568923478E+01  0.34894796060E+01  0.51100000000E-03 0. -1.
        -11    1    3    3    0    0  0.60599118498E+01 -0.14005893075E+02  0.27288202522E+02  0.31265533253E+02  0.51100000000E-03 0.  1.
         12    1    3    3    0    0  0.57273585314E+01 -0.14457025436E+02  0.26469260326E+01  0.15773852973E+02  0.00000000000E+00 0. -1.
</event>
<event>
 7    1  0.2639126E-011  0.5052886E+02  0.7816164E-02  0.1300439E+00
        -11   -1    0    0    0    0  0.00000000000E+00  0.00000000000E+00  0.45593999997E+02  0.45594000000E+02  0.51100000000E-03 0.  1.
         11   -1    0    0    0    0 -0.00000000000E+00 -0.00000000000E+00 -0.45593999997E+02  0.45594000000E+02  0.51100000000E-03 0. -1.
    9900012    2    1    2    0    0 -0.40592560784E+02  0.17679794884E+01 -0.15112602514E+01  0.50528860191E+02  0.30000001035E+02 0.  0.
         12    1    1    2    0    0  0.40592560784E+02 -0.17679794884E+01  0.15112602514E+01  0.40659139809E+02  0.00000000000E+00 0. -1.
         11    1    3    3    0    0 -0.38706529977E+01 -0.79086236477E+00 -0.36405233165E+01  0.53722274884E+01  0.51100000000E-03 0. -1.
        -11    1    3    3    0    0 -0.18326982163E+02  0.67915107321E+00 -0.11973061093E+02  0.21901911185E+02  0.51100000000E-03 0.  1.
         12    1    3    3    0    0 -0.18394925624E+02  0.18796907799E+01  0.14102324159E+02  0.23254721517E+02  0.00000000000E+00 0. -1.
</event>
<event>
 7    1  0.2639126E-011  0.5052884E+02  0.7816164E-02  0.1300439E+00
        -11   -1    0    0    0    0  0.00000000000E+00  0.00000000000E+00  0.45593999997E+02  0.45594000000E+02  0.51100000000E-03 0. -1.
         11   -1    0    0    0    0 -0.00000000000E+00 -0.00000000000E+00 -0.45593999997E+02  0.45594000000E+02  0.51100000000E-03 0.  1.
    9900012    2    1    2    0    0  0.97031795294E+01  0.35112228792E+02 -0.18059550470E+02  0.50528835389E+02  0.29999925648E+02 0.  0.
         12    1    1    2    0    0 -0.97031795294E+01 -0.35112228792E+02  0.18059550470E+02  0.40659164611E+02  0.00000000000E+00 0. -1.
         11    1    3    3    0    0  0.17787407098E+01  0.64289072664E+01  0.29943169453E+00  0.66771570862E+01  0.51100000000E-03 0. -1.
        -11    1    3    3    0    0  0.17515491270E+02  0.16833331818E+02 -0.13802298654E+02  0.27940238778E+02  0.51100000000E-03 0.  1.
         12    1    3    3    0    0 -0.95910524505E+01  0.11849989707E+02 -0.45566835097E+01  0.15911439525E+02  0.00000000000E+00 0. -1.
</event>
<event>
 7    1  0.2639126E-011  0.5052886E+02  0.7816164E-02  0.1300439E+00
        -11   -1    0    0    0    0  0.00000000000E+00  0.00000000000E+00  0.45593999997E+02  0.45594000000E+02  0.51100000000E-03 0.  1.
         11   -1    0    0    0    0 -0.00000000000E+00 -0.00000000000E+00 -0.45593999997E+02  0.45594000000E+02  0.51100000000E-03 0. -1.
    9900012    2    1    2    0    0  0.22839783342E+01 -0.30397342945E+02  0.26906330610E+02  0.50528860289E+02  0.30000001333E+02 0.  0.
         12    1    1    2    0    0 -0.22839783342E+01  0.30397342945E+02 -0.26906330610E+02  0.40659139711E+02  0.00000000000E+00 0. -1.
         11    1    3    3    0    0  0.64192220830E+01 -0.24256056966E+01  0.40056834041E+01  0.79457834693E+01  0.51100000000E-03 0. -1.
        -11    1    3    3    0    0 -0.23182022873E+01  0.34284989538E+01  0.46242922752E+01  0.62058638584E+01  0.51100000000E-03 0.  1.
        -12    1    3    3    0    0 -0.18170414615E+01 -0.31400236202E+02  0.18276354931E+02  0.36377212961E+02  0.00000000000E+00 0.  1.
</event>
<event>
 7    1  0.2639126E-011  0.5052886E+02  0.7816164E-02  0.1300439E+00
        -11   -1    0    0    0    0  0.00000000000E+00  0.00000000000E+00  0.45593999997E+02  0.45594000000E+02  0.51100000000E-03 0.  1.
         11   -1    0    0    0    0 -0.00000000000E+00 -0.00000000000E+00 -0.45593999997E+02  0.45594000000E+02  0.51100000000E-03 0. -1.
    9900012    2    1    2    0    0  0.21009470370E+02  0.17827546345E+02  0.29898936637E+02  0.50528859995E+02  0.30000000442E+02 0.  0.
         12    1    1    2    0    0 -0.21009470370E+02 -0.17827546345E+02 -0.29898936637E+02  0.40659140005E+02  0.00000000000E+00 0. -1.
         11    1    3    3    0    0 -0.47236118352E+01  0.30259336752E+01  0.43177234767E+00  0.56262963837E+01  0.51100000000E-03 0. -1.
        -11    1    3    3    0    0 -0.13408341755E+00  0.50816617262E+01  0.90918577635E+00  0.51640955935E+01  0.51100000000E-03 0.  1.
        -12    1    3    3    0    0  0.25867165622E+02  0.97199509441E+01  0.28557978513E+02  0.39738468018E+02  0.00000000000E+00 0.  1.
</event>
<event>
 7    1  0.2639126E-011  0.5052884E+02  0.7816164E-02  0.1300439E+00
        -11   -1    0    0    0    0  0.00000000000E+00  0.00000000000E+00  0.45593999997E+02  0.45594000000E+02  0.51100000000E-03 0. -1.
         11   -1    0    0    0    0 -0.00000000000E+00 -0.00000000000E+00 -0.45593999997E+02  0.45594000000E+02  0.51100000000E-03 0.  1.
    9900012    2    1    2    0    0 -0.12059635874E+02  0.38811748699E+02 -0.11749620753E+01  0.50528841249E+02  0.29999943459E+02 0.  0.
         12    1    1    2    0    0  0.12059635874E+02 -0.38811748699E+02  0.11749620753E+01  0.40659158751E+02  0.00000000000E+00 0. -1.
         11    1    3    3    0    0  0.43030204686E+01  0.11885118918E+02 -0.93814625899E+01  0.15741152354E+02  0.51100000000E-03 0.  1.
        -11    1    3    3    0    0  0.17294388571E+01  0.18600049355E+01  0.20568367022E+01  0.32682035740E+01  0.51100000000E-03 0. -1.
        -12    1    3    3    0    0 -0.18092095199E+02  0.25066624846E+02  0.61496638123E+01  0.31519485321E+02  0.00000000000E+00 0.  1.
</event>
<event>
 7    1  0.2639126E-011  0.5052887E+02  0.7816164E-02  0.1300439E+00
        -11   -1    0    0    0    0  0.00000000000E+00  0.00000000000E+00  0.45593999997E+02  0.45594000000E+02  0.51100000000E-03 0.  1.
         11   -1    0    0    0    0 -0.00000000000E+00 -0.00000000000E+00 -0.45593999997E+02  0.45594000000E+02  0.51100000000E-03 0. -1.
    9900012    2    1    2    0    0  0.32738464882E+01 -0.17008900826E+02  0.36785103874E+02  0.50528872549E+02  0.30000038599E+02 0.  0.
         12    1    1    2    0    0 -0.32738464882E+01  0.17008900826E+02 -0.36785103874E+02  0.40659127451E+02  0.00000000000E+00 0. -1.
         11    1    3    3    0    0  0.55636977296E+01 -0.10986131876E+02  0.68553716240E+01  0.14094181296E+02  0.51100000000E-03 0. -1.
        -11    1    3    3    0    0 -0.74196320124E+01 -0.96202531878E+01  0.26812550100E+02  0.29436593786E+02  0.51100000000E-03 0.  1.
         12    1    3    3    0    0  0.51297807711E+01  0.35974842383E+01  0.31171821494E+01  0.69980974669E+01  0.00000000000E+00 0. -1.
</event>
<event>
 7    1  0.2639126E-011  0.5052887E+02  0.7816164E-02  0.1300439E+00
        -11   -1    0    0    0    0  0.00000000000E+00  0.00000000000E+00  0.45593999997E+02  0.45594000000E+02  0.51100000000E-03 0.  1.
         11   -1    0    0    0    0 -0.00000000000E+00 -0.00000000000E+00 -0.45593999997E+02  0.45594000000E+02  0.51100000000E-03 0. -1.
    9900012    2    1    2    0    0 -0.22414249948E+02 -0.22574952847E+02  0.25320705100E+02  0.50528865681E+02  0.30000017725E+02 0.  0.
         12    1    1    2    0    0  0.22414249948E+02  0.22574952847E+02 -0.25320705100E+02  0.40659134319E+02  0.00000000000E+00 0. -1.
         11    1    3    3    0    0 -0.18034376250E+02 -0.11635191376E+02  0.59446883595E+01  0.22270063427E+02  0.51100000000E-03 0. -1.
        -11    1    3    3    0    0 -0.71934556998E+01 -0.12524563259E+02  0.81639656515E+01  0.16590986262E+02  0.51100000000E-03 0.  1.
         12    1    3    3    0    0  0.28135820023E+01  0.15848017886E+01  0.11212051090E+02  0.11667815992E+02  0.00000000000E+00 0. -1.
</event>
<event>
 7    1  0.2639126E-011  0.5052885E+02  0.7816164E-02  0.1300439E+00
        -11   -1    0    0    0    0  0.00000000000E+00  0.00000000000E+00  0.45593999997E+02  0.45594000000E+02  0.51100000000E-03 0.  1.
         11   -1    0    0    0    0 -0.00000000000E+00 -0.00000000000E+00 -0.45593999997E+02  0.45594000000E+02  0.51100000000E-03 0. -1.
    9900012    2    1    2    0    0  0.64570964354E+01  0.15845972398E+00  0.40142837255E+02  0.50528848672E+02  0.29999966023E+02 0.  0.
         12    1    1    2    0    0 -0.64570964354E+01 -0.15845972398E+00 -0.40142837255E+02  0.40659151328E+02  0.00000000000E+00 0. -1.
         11    1    3    3    0    0 -0.58139591167E+01  0.45703608655E-01  0.45535404263E+00  0.58319428149E+01  0.51100000000E-03 0. -1.
        -11    1    3    3    0    0 -0.39675679569E+01 -0.14845459330E+01  0.86556057145E+01  0.96366478957E+01  0.51100000000E-03 0.  1.
        -12    1    3    3    0    0  0.16238623509E+02  0.15973020484E+01  0.31031877497E+02  0.35060257961E+02  0.00000000000E+00 0.  1.
</event>
<event>
 7    1  0.2639126E-011  0.5052885E+02  0.7816164E-02  0.1300439E+00
        -11   -1    0    0    0    0  0.00000000000E+00  0.00000000000E+00  0.45593999997E+02  0.45594000000E+02  0.51100000000E-03 0.  1.
         11   -1    0    0    0    0 -0.00000000000E+00 -0.00000000000E+00 -0.45593999997E+02  0.45594000000E+02  0.51100000000E-03 0. -1.
    9900012    2    1    2    0    0  0.16727667560E+02 -0.37019066452E+01  0.36873403203E+02  0.50528845575E+02  0.29999956609E+02 0.  0.
         12    1    1    2    0    0 -0.16727667560E+02  0.37019066452E+01 -0.36873403203E+02  0.40659154425E+02  0.00000000000E+00 0. -1.
         11    1    3    3    0    0 -0.10703191495E+01  0.29613970952E+01  0.33760624352E+01  0.46166279539E+01  0.51100000000E-03 0. -1.
        -11    1    3    3    0    0  0.57215470969E+01  0.92993897779E+01  0.15729351267E+02  0.19147512710E+02  0.51100000000E-03 0.  1.
         12    1    3    3    0    0  0.12076439612E+02 -0.15962693518E+02  0.17767989501E+02  0.26764704911E+02  0.00000000000E+00 0. -1.
</event>
<event>
 7    1  0.2639126E-011  0.5052884E+02  0.7816164E-02  0.1300439E+00
        -11   -1    0    0    0    0  0.00000000000E+00  0.00000000000E+00  0.45593999997E+02  0.45594000000E+02  0.51100000000E-03 0.  1.
         11   -1    0    0    0    0 -0.00000000000E+00 -0.00000000000E+00 -0.45593999997E+02  0.45594000000E+02  0.51100000000E-03 0. -1.
    9900012    2    1    2    0    0  0.33955072087E+02 -0.28799896299E+01  0.22179406440E+02  0.50528839523E+02  0.29999938213E+02 0.  0.
         12    1    1    2    0    0 -0.33955072087E+02  0.28799896299E+01 -0.22179406440E+02  0.40659160477E+02  0.00000000000E+00 0. -1.
         11    1    3    3    0    0 -0.14675387894E+01  0.57495401451E+00  0.81967835392E+00  0.17765458289E+01  0.51100000000E-03 0. -1.
        -11    1    3    3    0    0 -0.37623024552E+01 -0.37052869460E-01  0.47394098913E+01  0.60513055664E+01  0.51100000000E-03 0.  1.
         12    1    3    3    0    0  0.39184913331E+02 -0.34178907750E+01  0.16620318195E+02  0.42700988127E+02  0.00000000000E+00 0. -1.
</event>
<event>
 7    1  0.2639126E-011  0.5052886E+02  0.7816164E-02  0.1300439E+00
        -11   -1    0    0    0    0  0.00000000000E+00  0.00000000000E+00  0.45593999997E+02  0.45594000000E+02  0.51100000000E-03 0.  1.
         11   -1    0    0    0    0 -0.00000000000E+00 -0.00000000000E+00 -0.45593999997E+02  0.45594000000E+02  0.51100000000E-03 0. -1.
    9900012    2    1    2    0    0  0.16385908648E+02  0.23289889746E+02  0.29021523980E+02  0.50528858091E+02  0.29999994654E+02 0.  0.
         12    1    1    2    0    0 -0.16385908648E+02 -0.23289889746E+02 -0.29021523980E+02  0.40659141909E+02  0.00000000000E+00 0. -1.
         11    1    3    3    0    0  0.68135560531E+01  0.17281121374E+02  0.23378196423E+02  0.29859701443E+02  0.51100000000E-03 0. -1.
        -11    1    3    3    0    0  0.12296924801E+02 -0.60024183467E+00  0.55879630117E+01  0.13520354311E+02  0.51100000000E-03 0.  1.
         12    1    3    3    0    0 -0.27245722053E+01  0.66090102071E+01  0.55364545457E-01  0.71488023369E+01  0.00000000000E+00 0. -1.
</event>
<event>
 7    1  0.2639126E-011  0.5052886E+02  0.7816164E-02  0.1300439E+00
        -11   -1    0    0    0    0  0.00000000000E+00  0.00000000000E+00  0.45593999997E+02  0.45594000000E+02  0.51100000000E-03 0. -1.
         11   -1    0    0    0    0 -0.00000000000E+00 -0.00000000000E+00 -0.45593999997E+02  0.45594000000E+02  0.51100000000E-03 0.  1.
    9900012    2    1    2    0    0  0.33964669833E+02  0.21555099826E+02  0.59113669332E+01  0.50528863457E+02  0.30000010965E+02 0.  0.
         12    1    1    2    0    0 -0.33964669833E+02 -0.21555099826E+02 -0.59113669332E+01  0.40659136543E+02  0.00000000000E+00 0. -1.
         11    1    3    3    0    0  0.18064846148E+02  0.14567533956E+02 -0.92061471791E+01  0.24966074142E+02  0.51100000000E-03 0. -1.
        -11    1    3    3    0    0  0.71195162868E+01  0.50010125359E+01  0.91614953298E+00  0.87485409509E+01  0.51100000000E-03 0.  1.
         12    1    3    3    0    0  0.87803073980E+01  0.19865533341E+01  0.14201364579E+02  0.16814248365E+02  0.00000000000E+00 0. -1.
</event>
<event>
 7    1  0.2639126E-011  0.5052886E+02  0.7816164E-02  0.1300439E+00
        -11   -1    0    0    0    0  0.00000000000E+00  0.00000000000E+00  0.45593999997E+02  0.45594000000E+02  0.51100000000E-03 0.  1.
         11   -1    0    0    0    0 -0.00000000000E+00 -0.00000000000E+00 -0.45593999997E+02  0.45594000000E+02  0.51100000000E-03 0. -1.
    9900012    2    1    2    0    0  0.36460814147E+02 -0.16494659403E+02  0.71903416547E+01  0.50528858713E+02  0.29999996544E+02 0.  0.
         12    1    1    2    0    0 -0.36460814147E+02  0.16494659403E+02 -0.71903416547E+01  0.40659141287E+02  0.00000000000E+00 0. -1.
         11    1    3    3    0    0  0.16330556531E+02 -0.39870402308E+01  0.79480961837E+01  0.18594509933E+02  0.51100000000E-03 0.  1.
        -11    1    3    3    0    0  0.20495843819E+02 -0.13219620214E+02  0.60104483301E+01  0.25118986083E+02  0.51100000000E-03 0. -1.
        -12    1    3    3    0    0 -0.36558620320E+00  0.71200104195E+00 -0.67682028590E+01  0.68153626973E+01  0.00000000000E+00 0.  1.
</event>
<event>
 7    1  0.2639126E-011  0.5052887E+02  0.7816164E-02  0.1300439E+00
        -11   -1    0    0    0    0  0.00000000000E+00  0.00000000000E+00  0.45593999997E+02  0.45594000000E+02  0.51100000000E-03 0. -1.
         11   -1    0    0    0    0 -0.00000000000E+00 -0.00000000000E+00 -0.45593999997E+02  0.45594000000E+02  0.51100000000E-03 0.  1.
    9900012    2    1    2    0    0 -0.29162969343E+02 -0.70419969141E+01 -0.27442602319E+02  0.50528869126E+02  0.30000028194E+02 0.  0.
         12    1    1    2    0    0  0.29162969343E+02  0.70419969141E+01  0.27442602319E+02  0.40659130874E+02  0.00000000000E+00 0. -1.
         11    1    3    3    0    0 -0.26880453826E+02 -0.91910326524E+01 -0.24768358805E+02  0.37689593753E+02  0.51100000000E-03 0. -1.
        -11    1    3    3    0    0 -0.34133122693E+01  0.14132197208E+01 -0.72131220410E+01  0.81041360098E+01  0.51100000000E-03 0.  1.
         12    1    3    3    0    0  0.11307967524E+01  0.73581601742E+00  0.45388785268E+01  0.47351393631E+01  0.00000000000E+00 0. -1.
</event>
<event>
 7    1  0.2639126E-011  0.5052887E+02  0.7816164E-02  0.1300439E+00
        -11   -1    0    0    0    0  0.00000000000E+00  0.00000000000E+00  0.45593999997E+02  0.45594000000E+02  0.51100000000E-03 0.  1.
         11   -1    0    0    0    0 -0.00000000000E+00 -0.00000000000E+00 -0.45593999997E+02  0.45594000000E+02  0.51100000000E-03 0. -1.
    9900012    2    1    2    0    0 -0.80005521933E+01 -0.11857698747E+01  0.39846578863E+02  0.50528871472E+02  0.30000035326E+02 0.  0.
         12    1    1    2    0    0  0.80005521933E+01  0.11857698747E+01 -0.39846578863E+02  0.40659128528E+02  0.00000000000E+00 0. -1.
         11    1    3    3    0    0  0.47944308832E+01 -0.25314365256E+01 -0.13131469297E+01  0.55784490226E+01  0.51100000000E-03 0. -1.
        -11    1    3    3    0    0 -0.32857198911E+01 -0.32763882682E+01  0.34381262326E+01  0.57750660203E+01  0.51100000000E-03 0.  1.
         12    1    3    3    0    0 -0.95092631855E+01  0.46220549190E+01  0.37721599560E+02  0.39175356429E+02  0.00000000000E+00 0. -1.
</event>
<event>
 7    1  0.2639126E-011  0.5052886E+02  0.7816164E-02  0.1300439E+00
        -11   -1    0    0    0    0  0.00000000000E+00  0.00000000000E+00  0.45593999997E+02  0.45594000000E+02  0.51100000000E-03 0.  1.
         11   -1    0    0    0    0 -0.00000000000E+00 -0.00000000000E+00 -0.45593999997E+02  0.45594000000E+02  0.51100000000E-03 0. -1.
    9900012    2    1    2    0    0 -0.14867351083E+02 -0.35273608653E+02  0.13707662427E+02  0.50528860746E+02  0.30000002724E+02 0.  0.
         12    1    1    2    0    0  0.14867351083E+02  0.35273608653E+02 -0.13707662427E+02  0.40659139254E+02  0.00000000000E+00 0. -1.
         11    1    3    3    0    0 -0.32282021340E+01 -0.11186895464E+02  0.83512118235E+01  0.14328665615E+02  0.51100000000E-03 0. -1.
        -11    1    3    3    0    0 -0.84898451805E+01 -0.17000768156E+02  0.14724049883E+02  0.24039576417E+02  0.51100000000E-03 0.  1.
         12    1    3    3    0    0 -0.31493037683E+01 -0.70859450332E+01 -0.93675992793E+01  0.12160618713E+02  0.00000000000E+00 0. -1.
</event>
<event>
 7    1  0.2639126E-011  0.5052887E+02  0.7816164E-02  0.1300439E+00
        -11   -1    0    0    0    0  0.00000000000E+00  0.00000000000E+00  0.45593999997E+02  0.45594000000E+02  0.51100000000E-03 0.  1.
         11   -1    0    0    0    0 -0.00000000000E+00 -0.00000000000E+00 -0.45593999997E+02  0.45594000000E+02  0.51100000000E-03 0. -1.
    9900012    2    1    2    0    0  0.16334870519E+02  0.36243277863E+02  0.85300297074E+01  0.50528873202E+02  0.30000040585E+02 0.  0.
         12    1    1    2    0    0 -0.16334870519E+02 -0.36243277863E+02 -0.85300297074E+01  0.40659126798E+02  0.00000000000E+00 0. -1.
         11    1    3    3    0    0 -0.75182091045E+00  0.13256890387E+02 -0.62987723606E+01  0.14696425107E+02  0.51100000000E-03 0. -1.
        -11    1    3    3    0    0  0.53696638152E+01  0.11369202133E+02 -0.14463972562E+01  0.12656386211E+02  0.51100000000E-03 0.  1.
         12    1    3    3    0    0  0.11717027615E+02  0.11617185343E+02  0.16275199324E+02  0.23176061884E+02  0.00000000000E+00 0. -1.
</event>
<event>
 7    1  0.2639126E-011  0.5052886E+02  0.7816164E-02  0.1300439E+00
        -11   -1    0    0    0    0  0.00000000000E+00  0.00000000000E+00  0.45593999997E+02  0.45594000000E+02  0.51100000000E-03 0. -1.
         11   -1    0    0    0    0 -0.00000000000E+00 -0.00000000000E+00 -0.45593999997E+02  0.45594000000E+02  0.51100000000E-03 0.  1.
    9900012    2    1    2    0    0 -0.34021174048E+02  0.21995807416E+02  0.34510937492E+01  0.50528857417E+02  0.29999992605E+02 0.  0.
         12    1    1    2    0    0  0.34021174048E+02 -0.21995807416E+02 -0.34510937492E+01  0.40659142583E+02  0.00000000000E+00 0. -1.
         11    1    3    3    0    0 -0.25642571276E+02  0.11064824934E+02  0.69736115245E+00  0.27936680642E+02  0.51100000000E-03 0. -1.
        -11    1    3    3    0    0 -0.13839600182E+02  0.94595150160E+01  0.22530709247E+01  0.16914292370E+02  0.51100000000E-03 0.  1.
        -12    1    3    3    0    0  0.54609974091E+01  0.14714674662E+01  0.50066167201E+00  0.56778844050E+01  0.00000000000E+00 0.  1.
</event>
<event>
 7    1  0.2639126E-011  0.5052886E+02  0.7816164E-02  0.1300439E+00
        -11   -1    0    0    0    0  0.00000000000E+00  0.00000000000E+00  0.45593999997E+02  0.45594000000E+02  0.51100000000E-03 0. -1.
         11   -1    0    0    0    0 -0.00000000000E+00 -0.00000000000E+00 -0.45593999997E+02  0.45594000000E+02  0.51100000000E-03 0.  1.
    9900012    2    1    2    0    0  0.10910967682E+02  0.14469606820E+02 -0.36397074802E+02  0.50528858452E+02  0.29999995750E+02 0.  0.
         12    1    1    2    0    0 -0.10910967682E+02 -0.14469606820E+02  0.36397074802E+02  0.40659141548E+02  0.00000000000E+00 0. -1.
         11    1    3    3    0    0  0.18820743879E+02  0.36708652468E+01 -0.15426222222E+02  0.24610241448E+02  0.51100000000E-03 0. -1.
        -11    1    3    3    0    0  0.82439681201E-01  0.33845169547E+00  0.57337918532E+00  0.67090223020E+00  0.51100000000E-03 0.  1.
        -12    1    3    3    0    0 -0.79922158777E+01  0.10460289878E+02 -0.21544231765E+02  0.25247714774E+02  0.00000000000E+00 0.  1.
</event>
<event>
 7    1  0.2639126E-011  0.5052886E+02  0.7816164E-02  0.1300439E+00
        -11   -1    0    0    0    0  0.00000000000E+00  0.00000000000E+00  0.45593999997E+02  0.45594000000E+02  0.51100000000E-03 0.  1.
         11   -1    0    0    0    0 -0.00000000000E+00 -0.00000000000E+00 -0.45593999997E+02  0.45594000000E+02  0.51100000000E-03 0. -1.
    9900012    2    1    2    0    0  0.26855731553E+01  0.32376224881E+01  0.40440953960E+02  0.50528864990E+02  0.30000015623E+02 0.  0.
         12    1    1    2    0    0 -0.26855731553E+01 -0.32376224881E+01 -0.40440953960E+02  0.40659135010E+02  0.00000000000E+00 0. -1.
         11    1    3    3    0    0  0.55185497045E+00 -0.12013928138E+00 -0.37188134756E+00  0.67621989998E+00  0.51100000000E-03 0. -1.
        -11    1    3    3    0    0  0.22771328557E+01 -0.77037938109E+01  0.37433119054E+02  0.38285404210E+02  0.51100000000E-03 0.  1.
        -12    1    3    3    0    0 -0.14341467082E+00  0.11061555580E+02  0.33797162538E+01  0.11567240880E+02  0.00000000000E+00 0.  1.
</event>
<event>
 7    1  0.2639126E-011  0.5052886E+02  0.7816164E-02  0.1300439E+00
        -11   -1    0    0    0    0  0.00000000000E+00  0.00000000000E+00  0.45593999997E+02  0.45594000000E+02  0.51100000000E-03 0. -1.
         11   -1    0    0    0    0 -0.00000000000E+00 -0.00000000000E+00 -0.45593999997E+02  0.45594000000E+02  0.51100000000E-03 0.  1.
    9900012    2    1    2    0    0 -0.29714512503E+02 -0.15941816953E+02 -0.22717217844E+02  0.50528858745E+02  0.29999996640E+02 0.  0.
         12    1    1    2    0    0  0.29714512503E+02  0.15941816953E+02  0.22717217844E+02  0.40659141255E+02  0.00000000000E+00 0. -1.
         11    1    3    3    0    0 -0.21356193796E+02 -0.77224125926E+01 -0.23771758843E+02  0.32875814643E+02  0.51100000000E-03 0. -1.
        -11    1    3    3    0    0 -0.10622951361E+02 -0.30113143050E+01  0.33334225920E+01  0.11533725153E+02  0.51100000000E-03 0.  1.
        -12    1    3    3    0    0  0.22646326534E+01 -0.52080900559E+01 -0.22788815925E+01  0.61193189489E+01  0.00000000000E+00 0.  1.
</event>
<event>
 7    1  0.2639126E-011  0.5052888E+02  0.7816164E-02  0.1300439E+00
        -11   -1    0    0    0    0  0.00000000000E+00  0.00000000000E+00  0.45593999997E+02  0.45594000000E+02  0.51100000000E-03 0.  1.
         11   -1    0    0    0    0 -0.00000000000E+00 -0.00000000000E+00 -0.45593999997E+02  0.45594000000E+02  0.51100000000E-03 0. -1.
    9900012    2    1    2    0    0  0.90473486934E+01  0.71004637589E+01  0.38998623497E+02  0.50528883696E+02  0.30000072483E+02 0.  0.
         12    1    1    2    0    0 -0.90473486934E+01 -0.71004637589E+01 -0.38998623497E+02  0.40659116304E+02  0.00000000000E+00 0. -1.
         11    1    3    3    0    0  0.37531647563E+01 -0.37547939533E+01  0.12668336211E+01  0.54579841521E+01  0.51100000000E-03 0. -1.
        -11    1    3    3    0    0 -0.19767550791E+01 -0.23307757751E+01 -0.12347447867E+01  0.32961600850E+01  0.51100000000E-03 0.  1.
        -12    1    3    3    0    0  0.72709390162E+01  0.13186033487E+02  0.38966534662E+02  0.41774739459E+02  0.00000000000E+00 0.  1.
</event>
<event>
 7    1  0.2639126E-011  0.5052885E+02  0.7816164E-02  0.1300439E+00
        -11   -1    0    0    0    0  0.00000000000E+00  0.00000000000E+00  0.45593999997E+02  0.45594000000E+02  0.51100000000E-03 0.  1.
         11   -1    0    0    0    0 -0.00000000000E+00 -0.00000000000E+00 -0.45593999997E+02  0.45594000000E+02  0.51100000000E-03 0. -1.
    9900012    2    1    2    0    0 -0.19794213189E+02 -0.34570306617E+02 -0.81393951162E+01  0.50528846932E+02  0.29999960735E+02 0.  0.
         12    1    1    2    0    0  0.19794213189E+02  0.34570306617E+02  0.81393951162E+01  0.40659153068E+02  0.00000000000E+00 0. -1.
         11    1    3    3    0    0 -0.26639799346E+01  0.38557635570E+01  0.40539133345E+00  0.47040455029E+01  0.51100000000E-03 0. -1.
        -11    1    3    3    0    0  0.78745062253E+00 -0.44079745113E+01  0.33347201626E+01  0.55830705351E+01  0.51100000000E-03 0.  1.
        -12    1    3    3    0    0 -0.17917683877E+02 -0.34018095662E+02 -0.11879506612E+02  0.40241730894E+02  0.00000000000E+00 0.  1.
</event>
<event>
 7    1  0.2639126E-011  0.5052886E+02  0.7816164E-02  0.1300439E+00
        -11   -1    0    0    0    0  0.00000000000E+00  0.00000000000E+00  0.45593999997E+02  0.45594000000E+02  0.51100000000E-03 0.  1.
         11   -1    0    0    0    0 -0.00000000000E+00 -0.00000000000E+00 -0.45593999997E+02  0.45594000000E+02  0.51100000000E-03 0. -1.
    9900012    2    1    2    0    0  0.95236634265E+01 -0.32173247435E+00  0.39526721271E+02  0.50528863619E+02  0.30000011455E+02 0.  0.
         12    1    1    2    0    0 -0.95236634265E+01  0.32173247435E+00 -0.39526721271E+02  0.40659136381E+02  0.00000000000E+00 0. -1.
         11    1    3    3    0    0  0.28016566027E+01  0.32285101345E+01  0.51151055271E+01  0.66660979757E+01  0.51100000000E-03 0. -1.
        -11    1    3    3    0    0  0.86125588930E+01  0.10133109105E+02  0.18632609246E+02  0.22891705886E+02  0.51100000000E-03 0.  1.
        -12    1    3    3    0    0 -0.18905520691E+01 -0.13683351714E+02  0.15779006498E+02  0.20971059757E+02  0.00000000000E+00 0.  1.
</event>
<event>
 7    1  0.2639126E-011  0.5052886E+02  0.7816164E-02  0.1300439E+00
        -11   -1    0    0    0    0  0.00000000000E+00  0.00000000000E+00  0.45593999997E+02  0.45594000000E+02  0.51100000000E-03 0.  1.
         11   -1    0    0    0    0 -0.00000000000E+00 -0.00000000000E+00 -0.45593999997E+02  0.45594000000E+02  0.51100000000E-03 0. -1.
    9900012    2    1    2    0    0 -0.23933980352E+02 -0.32549227037E+02 -0.45692831529E+01  0.50528856567E+02  0.29999990022E+02 0.  0.
         12    1    1    2    0    0  0.23933980352E+02  0.32549227037E+02  0.45692831529E+01  0.40659143433E+02  0.00000000000E+00 0. -1.
         11    1    3    3    0    0 -0.14589793468E+02 -0.19093293422E+02 -0.23050390323E+01  0.24139783187E+02  0.51100000000E-03 0. -1.
        -11    1    3    3    0    0 -0.62639830610E+01 -0.17513837046E+02  0.32495017967E+01  0.18882034690E+02  0.51100000000E-03 0.  1.
         12    1    3    3    0    0 -0.30802038225E+01  0.40579034310E+01 -0.55137459174E+01  0.75070386895E+01  0.00000000000E+00 0. -1.
</event>
<event>
 7    1  0.2639126E-011  0.5052885E+02  0.7816164E-02  0.1300439E+00
        -11   -1    0    0    0    0  0.00000000000E+00  0.00000000000E+00  0.45593999997E+02  0.45594000000E+02  0.51100000000E-03 0.  1.
         11   -1    0    0    0    0 -0.00000000000E+00 -0.00000000000E+00 -0.45593999997E+02  0.45594000000E+02  0.51100000000E-03 0. -1.
    9900012    2    1    2    0    0  0.17246001286E+02  0.27261715717E+02  0.24749554566E+02  0.50528853976E+02  0.29999982145E+02 0.  0.
         12    1    1    2    0    0 -0.17246001286E+02 -0.27261715717E+02 -0.24749554566E+02  0.40659146024E+02  0.00000000000E+00 0. -1.
         11    1    3    3    0    0  0.58947028411E+01  0.26208936844E+01  0.29500586525E+01  0.70936204863E+01  0.51100000000E-03 0. -1.
        -11    1    3    3    0    0  0.18184443636E+02  0.19165381907E+02  0.89665083930E+01  0.27899536323E+02  0.51100000000E-03 0.  1.
         12    1    3    3    0    0 -0.68331451907E+01  0.54754401256E+01  0.12832987520E+02  0.15535697167E+02  0.00000000000E+00 0. -1.
</event>
<event>
 7    1  0.2639126E-011  0.5052886E+02  0.7816164E-02  0.1300439E+00
        -11   -1    0    0    0    0  0.00000000000E+00  0.00000000000E+00  0.45593999997E+02  0.45594000000E+02  0.51100000000E-03 0.  1.
         11   -1    0    0    0    0 -0.00000000000E+00 -0.00000000000E+00 -0.45593999997E+02  0.45594000000E+02  0.51100000000E-03 0. -1.
    9900012    2    1    2    0    0  0.47949672032E+00 -0.14381222134E+01  0.40630866587E+02  0.50528862870E+02  0.30000009178E+02 0.  0.
         12    1    1    2    0    0 -0.47949672032E+00  0.14381222134E+01 -0.40630866587E+02  0.40659137130E+02  0.00000000000E+00 0. -1.
         11    1    3    3    0    0  0.85861562788E+01  0.11898282722E+01  0.41216455039E+01  0.95982150883E+01  0.51100000000E-03 0. -1.
        -11    1    3    3    0    0  0.30682705206E+01 -0.44130624748E+01  0.46014870960E+01  0.70755274114E+01  0.51100000000E-03 0.  1.
         12    1    3    3    0    0 -0.11174930079E+02  0.17851119893E+01  0.31907733987E+02  0.33855120370E+02  0.00000000000E+00 0. -1.
</event>
<event>
 7    1  0.2639126E-011  0.5052886E+02  0.7816164E-02  0.1300439E+00
        -11   -1    0    0    0    0  0.00000000000E+00  0.00000000000E+00  0.45593999997E+02  0.45594000000E+02  0.51100000000E-03 0.  1.
         11   -1    0    0    0    0 -0.00000000000E+00 -0.00000000000E+00 -0.45593999997E+02  0.45594000000E+02  0.51100000000E-03 0. -1.
    9900012    2    1    2    0    0  0.25881316667E+02  0.19734552523E+01  0.31295820289E+02  0.50528862704E+02  0.30000008676E+02 0.  0.
         12    1    1    2    0    0 -0.25881316667E+02 -0.19734552523E+01 -0.31295820289E+02  0.40659137296E+02  0.00000000000E+00 0. -1.
         11    1    3    3    0    0 -0.20271602345E+01 -0.30213699390E+00  0.13589271591E+02  0.13742960672E+02  0.51100000000E-03 0. -1.
        -11    1    3    3    0    0  0.68207604002E+01 -0.20211896569E+01 -0.22241901217E+01  0.74535227930E+01  0.51100000000E-03 0.  1.
        -12    1    3    3    0    0  0.21087716502E+02  0.42967819031E+01  0.19930738819E+02  0.29332379240E+02  0.00000000000E+00 0.  1.
</event>
<event>
 7    1  0.2639126E-011  0.5052886E+02  0.7816164E-02  0.1300439E+00
        -11   -1    0    0    0    0  0.00000000000E+00  0.00000000000E+00  0.45593999997E+02  0.45594000000E+02  0.51100000000E-03 0. -1.
         11   -1    0    0    0    0 -0.00000000000E+00 -0.00000000000E+00 -0.45593999997E+02  0.45594000000E+02  0.51100000000E-03 0.  1.
    9900012    2    1    2    0    0  0.29880745172E+02 -0.20665049932E+02 -0.18255487187E+02  0.50528855479E+02  0.29999986715E+02 0.  0.
         12    1    1    2    0    0 -0.29880745172E+02  0.20665049932E+02  0.18255487187E+02  0.40659144521E+02  0.00000000000E+00 0. -1.
         11    1    3    3    0    0  0.53316944861E+01 -0.36561021419E+01 -0.97407505376E+01  0.11690862683E+02  0.51100000000E-03 0. -1.
        -11    1    3    3    0    0  0.12067857333E+02 -0.16895786629E+02 -0.14167413687E+02  0.25135958253E+02  0.51100000000E-03 0.  1.
         12    1    3    3    0    0  0.12481193352E+02 -0.11316116084E+00  0.56526770381E+01  0.13702034544E+02  0.00000000000E+00 0. -1.
</event>
<event>
 7    1  0.2639126E-011  0.5052886E+02  0.7816164E-02  0.1300439E+00
        -11   -1    0    0    0    0  0.00000000000E+00  0.00000000000E+00  0.45593999997E+02  0.45594000000E+02  0.51100000000E-03 0. -1.
         11   -1    0    0    0    0 -0.00000000000E+00 -0.00000000000E+00 -0.45593999997E+02  0.45594000000E+02  0.51100000000E-03 0.  1.
    9900012    2    1    2    0    0  0.36683739980E+02 -0.44249355853E+01 -0.16967282891E+02  0.50528861759E+02  0.30000005802E+02 0.  0.
         12    1    1    2    0    0 -0.36683739980E+02  0.44249355853E+01  0.16967282891E+02  0.40659138241E+02  0.00000000000E+00 0. -1.
         11    1    3    3    0    0 -0.38298953209E+00 -0.44030005852E+01  0.35331180743E+01  0.56582699408E+01  0.51100000000E-03 0. -1.
        -11    1    3    3    0    0  0.85113875727E-01  0.28067570175E+01 -0.17753688185E+01  0.33222077042E+01  0.51100000000E-03 0.  1.
         12    1    3    3    0    0  0.36981615636E+02 -0.28286920176E+01 -0.18725032146E+02  0.41548384114E+02  0.00000000000E+00 0. -1.
</event>
<event>
 7    1  0.2639126E-011  0.5052886E+02  0.7816164E-02  0.1300439E+00
        -11   -1    0    0    0    0  0.00000000000E+00  0.00000000000E+00  0.45593999997E+02  0.45594000000E+02  0.51100000000E-03 0.  1.
         11   -1    0    0    0    0 -0.00000000000E+00 -0.00000000000E+00 -0.45593999997E+02  0.45594000000E+02  0.51100000000E-03 0. -1.
    9900012    2    1    2    0    0  0.25969295104E+02  0.17903059789E+02 -0.25656231775E+02  0.50528855065E+02  0.29999985455E+02 0.  0.
         12    1    1    2    0    0 -0.25969295104E+02 -0.17903059789E+02  0.25656231775E+02  0.40659144935E+02  0.00000000000E+00 0. -1.
         11    1    3    3    0    0  0.19635467978E+02  0.52690991836E+01 -0.16827706837E+02  0.26391034966E+02  0.51100000000E-03 0. -1.
        -11    1    3    3    0    0  0.73153504986E+01  0.16724077906E+02 -0.69735557822E+01  0.19540716855E+02  0.51100000000E-03 0.  1.
         12    1    3    3    0    0 -0.98152337265E+00 -0.40901173005E+01 -0.18549691557E+01  0.45971032435E+01  0.00000000000E+00 0. -1.
</event>
<event>
 7    1  0.2639126E-011  0.5052886E+02  0.7816164E-02  0.1300439E+00
        -11   -1    0    0    0    0  0.00000000000E+00  0.00000000000E+00  0.45593999997E+02  0.45594000000E+02  0.51100000000E-03 0. -1.
         11   -1    0    0    0    0 -0.00000000000E+00 -0.00000000000E+00 -0.45593999997E+02  0.45594000000E+02  0.51100000000E-03 0.  1.
    9900012    2    1    2    0    0 -0.59022695981E+01 -0.35290816859E+02 -0.19310290148E+02  0.50528857773E+02  0.29999993688E+02 0.  0.
         12    1    1    2    0    0  0.59022695981E+01  0.35290816859E+02  0.19310290148E+02  0.40659142227E+02  0.00000000000E+00 0. -1.
         11    1    3    3    0    0  0.27712786458E+01 -0.33735942070E+01 -0.67307012259E+01  0.80226842428E+01  0.51100000000E-03 0. -1.
        -11    1    3    3    0    0  0.75302528091E+01 -0.16920949371E+02 -0.54861310660E+01  0.19316336851E+02  0.51100000000E-03 0.  1.
         12    1    3    3    0    0 -0.16203801053E+02 -0.14996273281E+02 -0.70934578560E+01  0.23189836680E+02  0.00000000000E+00 0. -1.
</event>
<event>
 7    1  0.2639126E-011  0.5052887E+02  0.7816164E-02  0.1300439E+00
        -11   -1    0    0    0    0  0.00000000000E+00  0.00000000000E+00  0.45593999997E+02  0.45594000000E+02  0.51100000000E-03 0.  1.
         11   -1    0    0    0    0 -0.00000000000E+00 -0.00000000000E+00 -0.45593999997E+02  0.45594000000E+02  0.51100000000E-03 0. -1.
    9900012    2    1    2    0    0 -0.25616558690E+02  0.14073259046E+02  0.28264816012E+02  0.50528874044E+02  0.30000043143E+02 0.  0.
         12    1    1    2    0    0  0.25616558690E+02 -0.14073259046E+02 -0.28264816012E+02  0.40659125956E+02  0.00000000000E+00 0. -1.
         11    1    3    3    0    0  0.24357061060E+01  0.45668235613E+01 -0.71304469938E+00  0.52246506754E+01  0.51100000000E-03 0. -1.
        -11    1    3    3    0    0  0.59565565665E+00  0.41200973305E+01  0.91428537062E+01  0.10045983368E+02  0.51100000000E-03 0.  1.
         12    1    3    3    0    0 -0.28647920453E+02  0.53863381546E+01  0.19835007006E+02  0.35258240000E+02  0.00000000000E+00 0. -1.
</event>
<event>
 7    1  0.2639126E-011  0.5052885E+02  0.7816164E-02  0.1300439E+00
        -11   -1    0    0    0    0  0.00000000000E+00  0.00000000000E+00  0.45593999997E+02  0.45594000000E+02  0.51100000000E-03 0. -1.
         11   -1    0    0    0    0 -0.00000000000E+00 -0.00000000000E+00 -0.45593999997E+02  0.45594000000E+02  0.51100000000E-03 0.  1.
    9900012    2    1    2    0    0  0.30050370963E+02  0.26745678623E+02 -0.59000046660E+01  0.50528853734E+02  0.29999981411E+02 0.  0.
         12    1    1    2    0    0 -0.30050370963E+02 -0.26745678623E+02  0.59000046660E+01  0.40659146266E+02  0.00000000000E+00 0. -1.
         11    1    3    3    0    0 -0.60377469629E+00  0.25928709292E+01  0.63682622189E+00  0.27373475186E+01  0.51100000000E-03 0. -1.
        -11    1    3    3    0    0  0.35653709406E+02  0.21941872154E+02 -0.61141421567E+01  0.42308574575E+02  0.51100000000E-03 0.  1.
        -12    1    3    3    0    0 -0.49995637464E+01  0.22109355398E+01 -0.42268873123E+00  0.54829316409E+01  0.00000000000E+00 0.  1.
</event>
<event>
 7    1  0.2639126E-011  0.5052888E+02  0.7816164E-02  0.1300439E+00
        -11   -1    0    0    0    0  0.00000000000E+00  0.00000000000E+00  0.45593999997E+02  0.45594000000E+02  0.51100000000E-03 0. -1.
         11   -1    0    0    0    0 -0.00000000000E+00 -0.00000000000E+00 -0.45593999997E+02  0.45594000000E+02  0.51100000000E-03 0.  1.
    9900012    2    1    2    0    0  0.39693834097E+02 -0.79177738816E+01 -0.38565223117E+01  0.50528875896E+02  0.30000048775E+02 0.  0.
         12    1    1    2    0    0 -0.39693834097E+02  0.79177738816E+01  0.38565223117E+01  0.40659124104E+02  0.00000000000E+00 0. -1.
         11    1    3    3    0    0 -0.88231614061E+00 -0.20681220091E-01  0.54778737628E+01  0.55485142793E+01  0.51100000000E-03 0. -1.
        -11    1    3    3    0    0  0.19044639315E+02 -0.11065536120E+02 -0.24910461739E+01  0.22166408991E+02  0.51100000000E-03 0.  1.
         12    1    3    3    0    0  0.21531510923E+02  0.31684434588E+01 -0.68433499006E+01  0.22813952626E+02  0.00000000000E+00 0. -1.
</event>
<event>
 7    1  0.2639126E-011  0.5052887E+02  0.7816164E-02  0.1300439E+00
        -11   -1    0    0    0    0  0.00000000000E+00  0.00000000000E+00  0.45593999997E+02  0.45594000000E+02  0.51100000000E-03 0.  1.
         11   -1    0    0    0    0 -0.00000000000E+00 -0.00000000000E+00 -0.45593999997E+02  0.45594000000E+02  0.51100000000E-03 0. -1.
    9900012    2    1    2    0    0 -0.12589724438E+02 -0.77348293691E+01  0.37879231437E+02  0.50528869155E+02  0.30000028284E+02 0.  0.
         12    1    1    2    0    0  0.12589724438E+02  0.77348293691E+01 -0.37879231437E+02  0.40659130845E+02  0.00000000000E+00 0. -1.
         11    1    3    3    0    0  0.19114031321E+01 -0.16245167164E+01  0.73700298154E+00  0.26145152803E+01  0.51100000000E-03 0. -1.
        -11    1    3    3    0    0  0.57455187157E+01  0.38116389410E+01  0.13992383094E+02  0.15598921810E+02  0.51100000000E-03 0.  1.
        -12    1    3    3    0    0 -0.20246646286E+02 -0.99219515937E+01  0.23149845362E+02  0.32315432065E+02  0.00000000000E+00 0.  1.
</event>
<event>
 7    1  0.2639126E-011  0.5052889E+02  0.7816164E-02  0.1300439E+00
        -11   -1    0    0    0    0  0.00000000000E+00  0.00000000000E+00  0.45593999997E+02  0.45594000000E+02  0.51100000000E-03 0.  1.
         11   -1    0    0    0    0 -0.00000000000E+00 -0.00000000000E+00 -0.45593999997E+02  0.45594000000E+02  0.51100000000E-03 0. -1.
    9900012    2    1    2    0    0 -0.29026466981E+02 -0.26417562211E+02  0.10617902153E+02  0.50528890016E+02  0.30000091693E+02 0.  0.
         12    1    1    2    0    0  0.29026466981E+02  0.26417562211E+02 -0.10617902153E+02  0.40659109984E+02  0.00000000000E+00 0. -1.
         11    1    3    3    0    0 -0.21359570451E+01 -0.17791347812E+02  0.34296848302E+01  0.18244371948E+02  0.51100000000E-03 0. -1.
        -11    1    3    3    0    0  0.54906856082E+00 -0.21357457036E+01 -0.16286652615E+01  0.27414296982E+01  0.51100000000E-03 0.  1.
        -12    1    3    3    0    0 -0.27439578496E+02 -0.64904686950E+01  0.88168825846E+01  0.29543088370E+02  0.00000000000E+00 0.  1.
</event>
<event>
 7    1  0.2639126E-011  0.5052888E+02  0.7816164E-02  0.1300439E+00
        -11   -1    0    0    0    0  0.00000000000E+00  0.00000000000E+00  0.45593999997E+02  0.45594000000E+02  0.51100000000E-03 0.  1.
         11   -1    0    0    0    0 -0.00000000000E+00 -0.00000000000E+00 -0.45593999997E+02  0.45594000000E+02  0.51100000000E-03 0. -1.
    9900012    2    1    2    0    0 -0.50657680193E+01  0.75084618697E+01  0.39637418361E+02  0.50528881225E+02  0.30000064971E+02 0.  0.
         12    1    1    2    0    0  0.50657680193E+01 -0.75084618697E+01 -0.39637418361E+02  0.40659118775E+02  0.00000000000E+00 0. -1.
         11    1    3    3    0    0 -0.73709686921E+01  0.89274991218E+01  0.29374366564E+01  0.11944034260E+02  0.51100000000E-03 0. -1.
        -11    1    3    3    0    0  0.27936214470E+01  0.29440859047E+00  0.12240387781E+01  0.30641913124E+01  0.51100000000E-03 0.  1.
        -12    1    3    3    0    0 -0.48842077415E+00 -0.17134458426E+01  0.35475942926E+02  0.35520655653E+02  0.00000000000E+00 0.  1.
</event>
<event>
 7    1  0.2639126E-011  0.5052885E+02  0.7816164E-02  0.1300439E+00
        -11   -1    0    0    0    0  0.00000000000E+00  0.00000000000E+00  0.45593999997E+02  0.45594000000E+02  0.51100000000E-03 0.  1.
         11   -1    0    0    0    0 -0.00000000000E+00 -0.00000000000E+00 -0.45593999997E+02  0.45594000000E+02  0.51100000000E-03 0. -1.
    9900012    2    1    2    0    0 -0.20855963546E+02  0.29973081456E+02 -0.17883211676E+02  0.50528854814E+02  0.29999984694E+02 0.  0.
         12    1    1    2    0    0  0.20855963546E+02 -0.29973081456E+02  0.17883211676E+02  0.40659145186E+02  0.00000000000E+00 0. -1.
         11    1    3    3    0    0 -0.24752560755E+01  0.45345909296E+00  0.34839295701E+01  0.42977067488E+01  0.51100000000E-03 0. -1.
        -11    1    3    3    0    0 -0.15124126333E+01  0.22275499492E+02 -0.88754347749E+01  0.24026206781E+02  0.51100000000E-03 0.  1.
         12    1    3    3    0    0 -0.16868294837E+02  0.72441228707E+01 -0.12491706471E+02  0.22204941284E+02  0.00000000000E+00 0. -1.
</event>
<event>
 7    1  0.2639126E-011  0.5052884E+02  0.7816164E-02  0.1300439E+00
        -11   -1    0    0    0    0  0.00000000000E+00  0.00000000000E+00  0.45593999997E+02  0.45594000000E+02  0.51100000000E-03 0.  1.
         11   -1    0    0    0    0 -0.00000000000E+00 -0.00000000000E+00 -0.45593999997E+02  0.45594000000E+02  0.51100000000E-03 0. -1.
    9900012    2    1    2    0    0 -0.13015065709E+02  0.38116333149E+02  0.55606085395E+01  0.50528841678E+02  0.29999944765E+02 0.  0.
         12    1    1    2    0    0  0.13015065709E+02 -0.38116333149E+02 -0.55606085395E+01  0.40659158322E+02  0.00000000000E+00 0. -1.
         11    1    3    3    0    0  0.99612383440E+00  0.88291205958E+01  0.97233430961E+01  0.13171523618E+02  0.51100000000E-03 0. -1.
        -11    1    3    3    0    0 -0.13689172028E+02  0.10329701702E+02  0.23504616054E+01  0.17309559154E+02  0.51100000000E-03 0.  1.
         12    1    3    3    0    0 -0.32201751547E+00  0.18957510851E+02 -0.65131961621E+01  0.20047758907E+02  0.00000000000E+00 0. -1.
</event>
<event>
 7    1  0.2639126E-011  0.5052883E+02  0.7816164E-02  0.1300439E+00
        -11   -1    0    0    0    0  0.00000000000E+00  0.00000000000E+00  0.45593999997E+02  0.45594000000E+02  0.51100000000E-03 0.  1.
         11   -1    0    0    0    0 -0.00000000000E+00 -0.00000000000E+00 -0.45593999997E+02  0.45594000000E+02  0.51100000000E-03 0. -1.
    9900012    2    1    2    0    0 -0.39159104109E+02 -0.91149799923E+01  0.60539358338E+01  0.50528825956E+02  0.29999896976E+02 0.  0.
         12    1    1    2    0    0  0.39159104109E+02  0.91149799923E+01 -0.60539358338E+01  0.40659174044E+02  0.00000000000E+00 0. -1.
         11    1    3    3    0    0 -0.10389910921E+02  0.28652525929E+01  0.41261509210E+01  0.11540582440E+02  0.51100000000E-03 0. -1.
        -11    1    3    3    0    0 -0.26704031622E+02 -0.50031186688E+00 -0.17280265205E+01  0.26764560388E+02  0.51100000000E-03 0.  1.
         12    1    3    3    0    0 -0.20651615658E+01 -0.11479920718E+02  0.36558114334E+01  0.12223683129E+02  0.00000000000E+00 0. -1.
</event>
<event>
 7    1  0.2639126E-011  0.5052885E+02  0.7816164E-02  0.1300439E+00
        -11   -1    0    0    0    0  0.00000000000E+00  0.00000000000E+00  0.45593999997E+02  0.45594000000E+02  0.51100000000E-03 0.  1.
         11   -1    0    0    0    0 -0.00000000000E+00 -0.00000000000E+00 -0.45593999997E+02  0.45594000000E+02  0.51100000000E-03 0. -1.
    9900012    2    1    2    0    0 -0.39915671024E+02  0.75127509208E+01  0.18611565229E+01  0.50528854371E+02  0.29999983345E+02 0.  0.
         12    1    1    2    0    0  0.39915671024E+02 -0.75127509208E+01 -0.18611565229E+01  0.40659145629E+02  0.00000000000E+00 0. -1.
         11    1    3    3    0    0 -0.18489453098E+01  0.20505198385E+01  0.50204969834E+01  0.57296265662E+01  0.51100000000E-03 0. -1.
        -11    1    3    3    0    0 -0.19665057449E+02 -0.14422217303E+01  0.90137639897E+01  0.21680461931E+02  0.51100000000E-03 0.  1.
        -12    1    3    3    0    0 -0.18401668265E+02  0.69044528126E+01 -0.12173104450E+02  0.23118765874E+02  0.00000000000E+00 0.  1.
</event>
<event>
 7    1  0.2639126E-011  0.5052887E+02  0.7816164E-02  0.1300439E+00
        -11   -1    0    0    0    0  0.00000000000E+00  0.00000000000E+00  0.45593999997E+02  0.45594000000E+02  0.51100000000E-03 0. -1.
         11   -1    0    0    0    0 -0.00000000000E+00 -0.00000000000E+00 -0.45593999997E+02  0.45594000000E+02  0.51100000000E-03 0.  1.
    9900012    2    1    2    0    0  0.42833227149E+01  0.23271644093E+02 -0.33064304639E+02  0.50528874166E+02  0.30000043515E+02 0.  0.
         12    1    1    2    0    0 -0.42833227149E+01 -0.23271644093E+02  0.33064304639E+02  0.40659125834E+02  0.00000000000E+00 0. -1.
         11    1    3    3    0    0 -0.40501998180E+01 -0.48464731023E+01 -0.48836346925E+01  0.79838780157E+01  0.51100000000E-03 0. -1.
        -11    1    3    3    0    0 -0.27247640368E+01  0.28703083464E+01 -0.16501459399E+01  0.42878888679E+01  0.51100000000E-03 0.  1.
        -12    1    3    3    0    0  0.11058286570E+02  0.25247808849E+02 -0.26530524007E+02  0.38257107283E+02  0.00000000000E+00 0.  1.
</event>
<event>
 7    1  0.2639126E-011  0.5052888E+02  0.7816164E-02  0.1300439E+00
        -11   -1    0    0    0    0  0.00000000000E+00  0.00000000000E+00  0.45593999997E+02  0.45594000000E+02  0.51100000000E-03 0.  1.
         11   -1    0    0    0    0 -0.00000000000E+00 -0.00000000000E+00 -0.45593999997E+02  0.45594000000E+02  0.51100000000E-03 0. -1.
    9900012    2    1    2    0    0 -0.38916771155E+02 -0.94441727292E+01 -0.70325307393E+01  0.50528880921E+02  0.30000064047E+02 0.  0.
         12    1    1    2    0    0  0.38916771155E+02  0.94441727292E+01  0.70325307393E+01  0.40659119079E+02  0.00000000000E+00 0. -1.
         11    1    3    3    0    0 -0.21483260834E+01 -0.64655246905E+01  0.15243589229E+00  0.68148038451E+01  0.51100000000E-03 0.  1.
        -11    1    3    3    0    0 -0.12377503901E+02 -0.11423517125E+02 -0.59835539641E+01  0.17874626279E+02  0.51100000000E-03 0. -1.
        -12    1    3    3    0    0 -0.24390941171E+02  0.84448690859E+01 -0.12014126675E+01  0.25839450797E+02  0.00000000000E+00 0.  1.
</event>
<event>
 7    1  0.2639126E-011  0.5052886E+02  0.7816164E-02  0.1300439E+00
        -11   -1    0    0    0    0  0.00000000000E+00  0.00000000000E+00  0.45593999997E+02  0.45594000000E+02  0.51100000000E-03 0. -1.
         11   -1    0    0    0    0 -0.00000000000E+00 -0.00000000000E+00 -0.45593999997E+02  0.45594000000E+02  0.51100000000E-03 0.  1.
    9900012    2    1    2    0    0 -0.80907123375E+01 -0.27442698704E+02 -0.28889521078E+02  0.50528858760E+02  0.29999996688E+02 0.  0.
         12    1    1    2    0    0  0.80907123375E+01  0.27442698704E+02  0.28889521078E+02  0.40659141240E+02  0.00000000000E+00 0. -1.
         11    1    3    3    0    0 -0.63576353479E+01 -0.99105175372E+01 -0.19804968821E+02  0.23040717769E+02  0.51100000000E-03 0. -1.
        -11    1    3    3    0    0 -0.26423033332E+01 -0.17711920790E+02 -0.13846596298E+02  0.22636743014E+02  0.51100000000E-03 0.  1.
         12    1    3    3    0    0  0.90922634361E+00  0.17973962379E+00  0.47620440414E+01  0.48513979767E+01  0.00000000000E+00 0. -1.
</event>
<event>
 7    1  0.2639126E-011  0.5052886E+02  0.7816164E-02  0.1300439E+00
        -11   -1    0    0    0    0  0.00000000000E+00  0.00000000000E+00  0.45593999997E+02  0.45594000000E+02  0.51100000000E-03 0.  1.
         11   -1    0    0    0    0 -0.00000000000E+00 -0.00000000000E+00 -0.45593999997E+02  0.45594000000E+02  0.51100000000E-03 0. -1.
    9900012    2    1    2    0    0  0.24315936746E+02 -0.30356136696E+02  0.11849297502E+02  0.50528859992E+02  0.30000000430E+02 0.  0.
         12    1    1    2    0    0 -0.24315936746E+02  0.30356136696E+02 -0.11849297502E+02  0.40659140008E+02  0.00000000000E+00 0. -1.
         11    1    3    3    0    0  0.94806583664E+01 -0.78044569140E+01 -0.83831521406E+01  0.14868411847E+02  0.51100000000E-03 0. -1.
        -11    1    3    3    0    0  0.23810996559E+01 -0.11777134423E+02  0.43420626282E+01  0.12775916363E+02  0.51100000000E-03 0.  1.
        -12    1    3    3    0    0  0.12454178724E+02 -0.10774545358E+02  0.15890387014E+02  0.22884531781E+02  0.00000000000E+00 0.  1.
</event>
<event>
 7    1  0.2639126E-011  0.5052885E+02  0.7816164E-02  0.1300439E+00
        -11   -1    0    0    0    0  0.00000000000E+00  0.00000000000E+00  0.45593999997E+02  0.45594000000E+02  0.51100000000E-03 0. -1.
         11   -1    0    0    0    0 -0.00000000000E+00 -0.00000000000E+00 -0.45593999997E+02  0.45594000000E+02  0.51100000000E-03 0.  1.
    9900012    2    1    2    0    0 -0.31741566199E+02  0.62507765127E+01 -0.24628584100E+02  0.50528851133E+02  0.29999973505E+02 0.  0.
         12    1    1    2    0    0  0.31741566199E+02 -0.62507765127E+01  0.24628584100E+02  0.40659148867E+02  0.00000000000E+00 0. -1.
         11    1    3    3    0    0 -0.14513752899E+02  0.23639242104E+01 -0.15053921620E+01  0.14781859380E+02  0.51100000000E-03 0. -1.
        -11    1    3    3    0    0 -0.64323779351E+01  0.66710733282E+01  0.85227383510E+00  0.93061848360E+01  0.51100000000E-03 0.  1.
        -12    1    3    3    0    0 -0.10795435365E+02 -0.27842210259E+01 -0.23975465773E+02  0.26440806918E+02  0.00000000000E+00 0.  1.
</event>
<event>
 7    1 -0.2639126E-011  0.5052886E+02  0.7816164E-02  0.1300439E+00
        -11   -1    0    0    0    0  0.00000000000E+00  0.00000000000E+00  0.45593999997E+02  0.45594000000E+02  0.51100000000E-03 0. -1.
         11   -1    0    0    0    0 -0.00000000000E+00 -0.00000000000E+00 -0.45593999997E+02  0.45594000000E+02  0.51100000000E-03 0.  1.
    9900012    2    1    2    0    0  0.28374582850E+02 -0.12602441899E+01 -0.29093998018E+02  0.50528857264E+02  0.29999992141E+02 0.  0.
         12    1    1    2    0    0 -0.28374582850E+02  0.12602441899E+01  0.29093998018E+02  0.40659142736E+02  0.00000000000E+00 0. -1.
         11    1    3    3    0    0  0.13287146040E+02  0.10937797679E+01  0.32432151425E+01  0.13720898250E+02  0.51100000000E-03 0. -1.
        -11    1    3    3    0    0 -0.10349478264E+01 -0.74896645676E+00 -0.14749099316E+01  0.19512630074E+01  0.51100000000E-03 0.  1.
         12    1    3    3    0    0  0.16122384637E+02 -0.16050575011E+01 -0.30862303228E+02  0.34856696007E+02  0.00000000000E+00 0. -1.
</event>
<event>
 7    1  0.2639126E-011  0.5052885E+02  0.7816164E-02  0.1300439E+00
        -11   -1    0    0    0    0  0.00000000000E+00  0.00000000000E+00  0.45593999997E+02  0.45594000000E+02  0.51100000000E-03 0.  1.
         11   -1    0    0    0    0 -0.00000000000E+00 -0.00000000000E+00 -0.45593999997E+02  0.45594000000E+02  0.51100000000E-03 0. -1.
    9900012    2    1    2    0    0 -0.31621774076E+02 -0.20507110953E+02  0.15254115987E+02  0.50528852814E+02  0.29999978612E+02 0.  0.
         12    1    1    2    0    0  0.31621774076E+02  0.20507110953E+02 -0.15254115987E+02  0.40659147186E+02  0.00000000000E+00 0. -1.
         11    1    3    3    0    0  0.21379365940E+01  0.30650004896E+01  0.14521597745E+01  0.40092105398E+01  0.51100000000E-03 0. -1.
        -11    1    3    3    0    0 -0.44320389376E+01  0.17936119817E+01  0.46698635515E+01  0.66833852901E+01  0.51100000000E-03 0.  1.
        -12    1    3    3    0    0 -0.29327671733E+02 -0.25365723424E+02  0.91320926612E+01  0.39836256984E+02  0.00000000000E+00 0.  1.
</event>
<event>
 7    1  0.2639126E-011  0.5052886E+02  0.7816164E-02  0.1300439E+00
        -11   -1    0    0    0    0  0.00000000000E+00  0.00000000000E+00  0.45593999997E+02  0.45594000000E+02  0.51100000000E-03 0. -1.
         11   -1    0    0    0    0 -0.00000000000E+00 -0.00000000000E+00 -0.45593999997E+02  0.45594000000E+02  0.51100000000E-03 0.  1.
    9900012    2    1    2    0    0 -0.33304402640E+02  0.22499496837E+02  0.61445022107E+01  0.50528862029E+02  0.30000006623E+02 0.  0.
         12    1    1    2    0    0  0.33304402640E+02 -0.22499496837E+02 -0.61445022107E+01  0.40659137971E+02  0.00000000000E+00 0. -1.
         11    1    3    3    0    0 -0.44966082858E+01  0.10268104258E+02  0.66155870927E+01  0.13016122463E+02  0.51100000000E-03 0. -1.
        -11    1    3    3    0    0  0.11315905361E+01  0.65335103199E+01  0.20272421100E+01  0.69337554814E+01  0.51100000000E-03 0.  1.
        -12    1    3    3    0    0 -0.29939384891E+02  0.56978822588E+01 -0.24983269921E+01  0.30578984084E+02  0.00000000000E+00 0.  1.
</event>
<event>
 7    1  0.2639126E-011  0.5052886E+02  0.7816164E-02  0.1300439E+00
        -11   -1    0    0    0    0  0.00000000000E+00  0.00000000000E+00  0.45593999997E+02  0.45594000000E+02  0.51100000000E-03 0.  1.
         11   -1    0    0    0    0 -0.00000000000E+00 -0.00000000000E+00 -0.45593999997E+02  0.45594000000E+02  0.51100000000E-03 0. -1.
    9900012    2    1    2    0    0  0.90941503828E+01 -0.39533987460E+02  0.27433501193E+01  0.50528859508E+02  0.29999998959E+02 0.  0.
         12    1    1    2    0    0 -0.90941503828E+01  0.39533987460E+02 -0.27433501193E+01  0.40659140492E+02  0.00000000000E+00 0. -1.
         11    1    3    3    0    0  0.53767486812E+01 -0.51108646962E+01  0.14394664843E-01  0.74182593505E+01  0.51100000000E-03 0. -1.
        -11    1    3    3    0    0  0.12591522196E+02 -0.28644363278E+02 -0.23262627560E+01  0.31376065360E+02  0.51100000000E-03 0.  1.
         12    1    3    3    0    0 -0.88741204942E+01 -0.57787594861E+01  0.50552182105E+01  0.11734534797E+02  0.00000000000E+00 0. -1.
</event>
<event>
 7    1  0.2639126E-011  0.5052885E+02  0.7816164E-02  0.1300439E+00
        -11   -1    0    0    0    0  0.00000000000E+00  0.00000000000E+00  0.45593999997E+02  0.45594000000E+02  0.51100000000E-03 0. -1.
         11   -1    0    0    0    0 -0.00000000000E+00 -0.00000000000E+00 -0.45593999997E+02  0.45594000000E+02  0.51100000000E-03 0.  1.
    9900012    2    1    2    0    0 -0.28255118612E+02  0.21658105307E+02 -0.19640286933E+02  0.50528854362E+02  0.29999983318E+02 0.  0.
         12    1    1    2    0    0  0.28255118612E+02 -0.21658105307E+02  0.19640286933E+02  0.40659145638E+02  0.00000000000E+00 0. -1.
         11    1    3    3    0    0 -0.15346856267E+02  0.45643465454E+01 -0.25787281149E+01  0.16217555168E+02  0.51100000000E-03 0. -1.
        -11    1    3    3    0    0 -0.99641878504E+01 -0.19590541619E+01 -0.83874115004E+01  0.13170861956E+02  0.51100000000E-03 0.  1.
         12    1    3    3    0    0 -0.29440744937E+01  0.19052812923E+02 -0.86741473174E+01  0.21140437238E+02  0.00000000000E+00 0. -1.
</event>
<event>
 7    1  0.2639126E-011  0.5052896E+02  0.7816164E-02  0.1300438E+00
        -11   -1    0    0    0    0  0.00000000000E+00  0.00000000000E+00  0.45593999997E+02  0.45594000000E+02  0.51100000000E-03 0. -1.
         11   -1    0    0    0    0 -0.00000000000E+00 -0.00000000000E+00 -0.45593999997E+02  0.45594000000E+02  0.51100000000E-03 0.  1.
    9900012    2    1    2    0    0  0.30912005606E+02  0.26323987900E+02 -0.21571779938E+01  0.50528956154E+02  0.30000292726E+02 0.  0.
         12    1    1    2    0    0 -0.30912005606E+02 -0.26323987900E+02  0.21571779938E+01  0.40659043846E+02  0.00000000000E+00 0. -1.
         11    1    3    3    0    0  0.65271912316E+01 -0.15467564734E+01 -0.14993771598E+01  0.68734862399E+01  0.51100000000E-03 0. -1.
        -11    1    3    3    0    0  0.23998214447E+02  0.30470041417E+02 -0.44515954562E+01  0.39040420374E+02  0.51100000000E-03 0.  1.
         12    1    3    3    0    0  0.38659992731E+00 -0.25992970439E+01  0.37937946222E+01  0.46150495405E+01  0.00000000000E+00 0. -1.
</event>
<event>
 7    1  0.2639126E-011  0.5052887E+02  0.7816164E-02  0.1300439E+00
        -11   -1    0    0    0    0  0.00000000000E+00  0.00000000000E+00  0.45593999997E+02  0.45594000000E+02  0.51100000000E-03 0. -1.
         11   -1    0    0    0    0 -0.00000000000E+00 -0.00000000000E+00 -0.45593999997E+02  0.45594000000E+02  0.51100000000E-03 0.  1.
    9900012    2    1    2    0    0  0.10605811229E+02  0.37399325289E+01 -0.39072939712E+02  0.50528868862E+02  0.30000027392E+02 0.  0.
         12    1    1    2    0    0 -0.10605811229E+02 -0.37399325289E+01  0.39072939712E+02  0.40659131138E+02  0.00000000000E+00 0. -1.
         11    1    3    3    0    0  0.14863990376E+01 -0.45203566529E+01 -0.13346612165E+02  0.14169511738E+02  0.51100000000E-03 0. -1.
        -11    1    3    3    0    0  0.13880989300E+01  0.39323037967E+01 -0.27077419094E+02  0.27396650467E+02  0.51100000000E-03 0.  1.
         12    1    3    3    0    0  0.77313132614E+01  0.43279853851E+01  0.13510915459E+01  0.89627066562E+01  0.00000000000E+00 0. -1.
</event>
<event>
 7    1  0.2639126E-011  0.5052886E+02  0.7816164E-02  0.1300439E+00
        -11   -1    0    0    0    0  0.00000000000E+00  0.00000000000E+00  0.45593999997E+02  0.45594000000E+02  0.51100000000E-03 0. -1.
         11   -1    0    0    0    0 -0.00000000000E+00 -0.00000000000E+00 -0.45593999997E+02  0.45594000000E+02  0.51100000000E-03 0.  1.
    9900012    2    1    2    0    0 -0.22766301076E+02 -0.21001662126E+02 -0.26339920720E+02  0.50528859573E+02  0.29999999157E+02 0.  0.
         12    1    1    2    0    0  0.22766301076E+02  0.21001662126E+02  0.26339920720E+02  0.40659140427E+02  0.00000000000E+00 0. -1.
         11    1    3    3    0    0 -0.18059845956E+02 -0.35154823887E+01 -0.45151982821E+01  0.18944753051E+02  0.51100000000E-03 0. -1.
        -11    1    3    3    0    0 -0.33873510607E+01 -0.36875087986E+01 -0.15609458128E+02  0.16392896378E+02  0.51100000000E-03 0.  1.
        -12    1    3    3    0    0 -0.13191040599E+01 -0.13798670939E+02 -0.62152643097E+01  0.15191210144E+02  0.00000000000E+00 0.  1.
</event>
<event>
 7    1  0.2639126E-011  0.5052887E+02  0.7816164E-02  0.1300439E+00
        -11   -1    0    0    0    0  0.00000000000E+00  0.00000000000E+00  0.45593999997E+02  0.45594000000E+02  0.51100000000E-03 0.  1.
         11   -1    0    0    0    0 -0.00000000000E+00 -0.00000000000E+00 -0.45593999997E+02  0.45594000000E+02  0.51100000000E-03 0. -1.
    9900012    2    1    2    0    0 -0.36592149212E+02 -0.12627000462E+02 -0.12439375781E+02  0.50528873172E+02  0.30000040494E+02 0.  0.
         12    1    1    2    0    0  0.36592149212E+02  0.12627000462E+02  0.12439375781E+02  0.40659126828E+02  0.00000000000E+00 0. -1.
         11    1    3    3    0    0 -0.49021525944E+01 -0.12495002141E+01 -0.36814270539E+01  0.62566169979E+01  0.51100000000E-03 0. -1.
        -11    1    3    3    0    0 -0.32428890534E+02 -0.17414026626E+02 -0.98258712380E+01  0.38097624734E+02  0.51100000000E-03 0.  1.
         12    1    3    3    0    0  0.73889391644E+00  0.60365263775E+01  0.10679225112E+01  0.61746314397E+01  0.00000000000E+00 0. -1.
</event>
<event>
 7    1  0.2639126E-011  0.5052886E+02  0.7816164E-02  0.1300439E+00
        -11   -1    0    0    0    0  0.00000000000E+00  0.00000000000E+00  0.45593999997E+02  0.45594000000E+02  0.51100000000E-03 0. -1.
         11   -1    0    0    0    0 -0.00000000000E+00 -0.00000000000E+00 -0.45593999997E+02  0.45594000000E+02  0.51100000000E-03 0.  1.
    9900012    2    1    2    0    0  0.40654985961E+02  0.41462524040E-01 -0.57975423470E+00  0.50528859359E+02  0.29999998509E+02 0.  0.
         12    1    1    2    0    0 -0.40654985961E+02 -0.41462524040E-01  0.57975423470E+00  0.40659140641E+02  0.00000000000E+00 0. -1.
         11    1    3    3    0    0  0.17916724991E+02 -0.36445123384E+01 -0.66392231611E+01  0.19451755423E+02  0.51100000000E-03 0. -1.
        -11    1    3    3    0    0  0.21064354795E+02 -0.45322281383E+01  0.69583081622E+01  0.22642133017E+02  0.51100000000E-03 0.  1.
        -12    1    3    3    0    0  0.16739061756E+01  0.82182030007E+01 -0.89883923582E+00  0.84349709197E+01  0.00000000000E+00 0.  1.
</event>
<event>
 7    1  0.2639126E-011  0.5052886E+02  0.7816164E-02  0.1300439E+00
        -11   -1    0    0    0    0  0.00000000000E+00  0.00000000000E+00  0.45593999997E+02  0.45594000000E+02  0.51100000000E-03 0.  1.
         11   -1    0    0    0    0 -0.00000000000E+00 -0.00000000000E+00 -0.45593999997E+02  0.45594000000E+02  0.51100000000E-03 0. -1.
    9900012    2    1    2    0    0 -0.66363363133E+01 -0.15099400280E+01  0.40085471175E+02  0.50528857389E+02  0.29999992518E+02 0.  0.
         12    1    1    2    0    0  0.66363363133E+01  0.15099400280E+01 -0.40085471175E+02  0.40659142611E+02  0.00000000000E+00 0. -1.
         11    1    3    3    0    0 -0.23108270734E+01  0.73248895713E+01  0.99382713034E+01  0.12560380797E+02  0.51100000000E-03 0. -1.
        -11    1    3    3    0    0 -0.76681915257E+01  0.43393289119E+01  0.16514850999E+02  0.18718206123E+02  0.51100000000E-03 0.  1.
        -12    1    3    3    0    0  0.33426822857E+01 -0.13174158511E+02  0.13632348873E+02  0.19250270469E+02  0.00000000000E+00 0.  1.
</event>
<event>
 7    1  0.2639126E-011  0.5052887E+02  0.7816164E-02  0.1300439E+00
        -11   -1    0    0    0    0  0.00000000000E+00  0.00000000000E+00  0.45593999997E+02  0.45594000000E+02  0.51100000000E-03 0. -1.
         11   -1    0    0    0    0 -0.00000000000E+00 -0.00000000000E+00 -0.45593999997E+02  0.45594000000E+02  0.51100000000E-03 0.  1.
    9900012    2    1    2    0    0  0.79410661430E+01 -0.35598322222E+02 -0.17968401954E+02  0.50528873776E+02  0.30000042330E+02 0.  0.
         12    1    1    2    0    0 -0.79410661430E+01  0.35598322222E+02  0.17968401954E+02  0.40659126224E+02  0.00000000000E+00 0. -1.
         11    1    3    3    0    0  0.53623890998E+01 -0.15575992036E+02 -0.21444582319E+00  0.16474608707E+02  0.51100000000E-03 0. -1.
        -11    1    3    3    0    0  0.39281072125E+01 -0.10829659169E+02  0.24845514336E+01  0.11784928514E+02  0.51100000000E-03 0.  1.
        -12    1    3    3    0    0 -0.13494301693E+01 -0.91926710170E+01 -0.20238507564E+02  0.22269336556E+02  0.00000000000E+00 0.  1.
</event>
<event>
 7    1  0.2639126E-011  0.5052883E+02  0.7816164E-02  0.1300439E+00
        -11   -1    0    0    0    0  0.00000000000E+00  0.00000000000E+00  0.45593999997E+02  0.45594000000E+02  0.51100000000E-03 0.  1.
         11   -1    0    0    0    0 -0.00000000000E+00 -0.00000000000E+00 -0.45593999997E+02  0.45594000000E+02  0.51100000000E-03 0. -1.
    9900012    2    1    2    0    0  0.14029787516E+02  0.38134101994E+02 -0.14570971249E+01  0.50528833694E+02  0.29999920497E+02 0.  0.
         12    1    1    2    0    0 -0.14029787516E+02 -0.38134101994E+02  0.14570971249E+01  0.40659166306E+02  0.00000000000E+00 0. -1.
         11    1    3    3    0    0  0.14793965415E+02  0.16498002500E+02 -0.72520554242E+01  0.23316041846E+02  0.51100000000E-03 0.  1.
        -11    1    3    3    0    0  0.36716390950E+01  0.13477846811E+02 -0.31493292321E+01  0.14319621615E+02  0.51100000000E-03 0. -1.
        -12    1    3    3    0    0 -0.44358169943E+01  0.81582526823E+01  0.89442875315E+01  0.12893170234E+02  0.00000000000E+00 0.  1.
</event>
<event>
 7    1  0.2639126E-011  0.5052886E+02  0.7816164E-02  0.1300439E+00
        -11   -1    0    0    0    0  0.00000000000E+00  0.00000000000E+00  0.45593999997E+02  0.45594000000E+02  0.51100000000E-03 0.  1.
         11   -1    0    0    0    0 -0.00000000000E+00 -0.00000000000E+00 -0.45593999997E+02  0.45594000000E+02  0.51100000000E-03 0. -1.
    9900012    2    1    2    0    0 -0.13458376578E+02 -0.19652605950E+02  0.32951675514E+02  0.50528859085E+02  0.29999997674E+02 0.  0.
         12    1    1    2    0    0  0.13458376578E+02  0.19652605950E+02 -0.32951675514E+02  0.40659140915E+02  0.00000000000E+00 0. -1.
         11    1    3    3    0    0 -0.23102654624E+01 -0.47686124463E+01 -0.11636461751E+01  0.54250404471E+01  0.51100000000E-03 0. -1.
        -11    1    3    3    0    0 -0.15843431793E+02 -0.10729102824E+02  0.13140740902E+02  0.23212217691E+02  0.51100000000E-03 0.  1.
        -12    1    3    3    0    0  0.46953206777E+01 -0.41548906802E+01  0.20974580787E+02  0.21891600947E+02  0.00000000000E+00 0.  1.
</event>
<event>
 7    1  0.2639126E-011  0.5052886E+02  0.7816164E-02  0.1300439E+00
        -11   -1    0    0    0    0  0.00000000000E+00  0.00000000000E+00  0.45593999997E+02  0.45594000000E+02  0.51100000000E-03 0.  1.
         11   -1    0    0    0    0 -0.00000000000E+00 -0.00000000000E+00 -0.45593999997E+02  0.45594000000E+02  0.51100000000E-03 0. -1.
    9900012    2    1    2    0    0 -0.30364689987E+02 -0.11289383598E+01  0.27016230393E+02  0.50528860751E+02  0.30000002738E+02 0.  0.
         12    1    1    2    0    0  0.30364689987E+02  0.11289383598E+01 -0.27016230393E+02  0.40659139249E+02  0.00000000000E+00 0. -1.
         11    1    3    3    0    0 -0.22191372171E+02  0.25103469181E+01  0.76984287597E+01  0.23622545293E+02  0.51100000000E-03 0. -1.
        -11    1    3    3    0    0 -0.57869748209E+01 -0.29232249667E+00 -0.12534633617E+01  0.59283809493E+01  0.51100000000E-03 0.  1.
        -12    1    3    3    0    0 -0.23863429951E+01 -0.33469627812E+01  0.20571264995E+02  0.20977934508E+02  0.00000000000E+00 0.  1.
</event>
<event>
 7    1  0.2639126E-011  0.5052885E+02  0.7816164E-02  0.1300439E+00
        -11   -1    0    0    0    0  0.00000000000E+00  0.00000000000E+00  0.45593999997E+02  0.45594000000E+02  0.51100000000E-03 0.  1.
         11   -1    0    0    0    0 -0.00000000000E+00 -0.00000000000E+00 -0.45593999997E+02  0.45594000000E+02  0.51100000000E-03 0. -1.
    9900012    2    1    2    0    0 -0.28234677898E+02  0.27476240944E+02 -0.10051169959E+02  0.50528845189E+02  0.29999955436E+02 0.  0.
         12    1    1    2    0    0  0.28234677898E+02 -0.27476240944E+02  0.10051169959E+02  0.40659154811E+02  0.00000000000E+00 0. -1.
         11    1    3    3    0    0 -0.26722820185E+02  0.93790053107E+01 -0.76177289259E+01  0.29327540870E+02  0.51100000000E-03 0. -1.
        -11    1    3    3    0    0 -0.58672013401E+01  0.75425981698E+01 -0.20703779440E+01  0.97775919227E+01  0.51100000000E-03 0.  1.
         12    1    3    3    0    0  0.43553436268E+01  0.10554637464E+02 -0.36306308951E+00  0.11423712396E+02  0.00000000000E+00 0. -1.
</event>
<event>
 7    1  0.2639126E-011  0.5052884E+02  0.7816164E-02  0.1300439E+00
        -11   -1    0    0    0    0  0.00000000000E+00  0.00000000000E+00  0.45593999997E+02  0.45594000000E+02  0.51100000000E-03 0. -1.
         11   -1    0    0    0    0 -0.00000000000E+00 -0.00000000000E+00 -0.45593999997E+02  0.45594000000E+02  0.51100000000E-03 0.  1.
    9900012    2    1    2    0    0 -0.33451145135E+02 -0.22825314186E+02 -0.36322892562E+01  0.50528836164E+02  0.29999928005E+02 0.  0.
         12    1    1    2    0    0  0.33451145135E+02  0.22825314186E+02  0.36322892562E+01  0.40659163836E+02  0.00000000000E+00 0. -1.
         11    1    3    3    0    0  0.51270851261E+00 -0.18409746851E+01 -0.64656780540E+01  0.67421844212E+01  0.51100000000E-03 0. -1.
        -11    1    3    3    0    0 -0.23255542088E+02 -0.16129215233E+02 -0.61841581446E+01  0.28969218734E+02  0.51100000000E-03 0.  1.
         12    1    3    3    0    0 -0.10708311560E+02 -0.48551242677E+01  0.90175469424E+01  0.14817433009E+02  0.00000000000E+00 0. -1.
</event>
<event>
 7    1  0.2639126E-011  0.5052885E+02  0.7816164E-02  0.1300439E+00
        -11   -1    0    0    0    0  0.00000000000E+00  0.00000000000E+00  0.45593999997E+02  0.45594000000E+02  0.51100000000E-03 0. -1.
         11   -1    0    0    0    0 -0.00000000000E+00 -0.00000000000E+00 -0.45593999997E+02  0.45594000000E+02  0.51100000000E-03 0.  1.
    9900012    2    1    2    0    0 -0.64121781153E+01 -0.78477404490E+01 -0.39375921116E+02  0.50528853156E+02  0.29999979653E+02 0.  0.
         12    1    1    2    0    0  0.64121781153E+01  0.78477404490E+01  0.39375921116E+02  0.40659146844E+02  0.00000000000E+00 0. -1.
         11    1    3    3    0    0  0.55262322087E+01  0.79871615008E+00 -0.47806501831E+01  0.73506330575E+01  0.51100000000E-03 0. -1.
        -11    1    3    3    0    0  0.52823358330E+01 -0.57097425980E+01 -0.67094810129E+01  0.10272359423E+02  0.51100000000E-03 0.  1.
        -12    1    3    3    0    0 -0.17220746157E+02 -0.29367140010E+01 -0.27885789920E+02  0.32905860676E+02  0.00000000000E+00 0.  1.
</event>
<event>
 7    1  0.2639126E-011  0.5052889E+02  0.7816164E-02  0.1300439E+00
        -11   -1    0    0    0    0  0.00000000000E+00  0.00000000000E+00  0.45593999997E+02  0.45594000000E+02  0.51100000000E-03 0. -1.
         11   -1    0    0    0    0 -0.00000000000E+00 -0.00000000000E+00 -0.45593999997E+02  0.45594000000E+02  0.51100000000E-03 0.  1.
    9900012    2    1    2    0    0 -0.33962723314E+02  0.21397315446E+02 -0.64692942441E+01  0.50528887230E+02  0.30000083225E+02 0.  0.
         12    1    1    2    0    0  0.33962723314E+02 -0.21397315446E+02  0.64692942441E+01  0.40659112770E+02  0.00000000000E+00 0. -1.
         11    1    3    3    0    0 -0.30049498208E+01  0.32132960690E+01  0.22792113563E+01  0.49547754461E+01  0.51100000000E-03 0. -1.
        -11    1    3    3    0    0 -0.95846083018E+01  0.17535772838E+02  0.44123936420E+01  0.20465513999E+02  0.51100000000E-03 0.  1.
        -12    1    3    3    0    0 -0.21373165191E+02  0.64824653853E+00 -0.13160899242E+02  0.25108597785E+02  0.00000000000E+00 0.  1.
</event>
<event>
 7    1  0.2639126E-011  0.5052888E+02  0.7816164E-02  0.1300439E+00
        -11   -1    0    0    0    0  0.00000000000E+00  0.00000000000E+00  0.45593999997E+02  0.45594000000E+02  0.51100000000E-03 0. -1.
         11   -1    0    0    0    0 -0.00000000000E+00 -0.00000000000E+00 -0.45593999997E+02  0.45594000000E+02  0.51100000000E-03 0.  1.
    9900012    2    1    2    0    0  0.10091803503E+02  0.15415560005E+02 -0.36244721154E+02  0.50528882945E+02  0.30000070199E+02 0.  0.
         12    1    1    2    0    0 -0.10091803503E+02 -0.15415560005E+02  0.36244721154E+02  0.40659117055E+02  0.00000000000E+00 0. -1.
         11    1    3    3    0    0  0.16283746433E+02  0.40129802940E+01 -0.19317124679E+02  0.25581550282E+02  0.51100000000E-03 0. -1.
        -11    1    3    3    0    0 -0.39379673949E+01  0.14019583188E+02 -0.15323328890E+02  0.21139080125E+02  0.51100000000E-03 0.  1.
         12    1    3    3    0    0 -0.22539755346E+01 -0.26170034773E+01 -0.16042675848E+01  0.38082525382E+01  0.00000000000E+00 0. -1.
</event>
<event>
 7    1  0.2639126E-011  0.5052886E+02  0.7816164E-02  0.1300439E+00
        -11   -1    0    0    0    0  0.00000000000E+00  0.00000000000E+00  0.45593999997E+02  0.45594000000E+02  0.51100000000E-03 0. -1.
         11   -1    0    0    0    0 -0.00000000000E+00 -0.00000000000E+00 -0.45593999997E+02  0.45594000000E+02  0.51100000000E-03 0.  1.
    9900012    2    1    2    0    0 -0.31672177175E+02  0.93434856048E+01 -0.23722105156E+02  0.50528858306E+02  0.29999995306E+02 0.  0.
         12    1    1    2    0    0  0.31672177175E+02 -0.93434856048E+01  0.23722105156E+02  0.40659141694E+02  0.00000000000E+00 0. -1.
         11    1    3    3    0    0 -0.82718376269E+01 -0.29360649447E+01  0.41077352351E+01  0.96910919977E+01  0.51100000000E-03 0. -1.
        -11    1    3    3    0    0 -0.46334507422E+01 -0.17394801360E+01 -0.70683981416E+00  0.49994279381E+01  0.51100000000E-03 0.  1.
        -12    1    3    3    0    0 -0.18766888806E+02  0.14019030686E+02 -0.27123000577E+02  0.35838338370E+02  0.00000000000E+00 0.  1.
</event>
<event>
 7    1  0.2639126E-011  0.5052886E+02  0.7816164E-02  0.1300439E+00
        -11   -1    0    0    0    0  0.00000000000E+00  0.00000000000E+00  0.45593999997E+02  0.45594000000E+02  0.51100000000E-03 0.  1.
         11   -1    0    0    0    0 -0.00000000000E+00 -0.00000000000E+00 -0.45593999997E+02  0.45594000000E+02  0.51100000000E-03 0. -1.
    9900012    2    1    2    0    0 -0.89573709833E+01 -0.12619990726E+02  0.37598759540E+02  0.50528863514E+02  0.30000011137E+02 0.  0.
         12    1    1    2    0    0  0.89573709833E+01  0.12619990726E+02 -0.37598759540E+02  0.40659136486E+02  0.00000000000E+00 0. -1.
         11    1    3    3    0    0  0.25206628892E+01  0.40551319379E+01  0.19311701712E+02  0.19893206371E+02  0.51100000000E-03 0. -1.
        -11    1    3    3    0    0 -0.74562780178E+01 -0.18898816081E+01  0.11597585247E+02  0.13916598657E+02  0.51100000000E-03 0.  1.
        -12    1    3    3    0    0 -0.40217558548E+01 -0.14785241056E+02  0.66894725808E+01  0.16719058486E+02  0.00000000000E+00 0.  1.
</event>
<event>
 7    1  0.2639126E-011  0.5052886E+02  0.7816164E-02  0.1300439E+00
        -11   -1    0    0    0    0  0.00000000000E+00  0.00000000000E+00  0.45593999997E+02  0.45594000000E+02  0.51100000000E-03 0. -1.
         11   -1    0    0    0    0 -0.00000000000E+00 -0.00000000000E+00 -0.45593999997E+02  0.45594000000E+02  0.51100000000E-03 0.  1.
    9900012    2    1    2    0    0 -0.12997832785E+02  0.17813591600E+02  0.34159890872E+02  0.50528857766E+02  0.29999993665E+02 0.  0.
         12    1    1    2    0    0  0.12997832785E+02 -0.17813591600E+02 -0.34159890872E+02  0.40659142234E+02  0.00000000000E+00 0. -1.
         11    1    3    3    0    0 -0.77976478301E+01  0.21365772958E+01  0.13762309910E+02  0.15961498944E+02  0.51100000000E-03 0. -1.
        -11    1    3    3    0    0 -0.99016970628E+01 -0.10359423062E+01  0.41402452575E+01  0.10782319428E+02  0.51100000000E-03 0.  1.
        -12    1    3    3    0    0  0.47015121076E+01  0.16712956611E+02  0.16257335705E+02  0.23785039394E+02  0.00000000000E+00 0.  1.
</event>
<event>
 7    1  0.2639126E-011  0.5052884E+02  0.7816164E-02  0.1300439E+00
        -11   -1    0    0    0    0  0.00000000000E+00  0.00000000000E+00  0.45593999997E+02  0.45594000000E+02  0.51100000000E-03 0.  1.
         11   -1    0    0    0    0 -0.00000000000E+00 -0.00000000000E+00 -0.45593999997E+02  0.45594000000E+02  0.51100000000E-03 0. -1.
    9900012    2    1    2    0    0  0.27283403759E+02  0.22242777721E-01  0.30146015941E+02  0.50528844911E+02  0.29999954592E+02 0.  0.
         12    1    1    2    0    0 -0.27283403759E+02 -0.22242777721E-01 -0.30146015941E+02  0.40659155089E+02  0.00000000000E+00 0. -1.
         11    1    3    3    0    0  0.29517721156E+01 -0.51403505888E+01 -0.36365673665E+00  0.59387211823E+01  0.51100000000E-03 0. -1.
        -11    1    3    3    0    0  0.21784844106E+01  0.94903344208E+01  0.69526070848E+01  0.11964572173E+02  0.51100000000E-03 0.  1.
        -12    1    3    3    0    0  0.22153147233E+02 -0.43277410543E+01  0.23557065593E+02  0.32625551556E+02  0.00000000000E+00 0.  1.
</event>
<event>
 7    1  0.2639126E-011  0.5052888E+02  0.7816164E-02  0.1300439E+00
        -11   -1    0    0    0    0  0.00000000000E+00  0.00000000000E+00  0.45593999997E+02  0.45594000000E+02  0.51100000000E-03 0. -1.
         11   -1    0    0    0    0 -0.00000000000E+00 -0.00000000000E+00 -0.45593999997E+02  0.45594000000E+02  0.51100000000E-03 0.  1.
    9900012    2    1    2    0    0 -0.15072561135E+02 -0.13938520462E+02 -0.35095583241E+02  0.50528875380E+02  0.30000047206E+02 0.  0.
         12    1    1    2    0    0  0.15072561135E+02  0.13938520462E+02  0.35095583241E+02  0.40659124620E+02  0.00000000000E+00 0. -1.
         11    1    3    3    0    0  0.23885977617E+01 -0.12597821839E+00 -0.12440456230E+02  0.12668315644E+02  0.51100000000E-03 0. -1.
        -11    1    3    3    0    0  0.41809802052E+00 -0.11188648596E+02 -0.13698042622E+02  0.17691722226E+02  0.51100000000E-03 0.  1.
         12    1    3    3    0    0 -0.17879256918E+02 -0.26238936473E+01 -0.89570843884E+01  0.20168837511E+02  0.00000000000E+00 0. -1.
</event>
<event>
 7    1  0.2639126E-011  0.5052886E+02  0.7816164E-02  0.1300439E+00
        -11   -1    0    0    0    0  0.00000000000E+00  0.00000000000E+00  0.45593999997E+02  0.45594000000E+02  0.51100000000E-03 0.  1.
         11   -1    0    0    0    0 -0.00000000000E+00 -0.00000000000E+00 -0.45593999997E+02  0.45594000000E+02  0.51100000000E-03 0. -1.
    9900012    2    1    2    0    0 -0.36618417067E+02 -0.12384674002E+02  0.12604656135E+02  0.50528856195E+02  0.29999988892E+02 0.  0.
         12    1    1    2    0    0  0.36618417067E+02  0.12384674002E+02 -0.12604656135E+02  0.40659143805E+02  0.00000000000E+00 0. -1.
         11    1    3    3    0    0 -0.65594769474E+01 -0.78442711301E+01  0.43266716830E+01  0.11103126384E+02  0.51100000000E-03 0.  1.
        -11    1    3    3    0    0 -0.25079381794E+02 -0.11710258517E+02  0.11699537468E+02  0.30049704207E+02  0.51100000000E-03 0. -1.
         12    1    3    3    0    0 -0.49795583259E+01  0.71698556455E+01 -0.34215530158E+01  0.93760256046E+01  0.00000000000E+00 0. -1.
</event>
<event>
 7    1  0.2639126E-011  0.5052886E+02  0.7816164E-02  0.1300439E+00
        -11   -1    0    0    0    0  0.00000000000E+00  0.00000000000E+00  0.45593999997E+02  0.45594000000E+02  0.51100000000E-03 0. -1.
         11   -1    0    0    0    0 -0.00000000000E+00 -0.00000000000E+00 -0.45593999997E+02  0.45594000000E+02  0.51100000000E-03 0.  1.
    9900012    2    1    2    0    0 -0.31815445990E+02 -0.24562057792E+02 -0.61357958813E+01  0.50528864770E+02  0.30000014956E+02 0.  0.
         12    1    1    2    0    0  0.31815445990E+02  0.24562057792E+02  0.61357958813E+01  0.40659135230E+02  0.00000000000E+00 0. -1.
         11    1    3    3    0    0 -0.14654435565E+02 -0.17055886133E+02  0.36790798805E+01  0.22785771054E+02  0.51100000000E-03 0. -1.
        -11    1    3    3    0    0 -0.12752257959E+02 -0.86316923150E+01  0.15737727345E+01  0.15479113546E+02  0.51100000000E-03 0.  1.
        -12    1    3    3    0    0 -0.44087524665E+01  0.11255206563E+01 -0.11388648496E+02  0.12263980171E+02  0.00000000000E+00 0.  1.
</event>
<event>
 7    1  0.2639126E-011  0.5052886E+02  0.7816164E-02  0.1300439E+00
        -11   -1    0    0    0    0  0.00000000000E+00  0.00000000000E+00  0.45593999997E+02  0.45594000000E+02  0.51100000000E-03 0.  1.
         11   -1    0    0    0    0 -0.00000000000E+00 -0.00000000000E+00 -0.45593999997E+02  0.45594000000E+02  0.51100000000E-03 0. -1.
    9900012    2    1    2    0    0  0.17186648553E+02 -0.36250051731E+02 -0.66120218982E+01  0.50528856224E+02  0.29999988979E+02 0.  0.
         12    1    1    2    0    0 -0.17186648553E+02  0.36250051731E+02  0.66120218982E+01  0.40659143776E+02  0.00000000000E+00 0. -1.
         11    1    3    3    0    0  0.10357354423E+02  0.12184654012E+01 -0.22448620157E+01  0.10667654583E+02  0.51100000000E-03 0. -1.
        -11    1    3    3    0    0  0.50101892378E+01 -0.18931620061E+02  0.30372108798E+01  0.19817489359E+02  0.51100000000E-03 0.  1.
        -12    1    3    3    0    0  0.18191048924E+01 -0.18536897072E+02 -0.74043707623E+01  0.20043712282E+02  0.00000000000E+00 0.  1.
</event>
<event>
 7    1  0.2639126E-011  0.5052886E+02  0.7816164E-02  0.1300439E+00
        -11   -1    0    0    0    0  0.00000000000E+00  0.00000000000E+00  0.45593999997E+02  0.45594000000E+02  0.51100000000E-03 0.  1.
         11   -1    0    0    0    0 -0.00000000000E+00 -0.00000000000E+00 -0.45593999997E+02  0.45594000000E+02  0.51100000000E-03 0. -1.
    9900012    2    1    2    0    0 -0.31005436836E+02  0.16318362931E+02  0.20628604220E+02  0.50528863337E+02  0.30000010598E+02 0.  0.
         12    1    1    2    0    0  0.31005436836E+02 -0.16318362931E+02 -0.20628604220E+02  0.40659136663E+02  0.00000000000E+00 0. -1.
         11    1    3    3    0    0 -0.25009708932E+02  0.16329334496E+02  0.17509954061E+02  0.34622697720E+02  0.51100000000E-03 0. -1.
        -11    1    3    3    0    0 -0.38670811373E+01  0.46476165523E+01  0.71676951516E+01  0.93771269687E+01  0.51100000000E-03 0.  1.
         12    1    3    3    0    0 -0.21286467670E+01 -0.46585881175E+01 -0.40490449931E+01  0.65290386477E+01  0.00000000000E+00 0. -1.
</event>
<event>
 7    1  0.2795354E-011  0.5052886E+02  0.7816164E-02  0.1300439E+00
        -11   -1    0    0    0    0  0.00000000000E+00  0.00000000000E+00  0.45593999997E+02  0.45594000000E+02  0.51100000000E-03 0.  1.
         11   -1    0    0    0    0 -0.00000000000E+00 -0.00000000000E+00 -0.45593999997E+02  0.45594000000E+02  0.51100000000E-03 0. -1.
    9900012    2    1    2    0    0 -0.18759788095E+01  0.40535524187E+02  0.25529984783E+01  0.50528858115E+02  0.29999994725E+02 0.  0.
         12    1    1    2    0    0  0.18759788095E+01 -0.40535524187E+02 -0.25529984783E+01  0.40659141885E+02  0.00000000000E+00 0. -1.
         11    1    3    3    0    0  0.49759657987E+01  0.30850582955E+01  0.57776987585E+01  0.82255470044E+01  0.51100000000E-03 0. -1.
        -11    1    3    3    0    0  0.52324242154E+01  0.21707741948E+02 -0.20236542272E+01  0.22420961183E+02  0.51100000000E-03 0.  1.
         12    1    3    3    0    0 -0.12084368824E+02  0.15742723944E+02 -0.12010460530E+01  0.19882349928E+02  0.00000000000E+00 0. -1.
</event>
<event>
 7    1  0.2639126E-011  0.5052885E+02  0.7816164E-02  0.1300439E+00
        -11   -1    0    0    0    0  0.00000000000E+00  0.00000000000E+00  0.45593999997E+02  0.45594000000E+02  0.51100000000E-03 0.  1.
         11   -1    0    0    0    0 -0.00000000000E+00 -0.00000000000E+00 -0.45593999997E+02  0.45594000000E+02  0.51100000000E-03 0. -1.
    9900012    2    1    2    0    0 -0.89814682444E+01 -0.21281942469E+02  0.33460099935E+02  0.50528854231E+02  0.29999982919E+02 0.  0.
         12    1    1    2    0    0  0.89814682444E+01  0.21281942469E+02 -0.33460099935E+02  0.40659145769E+02  0.00000000000E+00 0. -1.
         11    1    3    3    0    0 -0.49032214900E+01  0.10210623610E+01 -0.19498329902E+01  0.53745695898E+01  0.51100000000E-03 0. -1.
        -11    1    3    3    0    0 -0.90821166460E+01 -0.11679108654E+02  0.12332447189E+02  0.19260728845E+02  0.51100000000E-03 0.  1.
         12    1    3    3    0    0  0.50038698917E+01 -0.10623896175E+02  0.23077485736E+02  0.25893555795E+02  0.00000000000E+00 0. -1.
</event>
<event>
 7    1  0.2639126E-011  0.5052884E+02  0.7816164E-02  0.1300439E+00
        -11   -1    0    0    0    0  0.00000000000E+00  0.00000000000E+00  0.45593999997E+02  0.45594000000E+02  0.51100000000E-03 0.  1.
         11   -1    0    0    0    0 -0.00000000000E+00 -0.00000000000E+00 -0.45593999997E+02  0.45594000000E+02  0.51100000000E-03 0. -1.
    9900012    2    1    2    0    0  0.18371183963E+02  0.26738449871E+02  0.24509628101E+02  0.50528843942E+02  0.29999951646E+02 0.  0.
         12    1    1    2    0    0 -0.18371183963E+02 -0.26738449871E+02 -0.24509628101E+02  0.40659156058E+02  0.00000000000E+00 0. -1.
         11    1    3    3    0    0 -0.84981446162E+00 -0.18297399918E+00 -0.60000553921E+00  0.10562532896E+01  0.51100000000E-03 0. -1.
        -11    1    3    3    0    0  0.39934259348E+01  0.24317953542E+02  0.68973259472E+01  0.25590690117E+02  0.51100000000E-03 0.  1.
        -12    1    3    3    0    0  0.15227572490E+02  0.26034703279E+01  0.18212307693E+02  0.23881900536E+02  0.00000000000E+00 0.  1.
</event>
<event>
 7    1  0.2639126E-011  0.5052886E+02  0.7816164E-02  0.1300439E+00
        -11   -1    0    0    0    0  0.00000000000E+00  0.00000000000E+00  0.45593999997E+02  0.45594000000E+02  0.51100000000E-03 0.  1.
         11   -1    0    0    0    0 -0.00000000000E+00 -0.00000000000E+00 -0.45593999997E+02  0.45594000000E+02  0.51100000000E-03 0. -1.
    9900012    2    1    2    0    0  0.16771300146E+02  0.16809046956E+02  0.33005227447E+02  0.50528860720E+02  0.30000002644E+02 0.  0.
         12    1    1    2    0    0 -0.16771300146E+02 -0.16809046956E+02 -0.33005227447E+02  0.40659139280E+02  0.00000000000E+00 0. -1.
         11    1    3    3    0    0 -0.56537230925E+00 -0.34266689184E+01  0.10941352473E+02  0.11479324890E+02  0.51100000000E-03 0. -1.
        -11    1    3    3    0    0 -0.23817419022E+01  0.23525854593E+01  0.85786698536E+01  0.92087420178E+01  0.51100000000E-03 0.  1.
         12    1    3    3    0    0  0.19718414357E+02  0.17883130415E+02  0.13485205121E+02  0.29840793812E+02  0.00000000000E+00 0. -1.
</event>
<event>
 7    1  0.2639126E-011  0.5052886E+02  0.7816164E-02  0.1300439E+00
        -11   -1    0    0    0    0  0.00000000000E+00  0.00000000000E+00  0.45593999997E+02  0.45594000000E+02  0.51100000000E-03 0.  1.
         11   -1    0    0    0    0 -0.00000000000E+00 -0.00000000000E+00 -0.45593999997E+02  0.45594000000E+02  0.51100000000E-03 0. -1.
    9900012    2    1    2    0    0  0.32003611888E+02 -0.49235836821E+01  0.24590505925E+02  0.50528857955E+02  0.29999994241E+02 0.  0.
         12    1    1    2    0    0 -0.32003611888E+02  0.49235836821E+01 -0.24590505925E+02  0.40659142045E+02  0.00000000000E+00 0. -1.
         11    1    3    3    0    0  0.12253874452E+02 -0.29762646812E+01  0.40175896784E+01  0.13234674821E+02  0.51100000000E-03 0. -1.
        -11    1    3    3    0    0  0.17197444659E+02  0.75305566437E+01  0.59724371572E+01  0.19701050531E+02  0.51100000000E-03 0.  1.
         12    1    3    3    0    0  0.25522927771E+01 -0.94778756446E+01  0.14600479089E+02  0.17593132603E+02  0.00000000000E+00 0. -1.
</event>
<event>
 7    1  0.2639126E-011  0.5052886E+02  0.7816164E-02  0.1300439E+00
        -11   -1    0    0    0    0  0.00000000000E+00  0.00000000000E+00  0.45593999997E+02  0.45594000000E+02  0.51100000000E-03 0. -1.
         11   -1    0    0    0    0 -0.00000000000E+00 -0.00000000000E+00 -0.45593999997E+02  0.45594000000E+02  0.51100000000E-03 0.  1.
    9900012    2    1    2    0    0  0.57282980801E+01 -0.37465766545E+02 -0.14719667033E+02  0.50528860077E+02  0.30000000691E+02 0.  0.
         12    1    1    2    0    0 -0.57282980801E+01  0.37465766545E+02  0.14719667033E+02  0.40659139923E+02  0.00000000000E+00 0. -1.
         11    1    3    3    0    0  0.94571641913E+01 -0.11950264335E+02 -0.17424398888E+01  0.15338933120E+02  0.51100000000E-03 0. -1.
        -11    1    3    3    0    0  0.74107881345E+01 -0.41285299195E+01 -0.46780788907E+01  0.96875674160E+01  0.51100000000E-03 0.  1.
         12    1    3    3    0    0 -0.11139654246E+02 -0.21386972290E+02 -0.82991482537E+01  0.25502359542E+02  0.00000000000E+00 0. -1.
</event>
<event>
 7    1  0.2639126E-011  0.5052886E+02  0.7816164E-02  0.1300439E+00
        -11   -1    0    0    0    0  0.00000000000E+00  0.00000000000E+00  0.45593999997E+02  0.45594000000E+02  0.51100000000E-03 0.  1.
         11   -1    0    0    0    0 -0.00000000000E+00 -0.00000000000E+00 -0.45593999997E+02  0.45594000000E+02  0.51100000000E-03 0. -1.
    9900012    2    1    2    0    0  0.21703993632E+01 -0.12480061288E+02  0.38635516232E+02  0.50528859851E+02  0.30000000002E+02 0.  0.
         12    1    1    2    0    0 -0.21703993632E+01  0.12480061288E+02 -0.38635516232E+02  0.40659140149E+02  0.00000000000E+00 0. -1.
         11    1    3    3    0    0  0.15357793591E+02 -0.79540483226E+01  0.26442532250E+02  0.31596458991E+02  0.51100000000E-03 0. -1.
        -11    1    3    3    0    0 -0.58811852042E+00  0.30289593981E+00 -0.11225575653E+00  0.67099251889E+00  0.51100000000E-03 0.  1.
         12    1    3    3    0    0 -0.12599275707E+02 -0.48289089055E+01  0.12305239738E+02  0.18261408341E+02  0.00000000000E+00 0. -1.
</event>
<event>
 7    1  0.2639126E-011  0.5052885E+02  0.7816164E-02  0.1300439E+00
        -11   -1    0    0    0    0  0.00000000000E+00  0.00000000000E+00  0.45593999997E+02  0.45594000000E+02  0.51100000000E-03 0.  1.
         11   -1    0    0    0    0 -0.00000000000E+00 -0.00000000000E+00 -0.45593999997E+02  0.45594000000E+02  0.51100000000E-03 0. -1.
    9900012    2    1    2    0    0 -0.11609052588E+02  0.66275909788E+00  0.38960964184E+02  0.50528854881E+02  0.29999984898E+02 0.  0.
         12    1    1    2    0    0  0.11609052588E+02 -0.66275909788E+00 -0.38960964184E+02  0.40659145119E+02  0.00000000000E+00 0. -1.
         11    1    3    3    0    0  0.41967063301E+01  0.83000493032E+01  0.41682934441E+01  0.10192047535E+02  0.51100000000E-03 0. -1.
        -11    1    3    3    0    0 -0.52923266442E+01 -0.83305667000E+01  0.16468216896E+02  0.19199198703E+02  0.51100000000E-03 0.  1.
        -12    1    3    3    0    0 -0.10513432274E+02  0.69327649465E+00  0.18324453844E+02  0.21137608644E+02  0.00000000000E+00 0.  1.
</event>
<event>
 7    1  0.2639126E-011  0.5052886E+02  0.7816164E-02  0.1300439E+00
        -11   -1    0    0    0    0  0.00000000000E+00  0.00000000000E+00  0.45593999997E+02  0.45594000000E+02  0.51100000000E-03 0.  1.
         11   -1    0    0    0    0 -0.00000000000E+00 -0.00000000000E+00 -0.45593999997E+02  0.45594000000E+02  0.51100000000E-03 0. -1.
    9900012    2    1    2    0    0 -0.18605708557E+02  0.18580458870E+02  0.31012257715E+02  0.50528856239E+02  0.29999989025E+02 0.  0.
         12    1    1    2    0    0  0.18605708557E+02 -0.18580458870E+02 -0.31012257715E+02  0.40659143761E+02  0.00000000000E+00 0. -1.
         11    1    3    3    0    0 -0.38908917246E+01  0.87813876471E+01  0.61149903776E+01  0.11386172096E+02  0.51100000000E-03 0. -1.
        -11    1    3    3    0    0 -0.27875283136E+01  0.15990854098E+02  0.17225149905E+02  0.23668196349E+02  0.51100000000E-03 0.  1.
         12    1    3    3    0    0 -0.11927288519E+02 -0.61917828754E+01  0.76721174325E+01  0.15474487794E+02  0.00000000000E+00 0. -1.
</event>
<event>
 7    1  0.2639126E-011  0.5052887E+02  0.7816164E-02  0.1300439E+00
        -11   -1    0    0    0    0  0.00000000000E+00  0.00000000000E+00  0.45593999997E+02  0.45594000000E+02  0.51100000000E-03 0.  1.
         11   -1    0    0    0    0 -0.00000000000E+00 -0.00000000000E+00 -0.45593999997E+02  0.45594000000E+02  0.51100000000E-03 0. -1.
    9900012    2    1    2    0    0  0.99579159789E+01 -0.36726893095E+02  0.14322722042E+02  0.50528866540E+02  0.30000020333E+02 0.  0.
         12    1    1    2    0    0 -0.99579159789E+01  0.36726893095E+02 -0.14322722042E+02  0.40659133460E+02  0.00000000000E+00 0. -1.
         11    1    3    3    0    0  0.19103856073E+01 -0.99260271217E+01  0.21676445393E+01  0.10338001291E+02  0.51100000000E-03 0. -1.
        -11    1    3    3    0    0  0.10868089271E+02 -0.26073017863E+02  0.18115128555E+02  0.33557048555E+02  0.51100000000E-03 0.  1.
         12    1    3    3    0    0 -0.28205588992E+01 -0.72784811058E+00 -0.59600510523E+01  0.66338166934E+01  0.00000000000E+00 0. -1.
</event>
<event>
 7    1  0.2639126E-011  0.5052889E+02  0.7816164E-02  0.1300439E+00
        -11   -1    0    0    0    0  0.00000000000E+00  0.00000000000E+00  0.45593999997E+02  0.45594000000E+02  0.51100000000E-03 0.  1.
         11   -1    0    0    0    0 -0.00000000000E+00 -0.00000000000E+00 -0.45593999997E+02  0.45594000000E+02  0.51100000000E-03 0. -1.
    9900012    2    1    2    0    0  0.35827511209E+02 -0.55124338209E+01  0.18416455639E+02  0.50528888790E+02  0.30000087967E+02 0.  0.
         12    1    1    2    0    0 -0.35827511209E+02  0.55124338209E+01 -0.18416455639E+02  0.40659111210E+02  0.00000000000E+00 0. -1.
         11    1    3    3    0    0  0.91603675424E+01 -0.15337563500E+01 -0.69927279680E+00  0.93141679585E+01  0.51100000000E-03 0.  1.
        -11    1    3    3    0    0  0.12261343603E+02 -0.78055299474E+01 -0.27094288029E+01  0.14785393110E+02  0.51100000000E-03 0. -1.
         12    1    3    3    0    0  0.14405800063E+02  0.38268524765E+01  0.21825157239E+02  0.26429327722E+02  0.00000000000E+00 0. -1.
</event>
<event>
 7    1  0.2639126E-011  0.5052887E+02  0.7816164E-02  0.1300439E+00
        -11   -1    0    0    0    0  0.00000000000E+00  0.00000000000E+00  0.45593999997E+02  0.45594000000E+02  0.51100000000E-03 0.  1.
         11   -1    0    0    0    0 -0.00000000000E+00 -0.00000000000E+00 -0.45593999997E+02  0.45594000000E+02  0.51100000000E-03 0. -1.
    9900012    2    1    2    0    0  0.12891081462E+01  0.38558739461E+02 -0.12834600372E+02  0.50528866274E+02  0.30000019526E+02 0.  0.
         12    1    1    2    0    0 -0.12891081462E+01 -0.38558739461E+02  0.12834600372E+02  0.40659133726E+02  0.00000000000E+00 0. -1.
         11    1    3    3    0    0 -0.31454728996E+00  0.16338862600E+02 -0.17050966645E+02  0.23617638215E+02  0.51100000000E-03 0. -1.
        -11    1    3    3    0    0 -0.16314653560E+01  0.20951928030E+02 -0.53825753737E+00  0.21022242716E+02  0.51100000000E-03 0.  1.
         12    1    3    3    0    0  0.32351207922E+01  0.12679488310E+01  0.47546238106E+01  0.58889853420E+01  0.00000000000E+00 0. -1.
</event>
<event>
 7    1  0.2753983E-011  0.5052883E+02  0.7816164E-02  0.1300439E+00
        -11   -1    0    0    0    0  0.00000000000E+00  0.00000000000E+00  0.45593999997E+02  0.45594000000E+02  0.51100000000E-03 0. -1.
         11   -1    0    0    0    0 -0.00000000000E+00 -0.00000000000E+00 -0.45593999997E+02  0.45594000000E+02  0.51100000000E-03 0.  1.
    9900012    2    1    2    0    0  0.19867026794E+02 -0.22167309174E+02 -0.27696200665E+02  0.50528832757E+02  0.29999917648E+02 0.  0.
         12    1    1    2    0    0 -0.19867026794E+02  0.22167309174E+02  0.27696200665E+02  0.40659167243E+02  0.00000000000E+00 0. -1.
         11    1    3    3    0    0 -0.16230490985E+00 -0.42488781951E+01 -0.12191605995E+02  0.12911799479E+02  0.51100000000E-03 0. -1.
        -11    1    3    3    0    0  0.12228253808E+02 -0.14163095808E+02 -0.20391157856E+02  0.27675310170E+02  0.51100000000E-03 0.  1.
         12    1    3    3    0    0  0.78010778956E+01 -0.37553351711E+01  0.48865631859E+01  0.99417231077E+01  0.00000000000E+00 0. -1.
</event>
<event>
 7    1  0.2639126E-011  0.5052887E+02  0.7816164E-02  0.1300439E+00
        -11   -1    0    0    0    0  0.00000000000E+00  0.00000000000E+00  0.45593999997E+02  0.45594000000E+02  0.51100000000E-03 0.  1.
         11   -1    0    0    0    0 -0.00000000000E+00 -0.00000000000E+00 -0.45593999997E+02  0.45594000000E+02  0.51100000000E-03 0. -1.
    9900012    2    1    2    0    0  0.78710668430E+01 -0.39749793701E+02 -0.33414319354E+01  0.50528868677E+02  0.30000026831E+02 0.  0.
         12    1    1    2    0    0 -0.78710668430E+01  0.39749793701E+02  0.33414319354E+01  0.40659131323E+02  0.00000000000E+00 0. -1.
         11    1    3    3    0    0 -0.24260670238E+01 -0.22758645588E+01  0.50137315448E+01  0.60168816640E+01  0.51100000000E-03 0. -1.
        -11    1    3    3    0    0  0.24022386068E+01  0.21960861593E+01 -0.96123616890E+00  0.33937471880E+01  0.51100000000E-03 0.  1.
        -12    1    3    3    0    0  0.78948952601E+01 -0.39670015302E+02 -0.73939273113E+01  0.41118239825E+02  0.00000000000E+00 0.  1.
</event>
<event>
 7    1  0.2639126E-011  0.5052886E+02  0.7816164E-02  0.1300439E+00
        -11   -1    0    0    0    0  0.00000000000E+00  0.00000000000E+00  0.45593999997E+02  0.45594000000E+02  0.51100000000E-03 0.  1.
         11   -1    0    0    0    0 -0.00000000000E+00 -0.00000000000E+00 -0.45593999997E+02  0.45594000000E+02  0.51100000000E-03 0. -1.
    9900012    2    1    2    0    0  0.23858599376E+02 -0.85612532596E+01  0.31790534671E+02  0.50528856917E+02  0.29999991084E+02 0.  0.
         12    1    1    2    0    0 -0.23858599376E+02  0.85612532596E+01 -0.31790534671E+02  0.40659143083E+02  0.00000000000E+00 0. -1.
         11    1    3    3    0    0  0.50119943470E+01  0.21708399911E+01  0.60632109032E+01  0.81605857828E+01  0.51100000000E-03 0.  1.
        -11    1    3    3    0    0  0.15626919255E+02  0.13281915732E+01  0.25435832159E+02  0.29882206346E+02  0.51100000000E-03 0. -1.
        -12    1    3    3    0    0  0.32196857746E+01 -0.12060284824E+02  0.29149160958E+00  0.12486064788E+02  0.00000000000E+00 0.  1.
</event>
<event>
 7    1  0.2639126E-011  0.5052872E+02  0.7816164E-02  0.1300439E+00
        -11   -1    0    0    0    0  0.00000000000E+00  0.00000000000E+00  0.45593999997E+02  0.45594000000E+02  0.51100000000E-03 0.  1.
         11   -1    0    0    0    0 -0.00000000000E+00 -0.00000000000E+00 -0.45593999997E+02  0.45594000000E+02  0.51100000000E-03 0. -1.
    9900012    2    1    2    0    0  0.62792607987E+01 -0.40151623254E+02 -0.12628606661E+01  0.50528723283E+02  0.29999584888E+02 0.  0.
         12    1    1    2    0    0 -0.62792607987E+01  0.40151623254E+02  0.12628606661E+01  0.40659276717E+02  0.00000000000E+00 0. -1.
         11    1    3    3    0    0 -0.24759437944E+01 -0.70199707674E+01 -0.67488438798E+00  0.74743398670E+01  0.51100000000E-03 0. -1.
        -11    1    3    3    0    0 -0.68400916279E+01 -0.94357865306E+00  0.20144898445E+01  0.71927299231E+01  0.51100000000E-03 0.  1.
         12    1    3    3    0    0  0.15595296221E+02 -0.32188073833E+02 -0.26024661226E+01  0.35861653493E+02  0.00000000000E+00 0. -1.
</event>
<event>
 7    1  0.2639126E-011  0.5052886E+02  0.7816164E-02  0.1300439E+00
        -11   -1    0    0    0    0  0.00000000000E+00  0.00000000000E+00  0.45593999997E+02  0.45594000000E+02  0.51100000000E-03 0. -1.
         11   -1    0    0    0    0 -0.00000000000E+00 -0.00000000000E+00 -0.45593999997E+02  0.45594000000E+02  0.51100000000E-03 0.  1.
    9900012    2    1    2    0    0  0.48876912440E+01 -0.12615226550E+02 -0.38342303438E+02  0.50528859582E+02  0.29999999186E+02 0.  0.
         12    1    1    2    0    0 -0.48876912440E+01  0.12615226550E+02  0.38342303438E+02  0.40659140418E+02  0.00000000000E+00 0. -1.
         11    1    3    3    0    0 -0.61844482842E+01  0.35343402091E+00 -0.59130029869E+01  0.85636394583E+01  0.51100000000E-03 0. -1.
        -11    1    3    3    0    0 -0.16458049331E+01  0.31928159960E+01 -0.13653000707E+02  0.14117619362E+02  0.51100000000E-03 0.  1.
        -12    1    3    3    0    0  0.12717944461E+02 -0.16161476567E+02 -0.18776299744E+02  0.27847600762E+02  0.00000000000E+00 0.  1.
</event>
<event>
 7    1  0.2639126E-011  0.5052886E+02  0.7816164E-02  0.1300439E+00
        -11   -1    0    0    0    0  0.00000000000E+00  0.00000000000E+00  0.45593999997E+02  0.45594000000E+02  0.51100000000E-03 0.  1.
         11   -1    0    0    0    0 -0.00000000000E+00 -0.00000000000E+00 -0.45593999997E+02  0.45594000000E+02  0.51100000000E-03 0. -1.
    9900012    2    1    2    0    0 -0.88721841755E+01  0.27383180463E+02  0.28716046298E+02  0.50528861553E+02  0.30000005175E+02 0.  0.
         12    1    1    2    0    0  0.88721841755E+01 -0.27383180463E+02 -0.28716046298E+02  0.40659138447E+02  0.00000000000E+00 0. -1.
         11    1    3    3    0    0 -0.24999465324E+01  0.26735588133E+01 -0.35901571185E+01  0.51270730236E+01  0.51100000000E-03 0. -1.
        -11    1    3    3    0    0  0.25493822596E+00 -0.85229475214E+00  0.12146760712E+02  0.12179293736E+02  0.51100000000E-03 0.  1.
        -12    1    3    3    0    0 -0.66271758691E+01  0.25561916402E+02  0.20159442704E+02  0.33222494793E+02  0.00000000000E+00 0.  1.
</event>
<event>
 7    1  0.2639126E-011  0.5052886E+02  0.7816164E-02  0.1300439E+00
        -11   -1    0    0    0    0  0.00000000000E+00  0.00000000000E+00  0.45593999997E+02  0.45594000000E+02  0.51100000000E-03 0.  1.
         11   -1    0    0    0    0 -0.00000000000E+00 -0.00000000000E+00 -0.45593999997E+02  0.45594000000E+02  0.51100000000E-03 0. -1.
    9900012    2    1    2    0    0 -0.35591533994E+02  0.14509385453E+02  0.13262194482E+02  0.50528863748E+02  0.30000011848E+02 0.  0.
         12    1    1    2    0    0  0.35591533994E+02 -0.14509385453E+02 -0.13262194482E+02  0.40659136252E+02  0.00000000000E+00 0. -1.
         11    1    3    3    0    0 -0.23234545714E+01  0.47855627007E+01  0.42613727098E+01  0.68161095311E+01  0.51100000000E-03 0.  1.
        -11    1    3    3    0    0 -0.10929883238E+02 -0.38929820342E+01 -0.65049199675E+01  0.13301565350E+02  0.51100000000E-03 0. -1.
         12    1    3    3    0    0 -0.22338196185E+02  0.13616804787E+02  0.15505741740E+02  0.30411188867E+02  0.00000000000E+00 0. -1.
</event>
<event>
 7    1  0.2639126E-011  0.5052885E+02  0.7816164E-02  0.1300439E+00
        -11   -1    0    0    0    0  0.00000000000E+00  0.00000000000E+00  0.45593999997E+02  0.45594000000E+02  0.51100000000E-03 0.  1.
         11   -1    0    0    0    0 -0.00000000000E+00 -0.00000000000E+00 -0.45593999997E+02  0.45594000000E+02  0.51100000000E-03 0. -1.
    9900012    2    1    2    0    0  0.16829810963E+02 -0.20875943270E+02  0.30563360389E+02  0.50528849213E+02  0.29999967668E+02 0.  0.
         12    1    1    2    0    0 -0.16829810963E+02  0.20875943270E+02 -0.30563360389E+02  0.40659150787E+02  0.00000000000E+00 0. -1.
         11    1    3    3    0    0 -0.26440149766E+01 -0.14200534032E+02  0.17967297807E+02  0.23053628190E+02  0.51100000000E-03 0. -1.
        -11    1    3    3    0    0  0.22006983632E+01 -0.33894860731E+01  0.85143920462E+01  0.94247844168E+01  0.51100000000E-03 0.  1.
        -12    1    3    3    0    0  0.17273127576E+02 -0.32859231656E+01  0.40816705350E+01  0.18050436606E+02  0.00000000000E+00 0.  1.
</event>
<event>
 7    1  0.2639126E-011  0.5052886E+02  0.7816164E-02  0.1300439E+00
        -11   -1    0    0    0    0  0.00000000000E+00  0.00000000000E+00  0.45593999997E+02  0.45594000000E+02  0.51100000000E-03 0.  1.
         11   -1    0    0    0    0 -0.00000000000E+00 -0.00000000000E+00 -0.45593999997E+02  0.45594000000E+02  0.51100000000E-03 0. -1.
    9900012    2    1    2    0    0 -0.10466395193E+02  0.26682542963E+02  0.28838559413E+02  0.50528855440E+02  0.29999986596E+02 0.  0.
         12    1    1    2    0    0  0.10466395193E+02 -0.26682542963E+02 -0.28838559413E+02  0.40659144560E+02  0.00000000000E+00 0. -1.
         11    1    3    3    0    0 -0.10475855442E+01  0.39218853096E+01 -0.10047650466E+01  0.41818862866E+01  0.51100000000E-03 0. -1.
        -11    1    3    3    0    0 -0.54188181356E+01  0.26890851043E+02  0.16991205381E+02  0.32267359985E+02  0.51100000000E-03 0.  1.
        -12    1    3    3    0    0 -0.39999915133E+01 -0.41301933901E+01  0.12852119078E+02  0.14079609169E+02  0.00000000000E+00 0.  1.
</event>
<event>
 7    1  0.2639126E-011  0.5052886E+02  0.7816164E-02  0.1300439E+00
        -11   -1    0    0    0    0  0.00000000000E+00  0.00000000000E+00  0.45593999997E+02  0.45594000000E+02  0.51100000000E-03 0.  1.
         11   -1    0    0    0    0 -0.00000000000E+00 -0.00000000000E+00 -0.45593999997E+02  0.45594000000E+02  0.51100000000E-03 0. -1.
    9900012    2    1    2    0    0 -0.33248270440E+02  0.28037515330E+01  0.23234826159E+02  0.50528860110E+02  0.30000000792E+02 0.  0.
         12    1    1    2    0    0  0.33248270440E+02 -0.28037515330E+01 -0.23234826159E+02  0.40659139890E+02  0.00000000000E+00 0. -1.
         11    1    3    3    0    0 -0.21264314996E+02 -0.86068325292E+01  0.59111776291E+01  0.23689463473E+02  0.51100000000E-03 0. -1.
        -11    1    3    3    0    0  0.17356366778E+00 -0.65932809899E+00 -0.13410798446E+01  0.15044378683E+01  0.51100000000E-03 0.  1.
        -12    1    3    3    0    0 -0.12157519112E+02  0.12069912161E+02  0.18664728374E+02  0.25334958769E+02  0.00000000000E+00 0.  1.
</event>
<event>
 7    1  0.2639126E-011  0.5052885E+02  0.7816164E-02  0.1300439E+00
        -11   -1    0    0    0    0  0.00000000000E+00  0.00000000000E+00  0.45593999997E+02  0.45594000000E+02  0.51100000000E-03 0.  1.
         11   -1    0    0    0    0 -0.00000000000E+00 -0.00000000000E+00 -0.45593999997E+02  0.45594000000E+02  0.51100000000E-03 0. -1.
    9900012    2    1    2    0    0 -0.32398215038E+02  0.16524127569E+02  0.18178989918E+02  0.50528845999E+02  0.29999957900E+02 0.  0.
         12    1    1    2    0    0  0.32398215038E+02 -0.16524127569E+02 -0.18178989918E+02  0.40659154001E+02  0.00000000000E+00 0. -1.
         11    1    3    3    0    0 -0.28172461795E+02  0.13532734237E+02  0.66945350825E+01  0.31963092775E+02  0.51100000000E-03 0. -1.
        -11    1    3    3    0    0 -0.57838066762E+01  0.75390565293E+01  0.58467387423E+01  0.11156798250E+02  0.51100000000E-03 0.  1.
         12    1    3    3    0    0  0.15580534327E+01 -0.45476631972E+01  0.56377160936E+01  0.74089549739E+01  0.00000000000E+00 0. -1.
</event>
<event>
 7    1  0.2639126E-011  0.5052888E+02  0.7816164E-02  0.1300439E+00
        -11   -1    0    0    0    0  0.00000000000E+00  0.00000000000E+00  0.45593999997E+02  0.45594000000E+02  0.51100000000E-03 0.  1.
         11   -1    0    0    0    0 -0.00000000000E+00 -0.00000000000E+00 -0.45593999997E+02  0.45594000000E+02  0.51100000000E-03 0. -1.
    9900012    2    1    2    0    0  0.12969817769E+02 -0.20820132352E+02  0.32426373978E+02  0.50528882776E+02  0.30000069686E+02 0.  0.
         12    1    1    2    0    0 -0.12969817769E+02  0.20820132352E+02 -0.32426373978E+02  0.40659117224E+02  0.00000000000E+00 0. -1.
         11    1    3    3    0    0  0.23769433744E+01  0.62346974222E-01  0.96947525968E+01  0.99820827048E+01  0.51100000000E-03 0. -1.
        -11    1    3    3    0    0  0.54020988645E+01  0.14411470396E+01  0.15556562279E+02  0.16530765473E+02  0.51100000000E-03 0.  1.
        -12    1    3    3    0    0  0.51907755299E+01 -0.22323626365E+02  0.71750591021E+01  0.24016034598E+02  0.00000000000E+00 0.  1.
</event>
<event>
 7    1  0.2639126E-011  0.5052886E+02  0.7816164E-02  0.1300439E+00
        -11   -1    0    0    0    0  0.00000000000E+00  0.00000000000E+00  0.45593999997E+02  0.45594000000E+02  0.51100000000E-03 0.  1.
         11   -1    0    0    0    0 -0.00000000000E+00 -0.00000000000E+00 -0.45593999997E+02  0.45594000000E+02  0.51100000000E-03 0. -1.
    9900012    2    1    2    0    0 -0.36214427526E+02  0.10684983470E+02  0.15083497195E+02  0.50528861785E+02  0.30000005880E+02 0.  0.
         12    1    1    2    0    0  0.36214427526E+02 -0.10684983470E+02 -0.15083497195E+02  0.40659138215E+02  0.00000000000E+00 0. -1.
         11    1    3    3    0    0  0.50549451376E+00  0.26966572659E+01  0.31749677489E+01  0.41961774963E+01  0.51100000000E-03 0. -1.
        -11    1    3    3    0    0 -0.15208322764E+02  0.15757351460E+02  0.54735465690E+01  0.22573145962E+02  0.51100000000E-03 0.  1.
        -12    1    3    3    0    0 -0.21511599276E+02 -0.77690252558E+01  0.64349828776E+01  0.23759538326E+02  0.00000000000E+00 0.  1.
</event>
<event>
 7    1  0.2639126E-011  0.5052886E+02  0.7816164E-02  0.1300439E+00
        -11   -1    0    0    0    0  0.00000000000E+00  0.00000000000E+00  0.45593999997E+02  0.45594000000E+02  0.51100000000E-03 0. -1.
         11   -1    0    0    0    0 -0.00000000000E+00 -0.00000000000E+00 -0.45593999997E+02  0.45594000000E+02  0.51100000000E-03 0.  1.
    9900012    2    1    2    0    0 -0.24874819122E+00  0.99821158805E+01 -0.39413974374E+02  0.50528857251E+02  0.29999992101E+02 0.  0.
         12    1    1    2    0    0  0.24874819122E+00 -0.99821158805E+01  0.39413974374E+02  0.40659142749E+02  0.00000000000E+00 0. -1.
         11    1    3    3    0    0 -0.25837275855E+01  0.71132213241E+01 -0.45111974536E+01  0.88104749343E+01  0.51100000000E-03 0. -1.
        -11    1    3    3    0    0  0.10924678656E+02  0.39713177109E+00 -0.85118082554E+01  0.13854861869E+02  0.51100000000E-03 0.  1.
        -12    1    3    3    0    0 -0.85896992613E+01  0.24717627854E+01 -0.26390968665E+02  0.27863520448E+02  0.00000000000E+00 0.  1.
</event>
<event>
 7    1  0.2639126E-011  0.5052887E+02  0.7816164E-02  0.1300439E+00
        -11   -1    0    0    0    0  0.00000000000E+00  0.00000000000E+00  0.45593999997E+02  0.45594000000E+02  0.51100000000E-03 0.  1.
         11   -1    0    0    0    0 -0.00000000000E+00 -0.00000000000E+00 -0.45593999997E+02  0.45594000000E+02  0.51100000000E-03 0. -1.
    9900012    2    1    2    0    0  0.24698810397E+02  0.15577012850E+02 -0.28292942577E+02  0.50528866167E+02  0.30000019202E+02 0.  0.
         12    1    1    2    0    0 -0.24698810397E+02 -0.15577012850E+02  0.28292942577E+02  0.40659133833E+02  0.00000000000E+00 0. -1.
         11    1    3    3    0    0  0.74318780105E+01  0.68615182779E+01 -0.26850916553E+02  0.28692942753E+02  0.51100000000E-03 0. -1.
        -11    1    3    3    0    0  0.44834976071E+01  0.67951341305E+01 -0.32841588706E+01  0.87784564926E+01  0.51100000000E-03 0.  1.
         12    1    3    3    0    0  0.12783434779E+02  0.19203604416E+01  0.18421328465E+01  0.13057466921E+02  0.00000000000E+00 0. -1.
</event>
<event>
 7    1  0.2639126E-011  0.5052886E+02  0.7816164E-02  0.1300439E+00
        -11   -1    0    0    0    0  0.00000000000E+00  0.00000000000E+00  0.45593999997E+02  0.45594000000E+02  0.51100000000E-03 0.  1.
         11   -1    0    0    0    0 -0.00000000000E+00 -0.00000000000E+00 -0.45593999997E+02  0.45594000000E+02  0.51100000000E-03 0. -1.
    9900012    2    1    2    0    0  0.23946127878E+02  0.30062564262E+02  0.13266165292E+02  0.50528856478E+02  0.29999989752E+02 0.  0.
         12    1    1    2    0    0 -0.23946127878E+02 -0.30062564262E+02 -0.13266165292E+02  0.40659143522E+02  0.00000000000E+00 0. -1.
         11    1    3    3    0    0  0.75443963767E+01  0.54735368042E+01 -0.11832582261E+01  0.93956171764E+01  0.51100000000E-03 0. -1.
        -11    1    3    3    0    0  0.67162834096E+01  0.16683924361E+02 -0.43992812880E+01  0.18515276693E+02  0.51100000000E-03 0.  1.
        -12    1    3    3    0    0  0.96854480921E+01  0.79051030968E+01  0.18848704806E+02  0.22617962609E+02  0.00000000000E+00 0.  1.
</event>
<event>
 7    1  0.2639126E-011  0.5052886E+02  0.7816164E-02  0.1300439E+00
        -11   -1    0    0    0    0  0.00000000000E+00  0.00000000000E+00  0.45593999997E+02  0.45594000000E+02  0.51100000000E-03 0. -1.
         11   -1    0    0    0    0 -0.00000000000E+00 -0.00000000000E+00 -0.45593999997E+02  0.45594000000E+02  0.51100000000E-03 0.  1.
    9900012    2    1    2    0    0  0.40528975679E+02  0.17071347319E+01 -0.27665342912E+01  0.50528857233E+02  0.29999992046E+02 0.  0.
         12    1    1    2    0    0 -0.40528975679E+02 -0.17071347319E+01  0.27665342912E+01  0.40659142767E+02  0.00000000000E+00 0. -1.
         11    1    3    3    0    0  0.22951120958E+02  0.31059014192E+00  0.12901832832E+01  0.22989453944E+02  0.51100000000E-03 0. -1.
        -11    1    3    3    0    0  0.14115811176E+02 -0.49763777627E+01  0.51415673977E+01  0.15825807290E+02  0.51100000000E-03 0.  1.
        -12    1    3    3    0    0  0.34620435442E+01  0.63729223526E+01 -0.91982849721E+01  0.11713596000E+02  0.00000000000E+00 0.  1.
</event>
<event>
 7    1  0.2639126E-011  0.5052886E+02  0.7816164E-02  0.1300439E+00
        -11   -1    0    0    0    0  0.00000000000E+00  0.00000000000E+00  0.45593999997E+02  0.45594000000E+02  0.51100000000E-03 0.  1.
         11   -1    0    0    0    0 -0.00000000000E+00 -0.00000000000E+00 -0.45593999997E+02  0.45594000000E+02  0.51100000000E-03 0. -1.
    9900012    2    1    2    0    0 -0.87195947245E+01 -0.11963437037E+02  0.37868329528E+02  0.50528861554E+02  0.30000005180E+02 0.  0.
         12    1    1    2    0    0  0.87195947245E+01  0.11963437037E+02 -0.37868329528E+02  0.40659138446E+02  0.00000000000E+00 0. -1.
         11    1    3    3    0    0 -0.93086564303E+01 -0.91313673535E+01  0.24123167739E+02  0.27421892282E+02  0.51100000000E-03 0. -1.
        -11    1    3    3    0    0 -0.76349569313E+01 -0.60171529904E+01  0.79030022387E+01  0.12528213843E+02  0.51100000000E-03 0.  1.
         12    1    3    3    0    0  0.82240186371E+01  0.31850833070E+01  0.58421595505E+01  0.10578755429E+02  0.00000000000E+00 0. -1.
</event>
<event>
 7    1  0.2639126E-011  0.5052886E+02  0.7816164E-02  0.1300439E+00
        -11   -1    0    0    0    0  0.00000000000E+00  0.00000000000E+00  0.45593999997E+02  0.45594000000E+02  0.51100000000E-03 0.  1.
         11   -1    0    0    0    0 -0.00000000000E+00 -0.00000000000E+00 -0.45593999997E+02  0.45594000000E+02  0.51100000000E-03 0. -1.
    9900012    2    1    2    0    0 -0.69314724961E+01 -0.39608085054E+02 -0.60266226170E+01  0.50528857206E+02  0.29999991962E+02 0.  0.
         12    1    1    2    0    0  0.69314724961E+01  0.39608085054E+02  0.60266226170E+01  0.40659142794E+02  0.00000000000E+00 0. -1.
         11    1    3    3    0    0 -0.26506653346E+01 -0.87269414369E+01  0.72955943245E+01  0.11679521838E+02  0.51100000000E-03 0. -1.
        -11    1    3    3    0    0  0.44290548789E+01 -0.12486074847E+02  0.19668857481E+01  0.13393551882E+02  0.51100000000E-03 0.  1.
        -12    1    3    3    0    0 -0.87098620404E+01 -0.18395068770E+02 -0.15289102690E+02  0.25455783486E+02  0.00000000000E+00 0.  1.
</event>
<event>
 7    1  0.2639126E-011  0.5052886E+02  0.7816164E-02  0.1300439E+00
        -11   -1    0    0    0    0  0.00000000000E+00  0.00000000000E+00  0.45593999997E+02  0.45594000000E+02  0.51100000000E-03 0.  1.
         11   -1    0    0    0    0 -0.00000000000E+00 -0.00000000000E+00 -0.45593999997E+02  0.45594000000E+02  0.51100000000E-03 0. -1.
    9900012    2    1    2    0    0  0.13932341445E+02  0.37272581155E+02  0.83552632241E+01  0.50528857514E+02  0.29999992901E+02 0.  0.
         12    1    1    2    0    0 -0.13932341445E+02 -0.37272581155E+02 -0.83552632241E+01  0.40659142486E+02  0.00000000000E+00 0. -1.
         11    1    3    3    0    0  0.17595520634E+01  0.13501909298E+02 -0.74566695128E+01  0.15524158548E+02  0.51100000000E-03 0. -1.
        -11    1    3    3    0    0 -0.13177373555E+01  0.17314975467E+01 -0.25146232249E+01  0.33253339255E+01  0.51100000000E-03 0.  1.
         12    1    3    3    0    0  0.13490526737E+02  0.22039174311E+02  0.18326555962E+02  0.31679365040E+02  0.00000000000E+00 0. -1.
</event>
<event>
 7    1  0.2639126E-011  0.5052886E+02  0.7816164E-02  0.1300439E+00
        -11   -1    0    0    0    0  0.00000000000E+00  0.00000000000E+00  0.45593999997E+02  0.45594000000E+02  0.51100000000E-03 0.  1.
         11   -1    0    0    0    0 -0.00000000000E+00 -0.00000000000E+00 -0.45593999997E+02  0.45594000000E+02  0.51100000000E-03 0. -1.
    9900012    2    1    2    0    0 -0.81940724516E+01  0.37675290272E+01  0.39646289346E+02  0.50528863791E+02  0.30000011980E+02 0.  0.
         12    1    1    2    0    0  0.81940724516E+01 -0.37675290272E+01 -0.39646289346E+02  0.40659136209E+02  0.00000000000E+00 0. -1.
         11    1    3    3    0    0 -0.29244499696E+01  0.87180191237E+01  0.13259342931E+02  0.16135874326E+02  0.51100000000E-03 0. -1.
        -11    1    3    3    0    0  0.75006529141E+01 -0.68850232657E+00  0.47349046595E+01  0.88968057182E+01  0.51100000000E-03 0.  1.
        -12    1    3    3    0    0 -0.12770275396E+02 -0.42619877699E+01  0.21652041756E+02  0.25496183747E+02  0.00000000000E+00 0.  1.
</event>
<event>
 7    1  0.2639126E-011  0.5052885E+02  0.7816164E-02  0.1300439E+00
        -11   -1    0    0    0    0  0.00000000000E+00  0.00000000000E+00  0.45593999997E+02  0.45594000000E+02  0.51100000000E-03 0.  1.
         11   -1    0    0    0    0 -0.00000000000E+00 -0.00000000000E+00 -0.45593999997E+02  0.45594000000E+02  0.51100000000E-03 0. -1.
    9900012    2    1    2    0    0  0.37959975176E+02  0.67041553824E+00 -0.14551871253E+02  0.50528854297E+02  0.29999983122E+02 0.  0.
         12    1    1    2    0    0 -0.37959975176E+02 -0.67041553824E+00  0.14551871253E+02  0.40659145703E+02  0.00000000000E+00 0. -1.
         11    1    3    3    0    0 -0.51156765361E+00 -0.17040975263E+01 -0.42410616485E+01  0.45991579676E+01  0.51100000000E-03 0. -1.
        -11    1    3    3    0    0  0.22477006576E+02 -0.50680827220E+01  0.37829883097E+01  0.23349781325E+02  0.51100000000E-03 0.  1.
         12    1    3    3    0    0  0.15994536253E+02  0.74425957865E+01 -0.14093797914E+02  0.22579915005E+02  0.00000000000E+00 0. -1.
</event>
<event>
 7    1  0.2639126E-011  0.5052886E+02  0.7816164E-02  0.1300439E+00
        -11   -1    0    0    0    0  0.00000000000E+00  0.00000000000E+00  0.45593999997E+02  0.45594000000E+02  0.51100000000E-03 0. -1.
         11   -1    0    0    0    0 -0.00000000000E+00 -0.00000000000E+00 -0.45593999997E+02  0.45594000000E+02  0.51100000000E-03 0.  1.
    9900012    2    1    2    0    0 -0.15384389330E+02  0.91497357871E+01 -0.36507105441E+02  0.50528857759E+02  0.29999993646E+02 0.  0.
         12    1    1    2    0    0  0.15384389330E+02 -0.91497357871E+01  0.36507105441E+02  0.40659142241E+02  0.00000000000E+00 0. -1.
         11    1    3    3    0    0 -0.10029173398E+02  0.72425268340E+01 -0.14128826962E+02  0.18779304183E+02  0.51100000000E-03 0. -1.
        -11    1    3    3    0    0 -0.51233349017E+01  0.11324602696E+02 -0.16454774678E+02  0.20621706929E+02  0.51100000000E-03 0.  1.
         12    1    3    3    0    0 -0.23188103030E+00 -0.94173937429E+01 -0.59235038017E+01  0.11127846647E+02  0.00000000000E+00 0. -1.
</event>
<event>
 7    1  0.2639126E-011  0.5052886E+02  0.7816164E-02  0.1300439E+00
        -11   -1    0    0    0    0  0.00000000000E+00  0.00000000000E+00  0.45593999997E+02  0.45594000000E+02  0.51100000000E-03 0. -1.
         11   -1    0    0    0    0 -0.00000000000E+00 -0.00000000000E+00 -0.45593999997E+02  0.45594000000E+02  0.51100000000E-03 0.  1.
    9900012    2    1    2    0    0 -0.34734925064E-01  0.40184631345E+02 -0.61935614714E+01  0.50528855806E+02  0.29999987708E+02 0.  0.
         12    1    1    2    0    0  0.34734925064E-01 -0.40184631345E+02  0.61935614714E+01  0.40659144194E+02  0.00000000000E+00 0. -1.
         11    1    3    3    0    0 -0.14184600481E+01  0.13742646211E+02  0.56165748677E+01  0.14913693952E+02  0.51100000000E-03 0. -1.
        -11    1    3    3    0    0 -0.69936685865E+01  0.76513849602E+01  0.23633681462E+01  0.10632055369E+02  0.51100000000E-03 0.  1.
        -12    1    3    3    0    0  0.83773937095E+01  0.18790600175E+02 -0.14173504485E+02  0.24983106486E+02  0.00000000000E+00 0.  1.
</event>
<event>
 7    1  0.2639126E-011  0.5052886E+02  0.7816164E-02  0.1300439E+00
        -11   -1    0    0    0    0  0.00000000000E+00  0.00000000000E+00  0.45593999997E+02  0.45594000000E+02  0.51100000000E-03 0.  1.
         11   -1    0    0    0    0 -0.00000000000E+00 -0.00000000000E+00 -0.45593999997E+02  0.45594000000E+02  0.51100000000E-03 0. -1.
    9900012    2    1    2    0    0  0.40336733944E+02 -0.20757310824E+01  0.46695426085E+01  0.50528863352E+02  0.30000010645E+02 0.  0.
         12    1    1    2    0    0 -0.40336733944E+02  0.20757310824E+01 -0.46695426085E+01  0.40659136648E+02  0.00000000000E+00 0. -1.
         11    1    3    3    0    0  0.16943030246E+02  0.12263995129E+02 -0.41741213276E+01  0.21328270899E+02  0.51100000000E-03 0. -1.
        -11    1    3    3    0    0  0.32704772184E+01 -0.36734393495E+01  0.49440106168E+00  0.49431377243E+01  0.51100000000E-03 0.  1.
         12    1    3    3    0    0  0.20123226480E+02 -0.10666286862E+02  0.83492628745E+01  0.24257454729E+02  0.00000000000E+00 0. -1.
</event>
<event>
 7    1  0.2639126E-011  0.5052886E+02  0.7816164E-02  0.1300439E+00
        -11   -1    0    0    0    0  0.00000000000E+00  0.00000000000E+00  0.45593999997E+02  0.45594000000E+02  0.51100000000E-03 0.  1.
         11   -1    0    0    0    0 -0.00000000000E+00 -0.00000000000E+00 -0.45593999997E+02  0.45594000000E+02  0.51100000000E-03 0. -1.
    9900012    2    1    2    0    0  0.17005514016E+02  0.20765219767E+02  0.30541511044E+02  0.50528858890E+02  0.29999997082E+02 0.  0.
         12    1    1    2    0    0 -0.17005514016E+02 -0.20765219767E+02 -0.30541511044E+02  0.40659141110E+02  0.00000000000E+00 0. -1.
         11    1    3    3    0    0  0.35663588846E+01  0.77772952558E-01 -0.86355164141E-01  0.35682519251E+01  0.51100000000E-03 0. -1.
        -11    1    3    3    0    0  0.10478970440E+00  0.11731128636E+02 -0.70235334071E+00  0.11752602283E+02  0.51100000000E-03 0.  1.
        -12    1    3    3    0    0  0.13334365428E+02  0.89563181791E+01  0.31330219549E+02  0.35208004682E+02  0.00000000000E+00 0.  1.
</event>
<event>
 7    1  0.2639126E-011  0.5052886E+02  0.7816164E-02  0.1300439E+00
        -11   -1    0    0    0    0  0.00000000000E+00  0.00000000000E+00  0.45593999997E+02  0.45594000000E+02  0.51100000000E-03 0.  1.
         11   -1    0    0    0    0 -0.00000000000E+00 -0.00000000000E+00 -0.45593999997E+02  0.45594000000E+02  0.51100000000E-03 0. -1.
    9900012    2    1    2    0    0 -0.15766119817E+02  0.26749250665E+02  0.26250188958E+02  0.50528863689E+02  0.30000011668E+02 0.  0.
         12    1    1    2    0    0  0.15766119817E+02 -0.26749250665E+02 -0.26250188958E+02  0.40659136311E+02  0.00000000000E+00 0. -1.
         11    1    3    3    0    0  0.26188073527E+01 -0.87545266894E+00 -0.14189408531E+01  0.31045068420E+01  0.51100000000E-03 0. -1.
        -11    1    3    3    0    0 -0.73141510980E+01  0.58752181473E+01  0.19583716418E+02  0.21714901418E+02  0.51100000000E-03 0.  1.
         12    1    3    3    0    0 -0.11070776071E+02  0.21749485187E+02  0.80854133932E+01  0.25709455429E+02  0.00000000000E+00 0. -1.
</event>
<event>
 7    1  0.2639126E-011  0.5052888E+02  0.7816164E-02  0.1300439E+00
        -11   -1    0    0    0    0  0.00000000000E+00  0.00000000000E+00  0.45593999997E+02  0.45594000000E+02  0.51100000000E-03 0.  1.
         11   -1    0    0    0    0 -0.00000000000E+00 -0.00000000000E+00 -0.45593999997E+02  0.45594000000E+02  0.51100000000E-03 0. -1.
    9900012    2    1    2    0    0  0.35892526051E+02  0.14165448010E+02  0.12815260594E+02  0.50528877436E+02  0.30000053454E+02 0.  0.
         12    1    1    2    0    0 -0.35892526051E+02 -0.14165448010E+02 -0.12815260594E+02  0.40659122564E+02  0.00000000000E+00 0. -1.
         11    1    3    3    0    0  0.60887559583E+01  0.44757599776E+01 -0.35615544160E+00  0.75651981769E+01  0.51100000000E-03 0. -1.
        -11    1    3    3    0    0  0.80861852033E+01  0.12988497841E+02  0.14335045280E+02  0.20966186843E+02  0.51100000000E-03 0.  1.
         12    1    3    3    0    0  0.21717584889E+02 -0.32988098088E+01 -0.11636292442E+01  0.21997492416E+02  0.00000000000E+00 0. -1.
</event>
<event>
 7    1  0.2639126E-011  0.5052886E+02  0.7816164E-02  0.1300439E+00
        -11   -1    0    0    0    0  0.00000000000E+00  0.00000000000E+00  0.45593999997E+02  0.45594000000E+02  0.51100000000E-03 0.  1.
         11   -1    0    0    0    0 -0.00000000000E+00 -0.00000000000E+00 -0.45593999997E+02  0.45594000000E+02  0.51100000000E-03 0. -1.
    9900012    2    1    2    0    0 -0.28996212099E+02 -0.24307655270E+01  0.28398529336E+02  0.50528863196E+02  0.30000010172E+02 0.  0.
         12    1    1    2    0    0  0.28996212099E+02  0.24307655270E+01 -0.28398529336E+02  0.40659136804E+02  0.00000000000E+00 0. -1.
         11    1    3    3    0    0 -0.84867272354E+01  0.74180101179E+01  0.12277531357E+02  0.16667009022E+02  0.51100000000E-03 0. -1.
        -11    1    3    3    0    0 -0.64217635836E+01  0.47819475364E+01  0.96633145918E+01  0.12549331414E+02  0.51100000000E-03 0.  1.
         12    1    3    3    0    0 -0.14087721280E+02 -0.14630723181E+02  0.64576833879E+01  0.21312522760E+02  0.00000000000E+00 0. -1.
</event>
<event>
 7    1  0.2639126E-011  0.5052886E+02  0.7816164E-02  0.1300439E+00
        -11   -1    0    0    0    0  0.00000000000E+00  0.00000000000E+00  0.45593999997E+02  0.45594000000E+02  0.51100000000E-03 0. -1.
         11   -1    0    0    0    0 -0.00000000000E+00 -0.00000000000E+00 -0.45593999997E+02  0.45594000000E+02  0.51100000000E-03 0.  1.
    9900012    2    1    2    0    0 -0.90676358388E+01  0.38964008846E+02 -0.72628861168E+01  0.50528861792E+02  0.30000005904E+02 0.  0.
         12    1    1    2    0    0  0.90676358388E+01 -0.38964008846E+02  0.72628861168E+01  0.40659138208E+02  0.00000000000E+00 0. -1.
         11    1    3    3    0    0 -0.82578651490E+01  0.26314069267E+02 -0.86323271007E+01  0.28898782840E+02  0.51100000000E-03 0. -1.
        -11    1    3    3    0    0 -0.89301724689E+01  0.47184389527E+01 -0.56213854597E+00  0.10115712851E+02  0.51100000000E-03 0.  1.
         12    1    3    3    0    0  0.81204017792E+01  0.79315006259E+01  0.19315795299E+01  0.11514366101E+02  0.00000000000E+00 0. -1.
</event>
<event>
 7    1  0.2639126E-011  0.5052883E+02  0.7816164E-02  0.1300439E+00
        -11   -1    0    0    0    0  0.00000000000E+00  0.00000000000E+00  0.45593999997E+02  0.45594000000E+02  0.51100000000E-03 0. -1.
         11   -1    0    0    0    0 -0.00000000000E+00 -0.00000000000E+00 -0.45593999997E+02  0.45594000000E+02  0.51100000000E-03 0.  1.
    9900012    2    1    2    0    0  0.63958581660E+01 -0.15255967391E+02 -0.37141839341E+02  0.50528834092E+02  0.29999921706E+02 0.  0.
         12    1    1    2    0    0 -0.63958581660E+01  0.15255967391E+02  0.37141839341E+02  0.40659165908E+02  0.00000000000E+00 0. -1.
         11    1    3    3    0    0  0.34199713893E+01 -0.27369957601E+01  0.38299111406E+01  0.58185539183E+01  0.51100000000E-03 0. -1.
        -11    1    3    3    0    0  0.19801927971E+01  0.10353576715E+01 -0.92190355725E+00  0.24172371525E+01  0.51100000000E-03 0.  1.
         12    1    3    3    0    0  0.99569397963E+00 -0.13554329303E+02 -0.40049846924E+02  0.42293043021E+02  0.00000000000E+00 0. -1.
</event>
<event>
 7    1  0.2639126E-011  0.5052886E+02  0.7816164E-02  0.1300439E+00
        -11   -1    0    0    0    0  0.00000000000E+00  0.00000000000E+00  0.45593999997E+02  0.45594000000E+02  0.51100000000E-03 0.  1.
         11   -1    0    0    0    0 -0.00000000000E+00 -0.00000000000E+00 -0.45593999997E+02  0.45594000000E+02  0.51100000000E-03 0. -1.
    9900012    2    1    2    0    0 -0.11413325234E+02 -0.20235534762E+02  0.33368026134E+02  0.50528855542E+02  0.29999986905E+02 0.  0.
         12    1    1    2    0    0  0.11413325234E+02  0.20235534762E+02 -0.33368026134E+02  0.40659144458E+02  0.00000000000E+00 0. -1.
         11    1    3    3    0    0 -0.53649118765E+01 -0.76957159719E+01  0.58516435176E+00  0.93994011162E+01  0.51100000000E-03 0. -1.
        -11    1    3    3    0    0 -0.98583139865E+01 -0.12314896572E-01  0.66258040907E+01  0.11878037987E+02  0.51100000000E-03 0.  1.
        -12    1    3    3    0    0  0.38099006287E+01 -0.12527503893E+02  0.26157057691E+02  0.29251416439E+02  0.00000000000E+00 0.  1.
</event>
<event>
 7    1  0.2639126E-011  0.5052886E+02  0.7816164E-02  0.1300439E+00
        -11   -1    0    0    0    0  0.00000000000E+00  0.00000000000E+00  0.45593999997E+02  0.45594000000E+02  0.51100000000E-03 0. -1.
         11   -1    0    0    0    0 -0.00000000000E+00 -0.00000000000E+00 -0.45593999997E+02  0.45594000000E+02  0.51100000000E-03 0.  1.
    9900012    2    1    2    0    0 -0.61246412736E+01  0.40175060537E+02  0.12724042573E+01  0.50528859177E+02  0.29999997954E+02 0.  0.
         12    1    1    2    0    0  0.61246412736E+01 -0.40175060537E+02 -0.12724042573E+01  0.40659140823E+02  0.00000000000E+00 0. -1.
         11    1    3    3    0    0 -0.98291588402E+00  0.16216070805E+01 -0.10918550527E+01  0.21881226830E+01  0.51100000000E-03 0. -1.
        -11    1    3    3    0    0 -0.58774833924E+01  0.28251412986E+02 -0.11490471010E+02  0.31059910995E+02  0.51100000000E-03 0.  1.
         12    1    3    3    0    0  0.73575800282E+00  0.10302040471E+02  0.13854730320E+02  0.17280825499E+02  0.00000000000E+00 0. -1.
</event>
<event>
 7    1  0.2639126E-011  0.5052887E+02  0.7816164E-02  0.1300439E+00
        -11   -1    0    0    0    0  0.00000000000E+00  0.00000000000E+00  0.45593999997E+02  0.45594000000E+02  0.51100000000E-03 0.  1.
         11   -1    0    0    0    0 -0.00000000000E+00 -0.00000000000E+00 -0.45593999997E+02  0.45594000000E+02  0.51100000000E-03 0. -1.
    9900012    2    1    2    0    0  0.18708704975E+02  0.34914652223E+02 -0.91715014143E+01  0.50528867939E+02  0.30000024589E+02 0.  0.
         12    1    1    2    0    0 -0.18708704975E+02 -0.34914652223E+02  0.91715014143E+01  0.40659132061E+02  0.00000000000E+00 0. -1.
         11    1    3    3    0    0  0.45556477216E+00 -0.10248525864E+00  0.30074999560E+01  0.30435339223E+01  0.51100000000E-03 0. -1.
        -11    1    3    3    0    0  0.55640134092E+01 -0.16417460409E+01  0.20683881255E+01  0.61588801725E+01  0.51100000000E-03 0.  1.
         12    1    3    3    0    0  0.12689126794E+02  0.36658883523E+02 -0.14247389496E+02  0.41326453845E+02  0.00000000000E+00 0. -1.
</event>
<event>
 7    1  0.2639126E-011  0.5052886E+02  0.7816164E-02  0.1300439E+00
        -11   -1    0    0    0    0  0.00000000000E+00  0.00000000000E+00  0.45593999997E+02  0.45594000000E+02  0.51100000000E-03 0. -1.
         11   -1    0    0    0    0 -0.00000000000E+00 -0.00000000000E+00 -0.45593999997E+02  0.45594000000E+02  0.51100000000E-03 0.  1.
    9900012    2    1    2    0    0  0.14322886371E+02 -0.36589009594E+02 -0.10452976596E+02  0.50528863059E+02  0.30000009756E+02 0.  0.
         12    1    1    2    0    0 -0.14322886371E+02  0.36589009594E+02  0.10452976596E+02  0.40659136941E+02  0.00000000000E+00 0. -1.
         11    1    3    3    0    0 -0.28875081327E+01 -0.30665467892E+01 -0.42456513050E+01  0.59805491129E+01  0.51100000000E-03 0. -1.
        -11    1    3    3    0    0  0.15428460768E+01 -0.25435946361E+02 -0.82833561188E+01  0.26795181099E+02  0.51100000000E-03 0.  1.
         12    1    3    3    0    0  0.15667548427E+02 -0.80865164431E+01  0.20760308275E+01  0.17753132847E+02  0.00000000000E+00 0. -1.
</event>
<event>
 7    1  0.2639126E-011  0.5052887E+02  0.7816164E-02  0.1300439E+00
        -11   -1    0    0    0    0  0.00000000000E+00  0.00000000000E+00  0.45593999997E+02  0.45594000000E+02  0.51100000000E-03 0.  1.
         11   -1    0    0    0    0 -0.00000000000E+00 -0.00000000000E+00 -0.45593999997E+02  0.45594000000E+02  0.51100000000E-03 0. -1.
    9900012    2    1    2    0    0  0.40993793416E+01  0.23565704521E+02  0.32878835914E+02  0.50528865827E+02  0.30000018169E+02 0.  0.
         12    1    1    2    0    0 -0.40993793416E+01 -0.23565704521E+02 -0.32878835914E+02  0.40659134173E+02  0.00000000000E+00 0. -1.
         11    1    3    3    0    0  0.74022797409E+01  0.11223968413E+02  0.15063323917E+01  0.13529236853E+02  0.51100000000E-03 0. -1.
        -11    1    3    3    0    0  0.36520474356E+01  0.24887752800E+01  0.13120681628E+01  0.46100950089E+01  0.51100000000E-03 0.  1.
        -12    1    3    3    0    0 -0.69549478349E+01  0.98529608286E+01  0.30060435360E+02  0.32389533965E+02  0.00000000000E+00 0.  1.
</event>
<event>
 7    1  0.2639126E-011  0.5052886E+02  0.7816164E-02  0.1300439E+00
        -11   -1    0    0    0    0  0.00000000000E+00  0.00000000000E+00  0.45593999997E+02  0.45594000000E+02  0.51100000000E-03 0.  1.
         11   -1    0    0    0    0 -0.00000000000E+00 -0.00000000000E+00 -0.45593999997E+02  0.45594000000E+02  0.51100000000E-03 0. -1.
    9900012    2    1    2    0    0  0.23018534839E+02  0.27678695793E+02  0.18899798385E+02  0.50528861717E+02  0.30000005674E+02 0.  0.
         12    1    1    2    0    0 -0.23018534839E+02 -0.27678695793E+02 -0.18899798385E+02  0.40659138283E+02  0.00000000000E+00 0. -1.
         11    1    3    3    0    0  0.25183229350E+01  0.80798923111E+00 -0.13195939963E+01  0.29556937559E+01  0.51100000000E-03 0. -1.
        -11    1    3    3    0    0  0.20076837811E+02  0.45492725242E+01  0.11693231751E+02  0.23675028322E+02  0.51100000000E-03 0.  1.
        -12    1    3    3    0    0  0.42337409310E+00  0.22321434038E+02  0.85261606304E+01  0.23898139639E+02  0.00000000000E+00 0.  1.
</event>
<event>
 7    1  0.2639126E-011  0.5052887E+02  0.7816164E-02  0.1300439E+00
        -11   -1    0    0    0    0  0.00000000000E+00  0.00000000000E+00  0.45593999997E+02  0.45594000000E+02  0.51100000000E-03 0.  1.
         11   -1    0    0    0    0 -0.00000000000E+00 -0.00000000000E+00 -0.45593999997E+02  0.45594000000E+02  0.51100000000E-03 0. -1.
    9900012    2    1    2    0    0  0.34365350821E+02 -0.66709174284E+01  0.20680578542E+02  0.50528870580E+02  0.30000032616E+02 0.  0.
         12    1    1    2    0    0 -0.34365350821E+02  0.66709174284E+01 -0.20680578542E+02  0.40659129420E+02  0.00000000000E+00 0. -1.
         11    1    3    3    0    0  0.24812846195E+02 -0.77975815048E+01  0.20031215576E+02  0.32828786321E+02  0.51100000000E-03 0. -1.
        -11    1    3    3    0    0  0.44087758074E+01  0.97530566553E+00  0.77269129530E+01  0.89495088863E+01  0.51100000000E-03 0.  1.
         12    1    3    3    0    0  0.51437288184E+01  0.15135841083E+00 -0.70775499875E+01  0.87505753726E+01  0.00000000000E+00 0. -1.
</event>
<event>
 7    1  0.2639126E-011  0.5052886E+02  0.7816164E-02  0.1300439E+00
        -11   -1    0    0    0    0  0.00000000000E+00  0.00000000000E+00  0.45593999997E+02  0.45594000000E+02  0.51100000000E-03 0.  1.
         11   -1    0    0    0    0 -0.00000000000E+00 -0.00000000000E+00 -0.45593999997E+02  0.45594000000E+02  0.51100000000E-03 0. -1.
    9900012    2    1    2    0    0 -0.12959640772E+02  0.36127256327E+02  0.13417688566E+02  0.50528864433E+02  0.30000013930E+02 0.  0.
         12    1    1    2    0    0  0.12959640772E+02 -0.36127256327E+02 -0.13417688566E+02  0.40659135567E+02  0.00000000000E+00 0. -1.
         11    1    3    3    0    0 -0.35642415248E+01  0.22367191680E+01 -0.13188648919E+01  0.44097772220E+01  0.51100000000E-03 0. -1.
        -11    1    3    3    0    0  0.31963489788E+01 -0.25221403427E+01  0.48692761341E+01  0.63472583872E+01  0.51100000000E-03 0.  1.
        -12    1    3    3    0    0 -0.12591748226E+02  0.36412677501E+02  0.98672773239E+01  0.39771828824E+02  0.00000000000E+00 0.  1.
</event>
<event>
 7    1  0.2639126E-011  0.5052885E+02  0.7816164E-02  0.1300439E+00
        -11   -1    0    0    0    0  0.00000000000E+00  0.00000000000E+00  0.45593999997E+02  0.45594000000E+02  0.51100000000E-03 0.  1.
         11   -1    0    0    0    0 -0.00000000000E+00 -0.00000000000E+00 -0.45593999997E+02  0.45594000000E+02  0.51100000000E-03 0. -1.
    9900012    2    1    2    0    0 -0.31052143370E+02  0.26247307399E+02 -0.97111546969E-01  0.50528853622E+02  0.29999981069E+02 0.  0.
         12    1    1    2    0    0  0.31052143370E+02 -0.26247307399E+02  0.97111546969E-01  0.40659146378E+02  0.00000000000E+00 0. -1.
         11    1    3    3    0    0 -0.13150241717E+01  0.31737978675E+00  0.42258467410E+01  0.44370935804E+01  0.51100000000E-03 0. -1.
        -11    1    3    3    0    0  0.28551831421E+01  0.47414746769E+01  0.33469827901E+01  0.64680713466E+01  0.51100000000E-03 0.  1.
        -12    1    3    3    0    0 -0.32592302341E+02  0.21188452935E+02 -0.76699410781E+01  0.39623688695E+02  0.00000000000E+00 0.  1.
</event>
<event>
 7    1  0.2639126E-011  0.5052885E+02  0.7816164E-02  0.1300439E+00
        -11   -1    0    0    0    0  0.00000000000E+00  0.00000000000E+00  0.45593999997E+02  0.45594000000E+02  0.51100000000E-03 0.  1.
         11   -1    0    0    0    0 -0.00000000000E+00 -0.00000000000E+00 -0.45593999997E+02  0.45594000000E+02  0.51100000000E-03 0. -1.
    9900012    2    1    2    0    0 -0.12462256441E+02 -0.38080535647E+02  0.69087759214E+01  0.50528853237E+02  0.29999979898E+02 0.  0.
         12    1    1    2    0    0  0.12462256441E+02  0.38080535647E+02 -0.69087759214E+01  0.40659146763E+02  0.00000000000E+00 0. -1.
         11    1    3    3    0    0  0.12796311932E+01 -0.12890745020E+01  0.18013066533E+01  0.25580998774E+01  0.51100000000E-03 0. -1.
        -11    1    3    3    0    0  0.49744043284E+01 -0.90747044956E+01  0.97349320855E+01  0.14207880316E+02  0.51100000000E-03 0.  1.
        -12    1    3    3    0    0 -0.18716291963E+02 -0.27716756650E+02 -0.46274628175E+01  0.33762873043E+02  0.00000000000E+00 0.  1.
</event>
<event>
 7    1  0.2639126E-011  0.5052886E+02  0.7816164E-02  0.1300439E+00
        -11   -1    0    0    0    0  0.00000000000E+00  0.00000000000E+00  0.45593999997E+02  0.45594000000E+02  0.51100000000E-03 0.  1.
         11   -1    0    0    0    0 -0.00000000000E+00 -0.00000000000E+00 -0.45593999997E+02  0.45594000000E+02  0.51100000000E-03 0. -1.
    9900012    2    1    2    0    0  0.88445953268E+01  0.33990026807E+02  0.20484542622E+02  0.50528864799E+02  0.30000015044E+02 0.  0.
         12    1    1    2    0    0 -0.88445953268E+01 -0.33990026807E+02 -0.20484542622E+02  0.40659135201E+02  0.00000000000E+00 0. -1.
         11    1    3    3    0    0 -0.10252980317E+01  0.16288504527E+02 -0.32870737246E+01  0.16648467488E+02  0.51100000000E-03 0. -1.
        -11    1    3    3    0    0  0.11666565113E+01  0.32680050378E+01 -0.12699465571E+01  0.36950925376E+01  0.51100000000E-03 0.  1.
        -12    1    3    3    0    0  0.87032368472E+01  0.14433517243E+02  0.25041562904E+02  0.30185304774E+02  0.00000000000E+00 0.  1.
</event>
<event>
 7    1  0.2639126E-011  0.5052886E+02  0.7816164E-02  0.1300439E+00
        -11   -1    0    0    0    0  0.00000000000E+00  0.00000000000E+00  0.45593999997E+02  0.45594000000E+02  0.51100000000E-03 0. -1.
         11   -1    0    0    0    0 -0.00000000000E+00 -0.00000000000E+00 -0.45593999997E+02  0.45594000000E+02  0.51100000000E-03 0.  1.
    9900012    2    1    2    0    0  0.38230996074E+02 -0.90499189452E+01 -0.10471651558E+02  0.50528861050E+02  0.30000003649E+02 0.  0.
         12    1    1    2    0    0 -0.38230996074E+02  0.90499189452E+01  0.10471651558E+02  0.40659138950E+02  0.00000000000E+00 0. -1.
         11    1    3    3    0    0  0.11204140511E+02 -0.55256091839E+01 -0.79050982126E+01  0.14783629441E+02  0.51100000000E-03 0.  1.
        -11    1    3    3    0    0  0.61640439513E+01 -0.73043456435E+01 -0.94625452727E+01  0.13449485730E+02  0.51100000000E-03 0. -1.
        -12    1    3    3    0    0  0.20862811612E+02  0.37800358822E+01  0.68959919271E+01  0.22295745879E+02  0.00000000000E+00 0.  1.
</event>
<event>
 7    1  0.2639126E-011  0.5052885E+02  0.7816164E-02  0.1300439E+00
        -11   -1    0    0    0    0  0.00000000000E+00  0.00000000000E+00  0.45593999997E+02  0.45594000000E+02  0.51100000000E-03 0.  1.
         11   -1    0    0    0    0 -0.00000000000E+00 -0.00000000000E+00 -0.45593999997E+02  0.45594000000E+02  0.51100000000E-03 0. -1.
    9900012    2    1    2    0    0 -0.34524844839E+02 -0.34365848665E+01  0.21198854249E+02  0.50528850376E+02  0.29999971203E+02 0.  0.
         12    1    1    2    0    0  0.34524844839E+02  0.34365848665E+01 -0.21198854249E+02  0.40659149624E+02  0.00000000000E+00 0. -1.
         11    1    3    3    0    0 -0.12592482041E+02  0.55964214937E+01  0.13330891645E+02  0.19172981244E+02  0.51100000000E-03 0. -1.
        -11    1    3    3    0    0 -0.15238432432E+02  0.11456997224E+01  0.10937784212E+02  0.18792487184E+02  0.51100000000E-03 0.  1.
         12    1    3    3    0    0 -0.66939303662E+01 -0.10178706083E+02 -0.30698216080E+01  0.12563381948E+02  0.00000000000E+00 0. -1.
</event>
<event>
 7    1  0.2639126E-011  0.5052886E+02  0.7816164E-02  0.1300439E+00
        -11   -1    0    0    0    0  0.00000000000E+00  0.00000000000E+00  0.45593999997E+02  0.45594000000E+02  0.51100000000E-03 0.  1.
         11   -1    0    0    0    0 -0.00000000000E+00 -0.00000000000E+00 -0.45593999997E+02  0.45594000000E+02  0.51100000000E-03 0. -1.
    9900012    2    1    2    0    0 -0.12399014614E+02  0.38667312209E+02 -0.20662432380E+01  0.50528856404E+02  0.29999989526E+02 0.  0.
         12    1    1    2    0    0  0.12399014614E+02 -0.38667312209E+02  0.20662432380E+01  0.40659143596E+02  0.00000000000E+00 0. -1.
         11    1    3    3    0    0 -0.40652074331E+01 -0.82580327904E-01  0.56790674185E+01  0.69845929008E+01  0.51100000000E-03 0. -1.
        -11    1    3    3    0    0  0.43417257371E+01  0.72853578989E+01  0.92696551643E+00  0.85314879958E+01  0.51100000000E-03 0.  1.
        -12    1    3    3    0    0 -0.12675532918E+02  0.31464534638E+02 -0.86722761729E+01  0.35012775507E+02  0.00000000000E+00 0.  1.
</event>
<event>
 7    1  0.2639126E-011  0.5052886E+02  0.7816164E-02  0.1300439E+00
        -11   -1    0    0    0    0  0.00000000000E+00  0.00000000000E+00  0.45593999997E+02  0.45594000000E+02  0.51100000000E-03 0. -1.
         11   -1    0    0    0    0 -0.00000000000E+00 -0.00000000000E+00 -0.45593999997E+02  0.45594000000E+02  0.51100000000E-03 0.  1.
    9900012    2    1    2    0    0  0.26421826972E+02  0.20027913408E+02 -0.23535824997E+02  0.50528864319E+02  0.30000013584E+02 0.  0.
         12    1    1    2    0    0 -0.26421826972E+02 -0.20027913408E+02  0.23535824997E+02  0.40659135681E+02  0.00000000000E+00 0. -1.
         11    1    3    3    0    0  0.35082370109E+01  0.77327500534E+01  0.25646796052E+01  0.88702160093E+01  0.51100000000E-03 0. -1.
        -11    1    3    3    0    0  0.32021509001E+00  0.41726648071E+01  0.20501010040E+01  0.46601055443E+01  0.51100000000E-03 0.  1.
        -12    1    3    3    0    0  0.22593374871E+02  0.81224985476E+01 -0.28150605607E+02  0.36998542765E+02  0.00000000000E+00 0.  1.
</event>
<event>
 7    1  0.2639126E-011  0.5052887E+02  0.7816164E-02  0.1300439E+00
        -11   -1    0    0    0    0  0.00000000000E+00  0.00000000000E+00  0.45593999997E+02  0.45594000000E+02  0.51100000000E-03 0.  1.
         11   -1    0    0    0    0 -0.00000000000E+00 -0.00000000000E+00 -0.45593999997E+02  0.45594000000E+02  0.51100000000E-03 0. -1.
    9900012    2    1    2    0    0  0.35208023820E+02  0.16676940109E+02  0.11637859441E+02  0.50528867630E+02  0.30000023647E+02 0.  0.
         12    1    1    2    0    0 -0.35208023820E+02 -0.16676940109E+02 -0.11637859441E+02  0.40659132370E+02  0.00000000000E+00 0. -1.
         11    1    3    3    0    0  0.10248295179E+02  0.78991640410E+01  0.66804695531E+01  0.14562040390E+02  0.51100000000E-03 0. -1.
        -11    1    3    3    0    0  0.27945605087E+02  0.11155149711E+02  0.49366182208E+00  0.30093818485E+02  0.51100000000E-03 0.  1.
         12    1    3    3    0    0 -0.29858764457E+01 -0.23773736422E+01  0.44637280655E+01  0.58730087541E+01  0.00000000000E+00 0. -1.
</event>
<event>
 7    1  0.2639126E-011  0.5052886E+02  0.7816164E-02  0.1300439E+00
        -11   -1    0    0    0    0  0.00000000000E+00  0.00000000000E+00  0.45593999997E+02  0.45594000000E+02  0.51100000000E-03 0. -1.
         11   -1    0    0    0    0 -0.00000000000E+00 -0.00000000000E+00 -0.45593999997E+02  0.45594000000E+02  0.51100000000E-03 0.  1.
    9900012    2    1    2    0    0  0.68748354664E+01  0.36802590148E+02 -0.15857856415E+02  0.50528860629E+02  0.30000002369E+02 0.  0.
         12    1    1    2    0    0 -0.68748354664E+01 -0.36802590148E+02  0.15857856415E+02  0.40659139371E+02  0.00000000000E+00 0. -1.
         11    1    3    3    0    0  0.14591902270E+02  0.12171938731E+02 -0.15051586592E+02  0.24241080081E+02  0.51100000000E-03 0.  1.
        -11    1    3    3    0    0 -0.11856446105E+01  0.70094657640E+00  0.45537616894E+00  0.14506712108E+01  0.51100000000E-03 0. -1.
        -12    1    3    3    0    0 -0.65314221926E+01  0.23929704841E+02 -0.12616459918E+01  0.24837109337E+02  0.00000000000E+00 0.  1.
</event>
<event>
 7    1  0.2639126E-011  0.5052885E+02  0.7816164E-02  0.1300439E+00
        -11   -1    0    0    0    0  0.00000000000E+00  0.00000000000E+00  0.45593999997E+02  0.45594000000E+02  0.51100000000E-03 0. -1.
         11   -1    0    0    0    0 -0.00000000000E+00 -0.00000000000E+00 -0.45593999997E+02  0.45594000000E+02  0.51100000000E-03 0.  1.
    9900012    2    1    2    0    0  0.35461565750E+02  0.98064872029E+01 -0.17305391007E+02  0.50528851035E+02  0.29999973205E+02 0.  0.
         12    1    1    2    0    0 -0.35461565750E+02 -0.98064872029E+01  0.17305391007E+02  0.40659148965E+02  0.00000000000E+00 0. -1.
         11    1    3    3    0    0  0.43112474971E+01  0.64968562615E+01 -0.52063849943E+01  0.93756301780E+01  0.51100000000E-03 0. -1.
        -11    1    3    3    0    0  0.71310854071E+01  0.23359340973E+01 -0.15164542862E+02  0.16919584146E+02  0.51100000000E-03 0.  1.
         12    1    3    3    0    0  0.24019232846E+02  0.97369684415E+00  0.30655368498E+01  0.24233636710E+02  0.00000000000E+00 0. -1.
</event>
<event>
 7    1  0.2639126E-011  0.5052888E+02  0.7816164E-02  0.1300439E+00
        -11   -1    0    0    0    0  0.00000000000E+00  0.00000000000E+00  0.45593999997E+02  0.45594000000E+02  0.51100000000E-03 0.  1.
         11   -1    0    0    0    0 -0.00000000000E+00 -0.00000000000E+00 -0.45593999997E+02  0.45594000000E+02  0.51100000000E-03 0. -1.
    9900012    2    1    2    0    0 -0.21676280839E+02  0.18755526154E+02  0.28836311791E+02  0.50528883064E+02  0.30000070561E+02 0.  0.
         12    1    1    2    0    0  0.21676280839E+02 -0.18755526154E+02 -0.28836311791E+02  0.40659116936E+02  0.00000000000E+00 0. -1.
         11    1    3    3    0    0 -0.16403086810E+01  0.78630150973E+01  0.18682034255E+02  0.20335585144E+02  0.51100000000E-03 0. -1.
        -11    1    3    3    0    0 -0.32385195672E+01  0.23950307198E-01  0.96510742457E+01  0.10179971364E+02  0.51100000000E-03 0.  1.
        -12    1    3    3    0    0 -0.16797452591E+02  0.10868560749E+02  0.50320329002E+00  0.20013326556E+02  0.00000000000E+00 0.  1.
</event>
<event>
 7    1  0.2639126E-011  0.5052885E+02  0.7816164E-02  0.1300439E+00
        -11   -1    0    0    0    0  0.00000000000E+00  0.00000000000E+00  0.45593999997E+02  0.45594000000E+02  0.51100000000E-03 0.  1.
         11   -1    0    0    0    0 -0.00000000000E+00 -0.00000000000E+00 -0.45593999997E+02  0.45594000000E+02  0.51100000000E-03 0. -1.
    9900012    2    1    2    0    0 -0.32305699942E+02  0.15011409044E+02  0.19600142312E+02  0.50528853073E+02  0.29999979399E+02 0.  0.
         12    1    1    2    0    0  0.32305699942E+02 -0.15011409044E+02 -0.19600142312E+02  0.40659146927E+02  0.00000000000E+00 0. -1.
         11    1    3    3    0    0 -0.64507699203E+01  0.20497340173E+01 -0.11530512386E+01  0.68661029359E+01  0.51100000000E-03 0.  1.
        -11    1    3    3    0    0 -0.20004653307E+02  0.11523682923E+02  0.11062172572E+01  0.23112878205E+02  0.51100000000E-03 0. -1.
        -12    1    3    3    0    0 -0.58502767149E+01  0.14379921031E+01  0.19646976294E+02  0.20549871932E+02  0.00000000000E+00 0.  1.
</event>
<event>
 7    1  0.2639126E-011  0.5052886E+02  0.7816164E-02  0.1300439E+00
        -11   -1    0    0    0    0  0.00000000000E+00  0.00000000000E+00  0.45593999997E+02  0.45594000000E+02  0.51100000000E-03 0. -1.
         11   -1    0    0    0    0 -0.00000000000E+00 -0.00000000000E+00 -0.45593999997E+02  0.45594000000E+02  0.51100000000E-03 0.  1.
    9900012    2    1    2    0    0  0.37963563954E+02 -0.25022180152E+01 -0.14341296462E+02  0.50528855059E+02  0.29999985438E+02 0.  0.
         12    1    1    2    0    0 -0.37963563954E+02  0.25022180152E+01  0.14341296462E+02  0.40659144941E+02  0.00000000000E+00 0. -1.
         11    1    3    3    0    0  0.17767811311E+01 -0.53346599092E+00 -0.52163851881E+01  0.55364439710E+01  0.51100000000E-03 0. -1.
        -11    1    3    3    0    0  0.11451887529E+02 -0.35577899532E+00 -0.15616794790E+02  0.19368959354E+02  0.51100000000E-03 0.  1.
        -12    1    3    3    0    0  0.24734895294E+02 -0.16129730289E+01  0.64918835159E+01  0.25623451735E+02  0.00000000000E+00 0.  1.
</event>
<event>
 7    1  0.2639126E-011  0.5052885E+02  0.7816164E-02  0.1300439E+00
        -11   -1    0    0    0    0  0.00000000000E+00  0.00000000000E+00  0.45593999997E+02  0.45594000000E+02  0.51100000000E-03 0.  1.
         11   -1    0    0    0    0 -0.00000000000E+00 -0.00000000000E+00 -0.45593999997E+02  0.45594000000E+02  0.51100000000E-03 0. -1.
    9900012    2    1    2    0    0 -0.20000404854E+02 -0.14489757015E+02  0.32298566863E+02  0.50528847597E+02  0.29999962757E+02 0.  0.
         12    1    1    2    0    0  0.20000404854E+02  0.14489757015E+02 -0.32298566863E+02  0.40659152403E+02  0.00000000000E+00 0. -1.
         11    1    3    3    0    0 -0.32211324538E+01 -0.12218451195E+02  0.23767493961E+02  0.26917652449E+02  0.51100000000E-03 0.  1.
        -11    1    3    3    0    0 -0.15154640213E+02 -0.54439131053E+01  0.10797048413E+02  0.19387510531E+02  0.51100000000E-03 0. -1.
        -12    1    3    3    0    0 -0.16246321870E+01  0.31726072857E+01 -0.22659755110E+01  0.42236846176E+01  0.00000000000E+00 0.  1.
</event>
<event>
 7    1  0.2639126E-011  0.5052888E+02  0.7816164E-02  0.1300439E+00
        -11   -1    0    0    0    0  0.00000000000E+00  0.00000000000E+00  0.45593999997E+02  0.45594000000E+02  0.51100000000E-03 0.  1.
         11   -1    0    0    0    0 -0.00000000000E+00 -0.00000000000E+00 -0.45593999997E+02  0.45594000000E+02  0.51100000000E-03 0. -1.
    9900012    2    1    2    0    0 -0.27222382531E+02 -0.11541246553E+02  0.27908874713E+02  0.50528883306E+02  0.30000071295E+02 0.  0.
         12    1    1    2    0    0  0.27222382531E+02  0.11541246553E+02 -0.27908874713E+02  0.40659116694E+02  0.00000000000E+00 0. -1.
         11    1    3    3    0    0 -0.21352176663E+02 -0.10634446554E+02  0.96708869957E+01  0.25739715564E+02  0.51100000000E-03 0. -1.
        -11    1    3    3    0    0 -0.92848038203E+01 -0.43852929978E+01  0.16830649637E+02  0.19715708055E+02  0.51100000000E-03 0.  1.
        -12    1    3    3    0    0  0.34145979531E+01  0.34784929979E+01  0.14073380800E+01  0.50734596864E+01  0.00000000000E+00 0.  1.
</event>
<event>
 7    1  0.2639126E-011  0.5052886E+02  0.7816164E-02  0.1300439E+00
        -11   -1    0    0    0    0  0.00000000000E+00  0.00000000000E+00  0.45593999997E+02  0.45594000000E+02  0.51100000000E-03 0.  1.
         11   -1    0    0    0    0 -0.00000000000E+00 -0.00000000000E+00 -0.45593999997E+02  0.45594000000E+02  0.51100000000E-03 0. -1.
    9900012    2    1    2    0    0 -0.18281135232E+02  0.36304642724E+02  0.96886517003E+00  0.50528859719E+02  0.29999999600E+02 0.  0.
         12    1    1    2    0    0  0.18281135232E+02 -0.36304642724E+02 -0.96886517003E+00  0.40659140281E+02  0.00000000000E+00 0. -1.
         11    1    3    3    0    0 -0.12062054420E+02  0.48757867335E+01  0.74482831713E+00  0.13031547206E+02  0.51100000000E-03 0. -1.
        -11    1    3    3    0    0 -0.10097777068E+02  0.25881418756E+02  0.62033498551E+01  0.28465672102E+02  0.51100000000E-03 0.  1.
         12    1    3    3    0    0  0.38786962559E+01  0.55474372345E+01 -0.59793130022E+01  0.90316404099E+01  0.00000000000E+00 0. -1.
</event>
<event>
 7    1  0.2639126E-011  0.5052886E+02  0.7816164E-02  0.1300439E+00
        -11   -1    0    0    0    0  0.00000000000E+00  0.00000000000E+00  0.45593999997E+02  0.45594000000E+02  0.51100000000E-03 0.  1.
         11   -1    0    0    0    0 -0.00000000000E+00 -0.00000000000E+00 -0.45593999997E+02  0.45594000000E+02  0.51100000000E-03 0. -1.
    9900012    2    1    2    0    0 -0.67527155141E+01  0.39537495635E+02  0.66597824613E+01  0.50528862893E+02  0.30000009249E+02 0.  0.
         12    1    1    2    0    0  0.67527155141E+01 -0.39537495635E+02 -0.66597824613E+01  0.40659137107E+02  0.00000000000E+00 0. -1.
         11    1    3    3    0    0 -0.13598830887E+01  0.97662287749E+01 -0.58910965794E+01  0.11486232005E+02  0.51100000000E-03 0. -1.
        -11    1    3    3    0    0 -0.94344771840E+01  0.18406108550E+02 -0.12405675721E+01  0.20720357136E+02  0.51100000000E-03 0.  1.
        -12    1    3    3    0    0  0.40416447586E+01  0.11365158310E+02  0.13791446613E+02  0.18322273752E+02  0.00000000000E+00 0.  1.
</event>
<event>
 7    1  0.2639126E-011  0.5052886E+02  0.7816164E-02  0.1300439E+00
        -11   -1    0    0    0    0  0.00000000000E+00  0.00000000000E+00  0.45593999997E+02  0.45594000000E+02  0.51100000000E-03 0. -1.
         11   -1    0    0    0    0 -0.00000000000E+00 -0.00000000000E+00 -0.45593999997E+02  0.45594000000E+02  0.51100000000E-03 0.  1.
    9900012    2    1    2    0    0 -0.39642535277E+02  0.33309496380E+01  0.83988119196E+01  0.50528857481E+02  0.29999992800E+02 0.  0.
         12    1    1    2    0    0  0.39642535277E+02 -0.33309496380E+01 -0.83988119196E+01  0.40659142519E+02  0.00000000000E+00 0. -1.
         11    1    3    3    0    0 -0.45169133238E+01  0.92474972429E+01  0.47873392425E+01  0.11350653220E+02  0.51100000000E-03 0. -1.
        -11    1    3    3    0    0  0.87584460262E+00  0.44310570694E+00 -0.19649691831E+01  0.21964859633E+01  0.51100000000E-03 0.  1.
         12    1    3    3    0    0 -0.36001466556E+02 -0.63596533119E+01  0.55764418602E+01  0.36981718298E+02  0.00000000000E+00 0. -1.
</event>
<event>
 7    1  0.2639126E-011  0.5052886E+02  0.7816164E-02  0.1300439E+00
        -11   -1    0    0    0    0  0.00000000000E+00  0.00000000000E+00  0.45593999997E+02  0.45594000000E+02  0.51100000000E-03 0. -1.
         11   -1    0    0    0    0 -0.00000000000E+00 -0.00000000000E+00 -0.45593999997E+02  0.45594000000E+02  0.51100000000E-03 0.  1.
    9900012    2    1    2    0    0 -0.15606070355E+02 -0.36416497621E+02  0.91353467200E+01  0.50528864611E+02  0.30000014470E+02 0.  0.
         12    1    1    2    0    0  0.15606070355E+02  0.36416497621E+02 -0.91353467200E+01  0.40659135389E+02  0.00000000000E+00 0. -1.
         11    1    3    3    0    0 -0.43380709663E+00 -0.67922209942E+01 -0.13783962579E+00  0.68074558136E+01  0.51100000000E-03 0. -1.
        -11    1    3    3    0    0 -0.45417228806E+01 -0.28538729024E+02 -0.97677936187E+00  0.28914363199E+02  0.51100000000E-03 0.  1.
         12    1    3    3    0    0 -0.10630540378E+02 -0.10855476030E+01  0.10249965708E+02  0.14807045598E+02  0.00000000000E+00 0. -1.
</event>
<event>
 7    1  0.2639126E-011  0.5052886E+02  0.7816164E-02  0.1300439E+00
        -11   -1    0    0    0    0  0.00000000000E+00  0.00000000000E+00  0.45593999997E+02  0.45594000000E+02  0.51100000000E-03 0.  1.
         11   -1    0    0    0    0 -0.00000000000E+00 -0.00000000000E+00 -0.45593999997E+02  0.45594000000E+02  0.51100000000E-03 0. -1.
    9900012    2    1    2    0    0 -0.13348079688E+02  0.79171095816E+01  0.37580761593E+02  0.50528862068E+02  0.30000006742E+02 0.  0.
         12    1    1    2    0    0  0.13348079688E+02 -0.79171095816E+01 -0.37580761593E+02  0.40659137932E+02  0.00000000000E+00 0. -1.
         11    1    3    3    0    0  0.35166340906E+01 -0.38539124830E+01  0.21955898538E+01  0.56603861900E+01  0.51100000000E-03 0. -1.
        -11    1    3    3    0    0 -0.10222736579E+02  0.46010038218E+01  0.32937443563E+02  0.34792941354E+02  0.51100000000E-03 0.  1.
         12    1    3    3    0    0 -0.66419771996E+01  0.71700182428E+01  0.24477281759E+01  0.10075534524E+02  0.00000000000E+00 0. -1.
</event>
<event>
 7    1  0.2639126E-011  0.5052887E+02  0.7816164E-02  0.1300439E+00
        -11   -1    0    0    0    0  0.00000000000E+00  0.00000000000E+00  0.45593999997E+02  0.45594000000E+02  0.51100000000E-03 0. -1.
         11   -1    0    0    0    0 -0.00000000000E+00 -0.00000000000E+00 -0.45593999997E+02  0.45594000000E+02  0.51100000000E-03 0.  1.
    9900012    2    1    2    0    0 -0.28097086161E+02  0.28015997293E+02  0.88782035980E+01  0.50528869978E+02  0.30000030784E+02 0.  0.
         12    1    1    2    0    0  0.28097086161E+02 -0.28015997293E+02 -0.88782035980E+01  0.40659130022E+02  0.00000000000E+00 0. -1.
         11    1    3    3    0    0 -0.14563851039E+02  0.13569800749E+02 -0.68684901532E+01  0.21057573618E+02  0.51100000000E-03 0. -1.
        -11    1    3    3    0    0 -0.11448686716E+02  0.16364560121E+02  0.85274199608E+01  0.21716080377E+02  0.51100000000E-03 0.  1.
         12    1    3    3    0    0 -0.20845484062E+01 -0.19183635777E+01  0.72192737904E+01  0.77552159825E+01  0.00000000000E+00 0. -1.
</event>
<event>
 7    1  0.2639126E-011  0.5052886E+02  0.7816164E-02  0.1300439E+00
        -11   -1    0    0    0    0  0.00000000000E+00  0.00000000000E+00  0.45593999997E+02  0.45594000000E+02  0.51100000000E-03 0.  1.
         11   -1    0    0    0    0 -0.00000000000E+00 -0.00000000000E+00 -0.45593999997E+02  0.45594000000E+02  0.51100000000E-03 0. -1.
    9900012    2    1    2    0    0  0.24171277665E+02 -0.17934470204E+02  0.27336237354E+02  0.50528858861E+02  0.29999996995E+02 0.  0.
         12    1    1    2    0    0 -0.24171277665E+02  0.17934470204E+02 -0.27336237354E+02  0.40659141139E+02  0.00000000000E+00 0. -1.
         11    1    3    3    0    0 -0.49638185410E+00 -0.22583321751E+01  0.10491632446E+02  0.10743407784E+02  0.51100000000E-03 0. -1.
        -11    1    3    3    0    0  0.64304956302E+01 -0.14666092006E+02  0.14058013168E+02  0.21308994891E+02  0.51100000000E-03 0.  1.
        -12    1    3    3    0    0  0.18237163889E+02 -0.10100460228E+01  0.27865917402E+01  0.18476456187E+02  0.00000000000E+00 0.  1.
</event>
<event>
 7    1  0.2639126E-011  0.5052886E+02  0.7816164E-02  0.1300439E+00
        -11   -1    0    0    0    0  0.00000000000E+00  0.00000000000E+00  0.45593999997E+02  0.45594000000E+02  0.51100000000E-03 0.  1.
         11   -1    0    0    0    0 -0.00000000000E+00 -0.00000000000E+00 -0.45593999997E+02  0.45594000000E+02  0.51100000000E-03 0. -1.
    9900012    2    1    2    0    0 -0.34717633640E+02  0.20174623683E+02  0.63902948330E+01  0.50528863335E+02  0.30000010593E+02 0.  0.
         12    1    1    2    0    0  0.34717633640E+02 -0.20174623683E+02 -0.63902948330E+01  0.40659136665E+02  0.00000000000E+00 0. -1.
         11    1    3    3    0    0 -0.21399484755E+01 -0.46655943555E+01  0.33565246157E+01  0.61329770850E+01  0.51100000000E-03 0. -1.
        -11    1    3    3    0    0 -0.39563425940E+01  0.30559013392E+01  0.65680281379E+01  0.82541004111E+01  0.51100000000E-03 0.  1.
         12    1    3    3    0    0 -0.28621342570E+02  0.21784316699E+02 -0.35342579206E+01  0.36141785839E+02  0.00000000000E+00 0. -1.
</event>
<event>
 7    1  0.2639126E-011  0.5052885E+02  0.7816164E-02  0.1300439E+00
        -11   -1    0    0    0    0  0.00000000000E+00  0.00000000000E+00  0.45593999997E+02  0.45594000000E+02  0.51100000000E-03 0.  1.
         11   -1    0    0    0    0 -0.00000000000E+00 -0.00000000000E+00 -0.45593999997E+02  0.45594000000E+02  0.51100000000E-03 0. -1.
    9900012    2    1    2    0    0  0.36500961500E+02  0.11315055270E+02  0.13885826386E+02  0.50528845550E+02  0.29999956533E+02 0.  0.
         12    1    1    2    0    0 -0.36500961500E+02 -0.11315055270E+02 -0.13885826386E+02  0.40659154450E+02  0.00000000000E+00 0. -1.
         11    1    3    3    0    0  0.19972059367E+02  0.46999631780E+01  0.42888286846E+01  0.20961079671E+02  0.51100000000E-03 0.  1.
        -11    1    3    3    0    0  0.14297140789E+01 -0.55749042863E+01 -0.29418131056E+01  0.64635829660E+01  0.51100000000E-03 0. -1.
         12    1    3    3    0    0  0.15099188054E+02  0.12189996379E+02  0.12538810807E+02  0.23104182913E+02  0.00000000000E+00 0. -1.
</event>
<event>
 7    1  0.2639126E-011  0.5052885E+02  0.7816164E-02  0.1300439E+00
        -11   -1    0    0    0    0  0.00000000000E+00  0.00000000000E+00  0.45593999997E+02  0.45594000000E+02  0.51100000000E-03 0. -1.
         11   -1    0    0    0    0 -0.00000000000E+00 -0.00000000000E+00 -0.45593999997E+02  0.45594000000E+02  0.51100000000E-03 0.  1.
    9900012    2    1    2    0    0  0.36849332848E+02 -0.12146784167E+02 -0.12155193650E+02  0.50528850604E+02  0.29999971896E+02 0.  0.
         12    1    1    2    0    0 -0.36849332848E+02  0.12146784167E+02  0.12155193650E+02  0.40659149396E+02  0.00000000000E+00 0. -1.
         11    1    3    3    0    0  0.26056878497E+02 -0.99737078298E+01  0.92476793244E+00  0.27915783365E+02  0.51100000000E-03 0. -1.
        -11    1    3    3    0    0  0.12471783333E+02 -0.34910699605E+01 -0.14946737344E+02  0.19777206740E+02  0.51100000000E-03 0.  1.
         12    1    3    3    0    0 -0.16793289826E+01  0.13179936231E+01  0.18667757615E+01  0.28358604983E+01  0.00000000000E+00 0. -1.
</event>
<event>
 7    1  0.2639126E-011  0.5052886E+02  0.7816164E-02  0.1300439E+00
        -11   -1    0    0    0    0  0.00000000000E+00  0.00000000000E+00  0.45593999997E+02  0.45594000000E+02  0.51100000000E-03 0.  1.
         11   -1    0    0    0    0 -0.00000000000E+00 -0.00000000000E+00 -0.45593999997E+02  0.45594000000E+02  0.51100000000E-03 0. -1.
    9900012    2    1    2    0    0 -0.12034305167E+02 -0.16447261628E+02  0.35182787413E+02  0.50528862699E+02  0.30000008661E+02 0.  0.
         12    1    1    2    0    0  0.12034305167E+02  0.16447261628E+02 -0.35182787413E+02  0.40659137301E+02  0.00000000000E+00 0. -1.
         11    1    3    3    0    0 -0.81000995946E+01  0.90857338786E+00  0.32996277540E+01  0.87934442979E+01  0.51100000000E-03 0. -1.
        -11    1    3    3    0    0 -0.47443043366E+01 -0.17100426973E+02  0.11093513555E+02  0.20928427307E+02  0.51100000000E-03 0.  1.
         12    1    3    3    0    0  0.81009876466E+00 -0.25540804262E+00  0.20789646104E+02  0.20806991094E+02  0.00000000000E+00 0. -1.
</event>
<event>
 7    1  0.2639126E-011  0.5052886E+02  0.7816164E-02  0.1300439E+00
        -11   -1    0    0    0    0  0.00000000000E+00  0.00000000000E+00  0.45593999997E+02  0.45594000000E+02  0.51100000000E-03 0.  1.
         11   -1    0    0    0    0 -0.00000000000E+00 -0.00000000000E+00 -0.45593999997E+02  0.45594000000E+02  0.51100000000E-03 0. -1.
    9900012    2    1    2    0    0 -0.39664835067E+02 -0.82487327021E+01 -0.34386993977E+01  0.50528863442E+02  0.30000010918E+02 0.  0.
         12    1    1    2    0    0  0.39664835067E+02  0.82487327021E+01  0.34386993977E+01  0.40659136558E+02  0.00000000000E+00 0. -1.
         11    1    3    3    0    0 -0.19035855431E+02 -0.19147952970E+01 -0.12925145712E+01  0.19175526777E+02  0.51100000000E-03 0. -1.
        -11    1    3    3    0    0 -0.18851706320E+02  0.24207631365E+01  0.52912459378E+01  0.19729272901E+02  0.51100000000E-03 0.  1.
         12    1    3    3    0    0 -0.17772733164E+01 -0.87547005416E+01 -0.74374307643E+01  0.11624063764E+02  0.00000000000E+00 0. -1.
</event>
<event>
 7    1  0.2639126E-011  0.5052888E+02  0.7816164E-02  0.1300439E+00
        -11   -1    0    0    0    0  0.00000000000E+00  0.00000000000E+00  0.45593999997E+02  0.45594000000E+02  0.51100000000E-03 0.  1.
         11   -1    0    0    0    0 -0.00000000000E+00 -0.00000000000E+00 -0.45593999997E+02  0.45594000000E+02  0.51100000000E-03 0. -1.
    9900012    2    1    2    0    0  0.34845463437E+02  0.77991137508E+01  0.19445599152E+02  0.50528882648E+02  0.30000069296E+02 0.  0.
         12    1    1    2    0    0 -0.34845463437E+02 -0.77991137508E+01 -0.19445599152E+02  0.40659117352E+02  0.00000000000E+00 0. -1.
         11    1    3    3    0    0  0.10498161581E+02 -0.22464359899E+01  0.15339839710E+02  0.18723476008E+02  0.51100000000E-03 0. -1.
        -11    1    3    3    0    0  0.13776911256E+02  0.10507700999E+02  0.96789532434E+01  0.19846843582E+02  0.51100000000E-03 0.  1.
         12    1    3    3    0    0  0.10570390601E+02 -0.46215125803E+00 -0.55731938017E+01  0.11958563057E+02  0.00000000000E+00 0. -1.
</event>
<event>
 7    1  0.2639126E-011  0.5052887E+02  0.7816164E-02  0.1300439E+00
        -11   -1    0    0    0    0  0.00000000000E+00  0.00000000000E+00  0.45593999997E+02  0.45594000000E+02  0.51100000000E-03 0.  1.
         11   -1    0    0    0    0 -0.00000000000E+00 -0.00000000000E+00 -0.45593999997E+02  0.45594000000E+02  0.51100000000E-03 0. -1.
    9900012    2    1    2    0    0  0.15306462103E+02 -0.13480864282E+02  0.35173050017E+02  0.50528869028E+02  0.30000027897E+02 0.  0.
         12    1    1    2    0    0 -0.15306462103E+02  0.13480864282E+02 -0.35173050017E+02  0.40659130972E+02  0.00000000000E+00 0. -1.
         11    1    3    3    0    0 -0.18952478926E+01 -0.30100446102E+01  0.25693645914E+02  0.25938692599E+02  0.51100000000E-03 0. -1.
        -11    1    3    3    0    0  0.21203036230E+01 -0.45128204531E+01 -0.12573350296E+01  0.51421909274E+01  0.51100000000E-03 0.  1.
        -12    1    3    3    0    0  0.15081406373E+02 -0.59579992188E+01  0.10736739133E+02  0.19447985502E+02  0.00000000000E+00 0.  1.
</event>
<event>
 7    1  0.2639126E-011  0.5052886E+02  0.7816164E-02  0.1300439E+00
        -11   -1    0    0    0    0  0.00000000000E+00  0.00000000000E+00  0.45593999997E+02  0.45594000000E+02  0.51100000000E-03 0.  1.
         11   -1    0    0    0    0 -0.00000000000E+00 -0.00000000000E+00 -0.45593999997E+02  0.45594000000E+02  0.51100000000E-03 0. -1.
    9900012    2    1    2    0    0 -0.22123838322E+02 -0.17967165603E+02  0.28997978133E+02  0.50528855915E+02  0.29999988039E+02 0.  0.
         12    1    1    2    0    0  0.22123838322E+02  0.17967165603E+02 -0.28997978133E+02  0.40659144085E+02  0.00000000000E+00 0. -1.
         11    1    3    3    0    0 -0.48635080191E+01  0.27361362609E+01  0.62245918246E+01  0.83597664761E+01  0.51100000000E-03 0. -1.
        -11    1    3    3    0    0 -0.59641002592E+01  0.46682363650E+01  0.64951131746E+01  0.99774454683E+01  0.51100000000E-03 0.  1.
         12    1    3    3    0    0 -0.11296230044E+02 -0.25371538229E+02  0.16278273134E+02  0.32191643971E+02  0.00000000000E+00 0. -1.
</event>
<event>
 7    1  0.2639126E-011  0.5052887E+02  0.7816164E-02  0.1300439E+00
        -11   -1    0    0    0    0  0.00000000000E+00  0.00000000000E+00  0.45593999997E+02  0.45594000000E+02  0.51100000000E-03 0.  1.
         11   -1    0    0    0    0 -0.00000000000E+00 -0.00000000000E+00 -0.45593999997E+02  0.45594000000E+02  0.51100000000E-03 0. -1.
    9900012    2    1    2    0    0 -0.31398549856E+02  0.11365506043E+02  0.23197435330E+02  0.50528872285E+02  0.30000037796E+02 0.  0.
         12    1    1    2    0    0  0.31398549856E+02 -0.11365506043E+02 -0.23197435330E+02  0.40659127715E+02  0.00000000000E+00 0. -1.
         11    1    3    3    0    0 -0.32982450896E+01  0.75988204631E+00  0.11230680295E+02  0.11729621543E+02  0.51100000000E-03 0. -1.
        -11    1    3    3    0    0 -0.31068206702E+02  0.66586619135E+01  0.11680312173E+02  0.33852635627E+02  0.51100000000E-03 0.  1.
         12    1    3    3    0    0  0.29679019351E+01  0.39469620832E+01  0.28644286195E+00  0.49466151150E+01  0.00000000000E+00 0. -1.
</event>
<event>
 7    1  0.2639126E-011  0.5052886E+02  0.7816164E-02  0.1300439E+00
        -11   -1    0    0    0    0  0.00000000000E+00  0.00000000000E+00  0.45593999997E+02  0.45594000000E+02  0.51100000000E-03 0.  1.
         11   -1    0    0    0    0 -0.00000000000E+00 -0.00000000000E+00 -0.45593999997E+02  0.45594000000E+02  0.51100000000E-03 0. -1.
    9900012    2    1    2    0    0  0.37020023109E+02  0.96915340082E+01  0.13738923809E+02  0.50528856257E+02  0.29999989080E+02 0.  0.
         12    1    1    2    0    0 -0.37020023109E+02 -0.96915340082E+01 -0.13738923809E+02  0.40659143743E+02  0.00000000000E+00 0. -1.
         11    1    3    3    0    0  0.52122652700E+01  0.90114102885E+01 -0.29793077020E+01  0.10828180793E+02  0.51100000000E-03 0. -1.
        -11    1    3    3    0    0  0.20997160344E+02  0.66185608456E+01  0.47663183047E+01  0.22525627197E+02  0.51100000000E-03 0.  1.
         12    1    3    3    0    0  0.10810597496E+02 -0.59384371260E+01  0.11951913206E+02  0.17175048268E+02  0.00000000000E+00 0. -1.
</event>
<event>
 7    1  0.2639126E-011  0.5052897E+02  0.7816164E-02  0.1300438E+00
        -11   -1    0    0    0    0  0.00000000000E+00  0.00000000000E+00  0.45593999997E+02  0.45594000000E+02  0.51100000000E-03 0. -1.
         11   -1    0    0    0    0 -0.00000000000E+00 -0.00000000000E+00 -0.45593999997E+02  0.45594000000E+02  0.51100000000E-03 0.  1.
    9900012    2    1    2    0    0 -0.30573504298E+01  0.17899961485E+02 -0.36378579864E+02  0.50528965509E+02  0.30000321159E+02 0.  0.
         12    1    1    2    0    0  0.30573504298E+01 -0.17899961485E+02  0.36378579864E+02  0.40659034491E+02  0.00000000000E+00 0. -1.
         11    1    3    3    0    0  0.21389201398E+01 -0.61425461705E+01 -0.10017835050E+02  0.11944156403E+02  0.51100000000E-03 0. -1.
        -11    1    3    3    0    0  0.90935870709E+00  0.17086572738E+01  0.14346991059E+01  0.24093162356E+01  0.51100000000E-03 0.  1.
        -12    1    3    3    0    0 -0.61056292766E+01  0.22333850381E+02 -0.27795443920E+02  0.36175492871E+02  0.00000000000E+00 0.  1.
</event>
<event>
 7    1  0.2639126E-011  0.5052883E+02  0.7816164E-02  0.1300439E+00
        -11   -1    0    0    0    0  0.00000000000E+00  0.00000000000E+00  0.45593999997E+02  0.45594000000E+02  0.51100000000E-03 0.  1.
         11   -1    0    0    0    0 -0.00000000000E+00 -0.00000000000E+00 -0.45593999997E+02  0.45594000000E+02  0.51100000000E-03 0. -1.
    9900012    2    1    2    0    0  0.34227402040E+02  0.21915497778E+02  0.11678138656E+01  0.50528832737E+02  0.29999917588E+02 0.  0.
         12    1    1    2    0    0 -0.34227402040E+02 -0.21915497778E+02 -0.11678138656E+01  0.40659167263E+02  0.00000000000E+00 0. -1.
         11    1    3    3    0    0 -0.20631779764E+01  0.11123940045E+02 -0.73132769617E+00  0.11337265364E+02  0.51100000000E-03 0. -1.
        -11    1    3    3    0    0  0.35321499503E+01  0.45473534700E+01  0.90368302827E+00  0.58284775139E+01  0.51100000000E-03 0.  1.
        -12    1    3    3    0    0  0.32758430066E+02  0.62442042637E+01  0.99545853346E+00  0.33363089859E+02  0.00000000000E+00 0.  1.
</event>
<event>
 7    1  0.2639126E-011  0.5052888E+02  0.7816164E-02  0.1300439E+00
        -11   -1    0    0    0    0  0.00000000000E+00  0.00000000000E+00  0.45593999997E+02  0.45594000000E+02  0.51100000000E-03 0.  1.
         11   -1    0    0    0    0 -0.00000000000E+00 -0.00000000000E+00 -0.45593999997E+02  0.45594000000E+02  0.51100000000E-03 0. -1.
    9900012    2    1    2    0    0  0.77908848174E+01  0.13264717484E+02  0.37636592021E+02  0.50528884476E+02  0.30000074854E+02 0.  0.
         12    1    1    2    0    0 -0.77908848174E+01 -0.13264717484E+02 -0.37636592021E+02  0.40659115524E+02  0.00000000000E+00 0. -1.
         11    1    3    3    0    0  0.97451843173E+01 -0.26374510586E+01  0.16312852815E+02  0.19184210505E+02  0.51100000000E-03 0. -1.
        -11    1    3    3    0    0  0.21615705092E+01  0.10775970518E+02  0.23157549213E+01  0.11231947684E+02  0.51100000000E-03 0.  1.
        -12    1    3    3    0    0 -0.41158700091E+01  0.51261980252E+01  0.19007984285E+02  0.20112726287E+02  0.00000000000E+00 0.  1.
</event>
<event>
 7    1  0.2639126E-011  0.5052893E+02  0.7816164E-02  0.1300439E+00
        -11   -1    0    0    0    0  0.00000000000E+00  0.00000000000E+00  0.45593999997E+02  0.45594000000E+02  0.51100000000E-03 0.  1.
         11   -1    0    0    0    0 -0.00000000000E+00 -0.00000000000E+00 -0.45593999997E+02  0.45594000000E+02  0.51100000000E-03 0. -1.
    9900012    2    1    2    0    0  0.32890476527E+02  0.75898043788E+01  0.22666530952E+02  0.50528927186E+02  0.30000204674E+02 0.  0.
         12    1    1    2    0    0 -0.32890476527E+02 -0.75898043788E+01 -0.22666530952E+02  0.40659072814E+02  0.00000000000E+00 0. -1.
         11    1    3    3    0    0  0.71558059524E+01 -0.16597963845E+01 -0.42333288477E+01  0.84782991372E+01  0.51100000000E-03 0. -1.
        -11    1    3    3    0    0  0.12901325781E+02 -0.45644064131E+00  0.30237751297E+01  0.13258799390E+02  0.51100000000E-03 0.  1.
        -12    1    3    3    0    0  0.12833344794E+02  0.97060414046E+01  0.23876084670E+02  0.28791828659E+02  0.00000000000E+00 0.  1.
</event>
<event>
 7    1  0.2639126E-011  0.5052884E+02  0.7816164E-02  0.1300439E+00
        -11   -1    0    0    0    0  0.00000000000E+00  0.00000000000E+00  0.45593999997E+02  0.45594000000E+02  0.51100000000E-03 0.  1.
         11   -1    0    0    0    0 -0.00000000000E+00 -0.00000000000E+00 -0.45593999997E+02  0.45594000000E+02  0.51100000000E-03 0. -1.
    9900012    2    1    2    0    0 -0.50773160172E+01  0.25594521657E+02  0.31181865487E+02  0.50528838523E+02  0.29999935174E+02 0.  0.
         12    1    1    2    0    0  0.50773160172E+01 -0.25594521657E+02 -0.31181865487E+02  0.40659161477E+02  0.00000000000E+00 0. -1.
         11    1    3    3    0    0 -0.24490666122E+01  0.65810265214E+01 -0.11213480959E+01  0.71109253378E+01  0.51100000000E-03 0. -1.
        -11    1    3    3    0    0 -0.20008005342E+01  0.15436985827E+02  0.57137195976E+01  0.16581626160E+02  0.51100000000E-03 0.  1.
         12    1    3    3    0    0 -0.62744887073E+00  0.35765093087E+01  0.26589493985E+02  0.26836287025E+02  0.00000000000E+00 0. -1.
</event>
<event>
 7    1  0.2639126E-011  0.5052886E+02  0.7816164E-02  0.1300439E+00
        -11   -1    0    0    0    0  0.00000000000E+00  0.00000000000E+00  0.45593999997E+02  0.45594000000E+02  0.51100000000E-03 0.  1.
         11   -1    0    0    0    0 -0.00000000000E+00 -0.00000000000E+00 -0.45593999997E+02  0.45594000000E+02  0.51100000000E-03 0. -1.
    9900012    2    1    2    0    0 -0.92204612563E+01 -0.34256260348E+02 -0.19865976777E+02  0.50528864346E+02  0.30000013667E+02 0.  0.
         12    1    1    2    0    0  0.92204612563E+01  0.34256260348E+02  0.19865976777E+02  0.40659135654E+02  0.00000000000E+00 0. -1.
         11    1    3    3    0    0 -0.66449991154E+01 -0.13345447508E+02 -0.18299157654E+02  0.23603308106E+02  0.51100000000E-03 0. -1.
        -11    1    3    3    0    0 -0.27552890358E+01 -0.13360268977E+02 -0.89886327350E+01  0.16336582369E+02  0.51100000000E-03 0.  1.
        -12    1    3    3    0    0  0.17982689485E+00 -0.75505438636E+01  0.74218136123E+01  0.10588973871E+02  0.00000000000E+00 0.  1.
</event>
<event>
 7    1  0.2639126E-011  0.5052886E+02  0.7816164E-02  0.1300439E+00
        -11   -1    0    0    0    0  0.00000000000E+00  0.00000000000E+00  0.45593999997E+02  0.45594000000E+02  0.51100000000E-03 0.  1.
         11   -1    0    0    0    0 -0.00000000000E+00 -0.00000000000E+00 -0.45593999997E+02  0.45594000000E+02  0.51100000000E-03 0. -1.
    9900012    2    1    2    0    0  0.33168129317E+02  0.76913635307E+01  0.22223495332E+02  0.50528860558E+02  0.30000002153E+02 0.  0.
         12    1    1    2    0    0 -0.33168129317E+02 -0.76913635307E+01 -0.22223495332E+02  0.40659139442E+02  0.00000000000E+00 0. -1.
         11    1    3    3    0    0  0.79671967013E+00 -0.16468657394E+01  0.73573776717E+00  0.19718618916E+01  0.51100000000E-03 0.  1.
        -11    1    3    3    0    0  0.62082164289E+01  0.97815753001E+01  0.19024338658E+02  0.22274349109E+02  0.51100000000E-03 0. -1.
         12    1    3    3    0    0  0.26163193218E+02 -0.44334602999E+00  0.24634189069E+01  0.26282649558E+02  0.00000000000E+00 0. -1.
</event>
<event>
 7    1  0.2639126E-011  0.5052886E+02  0.7816164E-02  0.1300439E+00
        -11   -1    0    0    0    0  0.00000000000E+00  0.00000000000E+00  0.45593999997E+02  0.45594000000E+02  0.51100000000E-03 0.  1.
         11   -1    0    0    0    0 -0.00000000000E+00 -0.00000000000E+00 -0.45593999997E+02  0.45594000000E+02  0.51100000000E-03 0. -1.
    9900012    2    1    2    0    0 -0.28229152672E+02 -0.80885813014E+01  0.28122150342E+02  0.50528861447E+02  0.30000004854E+02 0.  0.
         12    1    1    2    0    0  0.28229152672E+02  0.80885813014E+01 -0.28122150342E+02  0.40659138553E+02  0.00000000000E+00 0. -1.
         11    1    3    3    0    0 -0.35972018982E+01 -0.11895616434E+01  0.17241801946E+02  0.17653176854E+02  0.51100000000E-03 0. -1.
        -11    1    3    3    0    0 -0.15531970050E+02  0.18707168581E+01  0.12644367534E+02  0.20115210807E+02  0.51100000000E-03 0.  1.
         12    1    3    3    0    0 -0.90999807233E+01 -0.87697365161E+01 -0.17640191390E+01  0.12760473786E+02  0.00000000000E+00 0. -1.
</event>
<event>
 7    1  0.2639126E-011  0.5052886E+02  0.7816164E-02  0.1300439E+00
        -11   -1    0    0    0    0  0.00000000000E+00  0.00000000000E+00  0.45593999997E+02  0.45594000000E+02  0.51100000000E-03 0.  1.
         11   -1    0    0    0    0 -0.00000000000E+00 -0.00000000000E+00 -0.45593999997E+02  0.45594000000E+02  0.51100000000E-03 0. -1.
    9900012    2    1    2    0    0 -0.20914549234E+02  0.19412078777E+02  0.28964086258E+02  0.50528862468E+02  0.30000007958E+02 0.  0.
         12    1    1    2    0    0  0.20914549234E+02 -0.19412078777E+02 -0.28964086258E+02  0.40659137532E+02  0.00000000000E+00 0. -1.
         11    1    3    3    0    0 -0.80632428278E+01 -0.15393481485E+01  0.98436812668E+01  0.12817314023E+02  0.51100000000E-03 0. -1.
        -11    1    3    3    0    0 -0.13175320971E+02  0.37514381868E+01  0.14394486844E+02  0.19871175681E+02  0.51100000000E-03 0.  1.
        -12    1    3    3    0    0  0.32401456511E+00  0.17199988738E+02  0.47259181467E+01  0.17840372764E+02  0.00000000000E+00 0.  1.
</event>
<event>
 7    1  0.2639126E-011  0.5052887E+02  0.7816164E-02  0.1300439E+00
        -11   -1    0    0    0    0  0.00000000000E+00  0.00000000000E+00  0.45593999997E+02  0.45594000000E+02  0.51100000000E-03 0.  1.
         11   -1    0    0    0    0 -0.00000000000E+00 -0.00000000000E+00 -0.45593999997E+02  0.45594000000E+02  0.51100000000E-03 0. -1.
    9900012    2    1    2    0    0  0.31570304579E+02 -0.10477429679E+02  0.23381709747E+02  0.50528868005E+02  0.30000024788E+02 0.  0.
         12    1    1    2    0    0 -0.31570304579E+02  0.10477429679E+02 -0.23381709747E+02  0.40659131995E+02  0.00000000000E+00 0. -1.
         11    1    3    3    0    0 -0.81312988989E+00 -0.43002182933E+01  0.25142461382E+01  0.50472261186E+01  0.51100000000E-03 0. -1.
        -11    1    3    3    0    0  0.10509030043E+02 -0.11727732248E+02  0.15890811848E+02  0.22371797370E+02  0.51100000000E-03 0.  1.
        -12    1    3    3    0    0  0.21874404426E+02  0.55505208616E+01  0.49766517606E+01  0.23109844516E+02  0.00000000000E+00 0.  1.
</event>
<event>
 7    1  0.2639126E-011  0.5052874E+02  0.7816164E-02  0.1300439E+00
        -11   -1    0    0    0    0  0.00000000000E+00  0.00000000000E+00  0.45593999997E+02  0.45594000000E+02  0.51100000000E-03 0.  1.
         11   -1    0    0    0    0 -0.00000000000E+00 -0.00000000000E+00 -0.45593999997E+02  0.45594000000E+02  0.51100000000E-03 0. -1.
    9900012    2    1    2    0    0 -0.31915701991E+02  0.46115067924E+01  0.24764836554E+02  0.50528743268E+02  0.29999645635E+02 0.  0.
         12    1    1    2    0    0  0.31915701991E+02 -0.46115067924E+01 -0.24764836554E+02  0.40659256732E+02  0.00000000000E+00 0. -1.
         11    1    3    3    0    0 -0.86475845843E+01  0.55616689983E+01  0.18615701238E+02  0.21266339930E+02  0.51100000000E-03 0. -1.
        -11    1    3    3    0    0 -0.78031546299E+01  0.45036752632E+00  0.10543178688E+02  0.13124430281E+02  0.51100000000E-03 0.  1.
        -12    1    3    3    0    0 -0.15464962777E+02 -0.14005297322E+01 -0.43940433726E+01  0.16137973057E+02  0.00000000000E+00 0.  1.
</event>
<event>
 7    1  0.2639126E-011  0.5052886E+02  0.7816164E-02  0.1300439E+00
        -11   -1    0    0    0    0  0.00000000000E+00  0.00000000000E+00  0.45593999997E+02  0.45594000000E+02  0.51100000000E-03 0.  1.
         11   -1    0    0    0    0 -0.00000000000E+00 -0.00000000000E+00 -0.45593999997E+02  0.45594000000E+02  0.51100000000E-03 0. -1.
    9900012    2    1    2    0    0  0.77076076520E+01  0.39812859981E+02 -0.29486373093E+01  0.50528862066E+02  0.30000006735E+02 0.  0.
         12    1    1    2    0    0 -0.77076076520E+01 -0.39812859981E+02  0.29486373093E+01  0.40659137934E+02  0.00000000000E+00 0. -1.
         11    1    3    3    0    0  0.11808976753E+01  0.55547696702E+01 -0.75934095154E+01  0.94820806651E+01  0.51100000000E-03 0. -1.
        -11    1    3    3    0    0  0.19598158946E+01  0.23470043742E+02 -0.69584798922E+01  0.24558181412E+02  0.51100000000E-03 0.  1.
         12    1    3    3    0    0  0.45668940821E+01  0.10788046569E+02  0.11603252098E+02  0.16488599989E+02  0.00000000000E+00 0. -1.
</event>
<event>
 7    1  0.2639126E-011  0.5052886E+02  0.7816164E-02  0.1300439E+00
        -11   -1    0    0    0    0  0.00000000000E+00  0.00000000000E+00  0.45593999997E+02  0.45594000000E+02  0.51100000000E-03 0. -1.
         11   -1    0    0    0    0 -0.00000000000E+00 -0.00000000000E+00 -0.45593999997E+02  0.45594000000E+02  0.51100000000E-03 0.  1.
    9900012    2    1    2    0    0  0.79792988640E+00 -0.32200568483E+02 -0.24812339344E+02  0.50528862203E+02  0.30000007151E+02 0.  0.
         12    1    1    2    0    0 -0.79792988640E+00  0.32200568483E+02  0.24812339344E+02  0.40659137797E+02  0.00000000000E+00 0. -1.
         11    1    3    3    0    0  0.10611130392E+01 -0.26486173290E+02 -0.18066172196E+02  0.32078496138E+02  0.51100000000E-03 0. -1.
        -11    1    3    3    0    0  0.68115834118E+01 -0.52238366531E+01  0.11214974641E+00  0.85847956167E+01  0.51100000000E-03 0.  1.
         12    1    3    3    0    0 -0.70747665646E+01 -0.49055853940E+00 -0.68583168949E+01  0.98655704475E+01  0.00000000000E+00 0. -1.
</event>
<event>
 7    1  0.2639126E-011  0.5052886E+02  0.7816164E-02  0.1300439E+00
        -11   -1    0    0    0    0  0.00000000000E+00  0.00000000000E+00  0.45593999997E+02  0.45594000000E+02  0.51100000000E-03 0.  1.
         11   -1    0    0    0    0 -0.00000000000E+00 -0.00000000000E+00 -0.45593999997E+02  0.45594000000E+02  0.51100000000E-03 0. -1.
    9900012    2    1    2    0    0 -0.24268901954E+02 -0.30302722657E+02  0.12080178567E+02  0.50528864289E+02  0.30000013494E+02 0.  0.
         12    1    1    2    0    0  0.24268901954E+02  0.30302722657E+02 -0.12080178567E+02  0.40659135711E+02  0.00000000000E+00 0. -1.
         11    1    3    3    0    0 -0.14108450707E+02 -0.90845793929E+01  0.20499931827E+01  0.16905041745E+02  0.51100000000E-03 0. -1.
        -11    1    3    3    0    0 -0.13390032392E+02 -0.56543089233E+01  0.10149754731E+02  0.17727991940E+02  0.51100000000E-03 0.  1.
        -12    1    3    3    0    0  0.32295811447E+01 -0.15563834341E+02 -0.11956934624E+00  0.15895830604E+02  0.00000000000E+00 0.  1.
</event>
<event>
 7    1  0.2639126E-011  0.5052883E+02  0.7816164E-02  0.1300439E+00
        -11   -1    0    0    0    0  0.00000000000E+00  0.00000000000E+00  0.45593999997E+02  0.45594000000E+02  0.51100000000E-03 0. -1.
         11   -1    0    0    0    0 -0.00000000000E+00 -0.00000000000E+00 -0.45593999997E+02  0.45594000000E+02  0.51100000000E-03 0.  1.
    9900012    2    1    2    0    0  0.34830246698E+02 -0.44991249524E+01  0.20488538561E+02  0.50528826093E+02  0.29999897393E+02 0.  0.
         12    1    1    2    0    0 -0.34830246698E+02  0.44991249524E+01 -0.20488538561E+02  0.40659173907E+02  0.00000000000E+00 0. -1.
         11    1    3    3    0    0  0.50115825005E+01 -0.92239013514E+01  0.76283463462E+01  0.12976439556E+02  0.51100000000E-03 0.  1.
        -11    1    3    3    0    0  0.24592527970E+02  0.22692885738E+01  0.17396849980E+02  0.30209145835E+02  0.51100000000E-03 0. -1.
         12    1    3    3    0    0  0.52261362284E+01  0.24554878252E+01 -0.45366577655E+01  0.73432407028E+01  0.00000000000E+00 0. -1.
</event>
<event>
 7    1  0.2639126E-011  0.5052886E+02  0.7816164E-02  0.1300439E+00
        -11   -1    0    0    0    0  0.00000000000E+00  0.00000000000E+00  0.45593999997E+02  0.45594000000E+02  0.51100000000E-03 0. -1.
         11   -1    0    0    0    0 -0.00000000000E+00 -0.00000000000E+00 -0.45593999997E+02  0.45594000000E+02  0.51100000000E-03 0.  1.
    9900012    2    1    2    0    0  0.39688650348E+02 -0.52757362202E+01  0.70811891908E+01  0.50528860812E+02  0.30000002926E+02 0.  0.
         12    1    1    2    0    0 -0.39688650348E+02  0.52757362202E+01 -0.70811891908E+01  0.40659139188E+02  0.00000000000E+00 0. -1.
         11    1    3    3    0    0  0.23501065856E+02 -0.75294792160E+01  0.65661939346E+01  0.25536406495E+02  0.51100000000E-03 0. -1.
        -11    1    3    3    0    0  0.18309303153E+02 -0.28148200697E+01 -0.25525614275E+01  0.18699448229E+02  0.51100000000E-03 0.  1.
         12    1    3    3    0    0 -0.21217186605E+01  0.50685630656E+01  0.30675566836E+01  0.62930060886E+01  0.00000000000E+00 0. -1.
</event>
<event>
 7    1  0.2639126E-011  0.5052886E+02  0.7816164E-02  0.1300439E+00
        -11   -1    0    0    0    0  0.00000000000E+00  0.00000000000E+00  0.45593999997E+02  0.45594000000E+02  0.51100000000E-03 0. -1.
         11   -1    0    0    0    0 -0.00000000000E+00 -0.00000000000E+00 -0.45593999997E+02  0.45594000000E+02  0.51100000000E-03 0.  1.
    9900012    2    1    2    0    0  0.10890535122E+02  0.38773787597E+02 -0.55816903244E+01  0.50528860478E+02  0.30000001907E+02 0.  0.
         12    1    1    2    0    0 -0.10890535122E+02 -0.38773787597E+02  0.55816903244E+01  0.40659139522E+02  0.00000000000E+00 0. -1.
         11    1    3    3    0    0 -0.80711683010E+00  0.85920744938E+00  0.99845736296E+00  0.15448599889E+01  0.51100000000E-03 0. -1.
        -11    1    3    3    0    0  0.18963389890E+02  0.16207344654E+02 -0.75779822130E+01  0.26071325082E+02  0.51100000000E-03 0.  1.
        -12    1    3    3    0    0 -0.72657379382E+01  0.21707235493E+02  0.99783452567E+00  0.22912675406E+02  0.00000000000E+00 0.  1.
</event>
<event>
 7    1  0.2639126E-011  0.5052886E+02  0.7816164E-02  0.1300439E+00
        -11   -1    0    0    0    0  0.00000000000E+00  0.00000000000E+00  0.45593999997E+02  0.45594000000E+02  0.51100000000E-03 0.  1.
         11   -1    0    0    0    0 -0.00000000000E+00 -0.00000000000E+00 -0.45593999997E+02  0.45594000000E+02  0.51100000000E-03 0. -1.
    9900012    2    1    2    0    0 -0.31609113172E+02  0.37196500922E+00  0.25571303456E+02  0.50528856453E+02  0.29999989675E+02 0.  0.
         12    1    1    2    0    0  0.31609113172E+02 -0.37196500922E+00 -0.25571303456E+02  0.40659143547E+02  0.00000000000E+00 0. -1.
         11    1    3    3    0    0  0.44220669137E+00 -0.46370615737E+00  0.56299629456E+01  0.56663086034E+01  0.51100000000E-03 0. -1.
        -11    1    3    3    0    0  0.28672594495E+01  0.11421885090E+01 -0.19474599019E+01  0.36494344317E+01  0.51100000000E-03 0.  1.
        -12    1    3    3    0    0 -0.34918579313E+02 -0.30651734238E+00  0.21888800412E+02  0.41213113418E+02  0.00000000000E+00 0.  1.
</event>
<event>
 7    1  0.2639126E-011  0.5052887E+02  0.7816164E-02  0.1300439E+00
        -11   -1    0    0    0    0  0.00000000000E+00  0.00000000000E+00  0.45593999997E+02  0.45594000000E+02  0.51100000000E-03 0.  1.
         11   -1    0    0    0    0 -0.00000000000E+00 -0.00000000000E+00 -0.45593999997E+02  0.45594000000E+02  0.51100000000E-03 0. -1.
    9900012    2    1    2    0    0 -0.17289238183E+02  0.14241083862E+02  0.33932858748E+02  0.50528866594E+02  0.30000020500E+02 0.  0.
         12    1    1    2    0    0  0.17289238183E+02 -0.14241083862E+02 -0.33932858748E+02  0.40659133406E+02  0.00000000000E+00 0. -1.
         11    1    3    3    0    0 -0.14290411405E+02 -0.41925689459E+01  0.10692377210E+02  0.18333587296E+02  0.51100000000E-03 0. -1.
        -11    1    3    3    0    0 -0.16083760076E+01  0.51412539047E+01  0.16235448878E+02  0.17105822565E+02  0.51100000000E-03 0.  1.
        -12    1    3    3    0    0 -0.13904507707E+01  0.13292398903E+02  0.70050326598E+01  0.15089456733E+02  0.00000000000E+00 0.  1.
</event>
<event>
 7    1  0.2639126E-011  0.5052887E+02  0.7816164E-02  0.1300439E+00
        -11   -1    0    0    0    0  0.00000000000E+00  0.00000000000E+00  0.45593999997E+02  0.45594000000E+02  0.51100000000E-03 0.  1.
         11   -1    0    0    0    0 -0.00000000000E+00 -0.00000000000E+00 -0.45593999997E+02  0.45594000000E+02  0.51100000000E-03 0. -1.
    9900012    2    1    2    0    0  0.17402153046E+02  0.29939870521E+02  0.21305720986E+02  0.50528874035E+02  0.30000043117E+02 0.  0.
         12    1    1    2    0    0 -0.17402153046E+02 -0.29939870521E+02 -0.21305720986E+02  0.40659125965E+02  0.00000000000E+00 0. -1.
         11    1    3    3    0    0 -0.74179667830E+01  0.27623810942E+01  0.37475234060E+00  0.79244823227E+01  0.51100000000E-03 0. -1.
        -11    1    3    3    0    0  0.17572294127E+01  0.35435298931E+01  0.34081451402E+01  0.52211026488E+01  0.51100000000E-03 0.  1.
         12    1    3    3    0    0  0.23062890416E+02  0.23633959534E+02  0.17522823506E+02  0.37383289064E+02  0.00000000000E+00 0. -1.
</event>
<event>
 7    1  0.2639126E-011  0.5052884E+02  0.7816164E-02  0.1300439E+00
        -11   -1    0    0    0    0  0.00000000000E+00  0.00000000000E+00  0.45593999997E+02  0.45594000000E+02  0.51100000000E-03 0. -1.
         11   -1    0    0    0    0 -0.00000000000E+00 -0.00000000000E+00 -0.45593999997E+02  0.45594000000E+02  0.51100000000E-03 0.  1.
    9900012    2    1    2    0    0 -0.91869436072E+01 -0.39228561538E+02  0.54669293499E+01  0.50528840027E+02  0.29999939745E+02 0.  0.
         12    1    1    2    0    0  0.91869436072E+01  0.39228561538E+02 -0.54669293499E+01  0.40659159973E+02  0.00000000000E+00 0. -1.
         11    1    3    3    0    0 -0.81903513436E+01 -0.89215463321E+01 -0.52614623103E+01  0.13204500369E+02  0.51100000000E-03 0. -1.
        -11    1    3    3    0    0  0.25737874249E+01 -0.65285967155E+01 -0.49781695931E+01  0.86040182207E+01  0.51100000000E-03 0.  1.
         12    1    3    3    0    0 -0.35703796886E+01 -0.23778418491E+02  0.15706561253E+02  0.28720321437E+02  0.00000000000E+00 0. -1.
</event>
<event>
 7    1  0.2639126E-011  0.5052886E+02  0.7816164E-02  0.1300439E+00
        -11   -1    0    0    0    0  0.00000000000E+00  0.00000000000E+00  0.45593999997E+02  0.45594000000E+02  0.51100000000E-03 0. -1.
         11   -1    0    0    0    0 -0.00000000000E+00 -0.00000000000E+00 -0.45593999997E+02  0.45594000000E+02  0.51100000000E-03 0.  1.
    9900012    2    1    2    0    0 -0.30643944505E+02 -0.26282028374E+02 -0.48341706401E+01  0.50528861347E+02  0.30000004550E+02 0.  0.
         12    1    1    2    0    0  0.30643944505E+02  0.26282028374E+02  0.48341706401E+01  0.40659138653E+02  0.00000000000E+00 0. -1.
         11    1    3    3    0    0 -0.16672606497E+02 -0.13136224804E+02 -0.59278440258E+01  0.22038047657E+02  0.51100000000E-03 0.  1.
        -11    1    3    3    0    0 -0.61007278168E+01 -0.13102091489E+02 -0.79554711406E+01  0.16497672642E+02  0.51100000000E-03 0. -1.
         12    1    3    3    0    0 -0.78706101910E+01 -0.43712081182E-01  0.90491445263E+01  0.11993141047E+02  0.00000000000E+00 0. -1.
</event>
<event>
 7    1  0.2639126E-011  0.5052886E+02  0.7816164E-02  0.1300439E+00
        -11   -1    0    0    0    0  0.00000000000E+00  0.00000000000E+00  0.45593999997E+02  0.45594000000E+02  0.51100000000E-03 0. -1.
         11   -1    0    0    0    0 -0.00000000000E+00 -0.00000000000E+00 -0.45593999997E+02  0.45594000000E+02  0.51100000000E-03 0.  1.
    9900012    2    1    2    0    0 -0.34907424764E+02 -0.12783402119E+02 -0.16468818754E+02  0.50528860012E+02  0.30000000493E+02 0.  0.
         12    1    1    2    0    0  0.34907424764E+02  0.12783402119E+02  0.16468818754E+02  0.40659139988E+02  0.00000000000E+00 0. -1.
         11    1    3    3    0    0 -0.52489158088E+01  0.90853115678E+00 -0.83183765201E+01  0.98778506884E+01  0.51100000000E-03 0. -1.
        -11    1    3    3    0    0 -0.24000958881E+02 -0.17415592917E+02 -0.12941487119E+02  0.32354767701E+02  0.51100000000E-03 0.  1.
         12    1    3    3    0    0 -0.56575500746E+01  0.37236596415E+01  0.47910448854E+01  0.82962416230E+01  0.00000000000E+00 0. -1.
</event>
<event>
 7    1  0.2639126E-011  0.5052886E+02  0.7816164E-02  0.1300439E+00
        -11   -1    0    0    0    0  0.00000000000E+00  0.00000000000E+00  0.45593999997E+02  0.45594000000E+02  0.51100000000E-03 0. -1.
         11   -1    0    0    0    0 -0.00000000000E+00 -0.00000000000E+00 -0.45593999997E+02  0.45594000000E+02  0.51100000000E-03 0.  1.
    9900012    2    1    2    0    0  0.24053549924E+02  0.17296931930E+02 -0.27846161798E+02  0.50528857793E+02  0.29999993747E+02 0.  0.
         12    1    1    2    0    0 -0.24053549924E+02 -0.17296931930E+02  0.27846161798E+02  0.40659142207E+02  0.00000000000E+00 0. -1.
         11    1    3    3    0    0 -0.82863371061E+00  0.10577265349E+02 -0.11681203217E+02  0.15780230827E+02  0.51100000000E-03 0. -1.
        -11    1    3    3    0    0  0.68246248834E+01  0.42120407280E+01 -0.14335397892E+02  0.16426211519E+02  0.51100000000E-03 0.  1.
         12    1    3    3    0    0  0.18057558752E+02  0.25076258528E+01 -0.18295606891E+01  0.18322415447E+02  0.00000000000E+00 0. -1.
</event>
<event>
 7    1  0.2639126E-011  0.5052885E+02  0.7816164E-02  0.1300439E+00
        -11   -1    0    0    0    0  0.00000000000E+00  0.00000000000E+00  0.45593999997E+02  0.45594000000E+02  0.51100000000E-03 0.  1.
         11   -1    0    0    0    0 -0.00000000000E+00 -0.00000000000E+00 -0.45593999997E+02  0.45594000000E+02  0.51100000000E-03 0. -1.
    9900012    2    1    2    0    0  0.22607860390E+01  0.81656881033E+01  0.39766524686E+02  0.50528854641E+02  0.29999984166E+02 0.  0.
         12    1    1    2    0    0 -0.22607860390E+01 -0.81656881033E+01 -0.39766524686E+02  0.40659145359E+02  0.00000000000E+00 0. -1.
         11    1    3    3    0    0  0.65732925216E+01  0.98024168415E+01  0.11070986003E+02  0.16182159369E+02  0.51100000000E-03 0. -1.
        -11    1    3    3    0    0  0.53750227367E+01 -0.15509594860E+01  0.21667465039E+02  0.22378011222E+02  0.51100000000E-03 0.  1.
        -12    1    3    3    0    0 -0.96875292193E+01 -0.85769252213E-01  0.70280736439E+01  0.11968684050E+02  0.00000000000E+00 0.  1.
</event>
<event>
 7    1  0.2639126E-011  0.5052886E+02  0.7816164E-02  0.1300439E+00
        -11   -1    0    0    0    0  0.00000000000E+00  0.00000000000E+00  0.45593999997E+02  0.45594000000E+02  0.51100000000E-03 0. -1.
         11   -1    0    0    0    0 -0.00000000000E+00 -0.00000000000E+00 -0.45593999997E+02  0.45594000000E+02  0.51100000000E-03 0.  1.
    9900012    2    1    2    0    0  0.40147443030E+02 -0.61017264589E+01  0.20290876923E+01  0.50528862718E+02  0.30000008717E+02 0.  0.
         12    1    1    2    0    0 -0.40147443030E+02  0.61017264589E+01 -0.20290876923E+01  0.40659137282E+02  0.00000000000E+00 0. -1.
         11    1    3    3    0    0 -0.16525528108E+01 -0.41594892908E+01  0.16032193450E+01  0.47542185985E+01  0.51100000000E-03 0. -1.
        -11    1    3    3    0    0  0.21737090623E+02  0.82668413013E+01  0.57596994657E+00  0.23263136407E+02  0.51100000000E-03 0.  1.
         12    1    3    3    0    0  0.20062905218E+02 -0.10209078469E+02 -0.15010159932E+00  0.22511507712E+02  0.00000000000E+00 0. -1.
</event>
<event>
 7    1  0.2639126E-011  0.5052886E+02  0.7816164E-02  0.1300439E+00
        -11   -1    0    0    0    0  0.00000000000E+00  0.00000000000E+00  0.45593999997E+02  0.45594000000E+02  0.51100000000E-03 0. -1.
         11   -1    0    0    0    0 -0.00000000000E+00 -0.00000000000E+00 -0.45593999997E+02  0.45594000000E+02  0.51100000000E-03 0.  1.
    9900012    2    1    2    0    0  0.19311824085E+01 -0.40376981908E+02  0.43743966368E+01  0.50528862289E+02  0.30000007413E+02 0.  0.
         12    1    1    2    0    0 -0.19311824085E+01  0.40376981908E+02 -0.43743966368E+01  0.40659137711E+02  0.00000000000E+00 0. -1.
         11    1    3    3    0    0  0.60016551873E+01 -0.17873714465E+01  0.35006813834E+01  0.71742129941E+01  0.51100000000E-03 0. -1.
        -11    1    3    3    0    0 -0.80675168556E+00 -0.87695060597E+01  0.86718637651E+01  0.12359462215E+02  0.51100000000E-03 0.  1.
        -12    1    3    3    0    0 -0.32637210932E+01 -0.29820104402E+02 -0.77981485118E+01  0.30995187080E+02  0.00000000000E+00 0.  1.
</event>
<event>
 7    1  0.2639126E-011  0.5052887E+02  0.7816164E-02  0.1300439E+00
        -11   -1    0    0    0    0  0.00000000000E+00  0.00000000000E+00  0.45593999997E+02  0.45594000000E+02  0.51100000000E-03 0.  1.
         11   -1    0    0    0    0 -0.00000000000E+00 -0.00000000000E+00 -0.45593999997E+02  0.45594000000E+02  0.51100000000E-03 0. -1.
    9900012    2    1    2    0    0 -0.81685756178E+01  0.17382690891E+02  0.35836875868E+02  0.50528865206E+02  0.30000016279E+02 0.  0.
         12    1    1    2    0    0  0.81685756178E+01 -0.17382690891E+02 -0.35836875868E+02  0.40659134794E+02  0.00000000000E+00 0. -1.
         11    1    3    3    0    0  0.23319338792E+01  0.30052054899E+01  0.18359992984E+02  0.18749893821E+02  0.51100000000E-03 0. -1.
        -11    1    3    3    0    0 -0.20334586452E+01  0.13616159716E+02  0.18667227177E+02  0.23194829816E+02  0.51100000000E-03 0.  1.
         12    1    3    3    0    0 -0.84670508519E+01  0.76132568511E+00 -0.11903442930E+01  0.85841415682E+01  0.00000000000E+00 0. -1.
</event>
<event>
 7    1  0.2639126E-011  0.5052889E+02  0.7816164E-02  0.1300439E+00
        -11   -1    0    0    0    0  0.00000000000E+00  0.00000000000E+00  0.45593999997E+02  0.45594000000E+02  0.51100000000E-03 0.  1.
         11   -1    0    0    0    0 -0.00000000000E+00 -0.00000000000E+00 -0.45593999997E+02  0.45594000000E+02  0.51100000000E-03 0. -1.
    9900012    2    1    2    0    0 -0.21479851780E+02 -0.34460420091E+02  0.20636144213E+01  0.50528891674E+02  0.30000096733E+02 0.  0.
         12    1    1    2    0    0  0.21479851780E+02  0.34460420091E+02 -0.20636144213E+01  0.40659108326E+02  0.00000000000E+00 0. -1.
         11    1    3    3    0    0 -0.48678939993E+01 -0.85128360077E+01  0.13455558049E+02  0.16649829175E+02  0.51100000000E-03 0. -1.
        -11    1    3    3    0    0 -0.52300172974E+01 -0.41707443491E+01  0.23848500522E+00  0.66936585449E+01  0.51100000000E-03 0.  1.
         12    1    3    3    0    0 -0.11381940483E+02 -0.21776839735E+02 -0.11630428633E+02  0.27185403955E+02  0.00000000000E+00 0. -1.
</event>
<event>
 7    1  0.2639126E-011  0.5052893E+02  0.7816164E-02  0.1300439E+00
        -11   -1    0    0    0    0  0.00000000000E+00  0.00000000000E+00  0.45593999997E+02  0.45594000000E+02  0.51100000000E-03 0.  1.
         11   -1    0    0    0    0 -0.00000000000E+00 -0.00000000000E+00 -0.45593999997E+02  0.45594000000E+02  0.51100000000E-03 0. -1.
    9900012    2    1    2    0    0  0.60708650941E+01 -0.37568387991E+02  0.14315040785E+02  0.50528934935E+02  0.30000228228E+02 0.  0.
         12    1    1    2    0    0 -0.60708650941E+01  0.37568387991E+02 -0.14315040785E+02  0.40659065065E+02  0.00000000000E+00 0. -1.
         11    1    3    3    0    0  0.84546224600E+01 -0.15588096953E+02  0.16070757526E+02  0.23931958869E+02  0.51100000000E-03 0. -1.
        -11    1    3    3    0    0  0.36830507991E+01 -0.54874672536E+01  0.44418779609E+01  0.79628788845E+01  0.51100000000E-03 0.  1.
        -12    1    3    3    0    0 -0.60668081650E+01 -0.16492823785E+02 -0.61975947018E+01  0.18634097182E+02  0.00000000000E+00 0.  1.
</event>
<event>
 7    1  0.2639126E-011  0.5052885E+02  0.7816164E-02  0.1300439E+00
        -11   -1    0    0    0    0  0.00000000000E+00  0.00000000000E+00  0.45593999997E+02  0.45594000000E+02  0.51100000000E-03 0.  1.
         11   -1    0    0    0    0 -0.00000000000E+00 -0.00000000000E+00 -0.45593999997E+02  0.45594000000E+02  0.51100000000E-03 0. -1.
    9900012    2    1    2    0    0  0.17141888171E+02 -0.14013043079E+02  0.34102149762E+02  0.50528851893E+02  0.29999975814E+02 0.  0.
         12    1    1    2    0    0 -0.17141888171E+02  0.14013043079E+02 -0.34102149762E+02  0.40659148107E+02  0.00000000000E+00 0. -1.
         11    1    3    3    0    0  0.27364106382E+01 -0.13752035795E+00  0.71763807528E+01  0.76816206624E+01  0.51100000000E-03 0. -1.
        -11    1    3    3    0    0  0.22186195329E+01  0.74241819412E+01  0.11483061727E+02  0.13852850141E+02  0.51100000000E-03 0.  1.
         12    1    3    3    0    0  0.12186858000E+02 -0.21299704662E+02  0.15442707282E+02  0.28994381090E+02  0.00000000000E+00 0. -1.
</event>
<event>
 7    1  0.2639126E-011  0.5052886E+02  0.7816164E-02  0.1300439E+00
        -11   -1    0    0    0    0  0.00000000000E+00  0.00000000000E+00  0.45593999997E+02  0.45594000000E+02  0.51100000000E-03 0.  1.
         11   -1    0    0    0    0 -0.00000000000E+00 -0.00000000000E+00 -0.45593999997E+02  0.45594000000E+02  0.51100000000E-03 0. -1.
    9900012    2    1    2    0    0 -0.29175169701E+02  0.14151589178E+02  0.24529735808E+02  0.50528856599E+02  0.29999990117E+02 0.  0.
         12    1    1    2    0    0  0.29175169701E+02 -0.14151589178E+02 -0.24529735808E+02  0.40659143401E+02  0.00000000000E+00 0. -1.
         11    1    3    3    0    0 -0.40998135983E+01 -0.26101512076E+00 -0.28622967001E+01  0.50069295077E+01  0.51100000000E-03 0. -1.
        -11    1    3    3    0    0 -0.78501737529E+01  0.16559690575E+01 -0.27977695624E+01  0.84967626926E+01  0.51100000000E-03 0.  1.
        -12    1    3    3    0    0 -0.17225182349E+02  0.12756635241E+02  0.30189802071E+02  0.37025164398E+02  0.00000000000E+00 0.  1.
</event>
<event>
 7    1  0.2639126E-011  0.5052886E+02  0.7816164E-02  0.1300439E+00
        -11   -1    0    0    0    0  0.00000000000E+00  0.00000000000E+00  0.45593999997E+02  0.45594000000E+02  0.51100000000E-03 0. -1.
         11   -1    0    0    0    0 -0.00000000000E+00 -0.00000000000E+00 -0.45593999997E+02  0.45594000000E+02  0.51100000000E-03 0.  1.
    9900012    2    1    2    0    0 -0.18163269544E+02  0.34598799914E+02  0.11233188268E+02  0.50528857920E+02  0.29999994135E+02 0.  0.
         12    1    1    2    0    0  0.18163269544E+02 -0.34598799914E+02 -0.11233188268E+02  0.40659142080E+02  0.00000000000E+00 0. -1.
         11    1    3    3    0    0 -0.13751258145E+01  0.67771131152E+01 -0.38669633470E+01  0.79229816969E+01  0.51100000000E-03 0. -1.
        -11    1    3    3    0    0  0.39238107367E+01  0.59846156750E+01 -0.26886960855E+01  0.76446715022E+01  0.51100000000E-03 0.  1.
        -12    1    3    3    0    0 -0.20711954466E+02  0.21837071123E+02  0.17788847701E+02  0.34961204721E+02  0.00000000000E+00 0.  1.
</event>
<event>
 7    1  0.2639126E-011  0.5052885E+02  0.7816164E-02  0.1300439E+00
        -11   -1    0    0    0    0  0.00000000000E+00  0.00000000000E+00  0.45593999997E+02  0.45594000000E+02  0.51100000000E-03 0.  1.
         11   -1    0    0    0    0 -0.00000000000E+00 -0.00000000000E+00 -0.45593999997E+02  0.45594000000E+02  0.51100000000E-03 0. -1.
    9900012    2    1    2    0    0  0.89215316464E+01  0.27577715377E+02  0.28513890917E+02  0.50528854810E+02  0.29999984681E+02 0.  0.
         12    1    1    2    0    0 -0.89215316464E+01 -0.27577715377E+02 -0.28513890917E+02  0.40659145190E+02  0.00000000000E+00 0. -1.
         11    1    3    3    0    0  0.31330928471E+01 -0.18286168040E+01 -0.55872523416E+00  0.36704610545E+01  0.51100000000E-03 0. -1.
        -11    1    3    3    0    0  0.13088692219E+02  0.16350122831E+02  0.11915546197E+02  0.24096070676E+02  0.51100000000E-03 0.  1.
        -12    1    3    3    0    0 -0.73002534193E+01  0.13056209350E+02  0.17157069954E+02  0.22762323080E+02  0.00000000000E+00 0.  1.
</event>
<event>
 7    1  0.2639126E-011  0.5052886E+02  0.7816164E-02  0.1300439E+00
        -11   -1    0    0    0    0  0.00000000000E+00  0.00000000000E+00  0.45593999997E+02  0.45594000000E+02  0.51100000000E-03 0. -1.
         11   -1    0    0    0    0 -0.00000000000E+00 -0.00000000000E+00 -0.45593999997E+02  0.45594000000E+02  0.51100000000E-03 0.  1.
    9900012    2    1    2    0    0  0.52235265402E+01 -0.25810875364E+02 -0.30978692550E+02  0.50528857010E+02  0.29999991367E+02 0.  0.
         12    1    1    2    0    0 -0.52235265402E+01  0.25810875364E+02  0.30978692550E+02  0.40659142990E+02  0.00000000000E+00 0. -1.
         11    1    3    3    0    0  0.49027438620E+01 -0.13400489720E+02 -0.82784759013E+01  0.16496762883E+02  0.51100000000E-03 0. -1.
        -11    1    3    3    0    0  0.19956913561E+01 -0.15944432723E+02 -0.64452165581E+01  0.17313247402E+02  0.51100000000E-03 0.  1.
         12    1    3    3    0    0 -0.16749086779E+01  0.35340470801E+01 -0.16255000091E+02  0.16718846725E+02  0.00000000000E+00 0. -1.
</event>
<event>
 7    1  0.2639126E-011  0.5052886E+02  0.7816164E-02  0.1300439E+00
        -11   -1    0    0    0    0  0.00000000000E+00  0.00000000000E+00  0.45593999997E+02  0.45594000000E+02  0.51100000000E-03 0. -1.
         11   -1    0    0    0    0 -0.00000000000E+00 -0.00000000000E+00 -0.45593999997E+02  0.45594000000E+02  0.51100000000E-03 0.  1.
    9900012    2    1    2    0    0 -0.32613633792E+02 -0.23973590206E+02 -0.38449075436E+01  0.50528862644E+02  0.30000008493E+02 0.  0.
         12    1    1    2    0    0  0.32613633792E+02  0.23973590206E+02  0.38449075436E+01  0.40659137356E+02  0.00000000000E+00 0. -1.
         11    1    3    3    0    0 -0.75004935098E+00 -0.37334545605E+01 -0.38761961896E+00  0.38277285972E+01  0.51100000000E-03 0. -1.
        -11    1    3    3    0    0 -0.21420112041E+02 -0.26679004533E+02 -0.38229813847E+01  0.34426816142E+02  0.51100000000E-03 0.  1.
         12    1    3    3    0    0 -0.10443472401E+02  0.64388688874E+01  0.36569346004E+00  0.12274317905E+02  0.00000000000E+00 0. -1.
</event>
<event>
 7    1  0.2639126E-011  0.5052876E+02  0.7816164E-02  0.1300439E+00
        -11   -1    0    0    0    0  0.00000000000E+00  0.00000000000E+00  0.45593999997E+02  0.45594000000E+02  0.51100000000E-03 0.  1.
         11   -1    0    0    0    0 -0.00000000000E+00 -0.00000000000E+00 -0.45593999997E+02  0.45594000000E+02  0.51100000000E-03 0. -1.
    9900012    2    1    2    0    0 -0.23787215585E+02 -0.30421001021E+02  0.12724177387E+02  0.50528762199E+02  0.29999703177E+02 0.  0.
         12    1    1    2    0    0  0.23787215585E+02  0.30421001021E+02 -0.12724177387E+02  0.40659237801E+02  0.00000000000E+00 0. -1.
         11    1    3    3    0    0 -0.11146976618E+02 -0.14639963494E+02  0.10951529915E+01  0.18433203172E+02  0.51100000000E-03 0. -1.
        -11    1    3    3    0    0 -0.18233966574E+02 -0.15132394457E+02  0.67323855609E+01  0.24633146665E+02  0.51100000000E-03 0.  1.
        -12    1    3    3    0    0  0.55937276069E+01 -0.64864306941E+00  0.48966388347E+01  0.74624123612E+01  0.00000000000E+00 0.  1.
</event>
<event>
 7    1  0.2639126E-011  0.5052886E+02  0.7816164E-02  0.1300439E+00
        -11   -1    0    0    0    0  0.00000000000E+00  0.00000000000E+00  0.45593999997E+02  0.45594000000E+02  0.51100000000E-03 0.  1.
         11   -1    0    0    0    0 -0.00000000000E+00 -0.00000000000E+00 -0.45593999997E+02  0.45594000000E+02  0.51100000000E-03 0. -1.
    9900012    2    1    2    0    0  0.33359727077E+02  0.21113633779E+02  0.97215680158E+01  0.50528858264E+02  0.29999995180E+02 0.  0.
         12    1    1    2    0    0 -0.33359727077E+02 -0.21113633779E+02 -0.97215680158E+01  0.40659141736E+02  0.00000000000E+00 0. -1.
         11    1    3    3    0    0  0.14373668671E+02  0.10376827329E+01  0.14424868696E+01  0.14483090318E+02  0.51100000000E-03 0. -1.
        -11    1    3    3    0    0  0.15626821911E+02  0.94164981463E+00  0.36922279521E+01  0.16084676401E+02  0.51100000000E-03 0.  1.
         12    1    3    3    0    0  0.33592364941E+01  0.19134301232E+02  0.45868531941E+01  0.19961091545E+02  0.00000000000E+00 0. -1.
</event>
<event>
 7    1  0.2639126E-011  0.5052895E+02  0.7816164E-02  0.1300438E+00
        -11   -1    0    0    0    0  0.00000000000E+00  0.00000000000E+00  0.45593999997E+02  0.45594000000E+02  0.51100000000E-03 0.  1.
         11   -1    0    0    0    0 -0.00000000000E+00 -0.00000000000E+00 -0.45593999997E+02  0.45594000000E+02  0.51100000000E-03 0. -1.
    9900012    2    1    2    0    0 -0.27744837519E+02 -0.11587459616E+02  0.27369930938E+02  0.50528949975E+02  0.30000273944E+02 0.  0.
         12    1    1    2    0    0  0.27744837519E+02  0.11587459616E+02 -0.27369930938E+02  0.40659050025E+02  0.00000000000E+00 0. -1.
         11    1    3    3    0    0 -0.56815698461E+01 -0.35424581972E+01  0.57906692280E+00  0.67204586717E+01  0.51100000000E-03 0. -1.
        -11    1    3    3    0    0 -0.20947149316E+02 -0.34688442241E+01  0.54043766404E+01  0.21909432486E+02  0.51100000000E-03 0.  1.
         12    1    3    3    0    0 -0.11161183572E+01 -0.45761571947E+01  0.21386487375E+02  0.21899058818E+02  0.00000000000E+00 0. -1.
</event>
<event>
 7    1  0.2639126E-011  0.5052888E+02  0.7816164E-02  0.1300439E+00
        -11   -1    0    0    0    0  0.00000000000E+00  0.00000000000E+00  0.45593999997E+02  0.45594000000E+02  0.51100000000E-03 0.  1.
         11   -1    0    0    0    0 -0.00000000000E+00 -0.00000000000E+00 -0.45593999997E+02  0.45594000000E+02  0.51100000000E-03 0. -1.
    9900012    2    1    2    0    0 -0.58553651847E+01 -0.14149878333E+02  0.37665100701E+02  0.50528878402E+02  0.30000056391E+02 0.  0.
         12    1    1    2    0    0  0.58553651847E+01  0.14149878333E+02 -0.37665100701E+02  0.40659121598E+02  0.00000000000E+00 0. -1.
         11    1    3    3    0    0 -0.50454932529E+00 -0.10970914347E+02 -0.15110915952E+00  0.10983549784E+02  0.51100000000E-03 0. -1.
        -11    1    3    3    0    0 -0.34915622845E+01 -0.67119592127E+01  0.25428914060E+02  0.26530568675E+02  0.51100000000E-03 0.  1.
        -12    1    3    3    0    0 -0.18592535750E+01  0.35329952269E+01  0.12387295800E+02  0.13014759943E+02  0.00000000000E+00 0.  1.
</event>
<event>
 7    1  0.2639126E-011  0.5052886E+02  0.7816164E-02  0.1300439E+00
        -11   -1    0    0    0    0  0.00000000000E+00  0.00000000000E+00  0.45593999997E+02  0.45594000000E+02  0.51100000000E-03 0.  1.
         11   -1    0    0    0    0 -0.00000000000E+00 -0.00000000000E+00 -0.45593999997E+02  0.45594000000E+02  0.51100000000E-03 0. -1.
    9900012    2    1    2    0    0 -0.12430315912E+02 -0.61664295354E+01  0.38218163782E+02  0.50528860194E+02  0.30000001045E+02 0.  0.
         12    1    1    2    0    0  0.12430315912E+02  0.61664295354E+01 -0.38218163782E+02  0.40659139806E+02  0.00000000000E+00 0. -1.
         11    1    3    3    0    0  0.41583776638E+01 -0.27483464005E+01  0.41746129651E+01  0.65017617921E+01  0.51100000000E-03 0. -1.
        -11    1    3    3    0    0  0.17406150818E+01  0.37384423915E+01  0.18493100318E+02  0.18947307250E+02  0.51100000000E-03 0.  1.
         12    1    3    3    0    0 -0.18329308658E+02 -0.71565255265E+01  0.15550450499E+02  0.25079791152E+02  0.00000000000E+00 0. -1.
</event>
<event>
 7    1  0.2639126E-011  0.5052877E+02  0.7816164E-02  0.1300439E+00
        -11   -1    0    0    0    0  0.00000000000E+00  0.00000000000E+00  0.45593999997E+02  0.45594000000E+02  0.51100000000E-03 0.  1.
         11   -1    0    0    0    0 -0.00000000000E+00 -0.00000000000E+00 -0.45593999997E+02  0.45594000000E+02  0.51100000000E-03 0. -1.
    9900012    2    1    2    0    0 -0.35537086184E+02  0.17717962432E+02  0.87385708042E+01  0.50528766032E+02  0.29999714830E+02 0.  0.
         12    1    1    2    0    0  0.35537086184E+02 -0.17717962432E+02 -0.87385708042E+01  0.40659233968E+02  0.00000000000E+00 0. -1.
         11    1    3    3    0    0 -0.14225062671E+01 -0.98669920493E-01 -0.12672184572E+01  0.19076432351E+01  0.51100000000E-03 0. -1.
        -11    1    3    3    0    0 -0.34295979857E+02  0.53432428215E+01  0.10088554855E+02  0.36146139732E+02  0.51100000000E-03 0.  1.
        -12    1    3    3    0    0  0.18139994073E+00  0.12473389531E+02 -0.82765593395E-01  0.12474983065E+02  0.00000000000E+00 0.  1.
</event>
<event>
 7    1  0.2639126E-011  0.5052887E+02  0.7816164E-02  0.1300439E+00
        -11   -1    0    0    0    0  0.00000000000E+00  0.00000000000E+00  0.45593999997E+02  0.45594000000E+02  0.51100000000E-03 0. -1.
         11   -1    0    0    0    0 -0.00000000000E+00 -0.00000000000E+00 -0.45593999997E+02  0.45594000000E+02  0.51100000000E-03 0.  1.
    9900012    2    1    2    0    0 -0.23143992593E+02 -0.33152228652E+02  0.42954064520E+01  0.50528866040E+02  0.30000018817E+02 0.  0.
         12    1    1    2    0    0  0.23143992593E+02  0.33152228652E+02 -0.42954064520E+01  0.40659133960E+02  0.00000000000E+00 0. -1.
         11    1    3    3    0    0 -0.18871365341E+01  0.18324852830E+00  0.59783160005E+01  0.62717722204E+01  0.51100000000E-03 0. -1.
        -11    1    3    3    0    0 -0.11714519733E+02 -0.10190164909E+02  0.79367213039E+01  0.17437344373E+02  0.51100000000E-03 0.  1.
        -12    1    3    3    0    0 -0.95423363258E+01 -0.23145312271E+02 -0.96196308524E+01  0.26819749447E+02  0.00000000000E+00 0.  1.
</event>
<event>
 7    1  0.2639126E-011  0.5052886E+02  0.7816164E-02  0.1300439E+00
        -11   -1    0    0    0    0  0.00000000000E+00  0.00000000000E+00  0.45593999997E+02  0.45594000000E+02  0.51100000000E-03 0. -1.
         11   -1    0    0    0    0 -0.00000000000E+00 -0.00000000000E+00 -0.45593999997E+02  0.45594000000E+02  0.51100000000E-03 0.  1.
    9900012    2    1    2    0    0  0.21003389014E+02 -0.22859924206E+02 -0.26257323788E+02  0.50528861577E+02  0.30000005251E+02 0.  0.
         12    1    1    2    0    0 -0.21003389014E+02  0.22859924206E+02  0.26257323788E+02  0.40659138423E+02  0.00000000000E+00 0. -1.
         11    1    3    3    0    0  0.27106109779E+01 -0.10507165558E+02 -0.15781240742E+02  0.19151905899E+02  0.51100000000E-03 0. -1.
        -11    1    3    3    0    0 -0.90743333766E+00 -0.94115912239E+01 -0.32638648166E+00  0.94608674562E+01  0.51100000000E-03 0.  1.
         12    1    3    3    0    0  0.19200211374E+02 -0.29411674236E+01 -0.10149696564E+02  0.21916088222E+02  0.00000000000E+00 0. -1.
</event>
<event>
 7    1  0.2639126E-011  0.5052886E+02  0.7816164E-02  0.1300439E+00
        -11   -1    0    0    0    0  0.00000000000E+00  0.00000000000E+00  0.45593999997E+02  0.45594000000E+02  0.51100000000E-03 0.  1.
         11   -1    0    0    0    0 -0.00000000000E+00 -0.00000000000E+00 -0.45593999997E+02  0.45594000000E+02  0.51100000000E-03 0. -1.
    9900012    2    1    2    0    0 -0.18564854841E+02 -0.56814711566E+01  0.35724401163E+02  0.50528858491E+02  0.29999995869E+02 0.  0.
         12    1    1    2    0    0  0.18564854841E+02  0.56814711566E+01 -0.35724401163E+02  0.40659141509E+02  0.00000000000E+00 0. -1.
         11    1    3    3    0    0  0.11025554286E+01  0.24187915601E+01  0.22267615720E+01  0.34676574866E+01  0.51100000000E-03 0. -1.
        -11    1    3    3    0    0 -0.12563580243E+02  0.83775235676E+01  0.14701603261E+02  0.21075188928E+02  0.51100000000E-03 0.  1.
        -12    1    3    3    0    0 -0.71038300266E+01 -0.16477786284E+02  0.18796036331E+02  0.25986012076E+02  0.00000000000E+00 0.  1.
</event>
<event>
 7    1  0.2639126E-011  0.5052886E+02  0.7816164E-02  0.1300439E+00
        -11   -1    0    0    0    0  0.00000000000E+00  0.00000000000E+00  0.45593999997E+02  0.45594000000E+02  0.51100000000E-03 0.  1.
         11   -1    0    0    0    0 -0.00000000000E+00 -0.00000000000E+00 -0.45593999997E+02  0.45594000000E+02  0.51100000000E-03 0. -1.
    9900012    2    1    2    0    0  0.12239375437E+02  0.14816166742E+02  0.35830780385E+02  0.50528856735E+02  0.29999990532E+02 0.  0.
         12    1    1    2    0    0 -0.12239375437E+02 -0.14816166742E+02 -0.35830780385E+02  0.40659143265E+02  0.00000000000E+00 0. -1.
         11    1    3    3    0    0  0.36905425690E+01  0.60126259402E+01  0.13792436345E+02  0.15492032654E+02  0.51100000000E-03 0. -1.
        -11    1    3    3    0    0  0.37430818016E+01 -0.40307079560E+01  0.20524675242E+02  0.21248989672E+02  0.51100000000E-03 0.  1.
         12    1    3    3    0    0  0.48057510661E+01  0.12834248758E+02  0.15136687981E+01  0.13787834410E+02  0.00000000000E+00 0. -1.
</event>
<event>
 7    1  0.2639126E-011  0.5052886E+02  0.7816164E-02  0.1300439E+00
        -11   -1    0    0    0    0  0.00000000000E+00  0.00000000000E+00  0.45593999997E+02  0.45594000000E+02  0.51100000000E-03 0.  1.
         11   -1    0    0    0    0 -0.00000000000E+00 -0.00000000000E+00 -0.45593999997E+02  0.45594000000E+02  0.51100000000E-03 0. -1.
    9900012    2    1    2    0    0 -0.17012416623E+02 -0.24611487213E+02  0.27532123310E+02  0.50528862821E+02  0.30000009030E+02 0.  0.
         12    1    1    2    0    0  0.17012416623E+02  0.24611487213E+02 -0.27532123310E+02  0.40659137179E+02  0.00000000000E+00 0. -1.
         11    1    3    3    0    0  0.63292613089E+01 -0.22366979937E+01  0.12351339935E+02  0.14057665705E+02  0.51100000000E-03 0. -1.
        -11    1    3    3    0    0 -0.80756736315E+00  0.35567729521E+00 -0.27962777002E+00  0.92566912838E+00  0.51100000000E-03 0.  1.
        -12    1    3    3    0    0 -0.22534110569E+02 -0.22730466515E+02  0.15460411145E+02  0.35545527987E+02  0.00000000000E+00 0.  1.
</event>
<event>
 7    1  0.2639126E-011  0.5052886E+02  0.7816164E-02  0.1300439E+00
        -11   -1    0    0    0    0  0.00000000000E+00  0.00000000000E+00  0.45593999997E+02  0.45594000000E+02  0.51100000000E-03 0. -1.
         11   -1    0    0    0    0 -0.00000000000E+00 -0.00000000000E+00 -0.45593999997E+02  0.45594000000E+02  0.51100000000E-03 0.  1.
    9900012    2    1    2    0    0 -0.39560981285E+02 -0.67652809406E+00 -0.93614555012E+01  0.50528858598E+02  0.29999996194E+02 0.  0.
         12    1    1    2    0    0  0.39560981285E+02  0.67652809406E+00  0.93614555012E+01  0.40659141402E+02  0.00000000000E+00 0. -1.
         11    1    3    3    0    0 -0.22076441691E+01  0.29589904188E+01 -0.16397110624E+01  0.40395506811E+01  0.51100000000E-03 0. -1.
        -11    1    3    3    0    0 -0.14654521414E+02  0.10918790843E+02 -0.68326943185E+01  0.19510528011E+02  0.51100000000E-03 0.  1.
        -12    1    3    3    0    0 -0.22698815702E+02 -0.14554309356E+02 -0.88905012027E+00  0.26978779906E+02  0.00000000000E+00 0.  1.
</event>
<event>
 7    1  0.2639126E-011  0.5052893E+02  0.7816164E-02  0.1300439E+00
        -11   -1    0    0    0    0  0.00000000000E+00  0.00000000000E+00  0.45593999997E+02  0.45594000000E+02  0.51100000000E-03 0.  1.
         11   -1    0    0    0    0 -0.00000000000E+00 -0.00000000000E+00 -0.45593999997E+02  0.45594000000E+02  0.51100000000E-03 0. -1.
    9900012    2    1    2    0    0 -0.36706757386E+02  0.14293360382E+01  0.17427871465E+02  0.50528932830E+02  0.30000221830E+02 0.  0.
         12    1    1    2    0    0  0.36706757386E+02 -0.14293360382E+01 -0.17427871465E+02  0.40659067170E+02  0.00000000000E+00 0. -1.
         11    1    3    3    0    0 -0.24083423851E+02 -0.26610692089E+00  0.68435392532E+01  0.25038293613E+02  0.51100000000E-03 0. -1.
        -11    1    3    3    0    0 -0.12185081683E+02 -0.71909269147E+01  0.51045266067E+01  0.15041337628E+02  0.51100000000E-03 0.  1.
         12    1    3    3    0    0 -0.43825185234E+00  0.88863698738E+01  0.54798056056E+01  0.10449301589E+02  0.00000000000E+00 0. -1.
</event>
<event>
 7    1  0.2639126E-011  0.5052886E+02  0.7816164E-02  0.1300439E+00
        -11   -1    0    0    0    0  0.00000000000E+00  0.00000000000E+00  0.45593999997E+02  0.45594000000E+02  0.51100000000E-03 0.  1.
         11   -1    0    0    0    0 -0.00000000000E+00 -0.00000000000E+00 -0.45593999997E+02  0.45594000000E+02  0.51100000000E-03 0. -1.
    9900012    2    1    2    0    0 -0.67629380055E+01  0.15223454116E+02  0.37090089848E+02  0.50528860183E+02  0.30000001013E+02 0.  0.
         12    1    1    2    0    0  0.67629380055E+01 -0.15223454116E+02 -0.37090089848E+02  0.40659139817E+02  0.00000000000E+00 0. -1.
         11    1    3    3    0    0 -0.54728556252E+01  0.64330623113E+01  0.27271932460E+02  0.28549864094E+02  0.51100000000E-03 0. -1.
        -11    1    3    3    0    0  0.20171337396E+01  0.77607361496E+01  0.14251792270E+02  0.16352719568E+02  0.51100000000E-03 0.  1.
        -12    1    3    3    0    0 -0.33072161199E+01  0.10296556548E+01 -0.44336348818E+01  0.56262765215E+01  0.00000000000E+00 0.  1.
</event>
<event>
 7    1  0.2639126E-011  0.5052886E+02  0.7816164E-02  0.1300439E+00
        -11   -1    0    0    0    0  0.00000000000E+00  0.00000000000E+00  0.45593999997E+02  0.45594000000E+02  0.51100000000E-03 0.  1.
         11   -1    0    0    0    0 -0.00000000000E+00 -0.00000000000E+00 -0.45593999997E+02  0.45594000000E+02  0.51100000000E-03 0. -1.
    9900012    2    1    2    0    0  0.32989882212E+02 -0.20336926619E+02  0.12298074218E+02  0.50528861517E+02  0.30000005069E+02 0.  0.
         12    1    1    2    0    0 -0.32989882212E+02  0.20336926619E+02 -0.12298074218E+02  0.40659138483E+02  0.00000000000E+00 0. -1.
         11    1    3    3    0    0  0.97015114778E+00 -0.18032073353E+01  0.78478079509E+01  0.81105388131E+01  0.51100000000E-03 0. -1.
        -11    1    3    3    0    0 -0.14873073491E+01 -0.17858897569E+00 -0.31285861432E+01  0.34687214777E+01  0.51100000000E-03 0.  1.
        -12    1    3    3    0    0  0.33507038414E+02 -0.18355130308E+02  0.75788524099E+01  0.38949601227E+02  0.00000000000E+00 0.  1.
</event>
<event>
 7    1  0.2639126E-011  0.5052885E+02  0.7816164E-02  0.1300439E+00
        -11   -1    0    0    0    0  0.00000000000E+00  0.00000000000E+00  0.45593999997E+02  0.45594000000E+02  0.51100000000E-03 0.  1.
         11   -1    0    0    0    0 -0.00000000000E+00 -0.00000000000E+00 -0.45593999997E+02  0.45594000000E+02  0.51100000000E-03 0. -1.
    9900012    2    1    2    0    0 -0.21755263338E+02  0.15959418706E+02  0.30416645049E+02  0.50528845749E+02  0.29999957140E+02 0.  0.
         12    1    1    2    0    0  0.21755263338E+02 -0.15959418706E+02 -0.30416645049E+02  0.40659154251E+02  0.00000000000E+00 0. -1.
         11    1    3    3    0    0 -0.40595003621E+01  0.11216174405E+02  0.12912484841E+02  0.17578804751E+02  0.51100000000E-03 0. -1.
        -11    1    3    3    0    0 -0.21510573642E+02  0.52138985592E+01  0.18645583758E+02  0.28940409647E+02  0.51100000000E-03 0.  1.
         12    1    3    3    0    0  0.38148106667E+01 -0.47065425776E+00 -0.11414235492E+01  0.40096313511E+01  0.00000000000E+00 0. -1.
</event>
<event>
 7    1  0.2639126E-011  0.5052886E+02  0.7816164E-02  0.1300439E+00
        -11   -1    0    0    0    0  0.00000000000E+00  0.00000000000E+00  0.45593999997E+02  0.45594000000E+02  0.51100000000E-03 0.  1.
         11   -1    0    0    0    0 -0.00000000000E+00 -0.00000000000E+00 -0.45593999997E+02  0.45594000000E+02  0.51100000000E-03 0. -1.
    9900012    2    1    2    0    0 -0.49361142039E+01  0.26259996942E+02  0.30646586427E+02  0.50528856841E+02  0.29999990853E+02 0.  0.
         12    1    1    2    0    0  0.49361142039E+01 -0.26259996942E+02 -0.30646586427E+02  0.40659143159E+02  0.00000000000E+00 0. -1.
         11    1    3    3    0    0  0.29259057597E+01  0.34559429369E+01 -0.18558371012E+01  0.48937304487E+01  0.51100000000E-03 0. -1.
        -11    1    3    3    0    0 -0.82938981617E+01 -0.62692623973E+00  0.59897135119E+01  0.10249802507E+02  0.51100000000E-03 0.  1.
        -12    1    3    3    0    0  0.43187819813E+00  0.23430980245E+02  0.26512710016E+02  0.35385323885E+02  0.00000000000E+00 0.  1.
</event>
<event>
 7    1  0.2639126E-011  0.5052894E+02  0.7816164E-02  0.1300439E+00
        -11   -1    0    0    0    0  0.00000000000E+00  0.00000000000E+00  0.45593999997E+02  0.45594000000E+02  0.51100000000E-03 0.  1.
         11   -1    0    0    0    0 -0.00000000000E+00 -0.00000000000E+00 -0.45593999997E+02  0.45594000000E+02  0.51100000000E-03 0. -1.
    9900012    2    1    2    0    0 -0.39500103308E+02  0.66404283208E+01 -0.69861306247E+01  0.50528936180E+02  0.30000232012E+02 0.  0.
         12    1    1    2    0    0  0.39500103308E+02 -0.66404283208E+01  0.69861306247E+01  0.40659063820E+02  0.00000000000E+00 0. -1.
         11    1    3    3    0    0 -0.20516225620E+00 -0.46702572348E+01 -0.27308471512E+01  0.54139560966E+01  0.51100000000E-03 0. -1.
        -11    1    3    3    0    0 -0.20853572931E+02 -0.26049895260E+01  0.21919028210E+01  0.21129645350E+02  0.51100000000E-03 0.  1.
         12    1    3    3    0    0 -0.18441368121E+02  0.13915675082E+02 -0.64471862944E+01  0.23985334733E+02  0.00000000000E+00 0. -1.
</event>
<event>
 7    1  0.2639126E-011  0.5052886E+02  0.7816164E-02  0.1300439E+00
        -11   -1    0    0    0    0  0.00000000000E+00  0.00000000000E+00  0.45593999997E+02  0.45594000000E+02  0.51100000000E-03 0.  1.
         11   -1    0    0    0    0 -0.00000000000E+00 -0.00000000000E+00 -0.45593999997E+02  0.45594000000E+02  0.51100000000E-03 0. -1.
    9900012    2    1    2    0    0  0.29147924111E+02  0.13055692963E+01  0.28317132886E+02  0.50528855812E+02  0.29999987727E+02 0.  0.
         12    1    1    2    0    0 -0.29147924111E+02 -0.13055692963E+01 -0.28317132886E+02  0.40659144188E+02  0.00000000000E+00 0. -1.
         11    1    3    3    0    0  0.46628159801E+01  0.88029579618E+01  0.20288984343E+01  0.10166137460E+02  0.51100000000E-03 0. -1.
        -11    1    3    3    0    0  0.22090487019E+01 -0.18473533589E+01 -0.22979449836E+01  0.36841772499E+01  0.51100000000E-03 0.  1.
        -12    1    3    3    0    0  0.22276059429E+02 -0.56500353067E+01  0.28586179436E+02  0.36678541102E+02  0.00000000000E+00 0.  1.
</event>
<event>
 7    1  0.2639126E-011  0.5052886E+02  0.7816164E-02  0.1300439E+00
        -11   -1    0    0    0    0  0.00000000000E+00  0.00000000000E+00  0.45593999997E+02  0.45594000000E+02  0.51100000000E-03 0. -1.
         11   -1    0    0    0    0 -0.00000000000E+00 -0.00000000000E+00 -0.45593999997E+02  0.45594000000E+02  0.51100000000E-03 0.  1.
    9900012    2    1    2    0    0  0.11751206770E+02 -0.38871072677E+02 -0.20284080104E+01  0.50528860920E+02  0.30000003254E+02 0.  0.
         12    1    1    2    0    0 -0.11751206770E+02  0.38871072677E+02  0.20284080104E+01  0.40659139080E+02  0.00000000000E+00 0. -1.
         11    1    3    3    0    0  0.13682330360E+01 -0.72032044987E+00  0.21269257403E+00  0.15608208044E+01  0.51100000000E-03 0. -1.
        -11    1    3    3    0    0  0.37829603721E+01 -0.23988490819E+02  0.12651545647E+02  0.27382842958E+02  0.51100000000E-03 0.  1.
        -12    1    3    3    0    0  0.66000133624E+01 -0.14162261409E+02 -0.14892646231E+02  0.21585197158E+02  0.00000000000E+00 0.  1.
</event>
<event>
 7    1  0.2639126E-011  0.5052886E+02  0.7816164E-02  0.1300439E+00
        -11   -1    0    0    0    0  0.00000000000E+00  0.00000000000E+00  0.45593999997E+02  0.45594000000E+02  0.51100000000E-03 0.  1.
         11   -1    0    0    0    0 -0.00000000000E+00 -0.00000000000E+00 -0.45593999997E+02  0.45594000000E+02  0.51100000000E-03 0. -1.
    9900012    2    1    2    0    0  0.13728007819E+02 -0.26236855913E+02  0.27862786660E+02  0.50528859732E+02  0.29999999640E+02 0.  0.
         12    1    1    2    0    0 -0.13728007819E+02  0.26236855913E+02 -0.27862786660E+02  0.40659140268E+02  0.00000000000E+00 0. -1.
         11    1    3    3    0    0  0.92280858731E+00 -0.99945125203E+01  0.14636143392E+02  0.17747071586E+02  0.51100000000E-03 0. -1.
        -11    1    3    3    0    0  0.54692089828E+01 -0.10012297839E+02  0.18554263569E+02  0.21781162773E+02  0.51100000000E-03 0.  1.
         12    1    3    3    0    0  0.73359902485E+01 -0.62300455539E+01 -0.53276203002E+01  0.11000625373E+02  0.00000000000E+00 0. -1.
</event>
<event>
 7    1  0.2639126E-011  0.5052886E+02  0.7816164E-02  0.1300439E+00
        -11   -1    0    0    0    0  0.00000000000E+00  0.00000000000E+00  0.45593999997E+02  0.45594000000E+02  0.51100000000E-03 0.  1.
         11   -1    0    0    0    0 -0.00000000000E+00 -0.00000000000E+00 -0.45593999997E+02  0.45594000000E+02  0.51100000000E-03 0. -1.
    9900012    2    1    2    0    0 -0.85186114712E+01 -0.13217508339E+02  0.37495284278E+02  0.50528860669E+02  0.30000002489E+02 0.  0.
         12    1    1    2    0    0  0.85186114712E+01  0.13217508339E+02 -0.37495284278E+02  0.40659139331E+02  0.00000000000E+00 0. -1.
         11    1    3    3    0    0 -0.11523100886E+02  0.31223777631E+00  0.61475429843E+01  0.13064135312E+02  0.51100000000E-03 0. -1.
        -11    1    3    3    0    0 -0.51008506291E+01 -0.84278135223E+01  0.21890172891E+02  0.24004715940E+02  0.51100000000E-03 0.  1.
         12    1    3    3    0    0  0.81053400435E+01 -0.51019325926E+01  0.94575684022E+01  0.13460009416E+02  0.00000000000E+00 0. -1.
</event>
<event>
 7    1  0.2639126E-011  0.5052886E+02  0.7816164E-02  0.1300439E+00
        -11   -1    0    0    0    0  0.00000000000E+00  0.00000000000E+00  0.45593999997E+02  0.45594000000E+02  0.51100000000E-03 0.  1.
         11   -1    0    0    0    0 -0.00000000000E+00 -0.00000000000E+00 -0.45593999997E+02  0.45594000000E+02  0.51100000000E-03 0. -1.
    9900012    2    1    2    0    0 -0.29075527547E+02 -0.17504497805E+02  0.22391342594E+02  0.50528856272E+02  0.29999989125E+02 0.  0.
         12    1    1    2    0    0  0.29075527547E+02  0.17504497805E+02 -0.22391342594E+02  0.40659143728E+02  0.00000000000E+00 0. -1.
         11    1    3    3    0    0 -0.31708232862E+01 -0.61142183450E+01 -0.29736576274E+01  0.75020281410E+01  0.51100000000E-03 0. -1.
        -11    1    3    3    0    0 -0.12706907398E+02 -0.11483555065E+02  0.24376414752E+02  0.29791729204E+02  0.51100000000E-03 0.  1.
         12    1    3    3    0    0 -0.13197796863E+02  0.93275605951E-01  0.98858546966E+00  0.13235098927E+02  0.00000000000E+00 0. -1.
</event>
<event>
 7    1  0.2639126E-011  0.5052885E+02  0.7816164E-02  0.1300439E+00
        -11   -1    0    0    0    0  0.00000000000E+00  0.00000000000E+00  0.45593999997E+02  0.45594000000E+02  0.51100000000E-03 0.  1.
         11   -1    0    0    0    0 -0.00000000000E+00 -0.00000000000E+00 -0.45593999997E+02  0.45594000000E+02  0.51100000000E-03 0. -1.
    9900012    2    1    2    0    0  0.38772131866E+02 -0.21158526727E+01 -0.12058654080E+02  0.50528853671E+02  0.29999981218E+02 0.  0.
         12    1    1    2    0    0 -0.38772131866E+02  0.21158526727E+01  0.12058654080E+02  0.40659146329E+02  0.00000000000E+00 0. -1.
         11    1    3    3    0    0  0.40592592536E+01 -0.72072259627E+01 -0.23335462238E+01  0.85945988857E+01  0.51100000000E-03 0. -1.
        -11    1    3    3    0    0 -0.19017317906E+01 -0.14792680891E+01 -0.34518300572E+01  0.42095069650E+01  0.51100000000E-03 0.  1.
        -12    1    3    3    0    0  0.36614604403E+02  0.65706413792E+01 -0.62732777993E+01  0.37724747820E+02  0.00000000000E+00 0.  1.
</event>
<event>
 7    1  0.2639126E-011  0.5052886E+02  0.7816164E-02  0.1300439E+00
        -11   -1    0    0    0    0  0.00000000000E+00  0.00000000000E+00  0.45593999997E+02  0.45594000000E+02  0.51100000000E-03 0. -1.
         11   -1    0    0    0    0 -0.00000000000E+00 -0.00000000000E+00 -0.45593999997E+02  0.45594000000E+02  0.51100000000E-03 0.  1.
    9900012    2    1    2    0    0 -0.24580102386E+02 -0.10046230135E+02 -0.30790546231E+02  0.50528856989E+02  0.29999991304E+02 0.  0.
         12    1    1    2    0    0  0.24580102386E+02  0.10046230135E+02  0.30790546231E+02  0.40659143011E+02  0.00000000000E+00 0. -1.
         11    1    3    3    0    0 -0.14172211665E+02 -0.41726467629E+01 -0.72339384828E+01  0.16449693940E+02  0.51100000000E-03 0. -1.
        -11    1    3    3    0    0 -0.14753192947E+02 -0.97813208950E+01 -0.12822848855E+02  0.21857639251E+02  0.51100000000E-03 0.  1.
         12    1    3    3    0    0  0.43453022266E+01  0.39077375228E+01 -0.10733758893E+02  0.12221523798E+02  0.00000000000E+00 0. -1.
</event>
<event>
 7    1  0.2639126E-011  0.5052892E+02  0.7816164E-02  0.1300439E+00
        -11   -1    0    0    0    0  0.00000000000E+00  0.00000000000E+00  0.45593999997E+02  0.45594000000E+02  0.51100000000E-03 0. -1.
         11   -1    0    0    0    0 -0.00000000000E+00 -0.00000000000E+00 -0.45593999997E+02  0.45594000000E+02  0.51100000000E-03 0.  1.
    9900012    2    1    2    0    0 -0.22182000078E+02 -0.31131458893E+02 -0.13854686032E+02  0.50528915095E+02  0.30000167922E+02 0.  0.
         12    1    1    2    0    0  0.22182000078E+02  0.31131458893E+02  0.13854686032E+02  0.40659084905E+02  0.00000000000E+00 0. -1.
         11    1    3    3    0    0 -0.11292469921E+02 -0.23914436471E+02  0.13069924581E+01  0.26478828867E+02  0.51100000000E-03 0. -1.
        -11    1    3    3    0    0 -0.66558203952E+01  0.36478843447E+00 -0.10254498178E+00  0.66665981932E+01  0.51100000000E-03 0.  1.
        -12    1    3    3    0    0 -0.42337097624E+01 -0.75818108560E+01 -0.15059133509E+02  0.17383488034E+02  0.00000000000E+00 0.  1.
</event>
<event>
 7    1  0.2639126E-011  0.5052885E+02  0.7816164E-02  0.1300439E+00
        -11   -1    0    0    0    0  0.00000000000E+00  0.00000000000E+00  0.45593999997E+02  0.45594000000E+02  0.51100000000E-03 0.  1.
         11   -1    0    0    0    0 -0.00000000000E+00 -0.00000000000E+00 -0.45593999997E+02  0.45594000000E+02  0.51100000000E-03 0. -1.
    9900012    2    1    2    0    0  0.37654536328E+02 -0.15306123558E+02  0.10125129121E+01  0.50528847194E+02  0.29999961532E+02 0.  0.
         12    1    1    2    0    0 -0.37654536328E+02  0.15306123558E+02 -0.10125129121E+01  0.40659152806E+02  0.00000000000E+00 0. -1.
         11    1    3    3    0    0 -0.53629828900E+00 -0.56942162936E+01 -0.37325151272E+00  0.57315819810E+01  0.51100000000E-03 0. -1.
        -11    1    3    3    0    0  0.51453256248E+01 -0.91666403592E+01  0.48323976673E+01  0.11569517654E+02  0.51100000000E-03 0.  1.
         12    1    3    3    0    0  0.33045508993E+02 -0.44526690534E+00 -0.34466332424E+01  0.33227747560E+02  0.00000000000E+00 0. -1.
</event>
<event>
 7    1  0.2639126E-011  0.5052897E+02  0.7816164E-02  0.1300438E+00
        -11   -1    0    0    0    0  0.00000000000E+00  0.00000000000E+00  0.45593999997E+02  0.45594000000E+02  0.51100000000E-03 0.  1.
         11   -1    0    0    0    0 -0.00000000000E+00 -0.00000000000E+00 -0.45593999997E+02  0.45594000000E+02  0.51100000000E-03 0. -1.
    9900012    2    1    2    0    0 -0.31250688928E+02  0.25518171070E+02 -0.50372421250E+01  0.50528973678E+02  0.30000345990E+02 0.  0.
         12    1    1    2    0    0  0.31250688928E+02 -0.25518171070E+02  0.50372421250E+01  0.40659026322E+02  0.00000000000E+00 0. -1.
         11    1    3    3    0    0 -0.48655382466E+01  0.99784008281E+01  0.17214296033E+01  0.11234111699E+02  0.51100000000E-03 0. -1.
        -11    1    3    3    0    0 -0.38708479386E+01  0.90329437476E+01  0.70489999471E+01  0.12094045520E+02  0.51100000000E-03 0.  1.
         12    1    3    3    0    0 -0.22514302742E+02  0.65068264941E+01 -0.13807671675E+02  0.27200816460E+02  0.00000000000E+00 0. -1.
</event>
<event>
 7    1  0.2639126E-011  0.5052885E+02  0.7816164E-02  0.1300439E+00
        -11   -1    0    0    0    0  0.00000000000E+00  0.00000000000E+00  0.45593999997E+02  0.45594000000E+02  0.51100000000E-03 0.  1.
         11   -1    0    0    0    0 -0.00000000000E+00 -0.00000000000E+00 -0.45593999997E+02  0.45594000000E+02  0.51100000000E-03 0. -1.
    9900012    2    1    2    0    0 -0.90571499049E+01  0.62484312258E+01  0.39141938198E+02  0.50528853635E+02  0.29999981110E+02 0.  0.
         12    1    1    2    0    0  0.90571499049E+01 -0.62484312258E+01 -0.39141938198E+02  0.40659146365E+02  0.00000000000E+00 0. -1.
         11    1    3    3    0    0  0.29633063906E+01  0.21851155104E+01  0.31926711906E+01  0.48733011554E+01  0.51100000000E-03 0. -1.
        -11    1    3    3    0    0 -0.13879247506E+02  0.12856607119E+02  0.21495689902E+02  0.28635476992E+02  0.51100000000E-03 0.  1.
         12    1    3    3    0    0  0.18587912104E+01 -0.87932914032E+01  0.14453577106E+02  0.17020075488E+02  0.00000000000E+00 0. -1.
</event>
<event>
 7    1  0.2639126E-011  0.5052886E+02  0.7816164E-02  0.1300439E+00
        -11   -1    0    0    0    0  0.00000000000E+00  0.00000000000E+00  0.45593999997E+02  0.45594000000E+02  0.51100000000E-03 0.  1.
         11   -1    0    0    0    0 -0.00000000000E+00 -0.00000000000E+00 -0.45593999997E+02  0.45594000000E+02  0.51100000000E-03 0. -1.
    9900012    2    1    2    0    0 -0.55873857294E+01  0.27622015083E+02  0.29308211971E+02  0.50528857295E+02  0.29999992235E+02 0.  0.
         12    1    1    2    0    0  0.55873857294E+01 -0.27622015083E+02 -0.29308211971E+02  0.40659142705E+02  0.00000000000E+00 0. -1.
         11    1    3    3    0    0  0.93540231167E+00  0.39070706045E+01  0.20339576452E+02  0.20732548051E+02  0.51100000000E-03 0. -1.
        -11    1    3    3    0    0 -0.47346308197E+01  0.28093838751E+01 -0.23155389782E+01  0.59725277544E+01  0.51100000000E-03 0.  1.
        -12    1    3    3    0    0 -0.17881572214E+01  0.20905560604E+02  0.11284174497E+02  0.23823781490E+02  0.00000000000E+00 0.  1.
</event>
<event>
 7    1  0.2639126E-011  0.5052886E+02  0.7816164E-02  0.1300439E+00
        -11   -1    0    0    0    0  0.00000000000E+00  0.00000000000E+00  0.45593999997E+02  0.45594000000E+02  0.51100000000E-03 0. -1.
         11   -1    0    0    0    0 -0.00000000000E+00 -0.00000000000E+00 -0.45593999997E+02  0.45594000000E+02  0.51100000000E-03 0.  1.
    9900012    2    1    2    0    0  0.84802562589E+01 -0.14097779763E+02 -0.37182034484E+02  0.50528857992E+02  0.29999994352E+02 0.  0.
         12    1    1    2    0    0 -0.84802562589E+01  0.14097779763E+02  0.37182034484E+02  0.40659142008E+02  0.00000000000E+00 0. -1.
         11    1    3    3    0    0 -0.35479271600E+01 -0.39272185261E+01 -0.20297130956E+01  0.56683831907E+01  0.51100000000E-03 0.  1.
        -11    1    3    3    0    0  0.10923480496E+01  0.45851930446E+01 -0.21407965464E+02  0.21920725469E+02  0.51100000000E-03 0. -1.
         12    1    3    3    0    0  0.10935835369E+02 -0.14755754282E+02 -0.13744355925E+02  0.22939749332E+02  0.00000000000E+00 0. -1.
</event>
<event>
 7    1  0.2639126E-011  0.5052885E+02  0.7816164E-02  0.1300439E+00
        -11   -1    0    0    0    0  0.00000000000E+00  0.00000000000E+00  0.45593999997E+02  0.45594000000E+02  0.51100000000E-03 0.  1.
         11   -1    0    0    0    0 -0.00000000000E+00 -0.00000000000E+00 -0.45593999997E+02  0.45594000000E+02  0.51100000000E-03 0. -1.
    9900012    2    1    2    0    0  0.15612719625E+02 -0.35465700836E+02  0.12312324583E+02  0.50528852363E+02  0.29999977243E+02 0.  0.
         12    1    1    2    0    0 -0.15612719625E+02  0.35465700836E+02 -0.12312324583E+02  0.40659147637E+02  0.00000000000E+00 0. -1.
         11    1    3    3    0    0  0.11679640971E+02 -0.38027709114E+02  0.15425541429E+02  0.42666942734E+02  0.51100000000E-03 0. -1.
        -11    1    3    3    0    0  0.20683408185E+01 -0.17453928851E+00  0.12204205384E+01  0.24078879243E+01  0.51100000000E-03 0.  1.
         12    1    3    3    0    0  0.18647378362E+01  0.27365475659E+01 -0.43336373843E+01  0.54540217048E+01  0.00000000000E+00 0. -1.
</event>
<event>
 7    1  0.2639126E-011  0.5052884E+02  0.7816164E-02  0.1300439E+00
        -11   -1    0    0    0    0  0.00000000000E+00  0.00000000000E+00  0.45593999997E+02  0.45594000000E+02  0.51100000000E-03 0.  1.
         11   -1    0    0    0    0 -0.00000000000E+00 -0.00000000000E+00 -0.45593999997E+02  0.45594000000E+02  0.51100000000E-03 0. -1.
    9900012    2    1    2    0    0  0.97582610839E+00 -0.57979586883E+01  0.40231813869E+02  0.50528838564E+02  0.29999935298E+02 0.  0.
         12    1    1    2    0    0 -0.97582610839E+00  0.57979586883E+01 -0.40231813869E+02  0.40659161436E+02  0.00000000000E+00 0. -1.
         11    1    3    3    0    0 -0.28462285066E+01 -0.86440371650E+01  0.10237819322E+02  0.13697931959E+02  0.51100000000E-03 0. -1.
        -11    1    3    3    0    0  0.11691611776E+02 -0.75277435326E+00  0.11520645329E+02  0.16431242320E+02  0.51100000000E-03 0.  1.
        -12    1    3    3    0    0 -0.78695571606E+01  0.35988528299E+01  0.18473349218E+02  0.20399664285E+02  0.00000000000E+00 0.  1.
</event>
<event>
 7    1  0.2639126E-011  0.5052885E+02  0.7816164E-02  0.1300439E+00
        -11   -1    0    0    0    0  0.00000000000E+00  0.00000000000E+00  0.45593999997E+02  0.45594000000E+02  0.51100000000E-03 0. -1.
         11   -1    0    0    0    0 -0.00000000000E+00 -0.00000000000E+00 -0.45593999997E+02  0.45594000000E+02  0.51100000000E-03 0.  1.
    9900012    2    1    2    0    0 -0.17523543500E+02 -0.31987408163E+02 -0.17969346233E+02  0.50528852667E+02  0.29999978166E+02 0.  0.
         12    1    1    2    0    0  0.17523543500E+02  0.31987408163E+02  0.17969346233E+02  0.40659147333E+02  0.00000000000E+00 0. -1.
         11    1    3    3    0    0 -0.10770716538E+02 -0.49681577816E+01  0.87688408288E+00  0.11893689605E+02  0.51100000000E-03 0.  1.
        -11    1    3    3    0    0  0.24663773698E+01 -0.79675564537E+01  0.23662066694E+01  0.86697120735E+01  0.51100000000E-03 0. -1.
        -12    1    3    3    0    0 -0.92192043328E+01 -0.19051693928E+02 -0.21212436986E+02  0.29965450988E+02  0.00000000000E+00 0.  1.
</event>
<event>
 7    1  0.2639126E-011  0.5052895E+02  0.7816164E-02  0.1300438E+00
        -11   -1    0    0    0    0  0.00000000000E+00  0.00000000000E+00  0.45593999997E+02  0.45594000000E+02  0.51100000000E-03 0. -1.
         11   -1    0    0    0    0 -0.00000000000E+00 -0.00000000000E+00 -0.45593999997E+02  0.45594000000E+02  0.51100000000E-03 0.  1.
    9900012    2    1    2    0    0 -0.25644721640E+02 -0.24004176100E+02 -0.20476959344E+02  0.50528953255E+02  0.30000283912E+02 0.  0.
         12    1    1    2    0    0  0.25644721640E+02  0.24004176100E+02  0.20476959344E+02  0.40659046745E+02  0.00000000000E+00 0. -1.
         11    1    3    3    0    0 -0.10407951505E+02 -0.14148068624E+02  0.11406036215E+00  0.17564347707E+02  0.51100000000E-03 0. -1.
        -11    1    3    3    0    0 -0.30260160717E+01 -0.99598150255E+01 -0.18140889734E+01  0.10566248515E+02  0.51100000000E-03 0.  1.
        -12    1    3    3    0    0 -0.12210754063E+02  0.10370754964E+00 -0.18776930733E+02  0.22398357034E+02  0.00000000000E+00 0.  1.
</event>
<event>
 7    1  0.2639126E-011  0.5052886E+02  0.7816164E-02  0.1300439E+00
        -11   -1    0    0    0    0  0.00000000000E+00  0.00000000000E+00  0.45593999997E+02  0.45594000000E+02  0.51100000000E-03 0. -1.
         11   -1    0    0    0    0 -0.00000000000E+00 -0.00000000000E+00 -0.45593999997E+02  0.45594000000E+02  0.51100000000E-03 0.  1.
    9900012    2    1    2    0    0  0.18353933698E+02 -0.27969805307E+02 -0.23108201780E+02  0.50528857355E+02  0.29999992417E+02 0.  0.
         12    1    1    2    0    0 -0.18353933698E+02  0.27969805307E+02  0.23108201780E+02  0.40659142645E+02  0.00000000000E+00 0. -1.
         11    1    3    3    0    0  0.19155437676E+02 -0.25217557039E+02 -0.69590833957E+01  0.32423522596E+02  0.51100000000E-03 0. -1.
        -11    1    3    3    0    0 -0.23311271719E+01  0.20720498528E+01 -0.58230704073E+01  0.66057318833E+01  0.51100000000E-03 0.  1.
        -12    1    3    3    0    0  0.15296231938E+01 -0.48242981202E+01 -0.10326047977E+02  0.11499602876E+02  0.00000000000E+00 0.  1.
</event>
<event>
 7    1  0.2639126E-011  0.5052880E+02  0.7816164E-02  0.1300439E+00
        -11   -1    0    0    0    0  0.00000000000E+00  0.00000000000E+00  0.45593999997E+02  0.45594000000E+02  0.51100000000E-03 0.  1.
         11   -1    0    0    0    0 -0.00000000000E+00 -0.00000000000E+00 -0.45593999997E+02  0.45594000000E+02  0.51100000000E-03 0. -1.
    9900012    2    1    2    0    0  0.34725889732E+02 -0.13944037207E+02  0.15901174294E+02  0.50528795197E+02  0.29999803479E+02 0.  0.
         12    1    1    2    0    0 -0.34725889732E+02  0.13944037207E+02 -0.15901174294E+02  0.40659204803E+02  0.00000000000E+00 0. -1.
         11    1    3    3    0    0 -0.17866266655E+00 -0.42529688042E+01  0.66005856745E+01  0.78541323840E+01  0.51100000000E-03 0.  1.
        -11    1    3    3    0    0  0.17941312559E+02 -0.69336291940E+01 -0.54877076877E+01  0.20002021049E+02  0.51100000000E-03 0. -1.
         12    1    3    3    0    0  0.16963239840E+02 -0.27574392087E+01  0.14788296307E+02  0.22672641763E+02  0.00000000000E+00 0. -1.
</event>
<event>
 7    1  0.2639126E-011  0.5052886E+02  0.7816164E-02  0.1300439E+00
        -11   -1    0    0    0    0  0.00000000000E+00  0.00000000000E+00  0.45593999997E+02  0.45594000000E+02  0.51100000000E-03 0. -1.
         11   -1    0    0    0    0 -0.00000000000E+00 -0.00000000000E+00 -0.45593999997E+02  0.45594000000E+02  0.51100000000E-03 0.  1.
    9900012    2    1    2    0    0 -0.12396627079E+02 -0.38444203891E+02 -0.46403084390E+01  0.50528860337E+02  0.30000001480E+02 0.  0.
         12    1    1    2    0    0  0.12396627079E+02  0.38444203891E+02  0.46403084390E+01  0.40659139663E+02  0.00000000000E+00 0. -1.
         11    1    3    3    0    0  0.36676257298E+01  0.76914159154E+00  0.29076827838E+01  0.47431715881E+01  0.51100000000E-03 0.  1.
        -11    1    3    3    0    0  0.65550391125E+00 -0.96667020121E+01  0.31543094434E+01  0.10189429891E+02  0.51100000000E-03 0. -1.
        -12    1    3    3    0    0 -0.16719756720E+02 -0.29546643471E+02 -0.10702300666E+02  0.35596258858E+02  0.00000000000E+00 0.  1.
</event>
<event>
 7    1  0.2639126E-011  0.5052885E+02  0.7816164E-02  0.1300439E+00
        -11   -1    0    0    0    0  0.00000000000E+00  0.00000000000E+00  0.45593999997E+02  0.45594000000E+02  0.51100000000E-03 0. -1.
         11   -1    0    0    0    0 -0.00000000000E+00 -0.00000000000E+00 -0.45593999997E+02  0.45594000000E+02  0.51100000000E-03 0.  1.
    9900012    2    1    2    0    0  0.12080331452E+02  0.51517417740E+01 -0.38479754300E+02  0.50528851677E+02  0.29999975159E+02 0.  0.
         12    1    1    2    0    0 -0.12080331452E+02 -0.51517417740E+01  0.38479754300E+02  0.40659148323E+02  0.00000000000E+00 0. -1.
         11    1    3    3    0    0  0.15937278921E+02  0.87260587650E+01 -0.30169472025E+02  0.35218432724E+02  0.51100000000E-03 0. -1.
        -11    1    3    3    0    0  0.22592348935E+01  0.93295698731E+00 -0.72354788662E+01  0.76371922674E+01  0.51100000000E-03 0.  1.
         12    1    3    3    0    0 -0.61161823627E+01 -0.45072739783E+01 -0.10748034090E+01  0.76732266862E+01  0.00000000000E+00 0. -1.
</event>
<event>
 7    1  0.2639126E-011  0.5052887E+02  0.7816164E-02  0.1300439E+00
        -11   -1    0    0    0    0  0.00000000000E+00  0.00000000000E+00  0.45593999997E+02  0.45594000000E+02  0.51100000000E-03 0.  1.
         11   -1    0    0    0    0 -0.00000000000E+00 -0.00000000000E+00 -0.45593999997E+02  0.45594000000E+02  0.51100000000E-03 0. -1.
    9900012    2    1    2    0    0  0.11880758306E+02  0.72934068771E+01  0.38194489016E+02  0.50528865811E+02  0.30000018120E+02 0.  0.
         12    1    1    2    0    0 -0.11880758306E+02 -0.72934068771E+01 -0.38194489016E+02  0.40659134189E+02  0.00000000000E+00 0. -1.
         11    1    3    3    0    0 -0.18265880200E+01  0.81455940935E+01  0.13849956882E+01  0.84619938696E+01  0.51100000000E-03 0. -1.
        -11    1    3    3    0    0  0.52440272975E+01  0.64352037174E+01  0.98247557732E+01  0.12862250792E+02  0.51100000000E-03 0.  1.
         12    1    3    3    0    0  0.84633190289E+01 -0.72873909338E+01  0.26984737554E+02  0.29204621149E+02  0.00000000000E+00 0. -1.
</event>
<event>
 7    1  0.2639126E-011  0.5052886E+02  0.7816164E-02  0.1300439E+00
        -11   -1    0    0    0    0  0.00000000000E+00  0.00000000000E+00  0.45593999997E+02  0.45594000000E+02  0.51100000000E-03 0.  1.
         11   -1    0    0    0    0 -0.00000000000E+00 -0.00000000000E+00 -0.45593999997E+02  0.45594000000E+02  0.51100000000E-03 0. -1.
    9900012    2    1    2    0    0  0.46553081571E+01 -0.30110200045E+02  0.26923399914E+02  0.50528861990E+02  0.30000006505E+02 0.  0.
         12    1    1    2    0    0 -0.46553081571E+01  0.30110200045E+02 -0.26923399914E+02  0.40659138010E+02  0.00000000000E+00 0. -1.
         11    1    3    3    0    0 -0.16561954924E+01 -0.37759676295E+01 -0.63557182736E+00  0.41719140519E+01  0.51100000000E-03 0. -1.
        -11    1    3    3    0    0  0.11037515468E+02 -0.11764823090E+02  0.15933742935E+01  0.16210387162E+02  0.51100000000E-03 0.  1.
        -12    1    3    3    0    0 -0.47260118184E+01 -0.14569409326E+02  0.25965597447E+02  0.30146560776E+02  0.00000000000E+00 0.  1.
</event>
<event>
 7    1  0.2639126E-011  0.5052886E+02  0.7816164E-02  0.1300439E+00
        -11   -1    0    0    0    0  0.00000000000E+00  0.00000000000E+00  0.45593999997E+02  0.45594000000E+02  0.51100000000E-03 0. -1.
         11   -1    0    0    0    0 -0.00000000000E+00 -0.00000000000E+00 -0.45593999997E+02  0.45594000000E+02  0.51100000000E-03 0.  1.
    9900012    2    1    2    0    0  0.11425035853E+02 -0.32421415102E+02 -0.21713736022E+02  0.50528856705E+02  0.29999990440E+02 0.  0.
         12    1    1    2    0    0 -0.11425035853E+02  0.32421415102E+02  0.21713736022E+02  0.40659143295E+02  0.00000000000E+00 0. -1.
         11    1    3    3    0    0  0.14713408085E+02 -0.11971152105E+02 -0.54213703560E+01  0.19727749922E+02  0.51100000000E-03 0. -1.
        -11    1    3    3    0    0  0.56157053326E+01 -0.13689793595E+02 -0.10966015782E+02  0.18417385738E+02  0.51100000000E-03 0.  1.
         12    1    3    3    0    0 -0.89040775647E+01 -0.67604694026E+01 -0.53263498841E+01  0.12383721045E+02  0.00000000000E+00 0. -1.
</event>
