<event>
 7    1  0.3062695E-010  0.4778727E+02  0.7816164E-02  0.1312668E+00
        -11   -1    0    0    0    0  0.00000000000E+00  0.00000000000E+00  0.45593999997E+02  0.45594000000E+02  0.51100000000E-03 0. -1.
         11   -1    0    0    0    0 -0.00000000000E+00 -0.00000000000E+00 -0.45593999997E+02  0.45594000000E+02  0.51100000000E-03 0.  1.
    9900012    2    1    2    0    0 -0.18084237040E+01 -0.24658655070E+02  0.35669366146E+02  0.47787270197E+02  0.19999996137E+02 0.  0.
        -12    1    1    2    0    0  0.18084237040E+01  0.24658655070E+02 -0.35669366146E+02  0.43400729803E+02  0.00000000000E+00 0.  1.
         11    1    3    3    0    0 -0.47732698293E+00 -0.12995751086E+02  0.25712403539E+02  0.28813973752E+02  0.51100000000E-03 0. -1.
        -11    1    3    3    0    0 -0.55197277072E+01 -0.25511058296E+01  0.31056493859E+01  0.68279274517E+01  0.51100000000E-03 0.  1.
        -12    1    3    3    0    0  0.41886309862E+01 -0.91117981546E+01  0.68513132206E+01  0.12145368994E+02  0.00000000000E+00 0.  1.
</event>
<event>
 7    1  0.3062695E-010  0.4778727E+02  0.7816164E-02  0.1312668E+00
        -11   -1    0    0    0    0  0.00000000000E+00  0.00000000000E+00  0.45593999997E+02  0.45594000000E+02  0.51100000000E-03 0.  1.
         11   -1    0    0    0    0 -0.00000000000E+00 -0.00000000000E+00 -0.45593999997E+02  0.45594000000E+02  0.51100000000E-03 0. -1.
    9900012    2    1    2    0    0  0.90742392832E+01 -0.74146849135E+01 -0.41788803192E+02  0.47787269094E+02  0.19999991108E+02 0.  0.
        -12    1    1    2    0    0 -0.90742392832E+01  0.74146849135E+01  0.41788803192E+02  0.43400730906E+02  0.00000000000E+00 0.  1.
         11    1    3    3    0    0 -0.40048397207E+01  0.25951365422E+01 -0.12054614430E+02  0.12964844934E+02  0.51100000000E-03 0. -1.
        -11    1    3    3    0    0  0.22113845284E+01  0.20148797452E+00 -0.90793446002E+01  0.93469416157E+01  0.51100000000E-03 0.  1.
         12    1    3    3    0    0  0.10867694476E+02 -0.10211309430E+02 -0.20654844162E+02  0.25475482544E+02  0.00000000000E+00 0. -1.
</event>
<event>
 7    1  0.3062695E-010  0.4778728E+02  0.7816164E-02  0.1312668E+00
        -11   -1    0    0    0    0  0.00000000000E+00  0.00000000000E+00  0.45593999997E+02  0.45594000000E+02  0.51100000000E-03 0. -1.
         11   -1    0    0    0    0 -0.00000000000E+00 -0.00000000000E+00 -0.45593999997E+02  0.45594000000E+02  0.51100000000E-03 0.  1.
    9900012    2    1    2    0    0  0.35902417047E+02 -0.19614138101E+02  0.14488775675E+02  0.47787278994E+02  0.20000036246E+02 0.  0.
        -12    1    1    2    0    0 -0.35902417047E+02  0.19614138101E+02 -0.14488775675E+02  0.43400721006E+02  0.00000000000E+00 0.  1.
         11    1    3    3    0    0  0.12893218429E+01 -0.25336383344E+01  0.35499237949E+01  0.45479262566E+01  0.51100000000E-03 0. -1.
        -11    1    3    3    0    0  0.53530858657E+00 -0.38103851615E+01 -0.21372639177E+01  0.44015324236E+01  0.51100000000E-03 0.  1.
        -12    1    3    3    0    0  0.34077786617E+02 -0.13270114605E+02  0.13076115798E+02  0.38837820314E+02  0.00000000000E+00 0.  1.
</event>
<event>
 7    1  0.3062695E-010  0.4778731E+02  0.7816164E-02  0.1312668E+00
        -11   -1    0    0    0    0  0.00000000000E+00  0.00000000000E+00  0.45593999997E+02  0.45594000000E+02  0.51100000000E-03 0. -1.
         11   -1    0    0    0    0 -0.00000000000E+00 -0.00000000000E+00 -0.45593999997E+02  0.45594000000E+02  0.51100000000E-03 0.  1.
    9900012    2    1    2    0    0  0.47011785951E+01 -0.36950746111E+02  0.22274681007E+02  0.47787307237E+02  0.20000165014E+02 0.  0.
        -12    1    1    2    0    0 -0.47011785951E+01  0.36950746111E+02 -0.22274681007E+02  0.43400692763E+02  0.00000000000E+00 0.  1.
         11    1    3    3    0    0  0.59562650547E+01 -0.34449152073E+02  0.22045703238E+02  0.41330790018E+02  0.51100000000E-03 0. -1.
        -11    1    3    3    0    0  0.14079080204E+01 -0.30258949216E+01  0.12398485708E+01  0.35602626041E+01  0.51100000000E-03 0.  1.
         12    1    3    3    0    0 -0.26629944800E+01  0.52430088343E+00 -0.10108708015E+01  0.28962546149E+01  0.00000000000E+00 0. -1.
</event>
<event>
 7    1  0.3062695E-010  0.4778728E+02  0.7816164E-02  0.1312668E+00
        -11   -1    0    0    0    0  0.00000000000E+00  0.00000000000E+00  0.45593999997E+02  0.45594000000E+02  0.51100000000E-03 0.  1.
         11   -1    0    0    0    0 -0.00000000000E+00 -0.00000000000E+00 -0.45593999997E+02  0.45594000000E+02  0.51100000000E-03 0. -1.
    9900012    2    1    2    0    0  0.40049721050E+02  0.15610947187E+02 -0.59950175826E+01  0.47787284982E+02  0.20000063546E+02 0.  0.
        -12    1    1    2    0    0 -0.40049721050E+02 -0.15610947187E+02  0.59950175826E+01  0.43400715018E+02  0.00000000000E+00 0.  1.
         11    1    3    3    0    0  0.22750293124E+02  0.36068360148E+00 -0.26015458089E+01  0.22901396698E+02  0.51100000000E-03 0. -1.
        -11    1    3    3    0    0  0.10214040958E+02  0.13416941509E+02 -0.45758989391E+01  0.17472258111E+02  0.51100000000E-03 0.  1.
         12    1    3    3    0    0  0.70853869685E+01  0.18333220763E+01  0.11824271655E+01  0.74136301722E+01  0.00000000000E+00 0. -1.
</event>
<event>
 7    1  0.3062695E-010  0.4778728E+02  0.7816164E-02  0.1312668E+00
        -11   -1    0    0    0    0  0.00000000000E+00  0.00000000000E+00  0.45593999997E+02  0.45594000000E+02  0.51100000000E-03 0.  1.
         11   -1    0    0    0    0 -0.00000000000E+00 -0.00000000000E+00 -0.45593999997E+02  0.45594000000E+02  0.51100000000E-03 0. -1.
    9900012    2    1    2    0    0  0.78669274822E+01  0.33299611373E+02 -0.26699626092E+02  0.47787277667E+02  0.20000030194E+02 0.  0.
        -12    1    1    2    0    0 -0.78669274822E+01 -0.33299611373E+02  0.26699626092E+02  0.43400722333E+02  0.00000000000E+00 0.  1.
         11    1    3    3    0    0  0.92152166472E+01  0.29544071046E+02 -0.16248237977E+02  0.34953935250E+02  0.51100000000E-03 0. -1.
        -11    1    3    3    0    0 -0.35513132922E+01  0.66165031172E+00 -0.44587435463E+01  0.57384668255E+01  0.51100000000E-03 0.  1.
         12    1    3    3    0    0  0.22030241273E+01  0.30938900145E+01 -0.59926445691E+01  0.70948755915E+01  0.00000000000E+00 0. -1.
</event>
<event>
 7    1  0.3062695E-010  0.4778727E+02  0.7816164E-02  0.1312668E+00
        -11   -1    0    0    0    0  0.00000000000E+00  0.00000000000E+00  0.45593999997E+02  0.45594000000E+02  0.51100000000E-03 0.  1.
         11   -1    0    0    0    0 -0.00000000000E+00 -0.00000000000E+00 -0.45593999997E+02  0.45594000000E+02  0.51100000000E-03 0. -1.
    9900012    2    1    2    0    0 -0.18740425175E+02  0.27942694615E+01 -0.39046274895E+02  0.47787273500E+02  0.20000011196E+02 0.  0.
        -12    1    1    2    0    0  0.18740425175E+02 -0.27942694615E+01  0.39046274895E+02  0.43400726500E+02  0.00000000000E+00 0.  1.
         11    1    3    3    0    0 -0.27938756073E+01  0.62529268566E+01 -0.43426972163E+01  0.81094916337E+01  0.51100000000E-03 0. -1.
        -11    1    3    3    0    0 -0.42313840655E+00  0.12661390787E+00 -0.11628725406E+02  0.11637110123E+02  0.51100000000E-03 0.  1.
         12    1    3    3    0    0 -0.15523411161E+02 -0.35852713030E+01 -0.23074852272E+02  0.28040671743E+02  0.00000000000E+00 0. -1.
</event>
<event>
 7    1  0.3062695E-010  0.4778727E+02  0.7816164E-02  0.1312668E+00
        -11   -1    0    0    0    0  0.00000000000E+00  0.00000000000E+00  0.45593999997E+02  0.45594000000E+02  0.51100000000E-03 0.  1.
         11   -1    0    0    0    0 -0.00000000000E+00 -0.00000000000E+00 -0.45593999997E+02  0.45594000000E+02  0.51100000000E-03 0. -1.
    9900012    2    1    2    0    0  0.41726803175E+01 -0.37985836487E+02 -0.20573966268E+02  0.47787272787E+02  0.20000007945E+02 0.  0.
        -12    1    1    2    0    0 -0.41726803175E+01  0.37985836487E+02  0.20573966268E+02  0.43400727213E+02  0.00000000000E+00 0.  1.
         11    1    3    3    0    0  0.91993650608E+01 -0.91905558830E+01 -0.24868264505E+01  0.13239295337E+02  0.51100000000E-03 0. -1.
        -11    1    3    3    0    0 -0.14663858809E+01 -0.14634200398E+02 -0.10670715641E+02  0.18170698429E+02  0.51100000000E-03 0.  1.
         12    1    3    3    0    0 -0.35602988624E+01 -0.14161080206E+02 -0.74164241760E+01  0.16377279021E+02  0.00000000000E+00 0. -1.
</event>
<event>
 7    1  0.3062695E-010  0.4778727E+02  0.7816164E-02  0.1312668E+00
        -11   -1    0    0    0    0  0.00000000000E+00  0.00000000000E+00  0.45593999997E+02  0.45594000000E+02  0.51100000000E-03 0. -1.
         11   -1    0    0    0    0 -0.00000000000E+00 -0.00000000000E+00 -0.45593999997E+02  0.45594000000E+02  0.51100000000E-03 0.  1.
    9900012    2    1    2    0    0  0.36112135301E+02  0.17213994069E+02  0.16828999104E+02  0.47787272833E+02  0.20000008154E+02 0.  0.
        -12    1    1    2    0    0 -0.36112135301E+02 -0.17213994069E+02 -0.16828999104E+02  0.43400727167E+02  0.00000000000E+00 0.  1.
         11    1    3    3    0    0  0.22988107719E+02  0.11506124316E+02  0.47222963716E+01  0.26137025013E+02  0.51100000000E-03 0. -1.
        -11    1    3    3    0    0  0.17377992494E+01  0.61171200434E+01  0.59057140512E+01  0.86785115412E+01  0.51100000000E-03 0.  1.
         12    1    3    3    0    0  0.11386228333E+02 -0.40925029022E+00  0.62009886815E+01  0.12971736278E+02  0.00000000000E+00 0. -1.
</event>
<event>
 7    1  0.3062695E-010  0.4778727E+02  0.7816164E-02  0.1312668E+00
        -11   -1    0    0    0    0  0.00000000000E+00  0.00000000000E+00  0.45593999997E+02  0.45594000000E+02  0.51100000000E-03 0.  1.
         11   -1    0    0    0    0 -0.00000000000E+00 -0.00000000000E+00 -0.45593999997E+02  0.45594000000E+02  0.51100000000E-03 0. -1.
    9900012    2    1    2    0    0  0.40896285024E+02  0.13301714647E+02 -0.58464920084E+01  0.47787271779E+02  0.20000003350E+02 0.  0.
        -12    1    1    2    0    0 -0.40896285024E+02 -0.13301714647E+02  0.58464920084E+01  0.43400728221E+02  0.00000000000E+00 0.  1.
         11    1    3    3    0    0  0.34959470305E+01  0.69946463042E+00 -0.63345102309E+00  0.36210712322E+01  0.51100000000E-03 0. -1.
        -11    1    3    3    0    0  0.72974423346E+01  0.45292156774E+01 -0.93847380909E+01  0.12721626019E+02  0.51100000000E-03 0.  1.
        -12    1    3    3    0    0  0.30102895659E+02  0.80730343388E+01  0.41716971056E+01  0.31444574528E+02  0.00000000000E+00 0.  1.
</event>
<event>
 7    1  0.3062695E-010  0.4778727E+02  0.7816164E-02  0.1312668E+00
        -11   -1    0    0    0    0  0.00000000000E+00  0.00000000000E+00  0.45593999997E+02  0.45594000000E+02  0.51100000000E-03 0.  1.
         11   -1    0    0    0    0 -0.00000000000E+00 -0.00000000000E+00 -0.45593999997E+02  0.45594000000E+02  0.51100000000E-03 0. -1.
    9900012    2    1    2    0    0 -0.60838064175E+01 -0.37183605833E+02  0.21540421956E+02  0.47787273954E+02  0.20000013267E+02 0.  0.
        -12    1    1    2    0    0  0.60838064175E+01  0.37183605833E+02 -0.21540421956E+02  0.43400726046E+02  0.00000000000E+00 0.  1.
         11    1    3    3    0    0  0.39126602959E+01 -0.51527333435E+01  0.77487892583E+01  0.10094716773E+02  0.51100000000E-03 0.  1.
        -11    1    3    3    0    0 -0.62403726410E+01 -0.21616565785E+02  0.38767740171E+01  0.22830846328E+02  0.51100000000E-03 0. -1.
         12    1    3    3    0    0 -0.37560940724E+01 -0.10414306705E+02  0.99148586806E+01  0.14861710853E+02  0.00000000000E+00 0. -1.
</event>
<event>
 7    1  0.3062695E-010  0.4778727E+02  0.7816164E-02  0.1312668E+00
        -11   -1    0    0    0    0  0.00000000000E+00  0.00000000000E+00  0.45593999997E+02  0.45594000000E+02  0.51100000000E-03 0.  1.
         11   -1    0    0    0    0 -0.00000000000E+00 -0.00000000000E+00 -0.45593999997E+02  0.45594000000E+02  0.51100000000E-03 0. -1.
    9900012    2    1    2    0    0 -0.74972745462E+01 -0.17116439355E+02 -0.39171950829E+02  0.47787270126E+02  0.19999995814E+02 0.  0.
        -12    1    1    2    0    0  0.74972745462E+01  0.17116439355E+02  0.39171950829E+02  0.43400729874E+02  0.00000000000E+00 0.  1.
         11    1    3    3    0    0 -0.28946300156E+01 -0.83526643453E+01 -0.29015350338E+02  0.30332102467E+02  0.51100000000E-03 0. -1.
        -11    1    3    3    0    0 -0.60594314803E+01 -0.80018383158E+01 -0.35491255769E+01  0.10646239661E+02  0.51100000000E-03 0.  1.
         12    1    3    3    0    0  0.14567869497E+01 -0.76193669358E+00 -0.66074749142E+01  0.68089279981E+01  0.00000000000E+00 0. -1.
</event>
<event>
 7    1  0.3062695E-010  0.4778727E+02  0.7816164E-02  0.1312668E+00
        -11   -1    0    0    0    0  0.00000000000E+00  0.00000000000E+00  0.45593999997E+02  0.45594000000E+02  0.51100000000E-03 0. -1.
         11   -1    0    0    0    0 -0.00000000000E+00 -0.00000000000E+00 -0.45593999997E+02  0.45594000000E+02  0.51100000000E-03 0.  1.
    9900012    2    1    2    0    0  0.19288437154E+02  0.38798921885E+02  0.24946218213E+01  0.47787270913E+02  0.19999999401E+02 0.  0.
        -12    1    1    2    0    0 -0.19288437154E+02 -0.38798921885E+02 -0.24946218213E+01  0.43400729087E+02  0.00000000000E+00 0.  1.
         11    1    3    3    0    0  0.18683052570E+02  0.32931273286E+02  0.69780466246E+01  0.38499588940E+02  0.51100000000E-03 0. -1.
        -11    1    3    3    0    0 -0.61868404459E+00  0.63187066396E+01 -0.47832907421E+01  0.79491316588E+01  0.51100000000E-03 0.  1.
         12    1    3    3    0    0  0.12240686281E+01 -0.45105804109E+00  0.29986593878E+00  0.13385503143E+01  0.00000000000E+00 0. -1.
</event>
<event>
 7    1  0.3062695E-010  0.4778728E+02  0.7816164E-02  0.1312668E+00
        -11   -1    0    0    0    0  0.00000000000E+00  0.00000000000E+00  0.45593999997E+02  0.45594000000E+02  0.51100000000E-03 0.  1.
         11   -1    0    0    0    0 -0.00000000000E+00 -0.00000000000E+00 -0.45593999997E+02  0.45594000000E+02  0.51100000000E-03 0. -1.
    9900012    2    1    2    0    0 -0.41018661196E+01  0.26087023455E+02 -0.34442191110E+02  0.47787278498E+02  0.20000033983E+02 0.  0.
        -12    1    1    2    0    0  0.41018661196E+01 -0.26087023455E+02  0.34442191110E+02  0.43400721502E+02  0.00000000000E+00 0.  1.
         11    1    3    3    0    0  0.49224255682E+01  0.10382142544E+02 -0.66339043339E+01  0.13267548540E+02  0.51100000000E-03 0.  1.
        -11    1    3    3    0    0  0.14986207745E+01  0.57386062391E+01 -0.89141937607E+01  0.10707021829E+02  0.51100000000E-03 0. -1.
         12    1    3    3    0    0 -0.10522912462E+02  0.99662746717E+01 -0.18894093016E+02  0.23812708128E+02  0.00000000000E+00 0. -1.
</event>
<event>
 7    1  0.3062695E-010  0.4778727E+02  0.7816164E-02  0.1312668E+00
        -11   -1    0    0    0    0  0.00000000000E+00  0.00000000000E+00  0.45593999997E+02  0.45594000000E+02  0.51100000000E-03 0.  1.
         11   -1    0    0    0    0 -0.00000000000E+00 -0.00000000000E+00 -0.45593999997E+02  0.45594000000E+02  0.51100000000E-03 0. -1.
    9900012    2    1    2    0    0 -0.11741464383E+02 -0.38459956164E+02 -0.16327672024E+02  0.47787273189E+02  0.20000009779E+02 0.  0.
        -12    1    1    2    0    0  0.11741464383E+02  0.38459956164E+02  0.16327672024E+02  0.43400726811E+02  0.00000000000E+00 0.  1.
         11    1    3    3    0    0 -0.74043083954E+01 -0.16298507407E+02 -0.13335535275E+02  0.22322670715E+02  0.51100000000E-03 0. -1.
        -11    1    3    3    0    0 -0.52828701629E+01 -0.92099155566E+01  0.31841082524E+01  0.11084665414E+02  0.51100000000E-03 0.  1.
        -12    1    3    3    0    0  0.94571417580E+00 -0.12951533200E+02 -0.61762450013E+01  0.14379937060E+02  0.00000000000E+00 0.  1.
</event>
<event>
 7    1  0.3062695E-010  0.4778727E+02  0.7816164E-02  0.1312668E+00
        -11   -1    0    0    0    0  0.00000000000E+00  0.00000000000E+00  0.45593999997E+02  0.45594000000E+02  0.51100000000E-03 0.  1.
         11   -1    0    0    0    0 -0.00000000000E+00 -0.00000000000E+00 -0.45593999997E+02  0.45594000000E+02  0.51100000000E-03 0. -1.
    9900012    2    1    2    0    0  0.39143902454E+02  0.13026299169E+02 -0.13479381333E+02  0.47787270853E+02  0.19999999128E+02 0.  0.
        -12    1    1    2    0    0 -0.39143902454E+02 -0.13026299169E+02  0.13479381333E+02  0.43400729147E+02  0.00000000000E+00 0.  1.
         11    1    3    3    0    0  0.26390525079E+02  0.12538056970E+02 -0.52683104958E+01  0.29688681047E+02  0.51100000000E-03 0. -1.
        -11    1    3    3    0    0  0.18759226748E+01 -0.25182312926E+01  0.12423722797E+01  0.33769903564E+01  0.51100000000E-03 0.  1.
         12    1    3    3    0    0  0.10877454700E+02  0.30064734915E+01 -0.94534431170E+01  0.14721599450E+02  0.00000000000E+00 0. -1.
</event>
<event>
 7    1  0.3062695E-010  0.4778727E+02  0.7816164E-02  0.1312668E+00
        -11   -1    0    0    0    0  0.00000000000E+00  0.00000000000E+00  0.45593999997E+02  0.45594000000E+02  0.51100000000E-03 0.  1.
         11   -1    0    0    0    0 -0.00000000000E+00 -0.00000000000E+00 -0.45593999997E+02  0.45594000000E+02  0.51100000000E-03 0. -1.
    9900012    2    1    2    0    0  0.58779867552E+00  0.32640755366E+02 -0.28598230397E+02  0.47787271896E+02  0.20000003884E+02 0.  0.
        -12    1    1    2    0    0 -0.58779867552E+00 -0.32640755366E+02  0.28598230397E+02  0.43400728104E+02  0.00000000000E+00 0.  1.
         11    1    3    3    0    0 -0.42796234908E+01  0.26654080612E+02 -0.12185789951E+02  0.29618383944E+02  0.51100000000E-03 0. -1.
        -11    1    3    3    0    0  0.22103337360E+01  0.30823090126E+01 -0.68923505582E+01  0.78670642906E+01  0.51100000000E-03 0.  1.
         12    1    3    3    0    0  0.26570884303E+01  0.29043657412E+01 -0.95200898873E+01  0.10301823661E+02  0.00000000000E+00 0. -1.
</event>
<event>
 7    1  0.3062695E-010  0.4778727E+02  0.7816164E-02  0.1312668E+00
        -11   -1    0    0    0    0  0.00000000000E+00  0.00000000000E+00  0.45593999997E+02  0.45594000000E+02  0.51100000000E-03 0.  1.
         11   -1    0    0    0    0 -0.00000000000E+00 -0.00000000000E+00 -0.45593999997E+02  0.45594000000E+02  0.51100000000E-03 0. -1.
    9900012    2    1    2    0    0  0.33206407890E+02 -0.15791713140E+02 -0.23056009460E+02  0.47787270731E+02  0.19999998571E+02 0.  0.
        -12    1    1    2    0    0 -0.33206407890E+02  0.15791713140E+02  0.23056009460E+02  0.43400729269E+02  0.00000000000E+00 0.  1.
         11    1    3    3    0    0  0.30074021884E+01 -0.35258264784E+01 -0.39645501063E+00  0.46511393351E+01  0.51100000000E-03 0. -1.
        -11    1    3    3    0    0  0.55684535052E+00 -0.46192288853E+01 -0.78600090955E+01  0.91338434124E+01  0.51100000000E-03 0.  1.
        -12    1    3    3    0    0  0.29642160351E+02 -0.76466577765E+01 -0.14799545354E+02  0.34002287984E+02  0.00000000000E+00 0.  1.
</event>
<event>
 7    1  0.3062695E-010  0.4778727E+02  0.7816164E-02  0.1312668E+00
        -11   -1    0    0    0    0  0.00000000000E+00  0.00000000000E+00  0.45593999997E+02  0.45594000000E+02  0.51100000000E-03 0.  1.
         11   -1    0    0    0    0 -0.00000000000E+00 -0.00000000000E+00 -0.45593999997E+02  0.45594000000E+02  0.51100000000E-03 0. -1.
    9900012    2    1    2    0    0 -0.69585770679E+01  0.20316924538E+02 -0.37715038725E+02  0.47787270011E+02  0.19999995289E+02 0.  0.
        -12    1    1    2    0    0  0.69585770679E+01 -0.20316924538E+02  0.37715038725E+02  0.43400729989E+02  0.00000000000E+00 0.  1.
         11    1    3    3    0    0 -0.23271139891E+01 -0.12712389783E+01 -0.10559452811E+02  0.10887311513E+02  0.51100000000E-03 0. -1.
        -11    1    3    3    0    0 -0.54709960590E+01  0.18614093122E+02 -0.15474059465E+02  0.24816582706E+02  0.51100000000E-03 0.  1.
        -12    1    3    3    0    0  0.83953298024E+00  0.29740703950E+01 -0.11681526449E+02  0.12083375792E+02  0.00000000000E+00 0.  1.
</event>
<event>
 7    1  0.3062695E-010  0.4778727E+02  0.7816164E-02  0.1312668E+00
        -11   -1    0    0    0    0  0.00000000000E+00  0.00000000000E+00  0.45593999997E+02  0.45594000000E+02  0.51100000000E-03 0.  1.
         11   -1    0    0    0    0 -0.00000000000E+00 -0.00000000000E+00 -0.45593999997E+02  0.45594000000E+02  0.51100000000E-03 0. -1.
    9900012    2    1    2    0    0 -0.24105395749E+02 -0.72003481183E+01 -0.35365358269E+02  0.47787266334E+02  0.19999978525E+02 0.  0.
        -12    1    1    2    0    0  0.24105395749E+02  0.72003481183E+01  0.35365358269E+02  0.43400733666E+02  0.00000000000E+00 0.  1.
         11    1    3    3    0    0 -0.11928014091E+02  0.25481956341E+01 -0.12928348470E+02  0.17773942038E+02  0.51100000000E-03 0. -1.
        -11    1    3    3    0    0 -0.67454987810E+01 -0.91426842666E+01 -0.21705037923E+02  0.24498961221E+02  0.51100000000E-03 0.  1.
        -12    1    3    3    0    0 -0.54318828765E+01 -0.60585948569E+00 -0.73197187614E+00  0.55143630755E+01  0.00000000000E+00 0.  1.
</event>
<event>
 7    1  0.3062695E-010  0.4778727E+02  0.7816164E-02  0.1312668E+00
        -11   -1    0    0    0    0  0.00000000000E+00  0.00000000000E+00  0.45593999997E+02  0.45594000000E+02  0.51100000000E-03 0.  1.
         11   -1    0    0    0    0 -0.00000000000E+00 -0.00000000000E+00 -0.45593999997E+02  0.45594000000E+02  0.51100000000E-03 0. -1.
    9900012    2    1    2    0    0  0.53712590960E+00 -0.15133486121E+02 -0.40673243525E+02  0.47787266766E+02  0.19999980493E+02 0.  0.
        -12    1    1    2    0    0 -0.53712590960E+00  0.15133486121E+02  0.40673243525E+02  0.43400733234E+02  0.00000000000E+00 0.  1.
         11    1    3    3    0    0 -0.77226685467E+01 -0.64901862985E+01 -0.83568028894E+01  0.13099552758E+02  0.51100000000E-03 0. -1.
        -11    1    3    3    0    0  0.47031737851E+01 -0.25410363251E+01 -0.10971518240E+02  0.12204545137E+02  0.51100000000E-03 0.  1.
         12    1    3    3    0    0  0.35566206712E+01 -0.61022634974E+01 -0.21344922395E+02  0.22483168870E+02  0.00000000000E+00 0. -1.
</event>
<event>
 7    1  0.3062695E-010  0.4778727E+02  0.7816164E-02  0.1312668E+00
        -11   -1    0    0    0    0  0.00000000000E+00  0.00000000000E+00  0.45593999997E+02  0.45594000000E+02  0.51100000000E-03 0.  1.
         11   -1    0    0    0    0 -0.00000000000E+00 -0.00000000000E+00 -0.45593999997E+02  0.45594000000E+02  0.51100000000E-03 0. -1.
    9900012    2    1    2    0    0  0.40082724989E+02  0.14706128090E+02 -0.77928314091E+01  0.47787271120E+02  0.20000000343E+02 0.  0.
        -12    1    1    2    0    0 -0.40082724989E+02 -0.14706128090E+02  0.77928314091E+01  0.43400728880E+02  0.00000000000E+00 0.  1.
         11    1    3    3    0    0  0.56076548839E+01  0.51852856567E+01  0.19579004914E+01  0.78845643655E+01  0.51100000000E-03 0.  1.
        -11    1    3    3    0    0  0.34026264983E+02  0.83825565454E+01 -0.54915682886E+01  0.35471274088E+02  0.51100000000E-03 0. -1.
        -12    1    3    3    0    0  0.44880512295E+00  0.11382858878E+01 -0.42591636119E+01  0.44314326661E+01  0.00000000000E+00 0.  1.
</event>
<event>
 7    1  0.3062695E-010  0.4778727E+02  0.7816164E-02  0.1312668E+00
        -11   -1    0    0    0    0  0.00000000000E+00  0.00000000000E+00  0.45593999997E+02  0.45594000000E+02  0.51100000000E-03 0.  1.
         11   -1    0    0    0    0 -0.00000000000E+00 -0.00000000000E+00 -0.45593999997E+02  0.45594000000E+02  0.51100000000E-03 0. -1.
    9900012    2    1    2    0    0  0.34275345297E+02  0.16326945853E+01 -0.26573636085E+02  0.47787272798E+02  0.20000007997E+02 0.  0.
        -12    1    1    2    0    0 -0.34275345297E+02 -0.16326945853E+01  0.26573636085E+02  0.43400727202E+02  0.00000000000E+00 0.  1.
         11    1    3    3    0    0  0.23664345084E+02 -0.53873080610E+00 -0.25525005214E+02  0.34811167039E+02  0.51100000000E-03 0. -1.
        -11    1    3    3    0    0  0.54895906322E+00  0.25352279117E+01 -0.13060040637E+01  0.29042010077E+01  0.51100000000E-03 0.  1.
         12    1    3    3    0    0  0.10062041150E+02 -0.36380252033E+00  0.25737319290E+00  0.10071904752E+02  0.00000000000E+00 0. -1.
</event>
<event>
 7    1  0.3062695E-010  0.4778727E+02  0.7816164E-02  0.1312668E+00
        -11   -1    0    0    0    0  0.00000000000E+00  0.00000000000E+00  0.45593999997E+02  0.45594000000E+02  0.51100000000E-03 0.  1.
         11   -1    0    0    0    0 -0.00000000000E+00 -0.00000000000E+00 -0.45593999997E+02  0.45594000000E+02  0.51100000000E-03 0. -1.
    9900012    2    1    2    0    0 -0.38711707440E+02 -0.19516692720E+02 -0.20312335116E+01  0.47787268471E+02  0.19999988269E+02 0.  0.
        -12    1    1    2    0    0  0.38711707440E+02  0.19516692720E+02  0.20312335116E+01  0.43400731529E+02  0.00000000000E+00 0.  1.
         11    1    3    3    0    0 -0.20983341705E+02 -0.37009760012E+01  0.22749262582E+00  0.21308439775E+02  0.51100000000E-03 0. -1.
        -11    1    3    3    0    0 -0.42492852486E+01 -0.88048975361E+01  0.32727787809E+01  0.10309884915E+02  0.51100000000E-03 0.  1.
         12    1    3    3    0    0 -0.13479080486E+02 -0.70108191823E+01 -0.55315049184E+01  0.16168943782E+02  0.00000000000E+00 0. -1.
</event>
<event>
 7    1  0.3062695E-010  0.4778727E+02  0.7816164E-02  0.1312668E+00
        -11   -1    0    0    0    0  0.00000000000E+00  0.00000000000E+00  0.45593999997E+02  0.45594000000E+02  0.51100000000E-03 0.  1.
         11   -1    0    0    0    0 -0.00000000000E+00 -0.00000000000E+00 -0.45593999997E+02  0.45594000000E+02  0.51100000000E-03 0. -1.
    9900012    2    1    2    0    0 -0.29968701198E+02 -0.68511527997E+01 -0.30635960377E+02  0.47787269426E+02  0.19999992620E+02 0.  0.
        -12    1    1    2    0    0  0.29968701198E+02  0.68511527997E+01  0.30635960377E+02  0.43400730574E+02  0.00000000000E+00 0.  1.
         11    1    3    3    0    0 -0.15599958749E+02  0.55737356886E+01 -0.14956618022E+02  0.22318729028E+02  0.51100000000E-03 0. -1.
        -11    1    3    3    0    0 -0.88544428845E+01 -0.10356378401E+02 -0.80339159735E+01  0.15817697004E+02  0.51100000000E-03 0.  1.
         12    1    3    3    0    0 -0.55142995643E+01 -0.20685100869E+01 -0.76454263812E+01  0.96508433940E+01  0.00000000000E+00 0. -1.
</event>
<event>
 7    1  0.3062695E-010  0.4778727E+02  0.7816164E-02  0.1312668E+00
        -11   -1    0    0    0    0  0.00000000000E+00  0.00000000000E+00  0.45593999997E+02  0.45594000000E+02  0.51100000000E-03 0. -1.
         11   -1    0    0    0    0 -0.00000000000E+00 -0.00000000000E+00 -0.45593999997E+02  0.45594000000E+02  0.51100000000E-03 0.  1.
    9900012    2    1    2    0    0  0.96915425217E+01 -0.41444468818E+02 -0.84884333255E+01  0.47787268527E+02  0.19999988524E+02 0.  0.
        -12    1    1    2    0    0 -0.96915425217E+01  0.41444468818E+02  0.84884333255E+01  0.43400731473E+02  0.00000000000E+00 0.  1.
         11    1    3    3    0    0  0.10217576552E+02 -0.17121081031E+02  0.34277651588E+00  0.19941107850E+02  0.51100000000E-03 0. -1.
        -11    1    3    3    0    0 -0.47901560680E+01 -0.12790650016E+02 -0.72085387518E+01  0.15443748061E+02  0.51100000000E-03 0.  1.
        -12    1    3    3    0    0  0.42641220380E+01 -0.11532737771E+02 -0.16226710896E+01  0.12402412617E+02  0.00000000000E+00 0.  1.
</event>
<event>
 7    1  0.3062695E-010  0.4778727E+02  0.7816164E-02  0.1312668E+00
        -11   -1    0    0    0    0  0.00000000000E+00  0.00000000000E+00  0.45593999997E+02  0.45594000000E+02  0.51100000000E-03 0. -1.
         11   -1    0    0    0    0 -0.00000000000E+00 -0.00000000000E+00 -0.45593999997E+02  0.45594000000E+02  0.51100000000E-03 0.  1.
    9900012    2    1    2    0    0 -0.27845675148E+02 -0.11015594842E+02  0.31414937848E+02  0.47787271041E+02  0.19999999984E+02 0.  0.
        -12    1    1    2    0    0  0.27845675148E+02  0.11015594842E+02 -0.31414937848E+02  0.43400728959E+02  0.00000000000E+00 0.  1.
         11    1    3    3    0    0 -0.10637624885E+02 -0.11639537464E+02  0.12836201900E+02  0.20332387343E+02  0.51100000000E-03 0. -1.
        -11    1    3    3    0    0 -0.13428709613E+02  0.74172592420E+00  0.19380230205E+02  0.23589695256E+02  0.51100000000E-03 0.  1.
        -12    1    3    3    0    0 -0.37793406496E+01 -0.11778330161E+00 -0.80149425626E+00  0.38651884424E+01  0.00000000000E+00 0.  1.
</event>
<event>
 7    1  0.3062695E-010  0.4778727E+02  0.7816164E-02  0.1312668E+00
        -11   -1    0    0    0    0  0.00000000000E+00  0.00000000000E+00  0.45593999997E+02  0.45594000000E+02  0.51100000000E-03 0. -1.
         11   -1    0    0    0    0 -0.00000000000E+00 -0.00000000000E+00 -0.45593999997E+02  0.45594000000E+02  0.51100000000E-03 0.  1.
    9900012    2    1    2    0    0  0.22659952354E+01  0.42970771717E+02  0.56569733892E+01  0.47787270694E+02  0.19999998402E+02 0.  0.
        -12    1    1    2    0    0 -0.22659952354E+01 -0.42970771717E+02 -0.56569733892E+01  0.43400729306E+02  0.00000000000E+00 0.  1.
         11    1    3    3    0    0  0.83098475274E+01  0.12670722918E+02  0.17408021451E+01  0.15252251557E+02  0.51100000000E-03 0. -1.
        -11    1    3    3    0    0 -0.18023438379E+01  0.97155833477E+01 -0.31351134659E+01  0.10366770944E+02  0.51100000000E-03 0.  1.
         12    1    3    3    0    0 -0.42415084540E+01  0.20584465451E+02  0.70512847101E+01  0.22168248193E+02  0.00000000000E+00 0. -1.
</event>
<event>
 7    1  0.3062695E-010  0.4778725E+02  0.7816164E-02  0.1312668E+00
        -11   -1    0    0    0    0  0.00000000000E+00  0.00000000000E+00  0.45593999997E+02  0.45594000000E+02  0.51100000000E-03 0. -1.
         11   -1    0    0    0    0 -0.00000000000E+00 -0.00000000000E+00 -0.45593999997E+02  0.45594000000E+02  0.51100000000E-03 0.  1.
    9900012    2    1    2    0    0  0.32612364512E+02  0.26947017097E+02  0.96910781073E+01  0.47787250647E+02  0.19999907000E+02 0.  0.
        -12    1    1    2    0    0 -0.32612364512E+02 -0.26947017097E+02 -0.96910781073E+01  0.43400749353E+02  0.00000000000E+00 0.  1.
         11    1    3    3    0    0  0.21874294234E+02  0.15448060102E+02  0.59669369730E+01  0.27435955355E+02  0.51100000000E-03 0. -1.
        -11    1    3    3    0    0 -0.41855697371E+00 -0.15868450331E+01  0.26558224471E+01  0.31219641624E+01  0.51100000000E-03 0.  1.
        -12    1    3    3    0    0  0.11156627252E+02  0.13085802028E+02  0.10683186871E+01  0.17229331129E+02  0.00000000000E+00 0.  1.
</event>
<event>
 7    1  0.3062695E-010  0.4778728E+02  0.7816164E-02  0.1312668E+00
        -11   -1    0    0    0    0  0.00000000000E+00  0.00000000000E+00  0.45593999997E+02  0.45594000000E+02  0.51100000000E-03 0.  1.
         11   -1    0    0    0    0 -0.00000000000E+00 -0.00000000000E+00 -0.45593999997E+02  0.45594000000E+02  0.51100000000E-03 0. -1.
    9900012    2    1    2    0    0  0.26901609657E+01  0.43317142101E+02  0.10392707189E+00  0.47787279192E+02  0.20000037149E+02 0.  0.
        -12    1    1    2    0    0 -0.26901609657E+01 -0.43317142101E+02 -0.10392707189E+00  0.43400720808E+02  0.00000000000E+00 0.  1.
         11    1    3    3    0    0  0.16703634976E+01  0.37259249230E+02  0.24604455486E+01  0.37377741504E+02  0.51100000000E-03 0. -1.
        -11    1    3    3    0    0 -0.24861414720E+01 -0.27723796510E+00  0.62613159209E+00  0.25787208729E+01  0.51100000000E-03 0.  1.
        -12    1    3    3    0    0  0.35059389401E+01  0.63351308360E+01 -0.29826500688E+01  0.78308168153E+01  0.00000000000E+00 0.  1.
</event>
<event>
 7    1  0.3062695E-010  0.4778727E+02  0.7816164E-02  0.1312668E+00
        -11   -1    0    0    0    0  0.00000000000E+00  0.00000000000E+00  0.45593999997E+02  0.45594000000E+02  0.51100000000E-03 0.  1.
         11   -1    0    0    0    0 -0.00000000000E+00 -0.00000000000E+00 -0.45593999997E+02  0.45594000000E+02  0.51100000000E-03 0. -1.
    9900012    2    1    2    0    0  0.31781259991E+02  0.28711876078E+02 -0.70144873200E+01  0.47787270203E+02  0.19999996166E+02 0.  0.
        -12    1    1    2    0    0 -0.31781259991E+02 -0.28711876078E+02  0.70144873200E+01  0.43400729797E+02  0.00000000000E+00 0.  1.
         11    1    3    3    0    0  0.97416817076E+01  0.49293426352E+01  0.26372526980E+01  0.11231824579E+02  0.51100000000E-03 0. -1.
        -11    1    3    3    0    0  0.26326076481E+01 -0.14358673101E+01  0.72466398841E+00  0.30850406996E+01  0.51100000000E-03 0.  1.
         12    1    3    3    0    0  0.19406970635E+02  0.25218400753E+02 -0.10376404006E+02  0.33470404925E+02  0.00000000000E+00 0. -1.
</event>
<event>
 7    1  0.3062695E-010  0.4778727E+02  0.7816164E-02  0.1312668E+00
        -11   -1    0    0    0    0  0.00000000000E+00  0.00000000000E+00  0.45593999997E+02  0.45594000000E+02  0.51100000000E-03 0.  1.
         11   -1    0    0    0    0 -0.00000000000E+00 -0.00000000000E+00 -0.45593999997E+02  0.45594000000E+02  0.51100000000E-03 0. -1.
    9900012    2    1    2    0    0 -0.11115914439E+02  0.37042797840E+00 -0.41951434781E+02  0.47787266701E+02  0.19999980197E+02 0.  0.
        -12    1    1    2    0    0  0.11115914439E+02 -0.37042797840E+00  0.41951434781E+02  0.43400733299E+02  0.00000000000E+00 0.  1.
         11    1    3    3    0    0 -0.11589984501E+02  0.60261895977E+00 -0.14363611449E+02  0.18466299696E+02  0.51100000000E-03 0. -1.
        -11    1    3    3    0    0  0.33404715031E+01 -0.11373883265E+01 -0.25296155305E+02  0.25541101690E+02  0.51100000000E-03 0.  1.
        -12    1    3    3    0    0 -0.28664014403E+01  0.90519734509E+00 -0.22916680269E+01  0.37798653145E+01  0.00000000000E+00 0.  1.
</event>
<event>
 7    1  0.3062695E-010  0.4778727E+02  0.7816164E-02  0.1312668E+00
        -11   -1    0    0    0    0  0.00000000000E+00  0.00000000000E+00  0.45593999997E+02  0.45594000000E+02  0.51100000000E-03 0.  1.
         11   -1    0    0    0    0 -0.00000000000E+00 -0.00000000000E+00 -0.45593999997E+02  0.45594000000E+02  0.51100000000E-03 0. -1.
    9900012    2    1    2    0    0 -0.19237175567E+02  0.34373876514E+02 -0.18220615289E+02  0.47787272680E+02  0.20000007457E+02 0.  0.
        -12    1    1    2    0    0  0.19237175567E+02 -0.34373876514E+02  0.18220615289E+02  0.43400727320E+02  0.00000000000E+00 0.  1.
         11    1    3    3    0    0 -0.12645660330E+02  0.70088880534E+01 -0.25884447713E+01  0.14687997941E+02  0.51100000000E-03 0. -1.
        -11    1    3    3    0    0 -0.63956846695E-01  0.16104276271E+02 -0.96521366192E+01  0.18775397366E+02  0.51100000000E-03 0.  1.
         12    1    3    3    0    0 -0.65275583909E+01  0.11260712190E+02 -0.59800338987E+01  0.14323877373E+02  0.00000000000E+00 0. -1.
</event>
<event>
 7    1  0.3062695E-010  0.4778728E+02  0.7816164E-02  0.1312668E+00
        -11   -1    0    0    0    0  0.00000000000E+00  0.00000000000E+00  0.45593999997E+02  0.45594000000E+02  0.51100000000E-03 0. -1.
         11   -1    0    0    0    0 -0.00000000000E+00 -0.00000000000E+00 -0.45593999997E+02  0.45594000000E+02  0.51100000000E-03 0.  1.
    9900012    2    1    2    0    0 -0.92301669654E+00 -0.24117610182E+02  0.36070926004E+02  0.47787276694E+02  0.20000025756E+02 0.  0.
        -12    1    1    2    0    0  0.92301669654E+00  0.24117610182E+02 -0.36070926004E+02  0.43400723306E+02  0.00000000000E+00 0.  1.
         11    1    3    3    0    0  0.63800021913E+01 -0.17419111790E+02  0.14967499353E+02  0.23836021494E+02  0.51100000000E-03 0. -1.
        -11    1    3    3    0    0 -0.70718464508E+01 -0.50986478884E+01  0.20406752266E+02  0.22191051368E+02  0.51100000000E-03 0.  1.
        -12    1    3    3    0    0 -0.23117243704E+00 -0.15998505032E+01  0.69667438502E+00  0.17602038311E+01  0.00000000000E+00 0.  1.
</event>
<event>
 7    1  0.3062695E-010  0.4778727E+02  0.7816164E-02  0.1312668E+00
        -11   -1    0    0    0    0  0.00000000000E+00  0.00000000000E+00  0.45593999997E+02  0.45594000000E+02  0.51100000000E-03 0.  1.
         11   -1    0    0    0    0 -0.00000000000E+00 -0.00000000000E+00 -0.45593999997E+02  0.45594000000E+02  0.51100000000E-03 0. -1.
    9900012    2    1    2    0    0 -0.18237472294E+02 -0.35813348396E+02 -0.16383581331E+02  0.47787273552E+02  0.20000011434E+02 0.  0.
        -12    1    1    2    0    0  0.18237472294E+02  0.35813348396E+02  0.16383581331E+02  0.43400726448E+02  0.00000000000E+00 0.  1.
         11    1    3    3    0    0 -0.14247195970E+01 -0.21158436036E+02 -0.78101653579E+01  0.22598847860E+02  0.51100000000E-03 0. -1.
        -11    1    3    3    0    0 -0.29847021631E+00 -0.17809035290E+01  0.11086092188E+01  0.21188951156E+01  0.51100000000E-03 0.  1.
         12    1    3    3    0    0 -0.16514282480E+02 -0.12874008831E+02 -0.96820251916E+01  0.23069530576E+02  0.00000000000E+00 0. -1.
</event>
<event>
 7    1  0.3062695E-010  0.4778727E+02  0.7816164E-02  0.1312668E+00
        -11   -1    0    0    0    0  0.00000000000E+00  0.00000000000E+00  0.45593999997E+02  0.45594000000E+02  0.51100000000E-03 0. -1.
         11   -1    0    0    0    0 -0.00000000000E+00 -0.00000000000E+00 -0.45593999997E+02  0.45594000000E+02  0.51100000000E-03 0.  1.
    9900012    2    1    2    0    0  0.99924045626E+01 -0.28557744589E+02  0.31116400074E+02  0.47787270991E+02  0.19999999756E+02 0.  0.
        -12    1    1    2    0    0 -0.99924045626E+01  0.28557744589E+02 -0.31116400074E+02  0.43400729009E+02  0.00000000000E+00 0.  1.
         11    1    3    3    0    0  0.58881110086E+01 -0.78323867440E+01  0.90248405545E+01  0.13321556990E+02  0.51100000000E-03 0. -1.
        -11    1    3    3    0    0  0.29959487817E+01 -0.16783508410E+01  0.12784116957E+02  0.13237304003E+02  0.51100000000E-03 0.  1.
        -12    1    3    3    0    0  0.11083447723E+01 -0.19047007004E+02  0.93074425628E+01  0.21228409997E+02  0.00000000000E+00 0.  1.
</event>
<event>
 7    1  0.3062695E-010  0.4778729E+02  0.7816164E-02  0.1312668E+00
        -11   -1    0    0    0    0  0.00000000000E+00  0.00000000000E+00  0.45593999997E+02  0.45594000000E+02  0.51100000000E-03 0.  1.
         11   -1    0    0    0    0 -0.00000000000E+00 -0.00000000000E+00 -0.45593999997E+02  0.45594000000E+02  0.51100000000E-03 0. -1.
    9900012    2    1    2    0    0 -0.55615665267E+01  0.42952831022E+02 -0.27829645426E+01  0.47787290251E+02  0.20000087570E+02 0.  0.
        -12    1    1    2    0    0  0.55615665267E+01 -0.42952831022E+02  0.27829645426E+01  0.43400709749E+02  0.00000000000E+00 0.  1.
         11    1    3    3    0    0  0.15149243972E+00  0.31825553465E+02 -0.21010707649E+01  0.31895192458E+02  0.51100000000E-03 0. -1.
        -11    1    3    3    0    0 -0.56076885965E+01  0.76425630526E+01  0.38012310749E+01  0.10212947633E+02  0.51100000000E-03 0.  1.
         12    1    3    3    0    0 -0.10537036998E+00  0.34847145048E+01 -0.44831248525E+01  0.56791501598E+01  0.00000000000E+00 0. -1.
</event>
<event>
 7    1  0.3062695E-010  0.4778727E+02  0.7816164E-02  0.1312668E+00
        -11   -1    0    0    0    0  0.00000000000E+00  0.00000000000E+00  0.45593999997E+02  0.45594000000E+02  0.51100000000E-03 0.  1.
         11   -1    0    0    0    0 -0.00000000000E+00 -0.00000000000E+00 -0.45593999997E+02  0.45594000000E+02  0.51100000000E-03 0. -1.
    9900012    2    1    2    0    0  0.23302621209E+02 -0.33658854001E+02 -0.14411547039E+02  0.47787270791E+02  0.19999998845E+02 0.  0.
        -12    1    1    2    0    0 -0.23302621209E+02  0.33658854001E+02  0.14411547039E+02  0.43400729209E+02  0.00000000000E+00 0.  1.
         11    1    3    3    0    0  0.37663329630E+01 -0.12688721176E+02 -0.11103631739E+02  0.17276560628E+02  0.51100000000E-03 0. -1.
        -11    1    3    3    0    0  0.79413569087E+01 -0.14208270970E+02  0.12762142110E+01  0.16326935919E+02  0.51100000000E-03 0.  1.
         12    1    3    3    0    0  0.11594931337E+02 -0.67618618539E+01 -0.45841295103E+01  0.14183774244E+02  0.00000000000E+00 0. -1.
</event>
<event>
 7    1  0.3062695E-010  0.4778727E+02  0.7816164E-02  0.1312668E+00
        -11   -1    0    0    0    0  0.00000000000E+00  0.00000000000E+00  0.45593999997E+02  0.45594000000E+02  0.51100000000E-03 0. -1.
         11   -1    0    0    0    0 -0.00000000000E+00 -0.00000000000E+00 -0.45593999997E+02  0.45594000000E+02  0.51100000000E-03 0.  1.
    9900012    2    1    2    0    0  0.38178884080E+02  0.14949221353E+02 -0.14230837370E+02  0.47787272576E+02  0.20000006985E+02 0.  0.
        -12    1    1    2    0    0 -0.38178884080E+02 -0.14949221353E+02  0.14230837370E+02  0.43400727424E+02  0.00000000000E+00 0.  1.
         11    1    3    3    0    0  0.19952884721E+01 -0.22158154719E+01 -0.38976319301E+01  0.49073973974E+01  0.51100000000E-03 0. -1.
        -11    1    3    3    0    0  0.32811207424E+02  0.18149003442E+02 -0.72179509754E+01  0.38184558072E+02  0.51100000000E-03 0.  1.
        -12    1    3    3    0    0  0.33723881835E+01 -0.98396661667E+00 -0.31152544642E+01  0.46953171074E+01  0.00000000000E+00 0.  1.
</event>
<event>
 7    1  0.3062695E-010  0.4778728E+02  0.7816164E-02  0.1312668E+00
        -11   -1    0    0    0    0  0.00000000000E+00  0.00000000000E+00  0.45593999997E+02  0.45594000000E+02  0.51100000000E-03 0. -1.
         11   -1    0    0    0    0 -0.00000000000E+00 -0.00000000000E+00 -0.45593999997E+02  0.45594000000E+02  0.51100000000E-03 0.  1.
    9900012    2    1    2    0    0 -0.47555036607E+01 -0.28008482160E+02  0.32810561323E+02  0.47787276247E+02  0.20000023722E+02 0.  0.
        -12    1    1    2    0    0  0.47555036607E+01  0.28008482160E+02 -0.32810561323E+02  0.43400723753E+02  0.00000000000E+00 0.  1.
         11    1    3    3    0    0 -0.10021371696E+02 -0.11678027219E+02  0.20944258772E+02  0.25989732322E+02  0.51100000000E-03 0. -1.
        -11    1    3    3    0    0  0.99692066462E+00 -0.11820285211E+02  0.61715667046E+01  0.13371657681E+02  0.51100000000E-03 0.  1.
         12    1    3    3    0    0  0.42689473712E+01 -0.45101697294E+01  0.56947358464E+01  0.84258862446E+01  0.00000000000E+00 0. -1.
</event>
<event>
 7    1  0.3062695E-010  0.4778727E+02  0.7816164E-02  0.1312668E+00
        -11   -1    0    0    0    0  0.00000000000E+00  0.00000000000E+00  0.45593999997E+02  0.45594000000E+02  0.51100000000E-03 0.  1.
         11   -1    0    0    0    0 -0.00000000000E+00 -0.00000000000E+00 -0.45593999997E+02  0.45594000000E+02  0.51100000000E-03 0. -1.
    9900012    2    1    2    0    0  0.22096294637E+02 -0.26174057548E+02 -0.26651376773E+02  0.47787269486E+02  0.19999992896E+02 0.  0.
        -12    1    1    2    0    0 -0.22096294637E+02  0.26174057548E+02  0.26651376773E+02  0.43400730514E+02  0.00000000000E+00 0.  1.
         11    1    3    3    0    0  0.29181245026E+01 -0.71596365849E+01 -0.31457067402E+01  0.83469346348E+01  0.51100000000E-03 0. -1.
        -11    1    3    3    0    0  0.91468177887E+01 -0.17875563536E+02 -0.96011457532E+01  0.22257179682E+02  0.51100000000E-03 0.  1.
        -12    1    3    3    0    0  0.10031352346E+02 -0.11388574275E+01 -0.13904524280E+02  0.17183155169E+02  0.00000000000E+00 0.  1.
</event>
<event>
 7    1  0.3062695E-010  0.4778727E+02  0.7816164E-02  0.1312668E+00
        -11   -1    0    0    0    0  0.00000000000E+00  0.00000000000E+00  0.45593999997E+02  0.45594000000E+02  0.51100000000E-03 0.  1.
         11   -1    0    0    0    0 -0.00000000000E+00 -0.00000000000E+00 -0.45593999997E+02  0.45594000000E+02  0.51100000000E-03 0. -1.
    9900012    2    1    2    0    0  0.86800906066E+01  0.11279654761E+02 -0.41000596325E+02  0.47787268629E+02  0.19999988989E+02 0.  0.
        -12    1    1    2    0    0 -0.86800906066E+01 -0.11279654761E+02  0.41000596325E+02  0.43400731371E+02  0.00000000000E+00 0.  1.
         11    1    3    3    0    0  0.28649419179E+01  0.14197948659E+02 -0.34518147175E+02  0.37433836605E+02  0.51100000000E-03 0. -1.
        -11    1    3    3    0    0 -0.81038592370E-01  0.59167255051E+00  0.33157802228E+00  0.68307240206E+00  0.51100000000E-03 0.  1.
         12    1    3    3    0    0  0.58961872810E+01 -0.35099664478E+01 -0.68140271723E+01  0.96703596222E+01  0.00000000000E+00 0. -1.
</event>
<event>
 7    1  0.3062695E-010  0.4778727E+02  0.7816164E-02  0.1312668E+00
        -11   -1    0    0    0    0  0.00000000000E+00  0.00000000000E+00  0.45593999997E+02  0.45594000000E+02  0.51100000000E-03 0. -1.
         11   -1    0    0    0    0 -0.00000000000E+00 -0.00000000000E+00 -0.45593999997E+02  0.45594000000E+02  0.51100000000E-03 0.  1.
    9900012    2    1    2    0    0  0.17440808083E+02  0.37355692968E+02  0.13564425815E+02  0.47787271533E+02  0.20000002229E+02 0.  0.
        -12    1    1    2    0    0 -0.17440808083E+02 -0.37355692968E+02 -0.13564425815E+02  0.43400728467E+02  0.00000000000E+00 0.  1.
         11    1    3    3    0    0  0.22618778328E+01  0.20422504227E+02  0.10670923827E+02  0.23153042691E+02  0.51100000000E-03 0. -1.
        -11    1    3    3    0    0  0.43368755049E+01  0.19602445519E+01  0.38525651439E+01  0.61231777940E+01  0.51100000000E-03 0.  1.
         12    1    3    3    0    0  0.10842054746E+02  0.14972944189E+02 -0.95906315526E+00  0.18511051049E+02  0.00000000000E+00 0. -1.
</event>
<event>
 7    1  0.3062695E-010  0.4778727E+02  0.7816164E-02  0.1312668E+00
        -11   -1    0    0    0    0  0.00000000000E+00  0.00000000000E+00  0.45593999997E+02  0.45594000000E+02  0.51100000000E-03 0.  1.
         11   -1    0    0    0    0 -0.00000000000E+00 -0.00000000000E+00 -0.45593999997E+02  0.45594000000E+02  0.51100000000E-03 0. -1.
    9900012    2    1    2    0    0 -0.31530417705E+02  0.16103611700E+02 -0.25102385465E+02  0.47787270669E+02  0.19999998290E+02 0.  0.
        -12    1    1    2    0    0  0.31530417705E+02 -0.16103611700E+02  0.25102385465E+02  0.43400729331E+02  0.00000000000E+00 0.  1.
         11    1    3    3    0    0 -0.16256010464E+02  0.11390349927E+02 -0.91873868116E+01  0.21872494699E+02  0.51100000000E-03 0. -1.
        -11    1    3    3    0    0 -0.23413774148E+00  0.18796157063E+01 -0.88634042447E+01  0.90635374303E+01  0.51100000000E-03 0.  1.
        -12    1    3    3    0    0 -0.15040269499E+02  0.28336460664E+01 -0.70515944088E+01  0.16851238540E+02  0.00000000000E+00 0.  1.
</event>
<event>
 7    1  0.3062695E-010  0.4778727E+02  0.7816164E-02  0.1312668E+00
        -11   -1    0    0    0    0  0.00000000000E+00  0.00000000000E+00  0.45593999997E+02  0.45594000000E+02  0.51100000000E-03 0.  1.
         11   -1    0    0    0    0 -0.00000000000E+00 -0.00000000000E+00 -0.45593999997E+02  0.45594000000E+02  0.51100000000E-03 0. -1.
    9900012    2    1    2    0    0  0.41785012197E+02  0.11323761586E+02 -0.30673460903E+01  0.47787269214E+02  0.19999991653E+02 0.  0.
        -12    1    1    2    0    0 -0.41785012197E+02 -0.11323761586E+02  0.30673460903E+01  0.43400730786E+02  0.00000000000E+00 0.  1.
         11    1    3    3    0    0  0.22527272672E+02  0.50792349354E+01 -0.73000189126E+01  0.24219143626E+02  0.51100000000E-03 0. -1.
        -11    1    3    3    0    0  0.53336578557E+01 -0.25892910618E+01 -0.14902792775E+01  0.61133678860E+01  0.51100000000E-03 0.  1.
         12    1    3    3    0    0  0.13924081669E+02  0.88338177127E+01  0.57229520998E+01  0.17454757702E+02  0.00000000000E+00 0. -1.
</event>
<event>
 7    1  0.3062695E-010  0.4778727E+02  0.7816164E-02  0.1312668E+00
        -11   -1    0    0    0    0  0.00000000000E+00  0.00000000000E+00  0.45593999997E+02  0.45594000000E+02  0.51100000000E-03 0.  1.
         11   -1    0    0    0    0 -0.00000000000E+00 -0.00000000000E+00 -0.45593999997E+02  0.45594000000E+02  0.51100000000E-03 0. -1.
    9900012    2    1    2    0    0  0.29544317956E+02 -0.25115606248E+02 -0.19492636855E+02  0.47787270833E+02  0.19999999036E+02 0.  0.
        -12    1    1    2    0    0 -0.29544317956E+02  0.25115606248E+02  0.19492636855E+02  0.43400729167E+02  0.00000000000E+00 0.  1.
         11    1    3    3    0    0  0.86516267282E+01 -0.52784702839E+01 -0.43652160737E+01  0.11034854109E+02  0.51100000000E-03 0. -1.
        -11    1    3    3    0    0  0.13422004013E+01  0.30820642436E+01 -0.12767260801E+01  0.35959215319E+01  0.51100000000E-03 0.  1.
        -12    1    3    3    0    0  0.19550490826E+02 -0.22919200207E+02 -0.13850694701E+02  0.33156495192E+02  0.00000000000E+00 0.  1.
</event>
<event>
 7    1  0.3062695E-010  0.4778727E+02  0.7816164E-02  0.1312668E+00
        -11   -1    0    0    0    0  0.00000000000E+00  0.00000000000E+00  0.45593999997E+02  0.45594000000E+02  0.51100000000E-03 0. -1.
         11   -1    0    0    0    0 -0.00000000000E+00 -0.00000000000E+00 -0.45593999997E+02  0.45594000000E+02  0.51100000000E-03 0.  1.
    9900012    2    1    2    0    0  0.17982223867E+02  0.25150376619E+02 -0.30458517321E+02  0.47787273086E+02  0.20000009309E+02 0.  0.
        -12    1    1    2    0    0 -0.17982223867E+02 -0.25150376619E+02  0.30458517321E+02  0.43400726914E+02  0.00000000000E+00 0.  1.
         11    1    3    3    0    0  0.92357876441E+01  0.41850348215E+01 -0.44470074901E+01  0.11072044334E+02  0.51100000000E-03 0. -1.
        -11    1    3    3    0    0  0.22386399432E+01  0.17484471741E+02 -0.13554344940E+02  0.22235973734E+02  0.51100000000E-03 0.  1.
        -12    1    3    3    0    0  0.65077962798E+01  0.34808700561E+01 -0.12457164890E+02  0.14479255018E+02  0.00000000000E+00 0.  1.
</event>
<event>
 7    1  0.3062695E-010  0.4778727E+02  0.7816164E-02  0.1312668E+00
        -11   -1    0    0    0    0  0.00000000000E+00  0.00000000000E+00  0.45593999997E+02  0.45594000000E+02  0.51100000000E-03 0.  1.
         11   -1    0    0    0    0 -0.00000000000E+00 -0.00000000000E+00 -0.45593999997E+02  0.45594000000E+02  0.51100000000E-03 0. -1.
    9900012    2    1    2    0    0 -0.13768395215E+02  0.25440846546E+02 -0.32354561300E+02  0.47787274007E+02  0.20000013509E+02 0.  0.
        -12    1    1    2    0    0  0.13768395215E+02 -0.25440846546E+02  0.32354561300E+02  0.43400725993E+02  0.00000000000E+00 0.  1.
         11    1    3    3    0    0 -0.51210935875E+00  0.88702104085E+01 -0.84645873863E+01  0.12271598452E+02  0.51100000000E-03 0. -1.
        -11    1    3    3    0    0 -0.77257007099E+01  0.16693282612E+02 -0.10862349593E+02  0.21362180946E+02  0.51100000000E-03 0.  1.
        -12    1    3    3    0    0 -0.55305851464E+01 -0.12264647434E+00 -0.13027624321E+02  0.14153494609E+02  0.00000000000E+00 0.  1.
</event>
<event>
 7    1  0.3062695E-010  0.4778728E+02  0.7816164E-02  0.1312668E+00
        -11   -1    0    0    0    0  0.00000000000E+00  0.00000000000E+00  0.45593999997E+02  0.45594000000E+02  0.51100000000E-03 0.  1.
         11   -1    0    0    0    0 -0.00000000000E+00 -0.00000000000E+00 -0.45593999997E+02  0.45594000000E+02  0.51100000000E-03 0. -1.
    9900012    2    1    2    0    0 -0.18083224148E+02  0.12938819213E+02 -0.37272065308E+02  0.47787275461E+02  0.20000020136E+02 0.  0.
        -12    1    1    2    0    0  0.18083224148E+02 -0.12938819213E+02  0.37272065308E+02  0.43400724539E+02  0.00000000000E+00 0.  1.
         11    1    3    3    0    0 -0.10789048898E+02  0.12292614512E+02 -0.11387812755E+02  0.19929732243E+02  0.51100000000E-03 0. -1.
        -11    1    3    3    0    0 -0.54943961072E+01  0.41054084481E+00 -0.25383515134E+02  0.25974598615E+02  0.51100000000E-03 0.  1.
        -12    1    3    3    0    0 -0.17997791428E+01  0.23566385616E+00 -0.50073741846E+00  0.18829446030E+01  0.00000000000E+00 0.  1.
</event>
<event>
 7    1  0.3062695E-010  0.4778727E+02  0.7816164E-02  0.1312668E+00
        -11   -1    0    0    0    0  0.00000000000E+00  0.00000000000E+00  0.45593999997E+02  0.45594000000E+02  0.51100000000E-03 0. -1.
         11   -1    0    0    0    0 -0.00000000000E+00 -0.00000000000E+00 -0.45593999997E+02  0.45594000000E+02  0.51100000000E-03 0.  1.
    9900012    2    1    2    0    0 -0.36134693881E+02 -0.17097816822E+02 -0.16898878060E+02  0.47787268190E+02  0.19999986988E+02 0.  0.
        -12    1    1    2    0    0  0.36134693881E+02  0.17097816822E+02  0.16898878060E+02  0.43400731810E+02  0.00000000000E+00 0.  1.
         11    1    3    3    0    0 -0.59943190205E+01 -0.25659095434E+01 -0.26823650306E+01  0.70505910903E+01  0.51100000000E-03 0. -1.
        -11    1    3    3    0    0 -0.23000675908E+02 -0.28804855276E+01 -0.36566097909E+01  0.23466978598E+02  0.51100000000E-03 0.  1.
        -12    1    3    3    0    0 -0.71396989519E+01 -0.11651421751E+02 -0.10559903239E+02  0.17269698502E+02  0.00000000000E+00 0.  1.
</event>
<event>
 7    1  0.3062695E-010  0.4778727E+02  0.7816164E-02  0.1312668E+00
        -11   -1    0    0    0    0  0.00000000000E+00  0.00000000000E+00  0.45593999997E+02  0.45594000000E+02  0.51100000000E-03 0.  1.
         11   -1    0    0    0    0 -0.00000000000E+00 -0.00000000000E+00 -0.45593999997E+02  0.45594000000E+02  0.51100000000E-03 0. -1.
    9900012    2    1    2    0    0  0.21306857187E+02  0.34342136743E+02 -0.15819563088E+02  0.47787273098E+02  0.20000009365E+02 0.  0.
        -12    1    1    2    0    0 -0.21306857187E+02 -0.34342136743E+02  0.15819563088E+02  0.43400726902E+02  0.00000000000E+00 0.  1.
         11    1    3    3    0    0  0.35794131359E+01  0.49844774724E+01 -0.93319006259E+01  0.11168777177E+02  0.51100000000E-03 0. -1.
        -11    1    3    3    0    0  0.17960153623E+02  0.20945711094E+02 -0.43095052428E+01  0.27926005212E+02  0.51100000000E-03 0.  1.
        -12    1    3    3    0    0 -0.23270957155E+00  0.84119481765E+01 -0.21781572198E+01  0.86924907100E+01  0.00000000000E+00 0.  1.
</event>
<event>
 7    1  0.3062695E-010  0.4778726E+02  0.7816164E-02  0.1312668E+00
        -11   -1    0    0    0    0  0.00000000000E+00  0.00000000000E+00  0.45593999997E+02  0.45594000000E+02  0.51100000000E-03 0. -1.
         11   -1    0    0    0    0 -0.00000000000E+00 -0.00000000000E+00 -0.45593999997E+02  0.45594000000E+02  0.51100000000E-03 0.  1.
    9900012    2    1    2    0    0 -0.42405637151E+01 -0.21207250898E+02  0.37628369099E+02  0.47787262307E+02  0.19999960162E+02 0.  0.
        -12    1    1    2    0    0  0.42405637151E+01  0.21207250898E+02 -0.37628369099E+02  0.43400737693E+02  0.00000000000E+00 0.  1.
         11    1    3    3    0    0 -0.43804346733E+01 -0.17774956635E+02  0.18296314794E+02  0.25882280166E+02  0.51100000000E-03 0. -1.
        -11    1    3    3    0    0  0.14080619885E+01 -0.47368705751E+01  0.37151908504E+01  0.61824934067E+01  0.51100000000E-03 0.  1.
         12    1    3    3    0    0 -0.12681910303E+01  0.13045763115E+01  0.15616863454E+02  0.15722488734E+02  0.00000000000E+00 0. -1.
</event>
<event>
 7    1  0.3062695E-010  0.4778727E+02  0.7816164E-02  0.1312668E+00
        -11   -1    0    0    0    0  0.00000000000E+00  0.00000000000E+00  0.45593999997E+02  0.45594000000E+02  0.51100000000E-03 0.  1.
         11   -1    0    0    0    0 -0.00000000000E+00 -0.00000000000E+00 -0.45593999997E+02  0.45594000000E+02  0.51100000000E-03 0. -1.
    9900012    2    1    2    0    0  0.73991591526E+01  0.35771582596E+02  0.23436499310E+02  0.47787272155E+02  0.20000005062E+02 0.  0.
        -12    1    1    2    0    0 -0.73991591526E+01 -0.35771582596E+02 -0.23436499310E+02  0.43400727845E+02  0.00000000000E+00 0.  1.
         11    1    3    3    0    0 -0.21090772360E+01 -0.58616824959E-01  0.43657283441E-01  0.21103433226E+01  0.51100000000E-03 0. -1.
        -11    1    3    3    0    0 -0.98081222895E+00 -0.52853604352E+00 -0.12764744029E+00  0.11214442063E+01  0.51100000000E-03 0.  1.
         12    1    3    3    0    0  0.10489048618E+02  0.36358735465E+02  0.23520489467E+02  0.44555484626E+02  0.00000000000E+00 0. -1.
</event>
<event>
 7    1  0.3062695E-010  0.4778727E+02  0.7816164E-02  0.1312668E+00
        -11   -1    0    0    0    0  0.00000000000E+00  0.00000000000E+00  0.45593999997E+02  0.45594000000E+02  0.51100000000E-03 0.  1.
         11   -1    0    0    0    0 -0.00000000000E+00 -0.00000000000E+00 -0.45593999997E+02  0.45594000000E+02  0.51100000000E-03 0. -1.
    9900012    2    1    2    0    0  0.29253539576E+02  0.24170585408E+02 -0.21062679441E+02  0.47787271413E+02  0.20000001681E+02 0.  0.
        -12    1    1    2    0    0 -0.29253539576E+02 -0.24170585408E+02  0.21062679441E+02  0.43400728587E+02  0.00000000000E+00 0.  1.
         11    1    3    3    0    0  0.20171855985E+02  0.55175728029E+01 -0.87900543301E+01  0.22685070838E+02  0.51100000000E-03 0. -1.
        -11    1    3    3    0    0  0.83626698262E+01  0.19058442203E+02 -0.12458083960E+02  0.24256181109E+02  0.51100000000E-03 0.  1.
        -12    1    3    3    0    0  0.71901376452E+00 -0.40542959795E+00  0.18545884913E+00  0.84601946620E+00  0.00000000000E+00 0.  1.
</event>
<event>
 7    1  0.3062695E-010  0.4778726E+02  0.7816164E-02  0.1312668E+00
        -11   -1    0    0    0    0  0.00000000000E+00  0.00000000000E+00  0.45593999997E+02  0.45594000000E+02  0.51100000000E-03 0.  1.
         11   -1    0    0    0    0 -0.00000000000E+00 -0.00000000000E+00 -0.45593999997E+02  0.45594000000E+02  0.51100000000E-03 0. -1.
    9900012    2    1    2    0    0 -0.13841377684E+02 -0.22071189222E+01 -0.41075160658E+02  0.47787263449E+02  0.19999965368E+02 0.  0.
        -12    1    1    2    0    0  0.13841377684E+02  0.22071189222E+01  0.41075160658E+02  0.43400736551E+02  0.00000000000E+00 0.  1.
         11    1    3    3    0    0 -0.62621163379E+01  0.63135649138E+01 -0.18335227296E+02  0.20377825282E+02  0.51100000000E-03 0. -1.
        -11    1    3    3    0    0 -0.98223631438E+01 -0.85975021646E+01 -0.19639413021E+02  0.23581823620E+02  0.51100000000E-03 0.  1.
        -12    1    3    3    0    0  0.22431017980E+01  0.76818328593E-01 -0.31005203410E+01  0.38276145465E+01  0.00000000000E+00 0.  1.
</event>
<event>
 7    1  0.3062695E-010  0.4778727E+02  0.7816164E-02  0.1312668E+00
        -11   -1    0    0    0    0  0.00000000000E+00  0.00000000000E+00  0.45593999997E+02  0.45594000000E+02  0.51100000000E-03 0.  1.
         11   -1    0    0    0    0 -0.00000000000E+00 -0.00000000000E+00 -0.45593999997E+02  0.45594000000E+02  0.51100000000E-03 0. -1.
    9900012    2    1    2    0    0 -0.33686364734E+02 -0.24666876355E+02 -0.11848932423E+02  0.47787272383E+02  0.20000006103E+02 0.  0.
        -12    1    1    2    0    0  0.33686364734E+02  0.24666876355E+02  0.11848932423E+02  0.43400727617E+02  0.00000000000E+00 0.  1.
         11    1    3    3    0    0 -0.75089227037E+01 -0.86701117014E+01 -0.39096420363E+01  0.12117757969E+02  0.51100000000E-03 0. -1.
        -11    1    3    3    0    0 -0.53963228692E+01 -0.12432510622E+02 -0.15691348067E+01  0.13643672716E+02  0.51100000000E-03 0.  1.
        -12    1    3    3    0    0 -0.20781119162E+02 -0.35642540320E+01 -0.63701555798E+01  0.22025841698E+02  0.00000000000E+00 0.  1.
</event>
<event>
 7    1  0.3062695E-010  0.4778727E+02  0.7816164E-02  0.1312668E+00
        -11   -1    0    0    0    0  0.00000000000E+00  0.00000000000E+00  0.45593999997E+02  0.45594000000E+02  0.51100000000E-03 0. -1.
         11   -1    0    0    0    0 -0.00000000000E+00 -0.00000000000E+00 -0.45593999997E+02  0.45594000000E+02  0.51100000000E-03 0.  1.
    9900012    2    1    2    0    0 -0.42529032877E+02  0.17559257131E+01  0.84747441833E+01  0.47787271878E+02  0.20000003800E+02 0.  0.
        -12    1    1    2    0    0  0.42529032877E+02 -0.17559257131E+01 -0.84747441833E+01  0.43400728122E+02  0.00000000000E+00 0.  1.
         11    1    3    3    0    0 -0.91887989262E+01 -0.20078038377E+01  0.25332728702E+01  0.97407789039E+01  0.51100000000E-03 0. -1.
        -11    1    3    3    0    0 -0.29791533306E+02  0.16659160301E+01  0.10747509571E+02  0.31714660572E+02  0.51100000000E-03 0.  1.
        -12    1    3    3    0    0 -0.35487006446E+01  0.20978135208E+01 -0.48060382579E+01  0.63318324022E+01  0.00000000000E+00 0.  1.
</event>
<event>
 7    1  0.3062695E-010  0.4778727E+02  0.7816164E-02  0.1312668E+00
        -11   -1    0    0    0    0  0.00000000000E+00  0.00000000000E+00  0.45593999997E+02  0.45594000000E+02  0.51100000000E-03 0.  1.
         11   -1    0    0    0    0 -0.00000000000E+00 -0.00000000000E+00 -0.45593999997E+02  0.45594000000E+02  0.51100000000E-03 0. -1.
    9900012    2    1    2    0    0 -0.11955475419E+02 -0.10718897473E+02 -0.40321150829E+02  0.47787270056E+02  0.19999995491E+02 0.  0.
        -12    1    1    2    0    0  0.11955475419E+02  0.10718897473E+02  0.40321150829E+02  0.43400729944E+02  0.00000000000E+00 0.  1.
         11    1    3    3    0    0 -0.11521138979E+02 -0.36304498193E+01 -0.34546708634E+02  0.36597703301E+02  0.51100000000E-03 0. -1.
        -11    1    3    3    0    0  0.27383675651E+01 -0.34221436371E+01 -0.42549718428E+01  0.61085603573E+01  0.51100000000E-03 0.  1.
         12    1    3    3    0    0 -0.31727040056E+01 -0.36663040170E+01 -0.15194703525E+01  0.50810063968E+01  0.00000000000E+00 0. -1.
</event>
<event>
 7    1  0.3274851E-010  0.4778726E+02  0.7816164E-02  0.1312668E+00
        -11   -1    0    0    0    0  0.00000000000E+00  0.00000000000E+00  0.45593999997E+02  0.45594000000E+02  0.51100000000E-03 0.  1.
         11   -1    0    0    0    0 -0.00000000000E+00 -0.00000000000E+00 -0.45593999997E+02  0.45594000000E+02  0.51100000000E-03 0. -1.
    9900012    2    1    2    0    0 -0.62843901846E+01  0.31292805724E+02 -0.29409021586E+02  0.47787264975E+02  0.19999972328E+02 0.  0.
        -12    1    1    2    0    0  0.62843901846E+01 -0.31292805724E+02  0.29409021586E+02  0.43400735025E+02  0.00000000000E+00 0.  1.
         11    1    3    3    0    0  0.47473014304E+00  0.15910434064E+02 -0.13147964366E+02  0.20645489775E+02  0.51100000000E-03 0. -1.
        -11    1    3    3    0    0 -0.10772726723E+02  0.13569914295E+02 -0.12839937824E+02  0.21565208522E+02  0.51100000000E-03 0.  1.
        -12    1    3    3    0    0  0.40136063950E+01  0.18124573643E+01 -0.34211193955E+01  0.55765666776E+01  0.00000000000E+00 0.  1.
</event>
<event>
 7    1  0.3062695E-010  0.4778727E+02  0.7816164E-02  0.1312668E+00
        -11   -1    0    0    0    0  0.00000000000E+00  0.00000000000E+00  0.45593999997E+02  0.45594000000E+02  0.51100000000E-03 0.  1.
         11   -1    0    0    0    0 -0.00000000000E+00 -0.00000000000E+00 -0.45593999997E+02  0.45594000000E+02  0.51100000000E-03 0. -1.
    9900012    2    1    2    0    0  0.45938987784E+01  0.15422489215E+02 -0.40307148322E+02  0.47787270912E+02  0.19999999396E+02 0.  0.
        -12    1    1    2    0    0 -0.45938987784E+01 -0.15422489215E+02  0.40307148322E+02  0.43400729088E+02  0.00000000000E+00 0.  1.
         11    1    3    3    0    0  0.56355012169E+01  0.84386656681E+01 -0.62376338755E+01  0.11911256393E+02  0.51100000000E-03 0. -1.
        -11    1    3    3    0    0 -0.16896439533E+01  0.82634163884E+01 -0.19628159810E+02  0.21363604680E+02  0.51100000000E-03 0.  1.
         12    1    3    3    0    0  0.64804151482E+00 -0.12795928418E+01 -0.14441354636E+02  0.14512409840E+02  0.00000000000E+00 0. -1.
</event>
<event>
 7    1  0.3062695E-010  0.4778727E+02  0.7816164E-02  0.1312668E+00
        -11   -1    0    0    0    0  0.00000000000E+00  0.00000000000E+00  0.45593999997E+02  0.45594000000E+02  0.51100000000E-03 0.  1.
         11   -1    0    0    0    0 -0.00000000000E+00 -0.00000000000E+00 -0.45593999997E+02  0.45594000000E+02  0.51100000000E-03 0. -1.
    9900012    2    1    2    0    0 -0.37898450609E+02  0.10197850028E+02  0.18529289320E+02  0.47787271130E+02  0.20000000390E+02 0.  0.
        -12    1    1    2    0    0  0.37898450609E+02 -0.10197850028E+02 -0.18529289320E+02  0.43400728870E+02  0.00000000000E+00 0.  1.
         11    1    3    3    0    0 -0.22763161765E+02 -0.43461309240E+00  0.75016142946E+01  0.23971329529E+02  0.51100000000E-03 0. -1.
        -11    1    3    3    0    0  0.12747219647E+01  0.14989519583E+01  0.25227065836E+01  0.31993470941E+01  0.51100000000E-03 0.  1.
         12    1    3    3    0    0 -0.16410010809E+02  0.91335111616E+01  0.85049684417E+01  0.20616594507E+02  0.00000000000E+00 0. -1.
</event>
<event>
 7    1  0.3062695E-010  0.4778727E+02  0.7816164E-02  0.1312668E+00
        -11   -1    0    0    0    0  0.00000000000E+00  0.00000000000E+00  0.45593999997E+02  0.45594000000E+02  0.51100000000E-03 0.  1.
         11   -1    0    0    0    0 -0.00000000000E+00 -0.00000000000E+00 -0.45593999997E+02  0.45594000000E+02  0.51100000000E-03 0. -1.
    9900012    2    1    2    0    0  0.35480405364E+02 -0.55671239680E+01 -0.24367431783E+02  0.47787265377E+02  0.19999974160E+02 0.  0.
        -12    1    1    2    0    0 -0.35480405364E+02  0.55671239680E+01  0.24367431783E+02  0.43400734623E+02  0.00000000000E+00 0.  1.
         11    1    3    3    0    0  0.28807858426E+02 -0.10104723373E+02 -0.17795710897E+02  0.35336743881E+02  0.51100000000E-03 0. -1.
        -11    1    3    3    0    0  0.11651104610E+01  0.30671268780E+01 -0.58465124741E+01  0.67042119628E+01  0.51100000000E-03 0.  1.
         12    1    3    3    0    0  0.55074364774E+01  0.14704725273E+01 -0.72520841248E+00  0.57463095329E+01  0.00000000000E+00 0. -1.
</event>
<event>
 7    1  0.3062695E-010  0.4778727E+02  0.7816164E-02  0.1312668E+00
        -11   -1    0    0    0    0  0.00000000000E+00  0.00000000000E+00  0.45593999997E+02  0.45594000000E+02  0.51100000000E-03 0.  1.
         11   -1    0    0    0    0 -0.00000000000E+00 -0.00000000000E+00 -0.45593999997E+02  0.45594000000E+02  0.51100000000E-03 0. -1.
    9900012    2    1    2    0    0 -0.13972686188E+02 -0.40870623718E+02 -0.42401956272E+01  0.47787273032E+02  0.20000009062E+02 0.  0.
        -12    1    1    2    0    0  0.13972686188E+02  0.40870623718E+02  0.42401956272E+01  0.43400726968E+02  0.00000000000E+00 0.  1.
         11    1    3    3    0    0  0.24726022578E-01 -0.18447511014E+01  0.42185175388E+01  0.46043032577E+01  0.51100000000E-03 0. -1.
        -11    1    3    3    0    0 -0.10518459064E+02 -0.23232618401E+02 -0.14101211090E+01  0.25541749757E+02  0.51100000000E-03 0.  1.
         12    1    3    3    0    0 -0.34789531468E+01 -0.15793254215E+02 -0.70485920570E+01  0.17641220017E+02  0.00000000000E+00 0. -1.
</event>
<event>
 7    1  0.3062695E-010  0.4778727E+02  0.7816164E-02  0.1312668E+00
        -11   -1    0    0    0    0  0.00000000000E+00  0.00000000000E+00  0.45593999997E+02  0.45594000000E+02  0.51100000000E-03 0. -1.
         11   -1    0    0    0    0 -0.00000000000E+00 -0.00000000000E+00 -0.45593999997E+02  0.45594000000E+02  0.51100000000E-03 0.  1.
    9900012    2    1    2    0    0 -0.25739854150E+02  0.26981878316E+02  0.22204985288E+02  0.47787271657E+02  0.20000002791E+02 0.  0.
        -12    1    1    2    0    0  0.25739854150E+02 -0.26981878316E+02 -0.22204985288E+02  0.43400728343E+02  0.00000000000E+00 0.  1.
         11    1    3    3    0    0 -0.15979534306E+01 -0.13445243080E+01 -0.39771576177E+00  0.21258830800E+01  0.51100000000E-03 0.  1.
        -11    1    3    3    0    0 -0.17773767846E+02  0.17226713280E+02  0.74940331375E+01  0.25861689945E+02  0.51100000000E-03 0. -1.
        -12    1    3    3    0    0 -0.63681328726E+01  0.11099689344E+02  0.15108667912E+02  0.19799698631E+02  0.00000000000E+00 0.  1.
</event>
<event>
 7    1  0.3062695E-010  0.4778727E+02  0.7816164E-02  0.1312668E+00
        -11   -1    0    0    0    0  0.00000000000E+00  0.00000000000E+00  0.45593999997E+02  0.45594000000E+02  0.51100000000E-03 0. -1.
         11   -1    0    0    0    0 -0.00000000000E+00 -0.00000000000E+00 -0.45593999997E+02  0.45594000000E+02  0.51100000000E-03 0.  1.
    9900012    2    1    2    0    0 -0.23017099885E+02 -0.11260846693E+02  0.35028981720E+02  0.47787272866E+02  0.20000008307E+02 0.  0.
        -12    1    1    2    0    0  0.23017099885E+02  0.11260846693E+02 -0.35028981720E+02  0.43400727134E+02  0.00000000000E+00 0.  1.
         11    1    3    3    0    0 -0.89667970783E+01 -0.49181059191E+01  0.28049865484E+01  0.10604676585E+02  0.51100000000E-03 0.  1.
        -11    1    3    3    0    0 -0.12966142730E+01 -0.81029218332E+00 -0.51570876897E+00  0.16136101731E+01  0.51100000000E-03 0. -1.
         12    1    3    3    0    0 -0.12753688534E+02 -0.55324485906E+01  0.32739703941E+02  0.35568986108E+02  0.00000000000E+00 0. -1.
</event>
<event>
 7    1  0.3062695E-010  0.4778726E+02  0.7816164E-02  0.1312668E+00
        -11   -1    0    0    0    0  0.00000000000E+00  0.00000000000E+00  0.45593999997E+02  0.45594000000E+02  0.51100000000E-03 0.  1.
         11   -1    0    0    0    0 -0.00000000000E+00 -0.00000000000E+00 -0.45593999997E+02  0.45594000000E+02  0.51100000000E-03 0. -1.
    9900012    2    1    2    0    0 -0.13075095063E+02 -0.25717517877E+02 -0.32423371074E+02  0.47787264655E+02  0.19999970870E+02 0.  0.
        -12    1    1    2    0    0  0.13075095063E+02  0.25717517877E+02  0.32423371074E+02  0.43400735345E+02  0.00000000000E+00 0.  1.
         11    1    3    3    0    0 -0.46430925139E+01 -0.44939159963E+01 -0.22912225645E+01  0.68558945569E+01  0.51100000000E-03 0. -1.
        -11    1    3    3    0    0 -0.11623866694E+02 -0.15757886264E+02 -0.15448243345E+02  0.24941400906E+02  0.51100000000E-03 0.  1.
        -12    1    3    3    0    0  0.31918641444E+01 -0.54657156163E+01 -0.14683905165E+02  0.15989969193E+02  0.00000000000E+00 0.  1.
</event>
<event>
 7    1  0.3062695E-010  0.4778727E+02  0.7816164E-02  0.1312668E+00
        -11   -1    0    0    0    0  0.00000000000E+00  0.00000000000E+00  0.45593999997E+02  0.45594000000E+02  0.51100000000E-03 0. -1.
         11   -1    0    0    0    0 -0.00000000000E+00 -0.00000000000E+00 -0.45593999997E+02  0.45594000000E+02  0.51100000000E-03 0.  1.
    9900012    2    1    2    0    0 -0.31251847646E+02 -0.22769130285E+02  0.19710708790E+02  0.47787270556E+02  0.19999997775E+02 0.  0.
        -12    1    1    2    0    0  0.31251847646E+02  0.22769130285E+02 -0.19710708790E+02  0.43400729444E+02  0.00000000000E+00 0.  1.
         11    1    3    3    0    0 -0.22234025569E+02 -0.11814456123E+02  0.11769228492E+02  0.27792948855E+02  0.51100000000E-03 0. -1.
        -11    1    3    3    0    0 -0.37446898451E+01 -0.12332819178E+02  0.52703940423E+01  0.13924732836E+02  0.51100000000E-03 0.  1.
         12    1    3    3    0    0 -0.52731322316E+01  0.13781450156E+01  0.26710862555E+01  0.60695888659E+01  0.00000000000E+00 0. -1.
</event>
<event>
 7    1  0.3062695E-010  0.4778727E+02  0.7816164E-02  0.1312668E+00
        -11   -1    0    0    0    0  0.00000000000E+00  0.00000000000E+00  0.45593999997E+02  0.45594000000E+02  0.51100000000E-03 0. -1.
         11   -1    0    0    0    0 -0.00000000000E+00 -0.00000000000E+00 -0.45593999997E+02  0.45594000000E+02  0.51100000000E-03 0.  1.
    9900012    2    1    2    0    0  0.83953796787E+01  0.42495994118E+02 -0.26890990391E+01  0.47787272245E+02  0.20000005473E+02 0.  0.
        -12    1    1    2    0    0 -0.83953796787E+01 -0.42495994118E+02  0.26890990391E+01  0.43400727755E+02  0.00000000000E+00 0.  1.
         11    1    3    3    0    0  0.44976027817E+01  0.38635766787E+02  0.23219242294E+01  0.38965911236E+02  0.51100000000E-03 0. -1.
        -11    1    3    3    0    0  0.48339660014E+01  0.40355068072E+01 -0.45071751135E+01  0.77438472517E+01  0.51100000000E-03 0.  1.
        -12    1    3    3    0    0 -0.93618910439E+00 -0.17527947638E+00 -0.50384815496E+00  0.10775137573E+01  0.00000000000E+00 0.  1.
</event>
<event>
 7    1  0.3062695E-010  0.4778727E+02  0.7816164E-02  0.1312668E+00
        -11   -1    0    0    0    0  0.00000000000E+00  0.00000000000E+00  0.45593999997E+02  0.45594000000E+02  0.51100000000E-03 0.  1.
         11   -1    0    0    0    0 -0.00000000000E+00 -0.00000000000E+00 -0.45593999997E+02  0.45594000000E+02  0.51100000000E-03 0. -1.
    9900012    2    1    2    0    0  0.26362783693E+02 -0.16998851990E+01 -0.34434537711E+02  0.47787270040E+02  0.19999995419E+02 0.  0.
        -12    1    1    2    0    0 -0.26362783693E+02  0.16998851990E+01  0.34434537711E+02  0.43400729960E+02  0.00000000000E+00 0.  1.
         11    1    3    3    0    0  0.25565010114E+02 -0.14186472824E+01 -0.29340832721E+02  0.38941838263E+02  0.51100000000E-03 0. -1.
        -11    1    3    3    0    0 -0.24124550188E+01 -0.23220238313E+01 -0.17366911479E+01  0.37719796255E+01  0.51100000000E-03 0.  1.
         12    1    3    3    0    0  0.32102285975E+01  0.20407859148E+01 -0.33570138415E+01  0.50734521512E+01  0.00000000000E+00 0. -1.
</event>
<event>
 7    1  0.3062695E-010  0.4778727E+02  0.7816164E-02  0.1312668E+00
        -11   -1    0    0    0    0  0.00000000000E+00  0.00000000000E+00  0.45593999997E+02  0.45594000000E+02  0.51100000000E-03 0.  1.
         11   -1    0    0    0    0 -0.00000000000E+00 -0.00000000000E+00 -0.45593999997E+02  0.45594000000E+02  0.51100000000E-03 0. -1.
    9900012    2    1    2    0    0  0.81465077279E+01  0.39401027873E+02 -0.16273182445E+02  0.47787273595E+02  0.20000011630E+02 0.  0.
        -12    1    1    2    0    0 -0.81465077279E+01 -0.39401027873E+02  0.16273182445E+02  0.43400726405E+02  0.00000000000E+00 0.  1.
         11    1    3    3    0    0  0.21896628453E+01  0.35653829482E+02 -0.15247297554E+02  0.38839030151E+02  0.51100000000E-03 0. -1.
        -11    1    3    3    0    0  0.39946002108E+01  0.37599902176E+01  0.15588630574E+01  0.57030177602E+01  0.51100000000E-03 0.  1.
        -12    1    3    3    0    0  0.19622446718E+01 -0.12791827565E-01 -0.25847479479E+01  0.32452256836E+01  0.00000000000E+00 0.  1.
</event>
<event>
 7    1  0.3062695E-010  0.4778728E+02  0.7816164E-02  0.1312668E+00
        -11   -1    0    0    0    0  0.00000000000E+00  0.00000000000E+00  0.45593999997E+02  0.45594000000E+02  0.51100000000E-03 0.  1.
         11   -1    0    0    0    0 -0.00000000000E+00 -0.00000000000E+00 -0.45593999997E+02  0.45594000000E+02  0.51100000000E-03 0. -1.
    9900012    2    1    2    0    0 -0.90498129263E+01  0.30431264270E+02 -0.29591582234E+02  0.47787277677E+02  0.20000030241E+02 0.  0.
        -12    1    1    2    0    0  0.90498129263E+01 -0.30431264270E+02  0.29591582234E+02  0.43400722323E+02  0.00000000000E+00 0.  1.
         11    1    3    3    0    0 -0.18461429076E+01  0.16337297495E+02 -0.15907367545E+02  0.22877060028E+02  0.51100000000E-03 0. -1.
        -11    1    3    3    0    0  0.34753720643E+00 -0.87874586043E+00  0.18335990602E+01  0.20627802045E+01  0.51100000000E-03 0.  1.
        -12    1    3    3    0    0 -0.75512072251E+01  0.14972712635E+02 -0.15517813749E+02  0.22847437444E+02  0.00000000000E+00 0.  1.
</event>
<event>
 7    1  0.3062695E-010  0.4778727E+02  0.7816164E-02  0.1312668E+00
        -11   -1    0    0    0    0  0.00000000000E+00  0.00000000000E+00  0.45593999997E+02  0.45594000000E+02  0.51100000000E-03 0.  1.
         11   -1    0    0    0    0 -0.00000000000E+00 -0.00000000000E+00 -0.45593999997E+02  0.45594000000E+02  0.51100000000E-03 0. -1.
    9900012    2    1    2    0    0  0.17033912662E+01 -0.16419124751E+02 -0.40138931753E+02  0.47787273719E+02  0.20000012196E+02 0.  0.
        -12    1    1    2    0    0 -0.17033912662E+01  0.16419124751E+02  0.40138931753E+02  0.43400726281E+02  0.00000000000E+00 0.  1.
         11    1    3    3    0    0  0.91500623488E+00 -0.61921072503E+01 -0.27498962063E+02  0.28202346417E+02  0.51100000000E-03 0. -1.
        -11    1    3    3    0    0 -0.19836126451E+01 -0.10756706176E+02 -0.62458924522E+01  0.12595738155E+02  0.51100000000E-03 0.  1.
        -12    1    3    3    0    0  0.27719976763E+01  0.52968867544E+00 -0.63940772381E+01  0.69891891473E+01  0.00000000000E+00 0.  1.
</event>
<event>
 7    1  0.3062695E-010  0.4778727E+02  0.7816164E-02  0.1312668E+00
        -11   -1    0    0    0    0  0.00000000000E+00  0.00000000000E+00  0.45593999997E+02  0.45594000000E+02  0.51100000000E-03 0.  1.
         11   -1    0    0    0    0 -0.00000000000E+00 -0.00000000000E+00 -0.45593999997E+02  0.45594000000E+02  0.51100000000E-03 0. -1.
    9900012    2    1    2    0    0 -0.23630225274E+02  0.28867555259E+02 -0.22178826988E+02  0.47787266599E+02  0.19999979733E+02 0.  0.
        -12    1    1    2    0    0  0.23630225274E+02 -0.28867555259E+02  0.22178826988E+02  0.43400733401E+02  0.00000000000E+00 0.  1.
         11    1    3    3    0    0 -0.88521945178E+01  0.51478159287E+01 -0.14546938868E+02  0.17789738258E+02  0.51100000000E-03 0. -1.
        -11    1    3    3    0    0 -0.76827084991E+01  0.10151473415E+02  0.33919680236E+00  0.12735441771E+02  0.51100000000E-03 0.  1.
        -12    1    3    3    0    0 -0.70953222570E+01  0.13568265916E+02 -0.79710849226E+01  0.17262086569E+02  0.00000000000E+00 0.  1.
</event>
<event>
 7    1  0.3062695E-010  0.4778727E+02  0.7816164E-02  0.1312668E+00
        -11   -1    0    0    0    0  0.00000000000E+00  0.00000000000E+00  0.45593999997E+02  0.45594000000E+02  0.51100000000E-03 0. -1.
         11   -1    0    0    0    0 -0.00000000000E+00 -0.00000000000E+00 -0.45593999997E+02  0.45594000000E+02  0.51100000000E-03 0.  1.
    9900012    2    1    2    0    0 -0.82215158637E+01  0.42319329722E+02  0.50104187411E+01  0.47787270892E+02  0.19999999303E+02 0.  0.
        -12    1    1    2    0    0  0.82215158637E+01 -0.42319329722E+02 -0.50104187411E+01  0.43400729108E+02  0.00000000000E+00 0.  1.
         11    1    3    3    0    0 -0.88939591534E+01  0.22609967140E+02  0.96994449310E+01  0.26160893634E+02  0.51100000000E-03 0.  1.
        -11    1    3    3    0    0 -0.33244766047E+01  0.95292531513E+01 -0.12953184916E+01  0.10175296584E+02  0.51100000000E-03 0. -1.
         12    1    3    3    0    0  0.39969198945E+01  0.10180109430E+02 -0.33937076984E+01  0.11451080674E+02  0.00000000000E+00 0. -1.
</event>
<event>
 7    1  0.3062695E-010  0.4778732E+02  0.7816164E-02  0.1312668E+00
        -11   -1    0    0    0    0  0.00000000000E+00  0.00000000000E+00  0.45593999997E+02  0.45594000000E+02  0.51100000000E-03 0.  1.
         11   -1    0    0    0    0 -0.00000000000E+00 -0.00000000000E+00 -0.45593999997E+02  0.45594000000E+02  0.51100000000E-03 0. -1.
    9900012    2    1    2    0    0  0.35141176418E+02  0.25435624186E+02  0.13214287469E+01  0.47787315308E+02  0.20000201815E+02 0.  0.
        -12    1    1    2    0    0 -0.35141176418E+02 -0.25435624186E+02 -0.13214287469E+01  0.43400684692E+02  0.00000000000E+00 0.  1.
         11    1    3    3    0    0  0.42254064301E+01  0.13559065145E+02 -0.12892261541E+01  0.14260589450E+02  0.51100000000E-03 0. -1.
        -11    1    3    3    0    0  0.23177545490E+02  0.82855349563E+01  0.38265186896E+01  0.24909655758E+02  0.51100000000E-03 0.  1.
         12    1    3    3    0    0  0.77382244983E+01  0.35910240843E+01 -0.12158637886E+01  0.86170701003E+01  0.00000000000E+00 0. -1.
</event>
<event>
 7    1  0.3062695E-010  0.4778727E+02  0.7816164E-02  0.1312668E+00
        -11   -1    0    0    0    0  0.00000000000E+00  0.00000000000E+00  0.45593999997E+02  0.45594000000E+02  0.51100000000E-03 0. -1.
         11   -1    0    0    0    0 -0.00000000000E+00 -0.00000000000E+00 -0.45593999997E+02  0.45594000000E+02  0.51100000000E-03 0.  1.
    9900012    2    1    2    0    0 -0.16734042567E+02 -0.34548852888E+02  0.20247758582E+02  0.47787272540E+02  0.20000006817E+02 0.  0.
        -12    1    1    2    0    0  0.16734042567E+02  0.34548852888E+02 -0.20247758582E+02  0.43400727460E+02  0.00000000000E+00 0.  1.
         11    1    3    3    0    0 -0.50843974655E+01 -0.69294493853E+01  0.13278063589E+02  0.15816932045E+02  0.51100000000E-03 0. -1.
        -11    1    3    3    0    0 -0.12269190864E+01 -0.13793097987E+02  0.23031515813E+01  0.14037784369E+02  0.51100000000E-03 0.  1.
         12    1    3    3    0    0 -0.10422726016E+02 -0.13826305515E+02  0.46665434114E+01  0.17932556126E+02  0.00000000000E+00 0. -1.
</event>
<event>
 7    1  0.3062695E-010  0.4778728E+02  0.7816164E-02  0.1312668E+00
        -11   -1    0    0    0    0  0.00000000000E+00  0.00000000000E+00  0.45593999997E+02  0.45594000000E+02  0.51100000000E-03 0. -1.
         11   -1    0    0    0    0 -0.00000000000E+00 -0.00000000000E+00 -0.45593999997E+02  0.45594000000E+02  0.51100000000E-03 0.  1.
    9900012    2    1    2    0    0 -0.34163758142E+02 -0.25560616869E+02  0.79444791782E+01  0.47787282788E+02  0.20000053545E+02 0.  0.
        -12    1    1    2    0    0  0.34163758142E+02  0.25560616869E+02 -0.79444791782E+01  0.43400717212E+02  0.00000000000E+00 0.  1.
         11    1    3    3    0    0 -0.33815880622E+02 -0.19949540014E+02  0.23216342064E+01  0.39330495988E+02  0.51100000000E-03 0. -1.
        -11    1    3    3    0    0  0.12324467802E+01 -0.28250282235E+01  0.31796202062E+01  0.44282834650E+01  0.51100000000E-03 0.  1.
         12    1    3    3    0    0 -0.15803242997E+01 -0.27860486308E+01  0.24432247655E+01  0.40285033350E+01  0.00000000000E+00 0. -1.
</event>
<event>
 7    1  0.3062695E-010  0.4778727E+02  0.7816164E-02  0.1312668E+00
        -11   -1    0    0    0    0  0.00000000000E+00  0.00000000000E+00  0.45593999997E+02  0.45594000000E+02  0.51100000000E-03 0.  1.
         11   -1    0    0    0    0 -0.00000000000E+00 -0.00000000000E+00 -0.45593999997E+02  0.45594000000E+02  0.51100000000E-03 0. -1.
    9900012    2    1    2    0    0  0.17247729506E+02  0.27662306859E+02 -0.28651974358E+02  0.47787273872E+02  0.20000012891E+02 0.  0.
        -12    1    1    2    0    0 -0.17247729506E+02 -0.27662306859E+02  0.28651974358E+02  0.43400726128E+02  0.00000000000E+00 0.  1.
         11    1    3    3    0    0  0.15364505440E+02  0.75499327234E+01 -0.17353415471E+02  0.24376434119E+02  0.51100000000E-03 0. -1.
        -11    1    3    3    0    0 -0.38100584753E-01  0.94542547647E+01 -0.35693876161E+01  0.10105687162E+02  0.51100000000E-03 0.  1.
         12    1    3    3    0    0  0.19213246499E+01  0.10658119370E+02 -0.77291712709E+01  0.13305152591E+02  0.00000000000E+00 0. -1.
</event>
<event>
 7    1  0.3062695E-010  0.4778727E+02  0.7816164E-02  0.1312668E+00
        -11   -1    0    0    0    0  0.00000000000E+00  0.00000000000E+00  0.45593999997E+02  0.45594000000E+02  0.51100000000E-03 0. -1.
         11   -1    0    0    0    0 -0.00000000000E+00 -0.00000000000E+00 -0.45593999997E+02  0.45594000000E+02  0.51100000000E-03 0.  1.
    9900012    2    1    2    0    0  0.18749267482E+02 -0.38808611686E+02 -0.50970476923E+01  0.47787271120E+02  0.20000000343E+02 0.  0.
        -12    1    1    2    0    0 -0.18749267482E+02  0.38808611686E+02  0.50970476923E+01  0.43400728880E+02  0.00000000000E+00 0.  1.
         11    1    3    3    0    0  0.13840183453E+02 -0.20285651574E+02 -0.95169123877E+01  0.26336855534E+02  0.51100000000E-03 0. -1.
        -11    1    3    3    0    0  0.63411419603E+01 -0.10285505946E+02  0.49834321775E+01  0.13070436506E+02  0.51100000000E-03 0.  1.
        -12    1    3    3    0    0 -0.14320579306E+01 -0.82374541671E+01 -0.56356748208E+00  0.83799790798E+01  0.00000000000E+00 0.  1.
</event>
<event>
 7    1  0.3062695E-010  0.4778727E+02  0.7816164E-02  0.1312668E+00
        -11   -1    0    0    0    0  0.00000000000E+00  0.00000000000E+00  0.45593999997E+02  0.45594000000E+02  0.51100000000E-03 0.  1.
         11   -1    0    0    0    0 -0.00000000000E+00 -0.00000000000E+00 -0.45593999997E+02  0.45594000000E+02  0.51100000000E-03 0. -1.
    9900012    2    1    2    0    0  0.30457114934E+02  0.52518449384E+01 -0.30469743277E+02  0.47787274422E+02  0.20000015400E+02 0.  0.
        -12    1    1    2    0    0 -0.30457114934E+02 -0.52518449384E+01  0.30469743277E+02  0.43400725578E+02  0.00000000000E+00 0.  1.
         11    1    3    3    0    0  0.22272779949E+02  0.12051300653E+02 -0.25840719055E+02  0.36180842107E+02  0.51100000000E-03 0. -1.
        -11    1    3    3    0    0  0.49714601343E+01 -0.42878059502E+01 -0.28248117193E+01  0.71470453507E+01  0.51100000000E-03 0.  1.
         12    1    3    3    0    0  0.32128748506E+01 -0.25116497639E+01 -0.18042125027E+01  0.44593869642E+01  0.00000000000E+00 0. -1.
</event>
<event>
 7    1  0.3062695E-010  0.4778727E+02  0.7816164E-02  0.1312668E+00
        -11   -1    0    0    0    0  0.00000000000E+00  0.00000000000E+00  0.45593999997E+02  0.45594000000E+02  0.51100000000E-03 0.  1.
         11   -1    0    0    0    0 -0.00000000000E+00 -0.00000000000E+00 -0.45593999997E+02  0.45594000000E+02  0.51100000000E-03 0. -1.
    9900012    2    1    2    0    0  0.13120408454E+02  0.31931731077E+02 -0.26302906924E+02  0.47787268667E+02  0.19999989162E+02 0.  0.
        -12    1    1    2    0    0 -0.13120408454E+02 -0.31931731077E+02  0.26302906924E+02  0.43400731333E+02  0.00000000000E+00 0.  1.
         11    1    3    3    0    0 -0.11782810591E+01  0.12268770338E+02 -0.84412268772E+01  0.14938720940E+02  0.51100000000E-03 0. -1.
        -11    1    3    3    0    0  0.21653801577E+01  0.80093389179E+01 -0.12847874695E+02  0.15293994428E+02  0.51100000000E-03 0.  1.
         12    1    3    3    0    0  0.12133309355E+02  0.11653621820E+02 -0.50138053525E+01  0.17554553300E+02  0.00000000000E+00 0. -1.
</event>
<event>
 7    1  0.3062695E-010  0.4778727E+02  0.7816164E-02  0.1312668E+00
        -11   -1    0    0    0    0  0.00000000000E+00  0.00000000000E+00  0.45593999997E+02  0.45594000000E+02  0.51100000000E-03 0.  1.
         11   -1    0    0    0    0 -0.00000000000E+00 -0.00000000000E+00 -0.45593999997E+02  0.45594000000E+02  0.51100000000E-03 0. -1.
    9900012    2    1    2    0    0 -0.12046437193E+02  0.16801323965E+02 -0.38160480977E+02  0.47787269080E+02  0.19999991042E+02 0.  0.
        -12    1    1    2    0    0  0.12046437193E+02 -0.16801323965E+02  0.38160480977E+02  0.43400730920E+02  0.00000000000E+00 0.  1.
         11    1    3    3    0    0 -0.13154971178E+02  0.49511096319E+01 -0.28526045807E+02  0.31800975503E+02  0.51100000000E-03 0. -1.
        -11    1    3    3    0    0  0.15600565195E+01  0.11584149614E+02 -0.77359991481E+01  0.14016846354E+02  0.51100000000E-03 0.  1.
        -12    1    3    3    0    0 -0.45152253441E+00  0.26606471849E+00 -0.18984360221E+01  0.19694472229E+01  0.00000000000E+00 0.  1.
</event>
<event>
 7    1  0.3062695E-010  0.4778727E+02  0.7816164E-02  0.1312668E+00
        -11   -1    0    0    0    0  0.00000000000E+00  0.00000000000E+00  0.45593999997E+02  0.45594000000E+02  0.51100000000E-03 0.  1.
         11   -1    0    0    0    0 -0.00000000000E+00 -0.00000000000E+00 -0.45593999997E+02  0.45594000000E+02  0.51100000000E-03 0. -1.
    9900012    2    1    2    0    0 -0.14496078490E+02 -0.34163715539E+02 -0.22501726007E+02  0.47787269311E+02  0.19999992096E+02 0.  0.
        -12    1    1    2    0    0  0.14496078490E+02  0.34163715539E+02  0.22501726007E+02  0.43400730689E+02  0.00000000000E+00 0.  1.
         11    1    3    3    0    0 -0.20984983452E+01 -0.10533941700E+02 -0.37195345198E+01  0.11366730416E+02  0.51100000000E-03 0. -1.
        -11    1    3    3    0    0  0.10805724588E+01 -0.14820287010E+02 -0.11284277449E+02  0.18658602887E+02  0.51100000000E-03 0.  1.
        -12    1    3    3    0    0 -0.13478152604E+02 -0.88094868295E+01 -0.74979140376E+01  0.17761936007E+02  0.00000000000E+00 0.  1.
</event>
<event>
 7    1  0.3062695E-010  0.4778727E+02  0.7816164E-02  0.1312668E+00
        -11   -1    0    0    0    0  0.00000000000E+00  0.00000000000E+00  0.45593999997E+02  0.45594000000E+02  0.51100000000E-03 0. -1.
         11   -1    0    0    0    0 -0.00000000000E+00 -0.00000000000E+00 -0.45593999997E+02  0.45594000000E+02  0.51100000000E-03 0.  1.
    9900012    2    1    2    0    0  0.39693946838E+02  0.17113942012E+01  0.17466681546E+02  0.47787271320E+02  0.20000001257E+02 0.  0.
        -12    1    1    2    0    0 -0.39693946838E+02 -0.17113942012E+01 -0.17466681546E+02  0.43400728680E+02  0.00000000000E+00 0.  1.
         11    1    3    3    0    0  0.15945180324E+02 -0.47311575831E+01  0.11814908201E+02  0.20401585323E+02  0.51100000000E-03 0. -1.
        -11    1    3    3    0    0  0.13877537316E+02  0.90679200931E+01  0.32595685210E+01  0.16894910594E+02  0.51100000000E-03 0.  1.
         12    1    3    3    0    0  0.98712291985E+01 -0.26253683087E+01  0.23922048242E+01  0.10490775403E+02  0.00000000000E+00 0. -1.
</event>
<event>
 7    1  0.3062695E-010  0.4778727E+02  0.7816164E-02  0.1312668E+00
        -11   -1    0    0    0    0  0.00000000000E+00  0.00000000000E+00  0.45593999997E+02  0.45594000000E+02  0.51100000000E-03 0.  1.
         11   -1    0    0    0    0 -0.00000000000E+00 -0.00000000000E+00 -0.45593999997E+02  0.45594000000E+02  0.51100000000E-03 0. -1.
    9900012    2    1    2    0    0  0.90759382859E+01 -0.30656070819E+02 -0.29350570721E+02  0.47787270335E+02  0.19999996764E+02 0.  0.
        -12    1    1    2    0    0 -0.90759382859E+01  0.30656070819E+02  0.29350570721E+02  0.43400729665E+02  0.00000000000E+00 0.  1.
         11    1    3    3    0    0 -0.29806369421E+01 -0.11093316090E+02 -0.12427604133E+02  0.16923096737E+02  0.51100000000E-03 0. -1.
        -11    1    3    3    0    0  0.88618204298E+01 -0.41690396669E+01 -0.88077447448E+01  0.13171526898E+02  0.51100000000E-03 0.  1.
        -12    1    3    3    0    0  0.31947547981E+01 -0.15393715063E+02 -0.81152218432E+01  0.17692646699E+02  0.00000000000E+00 0.  1.
</event>
<event>
 7    1  0.3062695E-010  0.4778731E+02  0.7816164E-02  0.1312668E+00
        -11   -1    0    0    0    0  0.00000000000E+00  0.00000000000E+00  0.45593999997E+02  0.45594000000E+02  0.51100000000E-03 0.  1.
         11   -1    0    0    0    0 -0.00000000000E+00 -0.00000000000E+00 -0.45593999997E+02  0.45594000000E+02  0.51100000000E-03 0. -1.
    9900012    2    1    2    0    0 -0.10275266564E+02  0.99854212198E+01 -0.40967428734E+02  0.47787309257E+02  0.20000174227E+02 0.  0.
        -12    1    1    2    0    0  0.10275266564E+02 -0.99854212198E+01  0.40967428734E+02  0.43400690743E+02  0.00000000000E+00 0.  1.
         11    1    3    3    0    0 -0.54964998978E+01  0.10112851772E+02 -0.35896286101E+02  0.37696480448E+02  0.51100000000E-03 0. -1.
        -11    1    3    3    0    0 -0.60055683162E+01  0.17774513447E+01 -0.27280607283E+01  0.68314346723E+01  0.51100000000E-03 0.  1.
         12    1    3    3    0    0  0.12268016502E+01 -0.19048818966E+01 -0.23430819045E+01  0.32593941370E+01  0.00000000000E+00 0. -1.
</event>
<event>
 7    1  0.3062695E-010  0.4778725E+02  0.7816164E-02  0.1312668E+00
        -11   -1    0    0    0    0  0.00000000000E+00  0.00000000000E+00  0.45593999997E+02  0.45594000000E+02  0.51100000000E-03 0.  1.
         11   -1    0    0    0    0 -0.00000000000E+00 -0.00000000000E+00 -0.45593999997E+02  0.45594000000E+02  0.51100000000E-03 0. -1.
    9900012    2    1    2    0    0  0.41108130890E+02  0.63531258311E+01 -0.12384844667E+02  0.47787251038E+02  0.19999908781E+02 0.  0.
        -12    1    1    2    0    0 -0.41108130890E+02 -0.63531258311E+01  0.12384844667E+02  0.43400748962E+02  0.00000000000E+00 0.  1.
         11    1    3    3    0    0  0.12696361137E+02  0.97168862579E+01 -0.23075755077E+01  0.16153648803E+02  0.51100000000E-03 0. -1.
        -11    1    3    3    0    0  0.13411007852E+02 -0.58865468663E+01 -0.34838951126E+01  0.15054703286E+02  0.51100000000E-03 0.  1.
         12    1    3    3    0    0  0.15000761901E+02  0.25227864396E+01 -0.65933740471E+01  0.16578898949E+02  0.00000000000E+00 0. -1.
</event>
<event>
 7    1  0.3062695E-010  0.4778731E+02  0.7816164E-02  0.1312668E+00
        -11   -1    0    0    0    0  0.00000000000E+00  0.00000000000E+00  0.45593999997E+02  0.45594000000E+02  0.51100000000E-03 0. -1.
         11   -1    0    0    0    0 -0.00000000000E+00 -0.00000000000E+00 -0.45593999997E+02  0.45594000000E+02  0.51100000000E-03 0.  1.
    9900012    2    1    2    0    0  0.28598101881E+02 -0.69722763566E+01 -0.31892881723E+02  0.47787309068E+02  0.20000173363E+02 0.  0.
        -12    1    1    2    0    0 -0.28598101881E+02  0.69722763566E+01  0.31892881723E+02  0.43400690932E+02  0.00000000000E+00 0.  1.
         11    1    3    3    0    0  0.17083656349E+02 -0.24579222177E+01 -0.24935597097E+02  0.30326171844E+02  0.51100000000E-03 0. -1.
        -11    1    3    3    0    0 -0.77861682200E+00 -0.34491391723E+01 -0.25460750081E+01  0.43572128011E+01  0.51100000000E-03 0.  1.
         12    1    3    3    0    0  0.12293062355E+02 -0.10652149666E+01 -0.44112096176E+01  0.13103924423E+02  0.00000000000E+00 0. -1.
</event>
<event>
 7    1  0.3062695E-010  0.4778727E+02  0.7816164E-02  0.1312668E+00
        -11   -1    0    0    0    0  0.00000000000E+00  0.00000000000E+00  0.45593999997E+02  0.45594000000E+02  0.51100000000E-03 0.  1.
         11   -1    0    0    0    0 -0.00000000000E+00 -0.00000000000E+00 -0.45593999997E+02  0.45594000000E+02  0.51100000000E-03 0. -1.
    9900012    2    1    2    0    0  0.34566115395E+02 -0.11066745411E+02 -0.23797774460E+02  0.47787271242E+02  0.20000000900E+02 0.  0.
        -12    1    1    2    0    0 -0.34566115395E+02  0.11066745411E+02  0.23797774460E+02  0.43400728758E+02  0.00000000000E+00 0.  1.
         11    1    3    3    0    0  0.18788130567E+01  0.28527828921E+01  0.53450058808E+00  0.34574556933E+01  0.51100000000E-03 0. -1.
        -11    1    3    3    0    0  0.30196340657E+02 -0.89492693477E+01 -0.20571239128E+02  0.37617606123E+02  0.51100000000E-03 0.  1.
        -12    1    3    3    0    0  0.24909616819E+01 -0.49702589551E+01 -0.37610359193E+01  0.67122094252E+01  0.00000000000E+00 0.  1.
</event>
<event>
 7    1  0.3062695E-010  0.4778727E+02  0.7816164E-02  0.1312668E+00
        -11   -1    0    0    0    0  0.00000000000E+00  0.00000000000E+00  0.45593999997E+02  0.45594000000E+02  0.51100000000E-03 0.  1.
         11   -1    0    0    0    0 -0.00000000000E+00 -0.00000000000E+00 -0.45593999997E+02  0.45594000000E+02  0.51100000000E-03 0. -1.
    9900012    2    1    2    0    0 -0.16951873785E+02 -0.12116847281E+02 -0.38071502885E+02  0.47787270228E+02  0.19999996277E+02 0.  0.
        -12    1    1    2    0    0  0.16951873785E+02  0.12116847281E+02  0.38071502885E+02  0.43400729772E+02  0.00000000000E+00 0.  1.
         11    1    3    3    0    0 -0.32404201439E+01 -0.83850978352E+01 -0.15777993257E+02  0.18159164626E+02  0.51100000000E-03 0. -1.
        -11    1    3    3    0    0 -0.18066746560E+01  0.46265180527E+01 -0.58609274464E+01  0.76823963317E+01  0.51100000000E-03 0.  1.
        -12    1    3    3    0    0 -0.11904778985E+02 -0.83582674984E+01 -0.16432582181E+02  0.21945709271E+02  0.00000000000E+00 0.  1.
</event>
<event>
 7    1  0.3062695E-010  0.4778727E+02  0.7816164E-02  0.1312668E+00
        -11   -1    0    0    0    0  0.00000000000E+00  0.00000000000E+00  0.45593999997E+02  0.45594000000E+02  0.51100000000E-03 0. -1.
         11   -1    0    0    0    0 -0.00000000000E+00 -0.00000000000E+00 -0.45593999997E+02  0.45594000000E+02  0.51100000000E-03 0.  1.
    9900012    2    1    2    0    0 -0.38162961367E+02 -0.38175562998E+01  0.20313489895E+02  0.47787271572E+02  0.20000002406E+02 0.  0.
        -12    1    1    2    0    0  0.38162961367E+02  0.38175562998E+01 -0.20313489895E+02  0.43400728428E+02  0.00000000000E+00 0.  1.
         11    1    3    3    0    0 -0.10489177966E+02  0.50983308359E+01  0.80349719269E+01  0.14162507046E+02  0.51100000000E-03 0. -1.
        -11    1    3    3    0    0 -0.18788717348E+01 -0.44479252498E+01  0.30663983197E+00  0.48382048604E+01  0.51100000000E-03 0.  1.
         12    1    3    3    0    0 -0.25794911666E+02 -0.44679618859E+01  0.11971878136E+02  0.28786559665E+02  0.00000000000E+00 0. -1.
</event>
<event>
 7    1  0.3062695E-010  0.4778727E+02  0.7816164E-02  0.1312668E+00
        -11   -1    0    0    0    0  0.00000000000E+00  0.00000000000E+00  0.45593999997E+02  0.45594000000E+02  0.51100000000E-03 0.  1.
         11   -1    0    0    0    0 -0.00000000000E+00 -0.00000000000E+00 -0.45593999997E+02  0.45594000000E+02  0.51100000000E-03 0. -1.
    9900012    2    1    2    0    0  0.32528618446E+02  0.94770905751E+01 -0.27123738050E+02  0.47787269251E+02  0.19999991822E+02 0.  0.
        -12    1    1    2    0    0 -0.32528618446E+02 -0.94770905751E+01  0.27123738050E+02  0.43400730749E+02  0.00000000000E+00 0.  1.
         11    1    3    3    0    0  0.68404620548E+01 -0.49285404273E+01 -0.74945110134E+01  0.11280519822E+02  0.51100000000E-03 0.  1.
        -11    1    3    3    0    0  0.66416504262E+01  0.85364782183E+01 -0.77344573885E+01  0.13296797062E+02  0.51100000000E-03 0. -1.
        -12    1    3    3    0    0  0.19046505965E+02  0.58691527841E+01 -0.11894769648E+02  0.23209952366E+02  0.00000000000E+00 0.  1.
</event>
<event>
 7    1  0.3062695E-010  0.4778728E+02  0.7816164E-02  0.1312668E+00
        -11   -1    0    0    0    0  0.00000000000E+00  0.00000000000E+00  0.45593999997E+02  0.45594000000E+02  0.51100000000E-03 0.  1.
         11   -1    0    0    0    0 -0.00000000000E+00 -0.00000000000E+00 -0.45593999997E+02  0.45594000000E+02  0.51100000000E-03 0. -1.
    9900012    2    1    2    0    0  0.37189006264E+02  0.18922813497E+02 -0.11938498734E+02  0.47787276393E+02  0.20000024387E+02 0.  0.
        -12    1    1    2    0    0 -0.37189006264E+02 -0.18922813497E+02  0.11938498734E+02  0.43400723607E+02  0.00000000000E+00 0.  1.
         11    1    3    3    0    0  0.33763007674E+02  0.16764178281E+02 -0.14881688034E+02  0.40527065026E+02  0.51100000000E-03 0. -1.
        -11    1    3    3    0    0  0.80276959270E+00  0.27895496626E+01 -0.43678973191E+00  0.29354406603E+01  0.51100000000E-03 0.  1.
         12    1    3    3    0    0  0.26232289974E+01 -0.63091444685E+00  0.33799790313E+01  0.43247707066E+01  0.00000000000E+00 0. -1.
</event>
<event>
 7    1  0.3062695E-010  0.4778727E+02  0.7816164E-02  0.1312668E+00
        -11   -1    0    0    0    0  0.00000000000E+00  0.00000000000E+00  0.45593999997E+02  0.45594000000E+02  0.51100000000E-03 0. -1.
         11   -1    0    0    0    0 -0.00000000000E+00 -0.00000000000E+00 -0.45593999997E+02  0.45594000000E+02  0.51100000000E-03 0.  1.
    9900012    2    1    2    0    0 -0.25040660121E+02  0.35408716208E+01  0.35271112232E+02  0.47787265107E+02  0.19999972930E+02 0.  0.
        -12    1    1    2    0    0  0.25040660121E+02 -0.35408716208E+01 -0.35271112232E+02  0.43400734893E+02  0.00000000000E+00 0.  1.
         11    1    3    3    0    0 -0.91127464584E+01  0.51064299211E+01  0.17976585936E+02  0.20791234132E+02  0.51100000000E-03 0. -1.
        -11    1    3    3    0    0 -0.88622510294E+01 -0.71653627773E+01  0.72905885494E+01  0.13529028003E+02  0.51100000000E-03 0.  1.
        -12    1    3    3    0    0 -0.70656626336E+01  0.55998044771E+01  0.10003937747E+02  0.13467002973E+02  0.00000000000E+00 0.  1.
</event>
<event>
 7    1  0.3062695E-010  0.4778728E+02  0.7816164E-02  0.1312668E+00
        -11   -1    0    0    0    0  0.00000000000E+00  0.00000000000E+00  0.45593999997E+02  0.45594000000E+02  0.51100000000E-03 0. -1.
         11   -1    0    0    0    0 -0.00000000000E+00 -0.00000000000E+00 -0.45593999997E+02  0.45594000000E+02  0.51100000000E-03 0.  1.
    9900012    2    1    2    0    0 -0.25387583145E+02 -0.30916511891E+02  0.16830408034E+02  0.47787277424E+02  0.20000029089E+02 0.  0.
        -12    1    1    2    0    0  0.25387583145E+02  0.30916511891E+02 -0.16830408034E+02  0.43400722576E+02  0.00000000000E+00 0.  1.
         11    1    3    3    0    0 -0.51418382579E+01 -0.11271937437E+02  0.12840011699E+01  0.12455670737E+02  0.51100000000E-03 0. -1.
        -11    1    3    3    0    0 -0.13471834721E+01 -0.10024953847E+02  0.77315028037E+01  0.12731486120E+02  0.51100000000E-03 0.  1.
        -12    1    3    3    0    0 -0.18898561415E+02 -0.96196206074E+01  0.78149040605E+01  0.22600120568E+02  0.00000000000E+00 0.  1.
</event>
<event>
 7    1  0.3062695E-010  0.4778727E+02  0.7816164E-02  0.1312668E+00
        -11   -1    0    0    0    0  0.00000000000E+00  0.00000000000E+00  0.45593999997E+02  0.45594000000E+02  0.51100000000E-03 0.  1.
         11   -1    0    0    0    0 -0.00000000000E+00 -0.00000000000E+00 -0.45593999997E+02  0.45594000000E+02  0.51100000000E-03 0. -1.
    9900012    2    1    2    0    0 -0.37665446467E+02 -0.20705172111E+02 -0.60194006633E+01  0.47787271964E+02  0.20000004193E+02 0.  0.
        -12    1    1    2    0    0  0.37665446467E+02  0.20705172111E+02  0.60194006633E+01  0.43400728036E+02  0.00000000000E+00 0.  1.
         11    1    3    3    0    0 -0.17587111584E+02 -0.68212553209E+01 -0.89041264140E+01  0.20859517863E+02  0.51100000000E-03 0. -1.
        -11    1    3    3    0    0 -0.12411122236E+02 -0.56066856090E+01  0.64858385225E+01  0.15084328963E+02  0.51100000000E-03 0.  1.
        -12    1    3    3    0    0 -0.76672126474E+01 -0.82772311809E+01 -0.36011127718E+01  0.11843425138E+02  0.00000000000E+00 0.  1.
</event>
<event>
 7    1  0.3062695E-010  0.4778728E+02  0.7816164E-02  0.1312668E+00
        -11   -1    0    0    0    0  0.00000000000E+00  0.00000000000E+00  0.45593999997E+02  0.45594000000E+02  0.51100000000E-03 0.  1.
         11   -1    0    0    0    0 -0.00000000000E+00 -0.00000000000E+00 -0.45593999997E+02  0.45594000000E+02  0.51100000000E-03 0. -1.
    9900012    2    1    2    0    0 -0.25788314686E+00  0.43396924482E+02 -0.51295020273E+00  0.47787277930E+02  0.20000031396E+02 0.  0.
        -12    1    1    2    0    0  0.25788314686E+00 -0.43396924482E+02  0.51295020273E+00  0.43400722070E+02  0.00000000000E+00 0.  1.
         11    1    3    3    0    0  0.45111545762E+01  0.18135873897E+02 -0.58514055704E+01  0.19583140326E+02  0.51100000000E-03 0. -1.
        -11    1    3    3    0    0 -0.61425249886E+01  0.84378202278E+01 -0.20230319103E+00  0.10438790652E+02  0.51100000000E-03 0.  1.
         12    1    3    3    0    0  0.13734872656E+01  0.16823230358E+02  0.55407585587E+01  0.17765346953E+02  0.00000000000E+00 0. -1.
</event>
<event>
 7    1  0.3062695E-010  0.4778727E+02  0.7816164E-02  0.1312668E+00
        -11   -1    0    0    0    0  0.00000000000E+00  0.00000000000E+00  0.45593999997E+02  0.45594000000E+02  0.51100000000E-03 0.  1.
         11   -1    0    0    0    0 -0.00000000000E+00 -0.00000000000E+00 -0.45593999997E+02  0.45594000000E+02  0.51100000000E-03 0. -1.
    9900012    2    1    2    0    0  0.93873633384E+01  0.16532033279E+02 -0.39015288630E+02  0.47787268880E+02  0.19999990134E+02 0.  0.
        -12    1    1    2    0    0 -0.93873633384E+01 -0.16532033279E+02  0.39015288630E+02  0.43400731120E+02  0.00000000000E+00 0.  1.
         11    1    3    3    0    0  0.10843767115E+02  0.89353093603E+01 -0.12171500095E+02  0.18589579163E+02  0.51100000000E-03 0.  1.
        -11    1    3    3    0    0  0.62689600223E+00  0.84589780535E+01 -0.24581091780E+02  0.26003410962E+02  0.51100000000E-03 0. -1.
        -12    1    3    3    0    0 -0.20832997793E+01 -0.86225413461E+00 -0.22626967553E+01  0.31942787557E+01  0.00000000000E+00 0.  1.
</event>
<event>
 7    1  0.3062695E-010  0.4778727E+02  0.7816164E-02  0.1312668E+00
        -11   -1    0    0    0    0  0.00000000000E+00  0.00000000000E+00  0.45593999997E+02  0.45594000000E+02  0.51100000000E-03 0. -1.
         11   -1    0    0    0    0 -0.00000000000E+00 -0.00000000000E+00 -0.45593999997E+02  0.45594000000E+02  0.51100000000E-03 0.  1.
    9900012    2    1    2    0    0  0.13941167050E+02  0.62887603360E+01  0.40616729493E+02  0.47787270052E+02  0.19999995476E+02 0.  0.
        -12    1    1    2    0    0 -0.13941167050E+02 -0.62887603360E+01 -0.40616729493E+02  0.43400729948E+02  0.00000000000E+00 0.  1.
         11    1    3    3    0    0  0.49599808806E+01  0.85716778175E+01  0.16529780082E+02  0.19269372090E+02  0.51100000000E-03 0. -1.
        -11    1    3    3    0    0  0.13557302721E+01 -0.47357455823E+01  0.25653534938E+01  0.55539472090E+01  0.51100000000E-03 0.  1.
        -12    1    3    3    0    0  0.76254558973E+01  0.24528281008E+01  0.21521595918E+02  0.22963950753E+02  0.00000000000E+00 0.  1.
</event>
<event>
 7    1  0.3062695E-010  0.4778727E+02  0.7816164E-02  0.1312668E+00
        -11   -1    0    0    0    0  0.00000000000E+00  0.00000000000E+00  0.45593999997E+02  0.45594000000E+02  0.51100000000E-03 0. -1.
         11   -1    0    0    0    0 -0.00000000000E+00 -0.00000000000E+00 -0.45593999997E+02  0.45594000000E+02  0.51100000000E-03 0.  1.
    9900012    2    1    2    0    0 -0.36996564227E+02  0.21979608416E+02  0.56368547481E+01  0.47787273253E+02  0.20000010069E+02 0.  0.
        -12    1    1    2    0    0  0.36996564227E+02 -0.21979608416E+02 -0.56368547481E+01  0.43400726747E+02  0.00000000000E+00 0.  1.
         11    1    3    3    0    0 -0.50724195635E+01  0.12324382528E+02 -0.19242097743E+01  0.13465601674E+02  0.51100000000E-03 0. -1.
        -11    1    3    3    0    0 -0.15565477707E+02  0.54960944206E+01  0.50102553819E+01  0.17250907494E+02  0.51100000000E-03 0.  1.
         12    1    3    3    0    0 -0.16358666956E+02  0.41591314678E+01  0.25508091405E+01  0.17070764085E+02  0.00000000000E+00 0. -1.
</event>
<event>
 7    1  0.3062695E-010  0.4778728E+02  0.7816164E-02  0.1312668E+00
        -11   -1    0    0    0    0  0.00000000000E+00  0.00000000000E+00  0.45593999997E+02  0.45594000000E+02  0.51100000000E-03 0. -1.
         11   -1    0    0    0    0 -0.00000000000E+00 -0.00000000000E+00 -0.45593999997E+02  0.45594000000E+02  0.51100000000E-03 0.  1.
    9900012    2    1    2    0    0  0.12640940703E+01 -0.37770966689E+01  0.43217564129E+02  0.47787282929E+02  0.20000054185E+02 0.  0.
        -12    1    1    2    0    0 -0.12640940703E+01  0.37770966689E+01 -0.43217564129E+02  0.43400717071E+02  0.00000000000E+00 0.  1.
         11    1    3    3    0    0  0.28160708578E+01  0.12782707117E+01 -0.35304938521E+00  0.31126958120E+01  0.51100000000E-03 0. -1.
        -11    1    3    3    0    0 -0.47975212423E+01 -0.40483658435E+01  0.23792970373E+02  0.24607131395E+02  0.51100000000E-03 0.  1.
        -12    1    3    3    0    0  0.32455444549E+01 -0.10070015372E+01  0.19777643142E+02  0.20067455722E+02  0.00000000000E+00 0.  1.
</event>
<event>
 7    1  0.3062695E-010  0.4778727E+02  0.7816164E-02  0.1312668E+00
        -11   -1    0    0    0    0  0.00000000000E+00  0.00000000000E+00  0.45593999997E+02  0.45594000000E+02  0.51100000000E-03 0.  1.
         11   -1    0    0    0    0 -0.00000000000E+00 -0.00000000000E+00 -0.45593999997E+02  0.45594000000E+02  0.51100000000E-03 0. -1.
    9900012    2    1    2    0    0 -0.16681568115E+02  0.11291504658E+02 -0.38442822132E+02  0.47787269987E+02  0.19999995178E+02 0.  0.
        -12    1    1    2    0    0  0.16681568115E+02 -0.11291504658E+02  0.38442822132E+02  0.43400730013E+02  0.00000000000E+00 0.  1.
         11    1    3    3    0    0 -0.14714103690E+02  0.12204497396E+02 -0.24525067026E+02  0.31095554617E+02  0.51100000000E-03 0. -1.
        -11    1    3    3    0    0  0.96782129301E+00  0.16754449919E+01 -0.12309420317E+02  0.12460562699E+02  0.51100000000E-03 0.  1.
         12    1    3    3    0    0 -0.29352857184E+01 -0.25884377295E+01 -0.16083347889E+01  0.42311526705E+01  0.00000000000E+00 0. -1.
</event>
<event>
 7    1  0.3062695E-010  0.4778727E+02  0.7816164E-02  0.1312668E+00
        -11   -1    0    0    0    0  0.00000000000E+00  0.00000000000E+00  0.45593999997E+02  0.45594000000E+02  0.51100000000E-03 0.  1.
         11   -1    0    0    0    0 -0.00000000000E+00 -0.00000000000E+00 -0.45593999997E+02  0.45594000000E+02  0.51100000000E-03 0. -1.
    9900012    2    1    2    0    0 -0.40889053884E+02  0.88473753568E+01 -0.11551285689E+02  0.47787274438E+02  0.20000015473E+02 0.  0.
        -12    1    1    2    0    0  0.40889053884E+02 -0.88473753568E+01  0.11551285689E+02  0.43400725562E+02  0.00000000000E+00 0.  1.
         11    1    3    3    0    0 -0.12720847417E+02  0.86254271135E+01 -0.43171928385E+01  0.15964213296E+02  0.51100000000E-03 0. -1.
        -11    1    3    3    0    0 -0.20141460887E+02  0.57941713756E+01 -0.68310208351E+01  0.22043450603E+02  0.51100000000E-03 0.  1.
        -12    1    3    3    0    0 -0.80267455805E+01 -0.55722231323E+01 -0.40307201563E+00  0.97796105393E+01  0.00000000000E+00 0.  1.
</event>
<event>
 7    1  0.3062695E-010  0.4778727E+02  0.7816164E-02  0.1312668E+00
        -11   -1    0    0    0    0  0.00000000000E+00  0.00000000000E+00  0.45593999997E+02  0.45594000000E+02  0.51100000000E-03 0.  1.
         11   -1    0    0    0    0 -0.00000000000E+00 -0.00000000000E+00 -0.45593999997E+02  0.45594000000E+02  0.51100000000E-03 0. -1.
    9900012    2    1    2    0    0 -0.74876155371E+00 -0.36235224082E+02 -0.23876158000E+02  0.47787273866E+02  0.20000012863E+02 0.  0.
        -12    1    1    2    0    0  0.74876155371E+00  0.36235224082E+02  0.23876158000E+02  0.43400726134E+02  0.00000000000E+00 0.  1.
         11    1    3    3    0    0  0.43304995344E+01 -0.26444874306E+02 -0.14038859411E+02  0.30251845846E+02  0.51100000000E-03 0. -1.
        -11    1    3    3    0    0 -0.15428181351E+01 -0.47745339529E+00  0.16646106028E+01  0.23193055561E+01  0.51100000000E-03 0.  1.
         12    1    3    3    0    0 -0.35364429530E+01 -0.93128963812E+01 -0.11501909192E+02  0.15216122464E+02  0.00000000000E+00 0. -1.
</event>
<event>
 7    1  0.3062695E-010  0.4778727E+02  0.7816164E-02  0.1312668E+00
        -11   -1    0    0    0    0  0.00000000000E+00  0.00000000000E+00  0.45593999997E+02  0.45594000000E+02  0.51100000000E-03 0. -1.
         11   -1    0    0    0    0 -0.00000000000E+00 -0.00000000000E+00 -0.45593999997E+02  0.45594000000E+02  0.51100000000E-03 0.  1.
    9900012    2    1    2    0    0 -0.42053457091E+02  0.79460054714E+01  0.72104688944E+01  0.47787272841E+02  0.20000008190E+02 0.  0.
        -12    1    1    2    0    0  0.42053457091E+02 -0.79460054714E+01 -0.72104688944E+01  0.43400727159E+02  0.00000000000E+00 0.  1.
         11    1    3    3    0    0  0.49924535309E+00 -0.12395745599E+01  0.25740218937E+01  0.29002379183E+01  0.51100000000E-03 0.  1.
        -11    1    3    3    0    0 -0.33510112541E+02  0.89838788477E+01  0.73101963097E+01  0.35455277350E+02  0.51100000000E-03 0. -1.
        -12    1    3    3    0    0 -0.90425899037E+01  0.20170118359E+00 -0.26737493090E+01  0.94317575722E+01  0.00000000000E+00 0.  1.
</event>
<event>
 7    1  0.3062695E-010  0.4778727E+02  0.7816164E-02  0.1312668E+00
        -11   -1    0    0    0    0  0.00000000000E+00  0.00000000000E+00  0.45593999997E+02  0.45594000000E+02  0.51100000000E-03 0.  1.
         11   -1    0    0    0    0 -0.00000000000E+00 -0.00000000000E+00 -0.45593999997E+02  0.45594000000E+02  0.51100000000E-03 0. -1.
    9900012    2    1    2    0    0 -0.70238096410E+01  0.24987018147E+02 -0.34784168193E+02  0.47787270344E+02  0.19999996807E+02 0.  0.
        -12    1    1    2    0    0  0.70238096410E+01 -0.24987018147E+02  0.34784168193E+02  0.43400729656E+02  0.00000000000E+00 0.  1.
         11    1    3    3    0    0 -0.28492680743E+01  0.23191969804E+02 -0.16474279584E+02  0.28589992656E+02  0.51100000000E-03 0. -1.
        -11    1    3    3    0    0 -0.48206548605E+01  0.17191206480E+01 -0.16155480064E+02  0.16946788057E+02  0.51100000000E-03 0.  1.
         12    1    3    3    0    0  0.64611329373E+00  0.75927694802E-01 -0.21544085451E+01  0.22504896317E+01  0.00000000000E+00 0. -1.
</event>
<event>
 7    1  0.3062695E-010  0.4778727E+02  0.7816164E-02  0.1312668E+00
        -11   -1    0    0    0    0  0.00000000000E+00  0.00000000000E+00  0.45593999997E+02  0.45594000000E+02  0.51100000000E-03 0.  1.
         11   -1    0    0    0    0 -0.00000000000E+00 -0.00000000000E+00 -0.45593999997E+02  0.45594000000E+02  0.51100000000E-03 0. -1.
    9900012    2    1    2    0    0  0.17222793702E+02  0.65253801088E+01 -0.39299087131E+02  0.47787268925E+02  0.19999990338E+02 0.  0.
        -12    1    1    2    0    0 -0.17222793702E+02 -0.65253801088E+01  0.39299087131E+02  0.43400731075E+02  0.00000000000E+00 0.  1.
         11    1    3    3    0    0  0.53853378676E+01  0.61927514095E+01 -0.23755830931E+02  0.25133474440E+02  0.51100000000E-03 0. -1.
        -11    1    3    3    0    0  0.81639601849E+01  0.34838700822E-01 -0.17142119521E+01  0.83420610471E+01  0.51100000000E-03 0.  1.
        -12    1    3    3    0    0  0.36734956499E+01  0.29778999852E+00 -0.13829044248E+02  0.14311733438E+02  0.00000000000E+00 0.  1.
</event>
<event>
 7    1  0.3062695E-010  0.4778727E+02  0.7816164E-02  0.1312668E+00
        -11   -1    0    0    0    0  0.00000000000E+00  0.00000000000E+00  0.45593999997E+02  0.45594000000E+02  0.51100000000E-03 0. -1.
         11   -1    0    0    0    0 -0.00000000000E+00 -0.00000000000E+00 -0.45593999997E+02  0.45594000000E+02  0.51100000000E-03 0.  1.
    9900012    2    1    2    0    0  0.17001251459E+02 -0.37463813858E+02  0.13821856312E+02  0.47787267151E+02  0.19999982246E+02 0.  0.
        -12    1    1    2    0    0 -0.17001251459E+02  0.37463813858E+02 -0.13821856312E+02  0.43400732849E+02  0.00000000000E+00 0.  1.
         11    1    3    3    0    0  0.19062288489E+02 -0.19019389543E+02  0.73811384047E+01  0.27921125075E+02  0.51100000000E-03 0. -1.
        -11    1    3    3    0    0 -0.21809144119E+01 -0.71382566732E+01  0.30363219840E+01  0.80579369230E+01  0.51100000000E-03 0.  1.
         12    1    3    3    0    0  0.11987738202E+00 -0.11306167642E+02  0.34043959231E+01  0.11808205153E+02  0.00000000000E+00 0. -1.
</event>
<event>
 7    1  0.3062695E-010  0.4778727E+02  0.7816164E-02  0.1312668E+00
        -11   -1    0    0    0    0  0.00000000000E+00  0.00000000000E+00  0.45593999997E+02  0.45594000000E+02  0.51100000000E-03 0. -1.
         11   -1    0    0    0    0 -0.00000000000E+00 -0.00000000000E+00 -0.45593999997E+02  0.45594000000E+02  0.51100000000E-03 0.  1.
    9900012    2    1    2    0    0 -0.42934400957E+02 -0.55003211679E+01 -0.31633838909E+01  0.47787270558E+02  0.19999997780E+02 0.  0.
        -12    1    1    2    0    0  0.42934400957E+02  0.55003211679E+01  0.31633838909E+01  0.43400729442E+02  0.00000000000E+00 0.  1.
         11    1    3    3    0    0 -0.19557437906E+02 -0.49850924714E+00  0.64566364344E+01  0.20601700008E+02  0.51100000000E-03 0. -1.
        -11    1    3    3    0    0 -0.20884272036E+01  0.21168313774E+01 -0.94137237973E+00  0.31190840776E+01  0.51100000000E-03 0.  1.
         12    1    3    3    0    0 -0.21288535847E+02 -0.71186432982E+01 -0.86786479456E+01  0.24066486472E+02  0.00000000000E+00 0. -1.
</event>
<event>
 7    1  0.3062695E-010  0.4778727E+02  0.7816164E-02  0.1312668E+00
        -11   -1    0    0    0    0  0.00000000000E+00  0.00000000000E+00  0.45593999997E+02  0.45594000000E+02  0.51100000000E-03 0. -1.
         11   -1    0    0    0    0 -0.00000000000E+00 -0.00000000000E+00 -0.45593999997E+02  0.45594000000E+02  0.51100000000E-03 0.  1.
    9900012    2    1    2    0    0 -0.40466876707E+02  0.84745509519E+01  0.13199903921E+02  0.47787267428E+02  0.19999983512E+02 0.  0.
        -12    1    1    2    0    0  0.40466876707E+02 -0.84745509519E+01 -0.13199903921E+02  0.43400732572E+02  0.00000000000E+00 0.  1.
         11    1    3    3    0    0 -0.14826563979E+02  0.28924673685E+01  0.83656538609E+01  0.17267817803E+02  0.51100000000E-03 0. -1.
        -11    1    3    3    0    0 -0.15910431965E+02 -0.38870206797E+01  0.98782913223E+00  0.16408125479E+02  0.51100000000E-03 0.  1.
        -12    1    3    3    0    0 -0.97298807633E+01  0.94691042631E+01  0.38464209278E+01  0.14111324147E+02  0.00000000000E+00 0.  1.
</event>
<event>
 7    1  0.3062695E-010  0.4778727E+02  0.7816164E-02  0.1312668E+00
        -11   -1    0    0    0    0  0.00000000000E+00  0.00000000000E+00  0.45593999997E+02  0.45594000000E+02  0.51100000000E-03 0.  1.
         11   -1    0    0    0    0 -0.00000000000E+00 -0.00000000000E+00 -0.45593999997E+02  0.45594000000E+02  0.51100000000E-03 0. -1.
    9900012    2    1    2    0    0  0.72716749184E+00 -0.43112878121E+02 -0.49370366745E+01  0.47787270011E+02  0.19999995290E+02 0.  0.
        -12    1    1    2    0    0 -0.72716749184E+00  0.43112878121E+02  0.49370366745E+01  0.43400729989E+02  0.00000000000E+00 0.  1.
         11    1    3    3    0    0  0.20526693592E+01 -0.19509946536E+02 -0.54043793699E+01  0.20348434386E+02  0.51100000000E-03 0. -1.
        -11    1    3    3    0    0 -0.73281434628E+01 -0.92964958755E+01  0.12569962060E+01  0.11904056531E+02  0.51100000000E-03 0.  1.
        -12    1    3    3    0    0  0.60026415955E+01 -0.14306435709E+02 -0.78965351063E+00  0.15534779094E+02  0.00000000000E+00 0.  1.
</event>
<event>
 7    1  0.3062695E-010  0.4778727E+02  0.7816164E-02  0.1312668E+00
        -11   -1    0    0    0    0  0.00000000000E+00  0.00000000000E+00  0.45593999997E+02  0.45594000000E+02  0.51100000000E-03 0.  1.
         11   -1    0    0    0    0 -0.00000000000E+00 -0.00000000000E+00 -0.45593999997E+02  0.45594000000E+02  0.51100000000E-03 0. -1.
    9900012    2    1    2    0    0 -0.36361374536E+02  0.22654726873E+02 -0.69452874645E+01  0.47787271599E+02  0.20000002527E+02 0.  0.
        -12    1    1    2    0    0  0.36361374536E+02 -0.22654726873E+02  0.69452874645E+01  0.43400728401E+02  0.00000000000E+00 0.  1.
         11    1    3    3    0    0 -0.25462104359E+02  0.71486036271E+01 -0.27028230554E+01  0.26584328935E+02  0.51100000000E-03 0. -1.
        -11    1    3    3    0    0  0.26424753906E+00  0.48288984675E+01  0.90550453105E+00  0.49201652298E+01  0.51100000000E-03 0.  1.
         12    1    3    3    0    0 -0.11163517716E+02  0.10677224778E+02 -0.51479689401E+01  0.16282777434E+02  0.00000000000E+00 0. -1.
</event>
<event>
 7    1  0.3062695E-010  0.4778728E+02  0.7816164E-02  0.1312668E+00
        -11   -1    0    0    0    0  0.00000000000E+00  0.00000000000E+00  0.45593999997E+02  0.45594000000E+02  0.51100000000E-03 0.  1.
         11   -1    0    0    0    0 -0.00000000000E+00 -0.00000000000E+00 -0.45593999997E+02  0.45594000000E+02  0.51100000000E-03 0. -1.
    9900012    2    1    2    0    0 -0.73695543398E+01 -0.28794223527E+02 -0.31626017480E+02  0.47787278562E+02  0.20000034277E+02 0.  0.
        -12    1    1    2    0    0  0.73695543398E+01  0.28794223527E+02  0.31626017480E+02  0.43400721438E+02  0.00000000000E+00 0.  1.
         11    1    3    3    0    0 -0.51465708572E+01 -0.28902341976E+02 -0.28216996578E+02  0.40718932445E+02  0.51100000000E-03 0. -1.
        -11    1    3    3    0    0  0.41203278745E+00  0.24850103031E+01 -0.21216550394E+01  0.32933975757E+01  0.51100000000E-03 0.  1.
         12    1    3    3    0    0 -0.26350162700E+01 -0.23768918538E+01 -0.12873658622E+01  0.37749485415E+01  0.00000000000E+00 0. -1.
</event>
<event>
 7    1  0.3062695E-010  0.4778728E+02  0.7816164E-02  0.1312668E+00
        -11   -1    0    0    0    0  0.00000000000E+00  0.00000000000E+00  0.45593999997E+02  0.45594000000E+02  0.51100000000E-03 0. -1.
         11   -1    0    0    0    0 -0.00000000000E+00 -0.00000000000E+00 -0.45593999997E+02  0.45594000000E+02  0.51100000000E-03 0.  1.
    9900012    2    1    2    0    0  0.25812772751E+02  0.33726237630E+02 -0.89366824368E+01  0.47787278408E+02  0.20000033572E+02 0.  0.
        -12    1    1    2    0    0 -0.25812772751E+02 -0.33726237630E+02  0.89366824368E+01  0.43400721592E+02  0.00000000000E+00 0.  1.
         11    1    3    3    0    0  0.22349860309E+02  0.20716583270E+02 -0.13715622626E+01  0.30505315299E+02  0.51100000000E-03 0. -1.
        -11    1    3    3    0    0 -0.19844359261E+01  0.42558353496E+01 -0.37211526275E+00  0.47104766742E+01  0.51100000000E-03 0.  1.
         12    1    3    3    0    0  0.54473483684E+01  0.87538190106E+01 -0.71930049114E+01  0.12571486434E+02  0.00000000000E+00 0. -1.
</event>
<event>
 7    1  0.3062695E-010  0.4778727E+02  0.7816164E-02  0.1312668E+00
        -11   -1    0    0    0    0  0.00000000000E+00  0.00000000000E+00  0.45593999997E+02  0.45594000000E+02  0.51100000000E-03 0.  1.
         11   -1    0    0    0    0 -0.00000000000E+00 -0.00000000000E+00 -0.45593999997E+02  0.45594000000E+02  0.51100000000E-03 0. -1.
    9900012    2    1    2    0    0  0.28741063409E+01 -0.24584373609E+02 -0.35650681580E+02  0.47787274083E+02  0.20000013854E+02 0.  0.
        -12    1    1    2    0    0 -0.28741063409E+01  0.24584373609E+02  0.35650681580E+02  0.43400725917E+02  0.00000000000E+00 0.  1.
         11    1    3    3    0    0 -0.12482070441E+01 -0.20477477564E+02 -0.34268311733E+02  0.39939983694E+02  0.51100000000E-03 0. -1.
        -11    1    3    3    0    0  0.41488419566E+01 -0.51021408301E+01 -0.17177528282E+01  0.67967202143E+01  0.51100000000E-03 0.  1.
         12    1    3    3    0    0 -0.26528571647E-01  0.99524478517E+00  0.33538298127E+00  0.10505701745E+01  0.00000000000E+00 0. -1.
</event>
<event>
 7    1  0.3062695E-010  0.4778727E+02  0.7816164E-02  0.1312668E+00
        -11   -1    0    0    0    0  0.00000000000E+00  0.00000000000E+00  0.45593999997E+02  0.45594000000E+02  0.51100000000E-03 0.  1.
         11   -1    0    0    0    0 -0.00000000000E+00 -0.00000000000E+00 -0.45593999997E+02  0.45594000000E+02  0.51100000000E-03 0. -1.
    9900012    2    1    2    0    0  0.23705592913E+02 -0.35430024924E+02 -0.81474728266E+01  0.47787272876E+02  0.20000008350E+02 0.  0.
        -12    1    1    2    0    0 -0.23705592913E+02  0.35430024924E+02  0.81474728266E+01  0.43400727124E+02  0.00000000000E+00 0.  1.
         11    1    3    3    0    0  0.35037589289E+01 -0.11371340257E+02  0.23960782939E+01  0.12137746798E+02  0.51100000000E-03 0.  1.
        -11    1    3    3    0    0  0.22140545824E+02 -0.22473244257E+02 -0.96509963327E+01  0.32990789735E+02  0.51100000000E-03 0. -1.
         12    1    3    3    0    0 -0.19387118408E+01 -0.15854404097E+01 -0.89255478777E+00  0.26587363434E+01  0.00000000000E+00 0. -1.
</event>
<event>
 7    1  0.3062695E-010  0.4778727E+02  0.7816164E-02  0.1312668E+00
        -11   -1    0    0    0    0  0.00000000000E+00  0.00000000000E+00  0.45593999997E+02  0.45594000000E+02  0.51100000000E-03 0. -1.
         11   -1    0    0    0    0 -0.00000000000E+00 -0.00000000000E+00 -0.45593999997E+02  0.45594000000E+02  0.51100000000E-03 0.  1.
    9900012    2    1    2    0    0  0.33406407469E+02  0.19437638698E+02  0.19743693595E+02  0.47787270802E+02  0.19999998895E+02 0.  0.
        -12    1    1    2    0    0 -0.33406407469E+02 -0.19437638698E+02 -0.19743693595E+02  0.43400729198E+02  0.00000000000E+00 0.  1.
         11    1    3    3    0    0  0.13795452766E+02  0.15576341032E+02  0.14861411866E+02  0.25569483371E+02  0.51100000000E-03 0. -1.
        -11    1    3    3    0    0  0.40507887539E+01 -0.25598692326E+01  0.17142874008E+01  0.50892633623E+01  0.51100000000E-03 0.  1.
        -12    1    3    3    0    0  0.15560165949E+02  0.64211668981E+01  0.31679943289E+01  0.17128524069E+02  0.00000000000E+00 0.  1.
</event>
<event>
 7    1  0.3062695E-010  0.4778727E+02  0.7816164E-02  0.1312668E+00
        -11   -1    0    0    0    0  0.00000000000E+00  0.00000000000E+00  0.45593999997E+02  0.45594000000E+02  0.51100000000E-03 0.  1.
         11   -1    0    0    0    0 -0.00000000000E+00 -0.00000000000E+00 -0.45593999997E+02  0.45594000000E+02  0.51100000000E-03 0. -1.
    9900012    2    1    2    0    0 -0.51202112220E+00 -0.18249544241E+02 -0.39374043132E+02  0.47787270706E+02  0.19999998459E+02 0.  0.
        -12    1    1    2    0    0  0.51202112220E+00  0.18249544241E+02  0.39374043132E+02  0.43400729294E+02  0.00000000000E+00 0.  1.
         11    1    3    3    0    0  0.73722775376E+01 -0.31720352221E+01 -0.11388813800E+02  0.13932600747E+02  0.51100000000E-03 0. -1.
        -11    1    3    3    0    0 -0.64446612635E+01 -0.34070929913E+01 -0.10999321286E+02  0.13195719400E+02  0.51100000000E-03 0.  1.
         12    1    3    3    0    0 -0.14396373963E+01 -0.11670416028E+02 -0.16985908046E+02  0.20658950560E+02  0.00000000000E+00 0. -1.
</event>
<event>
 7    1  0.4017452E-010  0.4778727E+02  0.7816164E-02  0.1312668E+00
        -11   -1    0    0    0    0  0.00000000000E+00  0.00000000000E+00  0.45593999997E+02  0.45594000000E+02  0.51100000000E-03 0.  1.
         11   -1    0    0    0    0 -0.00000000000E+00 -0.00000000000E+00 -0.45593999997E+02  0.45594000000E+02  0.51100000000E-03 0. -1.
    9900012    2    1    2    0    0 -0.29530851334E+01  0.42665299554E+02 -0.73874794231E+01  0.47787270167E+02  0.19999995997E+02 0.  0.
        -12    1    1    2    0    0  0.29530851334E+01 -0.42665299554E+02  0.73874794231E+01  0.43400729833E+02  0.00000000000E+00 0.  1.
         11    1    3    3    0    0 -0.55616303604E-01  0.30784168257E+02 -0.84275876271E+01  0.31916960099E+02  0.51100000000E-03 0. -1.
        -11    1    3    3    0    0 -0.19833615838E+01 -0.90282733743E+00 -0.17002837913E+01  0.27640162093E+01  0.51100000000E-03 0.  1.
        -12    1    3    3    0    0 -0.91410724597E+00  0.12783958634E+02  0.27403919952E+01  0.13106293859E+02  0.00000000000E+00 0.  1.
</event>
<event>
 7    1  0.3062695E-010  0.4778727E+02  0.7816164E-02  0.1312668E+00
        -11   -1    0    0    0    0  0.00000000000E+00  0.00000000000E+00  0.45593999997E+02  0.45594000000E+02  0.51100000000E-03 0. -1.
         11   -1    0    0    0    0 -0.00000000000E+00 -0.00000000000E+00 -0.45593999997E+02  0.45594000000E+02  0.51100000000E-03 0.  1.
    9900012    2    1    2    0    0 -0.20646218092E+02  0.10132741294E+02  0.36806039702E+02  0.47787270442E+02  0.19999997254E+02 0.  0.
        -12    1    1    2    0    0  0.20646218092E+02 -0.10132741294E+02 -0.36806039702E+02  0.43400729558E+02  0.00000000000E+00 0.  1.
         11    1    3    3    0    0 -0.11515679583E+02  0.15525358310E+02  0.20600381810E+02  0.28249307211E+02  0.51100000000E-03 0. -1.
        -11    1    3    3    0    0 -0.34965213545E+01 -0.35108189103E+01  0.68024386615E+01  0.84157401937E+01  0.51100000000E-03 0.  1.
         12    1    3    3    0    0 -0.56340171543E+01 -0.18817981057E+01  0.94032192303E+01  0.11122223038E+02  0.00000000000E+00 0. -1.
</event>
<event>
 7    1  0.3062695E-010  0.4778727E+02  0.7816164E-02  0.1312668E+00
        -11   -1    0    0    0    0  0.00000000000E+00  0.00000000000E+00  0.45593999997E+02  0.45594000000E+02  0.51100000000E-03 0.  1.
         11   -1    0    0    0    0 -0.00000000000E+00 -0.00000000000E+00 -0.45593999997E+02  0.45594000000E+02  0.51100000000E-03 0. -1.
    9900012    2    1    2    0    0  0.23295682559E+02  0.14553928267E+02 -0.33602348651E+02  0.47787268569E+02  0.19999988713E+02 0.  0.
        -12    1    1    2    0    0 -0.23295682559E+02 -0.14553928267E+02  0.33602348651E+02  0.43400731431E+02  0.00000000000E+00 0.  1.
         11    1    3    3    0    0  0.54654461994E+01 -0.29908788842E+01 -0.19525948446E+01  0.65290953085E+01  0.51100000000E-03 0. -1.
        -11    1    3    3    0    0  0.36384315335E+01  0.82005748806E+01 -0.73018593140E+01  0.11567400836E+02  0.51100000000E-03 0.  1.
         12    1    3    3    0    0  0.14191804827E+02  0.93442322703E+01 -0.24347894492E+02  0.29690772424E+02  0.00000000000E+00 0. -1.
</event>
<event>
 7    1  0.3062695E-010  0.4778727E+02  0.7816164E-02  0.1312668E+00
        -11   -1    0    0    0    0  0.00000000000E+00  0.00000000000E+00  0.45593999997E+02  0.45594000000E+02  0.51100000000E-03 0.  1.
         11   -1    0    0    0    0 -0.00000000000E+00 -0.00000000000E+00 -0.45593999997E+02  0.45594000000E+02  0.51100000000E-03 0. -1.
    9900012    2    1    2    0    0 -0.37231226136E+02 -0.20959668223E+02 -0.76257193045E+01  0.47787268594E+02  0.19999988830E+02 0.  0.
        -12    1    1    2    0    0  0.37231226136E+02  0.20959668223E+02  0.76257193045E+01  0.43400731406E+02  0.00000000000E+00 0.  1.
         11    1    3    3    0    0 -0.12871701201E+02 -0.69743509514E+01  0.53174258265E+00  0.14649403177E+02  0.51100000000E-03 0. -1.
        -11    1    3    3    0    0 -0.12796034576E+02  0.13676154902E+01 -0.25859943616E+01  0.13126166238E+02  0.51100000000E-03 0.  1.
        -12    1    3    3    0    0 -0.11563490359E+02 -0.15352932762E+02 -0.55714675256E+01  0.20011699180E+02  0.00000000000E+00 0.  1.
</event>
<event>
 7    1  0.3062695E-010  0.4778727E+02  0.7816164E-02  0.1312668E+00
        -11   -1    0    0    0    0  0.00000000000E+00  0.00000000000E+00  0.45593999997E+02  0.45594000000E+02  0.51100000000E-03 0.  1.
         11   -1    0    0    0    0 -0.00000000000E+00 -0.00000000000E+00 -0.45593999997E+02  0.45594000000E+02  0.51100000000E-03 0. -1.
    9900012    2    1    2    0    0  0.20162061128E+01 -0.43348915297E+02 -0.65529974211E+00  0.47787274634E+02  0.20000016367E+02 0.  0.
        -12    1    1    2    0    0 -0.20162061128E+01  0.43348915297E+02  0.65529974211E+00  0.43400725366E+02  0.00000000000E+00 0.  1.
         11    1    3    3    0    0  0.20277764541E+01 -0.49488623552E+01 -0.12029713598E+01  0.54818114080E+01  0.51100000000E-03 0. -1.
        -11    1    3    3    0    0  0.56860425945E+01 -0.72913939849E+01 -0.44929349296E+01  0.10280173694E+02  0.51100000000E-03 0.  1.
        -12    1    3    3    0    0 -0.56976129358E+01 -0.31108658957E+02  0.50406065473E+01  0.32025289532E+02  0.00000000000E+00 0.  1.
</event>
<event>
 7    1  0.3062695E-010  0.4778727E+02  0.7816164E-02  0.1312668E+00
        -11   -1    0    0    0    0  0.00000000000E+00  0.00000000000E+00  0.45593999997E+02  0.45594000000E+02  0.51100000000E-03 0. -1.
         11   -1    0    0    0    0 -0.00000000000E+00 -0.00000000000E+00 -0.45593999997E+02  0.45594000000E+02  0.51100000000E-03 0.  1.
    9900012    2    1    2    0    0  0.12638193749E+01  0.42529662587E+02  0.85588463531E+01  0.47787270858E+02  0.19999999148E+02 0.  0.
        -12    1    1    2    0    0 -0.12638193749E+01 -0.42529662587E+02 -0.85588463531E+01  0.43400729142E+02  0.00000000000E+00 0.  1.
         11    1    3    3    0    0  0.77565345492E+01  0.21549096039E+02  0.28347254410E+01  0.23077327335E+02  0.51100000000E-03 0. -1.
        -11    1    3    3    0    0 -0.31577975282E+01  0.38569205542E+01 -0.23213391822E+01  0.54987396057E+01  0.51100000000E-03 0.  1.
         12    1    3    3    0    0 -0.33349176460E+01  0.17123645994E+02  0.80454600944E+01  0.19211203917E+02  0.00000000000E+00 0. -1.
</event>
<event>
 7    1  0.3062695E-010  0.4778727E+02  0.7816164E-02  0.1312668E+00
        -11   -1    0    0    0    0  0.00000000000E+00  0.00000000000E+00  0.45593999997E+02  0.45594000000E+02  0.51100000000E-03 0.  1.
         11   -1    0    0    0    0 -0.00000000000E+00 -0.00000000000E+00 -0.45593999997E+02  0.45594000000E+02  0.51100000000E-03 0. -1.
    9900012    2    1    2    0    0 -0.37669406916E+02  0.23632001741E+01 -0.21425552347E+02  0.47787271598E+02  0.20000002522E+02 0.  0.
        -12    1    1    2    0    0  0.37669406916E+02 -0.23632001741E+01  0.21425552347E+02  0.43400728402E+02  0.00000000000E+00 0.  1.
         11    1    3    3    0    0 -0.24035035814E+02 -0.45208033885E+01 -0.15653495448E+02  0.29037088867E+02  0.51100000000E-03 0. -1.
        -11    1    3    3    0    0 -0.43296948716E+01  0.66593909230E+01 -0.50549428002E+01  0.94152106785E+01  0.51100000000E-03 0.  1.
        -12    1    3    3    0    0 -0.93046762301E+01  0.22461263965E+00 -0.71711409968E+00  0.93349720522E+01  0.00000000000E+00 0.  1.
</event>
<event>
 7    1  0.3062695E-010  0.4778728E+02  0.7816164E-02  0.1312668E+00
        -11   -1    0    0    0    0  0.00000000000E+00  0.00000000000E+00  0.45593999997E+02  0.45594000000E+02  0.51100000000E-03 0.  1.
         11   -1    0    0    0    0 -0.00000000000E+00 -0.00000000000E+00 -0.45593999997E+02  0.45594000000E+02  0.51100000000E-03 0. -1.
    9900012    2    1    2    0    0 -0.14859575789E+02  0.28689054434E+02 -0.28978506952E+02  0.47787277632E+02  0.20000030033E+02 0.  0.
        -12    1    1    2    0    0  0.14859575789E+02 -0.28689054434E+02  0.28978506952E+02  0.43400722368E+02  0.00000000000E+00 0.  1.
         11    1    3    3    0    0 -0.18045276189E+02  0.22426470611E+02 -0.24375412515E+02  0.37719216752E+02  0.51100000000E-03 0. -1.
        -11    1    3    3    0    0  0.20221348524E+01  0.23598725174E+01  0.88752419449E+00  0.32319850118E+01  0.51100000000E-03 0.  1.
         12    1    3    3    0    0  0.11635655482E+01  0.39027113057E+01 -0.54906186314E+01  0.68360758682E+01  0.00000000000E+00 0. -1.
</event>
<event>
 7    1  0.3062695E-010  0.4778727E+02  0.7816164E-02  0.1312668E+00
        -11   -1    0    0    0    0  0.00000000000E+00  0.00000000000E+00  0.45593999997E+02  0.45594000000E+02  0.51100000000E-03 0.  1.
         11   -1    0    0    0    0 -0.00000000000E+00 -0.00000000000E+00 -0.45593999997E+02  0.45594000000E+02  0.51100000000E-03 0. -1.
    9900012    2    1    2    0    0  0.32712308414E+02 -0.21314363407E+02 -0.18953264278E+02  0.47787269176E+02  0.19999991483E+02 0.  0.
        -12    1    1    2    0    0 -0.32712308414E+02  0.21314363407E+02  0.18953264278E+02  0.43400730824E+02  0.00000000000E+00 0.  1.
         11    1    3    3    0    0  0.48546985297E+01 -0.40245623622E+01 -0.57561332575E+01  0.85380483930E+01  0.51100000000E-03 0. -1.
        -11    1    3    3    0    0  0.93605764542E+01 -0.13368091343E+01 -0.11322097607E+02  0.14751181129E+02  0.51100000000E-03 0.  1.
        -12    1    3    3    0    0  0.18497033430E+02 -0.15952991911E+02 -0.18750334140E+01  0.24498039655E+02  0.00000000000E+00 0.  1.
</event>
<event>
 7    1  0.3062695E-010  0.4778727E+02  0.7816164E-02  0.1312668E+00
        -11   -1    0    0    0    0  0.00000000000E+00  0.00000000000E+00  0.45593999997E+02  0.45594000000E+02  0.51100000000E-03 0.  1.
         11   -1    0    0    0    0 -0.00000000000E+00 -0.00000000000E+00 -0.45593999997E+02  0.45594000000E+02  0.51100000000E-03 0. -1.
    9900012    2    1    2    0    0  0.13620374585E+01 -0.10838306501E+02 -0.42003561406E+02  0.47787271842E+02  0.20000003636E+02 0.  0.
        -12    1    1    2    0    0 -0.13620374585E+01  0.10838306501E+02  0.42003561406E+02  0.43400728158E+02  0.00000000000E+00 0.  1.
         11    1    3    3    0    0  0.56102382761E+01 -0.12465361521E+02 -0.22251536392E+02  0.26114955168E+02  0.51100000000E-03 0. -1.
        -11    1    3    3    0    0 -0.32613613307E+01  0.46795808738E+01 -0.13046181186E+02  0.14238602413E+02  0.51100000000E-03 0.  1.
         12    1    3    3    0    0 -0.98683948691E+00 -0.30525258537E+01 -0.67058438286E+01  0.74337142609E+01  0.00000000000E+00 0. -1.
</event>
<event>
 7    1  0.3062695E-010  0.4778727E+02  0.7816164E-02  0.1312668E+00
        -11   -1    0    0    0    0  0.00000000000E+00  0.00000000000E+00  0.45593999997E+02  0.45594000000E+02  0.51100000000E-03 0.  1.
         11   -1    0    0    0    0 -0.00000000000E+00 -0.00000000000E+00 -0.45593999997E+02  0.45594000000E+02  0.51100000000E-03 0. -1.
    9900012    2    1    2    0    0 -0.29581857168E+02  0.31741811384E+02  0.99721274868E+00  0.47787270781E+02  0.19999998801E+02 0.  0.
        -12    1    1    2    0    0  0.29581857168E+02 -0.31741811384E+02 -0.99721274868E+00  0.43400729219E+02  0.00000000000E+00 0.  1.
         11    1    3    3    0    0 -0.83605816485E+01  0.88110855231E+01 -0.39955555173E+01  0.12786673443E+02  0.51100000000E-03 0. -1.
        -11    1    3    3    0    0 -0.17107414616E+02  0.15721257683E+02  0.10013098393E+02  0.25299875843E+02  0.51100000000E-03 0.  1.
        -12    1    3    3    0    0 -0.41138609037E+01  0.72094681782E+01 -0.50203301269E+01  0.97007214953E+01  0.00000000000E+00 0.  1.
</event>
<event>
 7    1  0.3062695E-010  0.4778727E+02  0.7816164E-02  0.1312668E+00
        -11   -1    0    0    0    0  0.00000000000E+00  0.00000000000E+00  0.45593999997E+02  0.45594000000E+02  0.51100000000E-03 0.  1.
         11   -1    0    0    0    0 -0.00000000000E+00 -0.00000000000E+00 -0.45593999997E+02  0.45594000000E+02  0.51100000000E-03 0. -1.
    9900012    2    1    2    0    0  0.23952692336E+02 -0.11449537761E+02 -0.34333661268E+02  0.47787266352E+02  0.19999978607E+02 0.  0.
        -12    1    1    2    0    0 -0.23952692336E+02  0.11449537761E+02  0.34333661268E+02  0.43400733648E+02  0.00000000000E+00 0.  1.
         11    1    3    3    0    0  0.13690024492E+02 -0.46200132246E+01 -0.71022813137E+01  0.16099804126E+02  0.51100000000E-03 0. -1.
        -11    1    3    3    0    0  0.28562150731E+01  0.14234185855E+01 -0.12298038996E+01  0.34200150447E+01  0.51100000000E-03 0.  1.
         12    1    3    3    0    0  0.74064527709E+01 -0.82529431216E+01 -0.26001576055E+02  0.28267447181E+02  0.00000000000E+00 0. -1.
</event>
<event>
 7    1  0.3062695E-010  0.4778727E+02  0.7816164E-02  0.1312668E+00
        -11   -1    0    0    0    0  0.00000000000E+00  0.00000000000E+00  0.45593999997E+02  0.45594000000E+02  0.51100000000E-03 0. -1.
         11   -1    0    0    0    0 -0.00000000000E+00 -0.00000000000E+00 -0.45593999997E+02  0.45594000000E+02  0.51100000000E-03 0.  1.
    9900012    2    1    2    0    0  0.23958226587E+02  0.32586675868E+02  0.15739604058E+02  0.47787271882E+02  0.20000003817E+02 0.  0.
        -12    1    1    2    0    0 -0.23958226587E+02 -0.32586675868E+02 -0.15739604058E+02  0.43400728118E+02  0.00000000000E+00 0.  1.
         11    1    3    3    0    0  0.23966272495E+01  0.17065932746E+02  0.67159142491E+01  0.18495766735E+02  0.51100000000E-03 0. -1.
        -11    1    3    3    0    0  0.11301711443E+02  0.77396986144E+01  0.23220762748E+00  0.13699837110E+02  0.51100000000E-03 0.  1.
         12    1    3    3    0    0  0.10259887894E+02  0.77810445075E+01  0.87914821810E+01  0.15591668036E+02  0.00000000000E+00 0. -1.
</event>
<event>
 7    1  0.3062695E-010  0.4778722E+02  0.7816164E-02  0.1312668E+00
        -11   -1    0    0    0    0  0.00000000000E+00  0.00000000000E+00  0.45593999997E+02  0.45594000000E+02  0.51100000000E-03 0.  1.
         11   -1    0    0    0    0 -0.00000000000E+00 -0.00000000000E+00 -0.45593999997E+02  0.45594000000E+02  0.51100000000E-03 0. -1.
    9900012    2    1    2    0    0 -0.26919538336E+02 -0.79130923879E+01 -0.33111158183E+02  0.47787223837E+02  0.19999784759E+02 0.  0.
        -12    1    1    2    0    0  0.26919538336E+02  0.79130923879E+01  0.33111158183E+02  0.43400776163E+02  0.00000000000E+00 0.  1.
         11    1    3    3    0    0 -0.17877132830E+02 -0.82607135119E+01 -0.11936332984E+02  0.23028402275E+02  0.51100000000E-03 0. -1.
        -11    1    3    3    0    0  0.59796053826E+00 -0.25296676109E+01 -0.28752771114E+01  0.38760796890E+01  0.51100000000E-03 0.  1.
         12    1    3    3    0    0 -0.96403660446E+01  0.28772887350E+01 -0.18299548087E+02  0.20882741873E+02  0.00000000000E+00 0. -1.
</event>
<event>
 7    1  0.3062695E-010  0.4778727E+02  0.7816164E-02  0.1312668E+00
        -11   -1    0    0    0    0  0.00000000000E+00  0.00000000000E+00  0.45593999997E+02  0.45594000000E+02  0.51100000000E-03 0. -1.
         11   -1    0    0    0    0 -0.00000000000E+00 -0.00000000000E+00 -0.45593999997E+02  0.45594000000E+02  0.51100000000E-03 0.  1.
    9900012    2    1    2    0    0 -0.38446172190E+02  0.20119174498E+02  0.85676430024E+00  0.47787269780E+02  0.19999994234E+02 0.  0.
        -12    1    1    2    0    0  0.38446172190E+02 -0.20119174498E+02 -0.85676430024E+00  0.43400730220E+02  0.00000000000E+00 0.  1.
         11    1    3    3    0    0 -0.19627710607E+02  0.81471417862E+01  0.83969998901E+01  0.22850219920E+02  0.51100000000E-03 0. -1.
        -11    1    3    3    0    0 -0.12637592600E+02  0.12224414029E+02 -0.54669681474E+01  0.18412842965E+02  0.51100000000E-03 0.  1.
        -12    1    3    3    0    0 -0.61808689834E+01 -0.25238131717E+00 -0.20732674424E+01  0.65242068949E+01  0.00000000000E+00 0.  1.
</event>
<event>
 7    1  0.3062695E-010  0.4778727E+02  0.7816164E-02  0.1312668E+00
        -11   -1    0    0    0    0  0.00000000000E+00  0.00000000000E+00  0.45593999997E+02  0.45594000000E+02  0.51100000000E-03 0.  1.
         11   -1    0    0    0    0 -0.00000000000E+00 -0.00000000000E+00 -0.45593999997E+02  0.45594000000E+02  0.51100000000E-03 0. -1.
    9900012    2    1    2    0    0 -0.21764072347E+02 -0.31433835811E+02 -0.20539288124E+02  0.47787271486E+02  0.20000002012E+02 0.  0.
        -12    1    1    2    0    0  0.21764072347E+02  0.31433835811E+02  0.20539288124E+02  0.43400728514E+02  0.00000000000E+00 0.  1.
         11    1    3    3    0    0 -0.12328291361E+01 -0.40813628109E+01  0.28639400032E+01  0.51361018950E+01  0.51100000000E-03 0. -1.
        -11    1    3    3    0    0 -0.17552895310E+02 -0.18931236243E+02 -0.12889897039E+02  0.28855593659E+02  0.51100000000E-03 0.  1.
         12    1    3    3    0    0 -0.29783479013E+01 -0.84212367569E+01 -0.10513331087E+02  0.13795575932E+02  0.00000000000E+00 0. -1.
</event>
<event>
 7    1  0.3062695E-010  0.4778727E+02  0.7816164E-02  0.1312668E+00
        -11   -1    0    0    0    0  0.00000000000E+00  0.00000000000E+00  0.45593999997E+02  0.45594000000E+02  0.51100000000E-03 0. -1.
         11   -1    0    0    0    0 -0.00000000000E+00 -0.00000000000E+00 -0.45593999997E+02  0.45594000000E+02  0.51100000000E-03 0.  1.
    9900012    2    1    2    0    0 -0.28946105772E+02  0.24352651974E+02  0.21276616896E+02  0.47787272770E+02  0.20000007869E+02 0.  0.
        -12    1    1    2    0    0  0.28946105772E+02 -0.24352651974E+02 -0.21276616896E+02  0.43400727230E+02  0.00000000000E+00 0.  1.
         11    1    3    3    0    0 -0.87600771212E+01  0.16704425885E+02  0.17099355065E+02  0.25459079701E+02  0.51100000000E-03 0. -1.
        -11    1    3    3    0    0 -0.10842899684E+02  0.26683690345E+01  0.35707513209E+01  0.11723435168E+02  0.51100000000E-03 0.  1.
         12    1    3    3    0    0 -0.93431289660E+01  0.49798570545E+01  0.60651051056E+00  0.10604757902E+02  0.00000000000E+00 0. -1.
</event>
<event>
 7    1  0.3062695E-010  0.4778729E+02  0.7816164E-02  0.1312668E+00
        -11   -1    0    0    0    0  0.00000000000E+00  0.00000000000E+00  0.45593999997E+02  0.45594000000E+02  0.51100000000E-03 0.  1.
         11   -1    0    0    0    0 -0.00000000000E+00 -0.00000000000E+00 -0.45593999997E+02  0.45594000000E+02  0.51100000000E-03 0. -1.
    9900012    2    1    2    0    0 -0.31362364298E+02  0.62753845412E+01 -0.29336717975E+02  0.47787293012E+02  0.20000100157E+02 0.  0.
        -12    1    1    2    0    0  0.31362364298E+02 -0.62753845412E+01  0.29336717975E+02  0.43400706988E+02  0.00000000000E+00 0.  1.
         11    1    3    3    0    0 -0.12012789619E+02  0.30029589373E+01 -0.21821246935E+02  0.25089673072E+02  0.51100000000E-03 0. -1.
        -11    1    3    3    0    0 -0.21758452536E+01  0.36189574407E+01 -0.18503960177E+01  0.46103276683E+01  0.51100000000E-03 0.  1.
         12    1    3    3    0    0 -0.17173729425E+02 -0.34653183684E+00 -0.56650750228E+01  0.18087292271E+02  0.00000000000E+00 0. -1.
</event>
<event>
 7    1  0.3062695E-010  0.4778728E+02  0.7816164E-02  0.1312668E+00
        -11   -1    0    0    0    0  0.00000000000E+00  0.00000000000E+00  0.45593999997E+02  0.45594000000E+02  0.51100000000E-03 0. -1.
         11   -1    0    0    0    0 -0.00000000000E+00 -0.00000000000E+00 -0.45593999997E+02  0.45594000000E+02  0.51100000000E-03 0.  1.
    9900012    2    1    2    0    0  0.22268569559E+02 -0.30610775075E+02  0.21230022284E+02  0.47787278957E+02  0.20000036075E+02 0.  0.
        -12    1    1    2    0    0 -0.22268569559E+02  0.30610775075E+02 -0.21230022284E+02  0.43400721043E+02  0.00000000000E+00 0.  1.
         11    1    3    3    0    0  0.15195363088E+02 -0.80462340626E+01  0.11751164053E+02  0.20826204619E+02  0.51100000000E-03 0. -1.
        -11    1    3    3    0    0  0.50862414772E+01 -0.21572111484E+02  0.10489988262E+02  0.24520719815E+02  0.51100000000E-03 0.  1.
         12    1    3    3    0    0  0.19869649939E+01 -0.99242952824E+00 -0.10111300312E+01  0.24403545225E+01  0.00000000000E+00 0. -1.
</event>
<event>
 7    1  0.3062695E-010  0.4778724E+02  0.7816164E-02  0.1312668E+00
        -11   -1    0    0    0    0  0.00000000000E+00  0.00000000000E+00  0.45593999997E+02  0.45594000000E+02  0.51100000000E-03 0.  1.
         11   -1    0    0    0    0 -0.00000000000E+00 -0.00000000000E+00 -0.45593999997E+02  0.45594000000E+02  0.51100000000E-03 0. -1.
    9900012    2    1    2    0    0 -0.15631175422E+02  0.19838455449E+02 -0.35294875234E+02  0.47787237594E+02  0.19999847484E+02 0.  0.
        -12    1    1    2    0    0  0.15631175422E+02 -0.19838455449E+02  0.35294875234E+02  0.43400762406E+02  0.00000000000E+00 0.  1.
         11    1    3    3    0    0 -0.64380034207E+01  0.20492347450E+02 -0.21840540018E+02  0.30633207155E+02  0.51100000000E-03 0. -1.
        -11    1    3    3    0    0 -0.51354290562E+01  0.13872792247E+01 -0.10396724079E+02  0.11678572134E+02  0.51100000000E-03 0.  1.
         12    1    3    3    0    0 -0.40577429455E+01 -0.20411712265E+01 -0.30576111369E+01  0.54754583052E+01  0.00000000000E+00 0. -1.
</event>
<event>
 7    1  0.3062695E-010  0.4778726E+02  0.7816164E-02  0.1312668E+00
        -11   -1    0    0    0    0  0.00000000000E+00  0.00000000000E+00  0.45593999997E+02  0.45594000000E+02  0.51100000000E-03 0.  1.
         11   -1    0    0    0    0 -0.00000000000E+00 -0.00000000000E+00 -0.45593999997E+02  0.45594000000E+02  0.51100000000E-03 0. -1.
    9900012    2    1    2    0    0 -0.35931409641E+02 -0.22237294361E+01 -0.24240740075E+02  0.47787255182E+02  0.19999927676E+02 0.  0.
        -12    1    1    2    0    0  0.35931409641E+02  0.22237294361E+01  0.24240740075E+02  0.43400744818E+02  0.00000000000E+00 0.  1.
         11    1    3    3    0    0 -0.43731422522E+01 -0.28345664537E+01 -0.42832417688E+01  0.67457616656E+01  0.51100000000E-03 0. -1.
        -11    1    3    3    0    0  0.20081473749E+01 -0.38986554203E+00 -0.14396079487E+00  0.20507013414E+01  0.51100000000E-03 0.  1.
        -12    1    3    3    0    0 -0.33566414764E+02  0.10007025596E+01 -0.19813537511E+02  0.38990792175E+02  0.00000000000E+00 0.  1.
</event>
<event>
 7    1  0.3062695E-010  0.4778727E+02  0.7816164E-02  0.1312668E+00
        -11   -1    0    0    0    0  0.00000000000E+00  0.00000000000E+00  0.45593999997E+02  0.45594000000E+02  0.51100000000E-03 0. -1.
         11   -1    0    0    0    0 -0.00000000000E+00 -0.00000000000E+00 -0.45593999997E+02  0.45594000000E+02  0.51100000000E-03 0.  1.
    9900012    2    1    2    0    0 -0.80473710832E+01 -0.13132629823E+02  0.40575823583E+02  0.47787267208E+02  0.19999982508E+02 0.  0.
        -12    1    1    2    0    0  0.80473710832E+01  0.13132629823E+02 -0.40575823583E+02  0.43400732792E+02  0.00000000000E+00 0.  1.
         11    1    3    3    0    0 -0.22090116760E+01 -0.34444366503E+01  0.18420287031E+01  0.44874209104E+01  0.51100000000E-03 0. -1.
        -11    1    3    3    0    0 -0.10464437556E+02 -0.10219076407E+02  0.30893851707E+02  0.34181340663E+02  0.51100000000E-03 0.  1.
        -12    1    3    3    0    0  0.46260781492E+01  0.53088323363E+00  0.78399431734E+01  0.91185056348E+01  0.00000000000E+00 0.  1.
</event>
<event>
 7    1  0.3062695E-010  0.4778727E+02  0.7816164E-02  0.1312668E+00
        -11   -1    0    0    0    0  0.00000000000E+00  0.00000000000E+00  0.45593999997E+02  0.45594000000E+02  0.51100000000E-03 0.  1.
         11   -1    0    0    0    0 -0.00000000000E+00 -0.00000000000E+00 -0.45593999997E+02  0.45594000000E+02  0.51100000000E-03 0. -1.
    9900012    2    1    2    0    0 -0.13307693774E+02 -0.40901584532E+02 -0.57955756742E+01  0.47787273874E+02  0.20000012902E+02 0.  0.
        -12    1    1    2    0    0  0.13307693774E+02  0.40901584532E+02  0.57955756742E+01  0.43400726126E+02  0.00000000000E+00 0.  1.
         11    1    3    3    0    0  0.32957612856E+01 -0.96107821128E+01 -0.33052150518E+01  0.10684269843E+02  0.51100000000E-03 0. -1.
        -11    1    3    3    0    0 -0.16980232340E+02 -0.23826813006E+02 -0.38382331354E+01  0.29508936650E+02  0.51100000000E-03 0.  1.
        -12    1    3    3    0    0  0.37677728065E+00 -0.74639894131E+01  0.13478725130E+01  0.75940673812E+01  0.00000000000E+00 0.  1.
</event>
<event>
 7    1  0.3062695E-010  0.4778727E+02  0.7816164E-02  0.1312668E+00
        -11   -1    0    0    0    0  0.00000000000E+00  0.00000000000E+00  0.45593999997E+02  0.45594000000E+02  0.51100000000E-03 0.  1.
         11   -1    0    0    0    0 -0.00000000000E+00 -0.00000000000E+00 -0.45593999997E+02  0.45594000000E+02  0.51100000000E-03 0. -1.
    9900012    2    1    2    0    0 -0.97262790148E+01  0.24986300349E+02 -0.34127813788E+02  0.47787269792E+02  0.19999994290E+02 0.  0.
        -12    1    1    2    0    0  0.97262790148E+01 -0.24986300349E+02  0.34127813788E+02  0.43400730208E+02  0.00000000000E+00 0.  1.
         11    1    3    3    0    0 -0.13718127360E+02  0.12382191296E+02 -0.13493674536E+02  0.22881978330E+02  0.51100000000E-03 0. -1.
        -11    1    3    3    0    0  0.10929998033E+01  0.41582005835E+01 -0.10787352595E+02  0.11612590449E+02  0.51100000000E-03 0.  1.
         12    1    3    3    0    0  0.28988485419E+01  0.84459084700E+01 -0.98467866575E+01  0.13292701013E+02  0.00000000000E+00 0. -1.
</event>
<event>
 7    1  0.3062695E-010  0.4778727E+02  0.7816164E-02  0.1312668E+00
        -11   -1    0    0    0    0  0.00000000000E+00  0.00000000000E+00  0.45593999997E+02  0.45594000000E+02  0.51100000000E-03 0.  1.
         11   -1    0    0    0    0 -0.00000000000E+00 -0.00000000000E+00 -0.45593999997E+02  0.45594000000E+02  0.51100000000E-03 0. -1.
    9900012    2    1    2    0    0 -0.17185174403E+01  0.22860829475E+02 -0.36851763148E+02  0.47787271048E+02  0.20000000015E+02 0.  0.
        -12    1    1    2    0    0  0.17185174403E+01 -0.22860829475E+02  0.36851763148E+02  0.43400728952E+02  0.00000000000E+00 0.  1.
         11    1    3    3    0    0 -0.53902910768E+01  0.21859278106E+02 -0.26611968586E+02  0.34857999792E+02  0.51100000000E-03 0. -1.
        -11    1    3    3    0    0  0.55483882805E+01 -0.10985556811E+00 -0.60762957566E+01  0.82290978327E+01  0.51100000000E-03 0.  1.
         12    1    3    3    0    0 -0.18766146441E+01  0.11114069369E+01 -0.41634988059E+01  0.47001734232E+01  0.00000000000E+00 0. -1.
</event>
<event>
 7    1  0.3062695E-010  0.4778727E+02  0.7816164E-02  0.1312668E+00
        -11   -1    0    0    0    0  0.00000000000E+00  0.00000000000E+00  0.45593999997E+02  0.45594000000E+02  0.51100000000E-03 0.  1.
         11   -1    0    0    0    0 -0.00000000000E+00 -0.00000000000E+00 -0.45593999997E+02  0.45594000000E+02  0.51100000000E-03 0. -1.
    9900012    2    1    2    0    0  0.55385450541E+01 -0.37793331575E+01 -0.42879655829E+02  0.47787265854E+02  0.19999976333E+02 0.  0.
        -12    1    1    2    0    0 -0.55385450541E+01  0.37793331575E+01  0.42879655829E+02  0.43400734146E+02  0.00000000000E+00 0.  1.
         11    1    3    3    0    0  0.11138677064E+02 -0.25348864277E+01 -0.38505791306E+02  0.40164558261E+02  0.51100000000E-03 0. -1.
        -11    1    3    3    0    0 -0.34442980079E+01 -0.12667045656E+01 -0.13527867192E+01  0.39112352770E+01  0.51100000000E-03 0.  1.
         12    1    3    3    0    0 -0.21558340017E+01  0.22257835772E-01 -0.30210778040E+01  0.37114723159E+01  0.00000000000E+00 0. -1.
</event>
<event>
 7    1  0.3062695E-010  0.4778726E+02  0.7816164E-02  0.1312668E+00
        -11   -1    0    0    0    0  0.00000000000E+00  0.00000000000E+00  0.45593999997E+02  0.45594000000E+02  0.51100000000E-03 0. -1.
         11   -1    0    0    0    0 -0.00000000000E+00 -0.00000000000E+00 -0.45593999997E+02  0.45594000000E+02  0.51100000000E-03 0.  1.
    9900012    2    1    2    0    0  0.17659410462E+02  0.52964339257E+01  0.39290166221E+02  0.47787260929E+02  0.19999953882E+02 0.  0.
        -12    1    1    2    0    0 -0.17659410462E+02 -0.52964339257E+01 -0.39290166221E+02  0.43400739071E+02  0.00000000000E+00 0.  1.
         11    1    3    3    0    0 -0.10063463480E+01  0.42099405051E+01  0.12751461757E+02  0.13466109655E+02  0.51100000000E-03 0. -1.
        -11    1    3    3    0    0  0.94157540491E+01 -0.50276773609E+01  0.13194694449E+02  0.16971562268E+02  0.51100000000E-03 0.  1.
        -12    1    3    3    0    0  0.92500027607E+01  0.61141707815E+01  0.13344010016E+02  0.17349589007E+02  0.00000000000E+00 0.  1.
</event>
<event>
 7    1  0.3062695E-010  0.4778727E+02  0.7816164E-02  0.1312668E+00
        -11   -1    0    0    0    0  0.00000000000E+00  0.00000000000E+00  0.45593999997E+02  0.45594000000E+02  0.51100000000E-03 0.  1.
         11   -1    0    0    0    0 -0.00000000000E+00 -0.00000000000E+00 -0.45593999997E+02  0.45594000000E+02  0.51100000000E-03 0. -1.
    9900012    2    1    2    0    0  0.20046403439E+02  0.60853465533E+01 -0.38009649134E+02  0.47787272347E+02  0.20000005938E+02 0.  0.
        -12    1    1    2    0    0 -0.20046403439E+02 -0.60853465533E+01  0.38009649134E+02  0.43400727653E+02  0.00000000000E+00 0.  1.
         11    1    3    3    0    0  0.10884257635E+02 -0.32456676647E+01 -0.14995730060E+02  0.18811521554E+02  0.51100000000E-03 0. -1.
        -11    1    3    3    0    0 -0.19365800036E+00 -0.24589095124E+01 -0.23113475341E+01  0.33802466029E+01  0.51100000000E-03 0.  1.
         12    1    3    3    0    0  0.93558038036E+01  0.11789923731E+02 -0.20702571540E+02  0.25595504190E+02  0.00000000000E+00 0. -1.
</event>
<event>
 7    1  0.3062695E-010  0.4778727E+02  0.7816164E-02  0.1312668E+00
        -11   -1    0    0    0    0  0.00000000000E+00  0.00000000000E+00  0.45593999997E+02  0.45594000000E+02  0.51100000000E-03 0.  1.
         11   -1    0    0    0    0 -0.00000000000E+00 -0.00000000000E+00 -0.45593999997E+02  0.45594000000E+02  0.51100000000E-03 0. -1.
    9900012    2    1    2    0    0 -0.10984449877E+02 -0.30578450378E+02 -0.28773661683E+02  0.47787269899E+02  0.19999994777E+02 0.  0.
        -12    1    1    2    0    0  0.10984449877E+02  0.30578450378E+02  0.28773661683E+02  0.43400730101E+02  0.00000000000E+00 0.  1.
         11    1    3    3    0    0 -0.13196820866E+01 -0.49833199346E+01 -0.12301730158E+02  0.13338200910E+02  0.51100000000E-03 0. -1.
        -11    1    3    3    0    0 -0.12264795334E+02 -0.16588651669E+02 -0.92183186815E+01  0.22596149414E+02  0.51100000000E-03 0.  1.
        -12    1    3    3    0    0  0.26000275435E+01 -0.90064787752E+01 -0.72536128436E+01  0.11852919575E+02  0.00000000000E+00 0.  1.
</event>
<event>
 7    1  0.3062695E-010  0.4778727E+02  0.7816164E-02  0.1312668E+00
        -11   -1    0    0    0    0  0.00000000000E+00  0.00000000000E+00  0.45593999997E+02  0.45594000000E+02  0.51100000000E-03 0. -1.
         11   -1    0    0    0    0 -0.00000000000E+00 -0.00000000000E+00 -0.45593999997E+02  0.45594000000E+02  0.51100000000E-03 0.  1.
    9900012    2    1    2    0    0  0.12922056197E+02  0.10045257048E+02  0.40196225392E+02  0.47787271189E+02  0.20000000660E+02 0.  0.
        -12    1    1    2    0    0 -0.12922056197E+02 -0.10045257048E+02 -0.40196225392E+02  0.43400728811E+02  0.00000000000E+00 0.  1.
         11    1    3    3    0    0  0.12500755652E+02  0.92636328215E+01  0.38321679871E+02  0.41359822695E+02  0.51100000000E-03 0. -1.
        -11    1    3    3    0    0  0.16993507660E+00 -0.17743927013E+01 -0.13994729340E+01  0.22662462670E+01  0.51100000000E-03 0.  1.
         12    1    3    3    0    0  0.25136546848E+00  0.25560169281E+01  0.32740184551E+01  0.41612022277E+01  0.00000000000E+00 0. -1.
</event>
<event>
 7    1  0.3062695E-010  0.4778727E+02  0.7816164E-02  0.1312668E+00
        -11   -1    0    0    0    0  0.00000000000E+00  0.00000000000E+00  0.45593999997E+02  0.45594000000E+02  0.51100000000E-03 0.  1.
         11   -1    0    0    0    0 -0.00000000000E+00 -0.00000000000E+00 -0.45593999997E+02  0.45594000000E+02  0.51100000000E-03 0. -1.
    9900012    2    1    2    0    0 -0.41426734793E+02  0.28837054488E+01 -0.12614801705E+02  0.47787270343E+02  0.19999996803E+02 0.  0.
        -12    1    1    2    0    0  0.41426734793E+02 -0.28837054488E+01  0.12614801705E+02  0.43400729657E+02  0.00000000000E+00 0.  1.
         11    1    3    3    0    0 -0.67783166574E+01  0.35331295294E+00 -0.91380396182E-02  0.67875246236E+01  0.51100000000E-03 0. -1.
        -11    1    3    3    0    0 -0.27422600058E+02  0.67427856247E+01 -0.15419731843E+02  0.32175025755E+02  0.51100000000E-03 0.  1.
        -12    1    3    3    0    0 -0.72258180768E+01 -0.42123931289E+01  0.28140681778E+01  0.88247199650E+01  0.00000000000E+00 0.  1.
</event>
<event>
 7    1  0.3062695E-010  0.4778727E+02  0.7816164E-02  0.1312668E+00
        -11   -1    0    0    0    0  0.00000000000E+00  0.00000000000E+00  0.45593999997E+02  0.45594000000E+02  0.51100000000E-03 0.  1.
         11   -1    0    0    0    0 -0.00000000000E+00 -0.00000000000E+00 -0.45593999997E+02  0.45594000000E+02  0.51100000000E-03 0. -1.
    9900012    2    1    2    0    0 -0.31777899106E+02 -0.11178442212E+02  0.27364773284E+02  0.47787271218E+02  0.20000000794E+02 0.  0.
        -12    1    1    2    0    0  0.31777899106E+02  0.11178442212E+02 -0.27364773284E+02  0.43400728782E+02  0.00000000000E+00 0.  1.
         11    1    3    3    0    0 -0.10976027874E+02 -0.21253892481E+01  0.54631177841E+00  0.11193253511E+02  0.51100000000E-03 0. -1.
        -11    1    3    3    0    0 -0.49323977314E+00 -0.16649504124E+01 -0.45636621783E+00  0.17954430472E+01  0.51100000000E-03 0.  1.
         12    1    3    3    0    0 -0.20308631459E+02 -0.73881025516E+01  0.27274827723E+02  0.34798574661E+02  0.00000000000E+00 0. -1.
</event>
<event>
 7    1  0.3062695E-010  0.4778727E+02  0.7816164E-02  0.1312668E+00
        -11   -1    0    0    0    0  0.00000000000E+00  0.00000000000E+00  0.45593999997E+02  0.45594000000E+02  0.51100000000E-03 0.  1.
         11   -1    0    0    0    0 -0.00000000000E+00 -0.00000000000E+00 -0.45593999997E+02  0.45594000000E+02  0.51100000000E-03 0. -1.
    9900012    2    1    2    0    0  0.41027327445E+01  0.42067288499E+02 -0.98556552817E+01  0.47787272832E+02  0.20000008151E+02 0.  0.
        -12    1    1    2    0    0 -0.41027327445E+01 -0.42067288499E+02  0.98556552817E+01  0.43400727168E+02  0.00000000000E+00 0.  1.
         11    1    3    3    0    0  0.52559133380E+01  0.33885234927E+02 -0.61603085284E+01  0.34839391104E+02  0.51100000000E-03 0. -1.
        -11    1    3    3    0    0  0.24749962972E+01 -0.19969256432E+00 -0.28433288711E+01  0.37749176312E+01  0.51100000000E-03 0.  1.
         12    1    3    3    0    0 -0.36281768907E+01  0.83817461363E+01 -0.85201788217E+00  0.91729640965E+01  0.00000000000E+00 0. -1.
</event>
<event>
 7    1  0.3062695E-010  0.4778727E+02  0.7816164E-02  0.1312668E+00
        -11   -1    0    0    0    0  0.00000000000E+00  0.00000000000E+00  0.45593999997E+02  0.45594000000E+02  0.51100000000E-03 0.  1.
         11   -1    0    0    0    0 -0.00000000000E+00 -0.00000000000E+00 -0.45593999997E+02  0.45594000000E+02  0.51100000000E-03 0. -1.
    9900012    2    1    2    0    0 -0.11735709718E+02 -0.11743302074E+02 -0.40099766418E+02  0.47787270824E+02  0.19999998995E+02 0.  0.
        -12    1    1    2    0    0  0.11735709718E+02  0.11743302074E+02  0.40099766418E+02  0.43400729176E+02  0.00000000000E+00 0.  1.
         11    1    3    3    0    0 -0.12926043402E+02 -0.74612094070E+01 -0.17396266759E+02  0.22921220327E+02  0.51100000000E-03 0. -1.
        -11    1    3    3    0    0  0.40579186089E+01  0.74758470452E+00 -0.69532337803E+01  0.80853600162E+01  0.51100000000E-03 0.  1.
         12    1    3    3    0    0 -0.28675849252E+01 -0.50296773719E+01 -0.15750265879E+02  0.16780690481E+02  0.00000000000E+00 0. -1.
</event>
<event>
 7    1  0.3062695E-010  0.4778727E+02  0.7816164E-02  0.1312668E+00
        -11   -1    0    0    0    0  0.00000000000E+00  0.00000000000E+00  0.45593999997E+02  0.45594000000E+02  0.51100000000E-03 0. -1.
         11   -1    0    0    0    0 -0.00000000000E+00 -0.00000000000E+00 -0.45593999997E+02  0.45594000000E+02  0.51100000000E-03 0.  1.
    9900012    2    1    2    0    0 -0.83278277232E+01  0.22769665523E+02  0.35997397385E+02  0.47787274187E+02  0.20000014330E+02 0.  0.
        -12    1    1    2    0    0  0.83278277232E+01 -0.22769665523E+02 -0.35997397385E+02  0.43400725813E+02  0.00000000000E+00 0.  1.
         11    1    3    3    0    0  0.50565540577E+00  0.11684342820E+02  0.49711588754E+01  0.12707949298E+02  0.51100000000E-03 0. -1.
        -11    1    3    3    0    0  0.14451910243E+01  0.33500602603E+00  0.24518776826E+01  0.28657478197E+01  0.51100000000E-03 0.  1.
         12    1    3    3    0    0 -0.10278674153E+02  0.10750316676E+02  0.28574360826E+02  0.32213577070E+02  0.00000000000E+00 0. -1.
</event>
<event>
 7    1  0.3979616E-010  0.4778727E+02  0.7816164E-02  0.1312668E+00
        -11   -1    0    0    0    0  0.00000000000E+00  0.00000000000E+00  0.45593999997E+02  0.45594000000E+02  0.51100000000E-03 0.  1.
         11   -1    0    0    0    0 -0.00000000000E+00 -0.00000000000E+00 -0.45593999997E+02  0.45594000000E+02  0.51100000000E-03 0. -1.
    9900012    2    1    2    0    0  0.28033265725E+02  0.31900218572E+02 -0.89518241321E+01  0.47787273193E+02  0.20000009794E+02 0.  0.
        -12    1    1    2    0    0 -0.28033265725E+02 -0.31900218572E+02  0.89518241321E+01  0.43400726807E+02  0.00000000000E+00 0.  1.
         11    1    3    3    0    0  0.11973093211E+02  0.15429556510E+02 -0.35324807636E+01  0.19847029897E+02  0.51100000000E-03 0. -1.
        -11    1    3    3    0    0 -0.16226390844E+00  0.87082755977E+01 -0.48017271077E+01  0.99457014302E+01  0.51100000000E-03 0.  1.
        -12    1    3    3    0    0  0.16222436422E+02  0.77623864641E+01 -0.61761626079E+00  0.17994541865E+02  0.00000000000E+00 0.  1.
</event>
<event>
 7    1  0.3062695E-010  0.4778726E+02  0.7816164E-02  0.1312668E+00
        -11   -1    0    0    0    0  0.00000000000E+00  0.00000000000E+00  0.45593999997E+02  0.45594000000E+02  0.51100000000E-03 0.  1.
         11   -1    0    0    0    0 -0.00000000000E+00 -0.00000000000E+00 -0.45593999997E+02  0.45594000000E+02  0.51100000000E-03 0. -1.
    9900012    2    1    2    0    0 -0.35608364809E+02 -0.90804578487E+01  0.23091418068E+02  0.47787263284E+02  0.19999964615E+02 0.  0.
        -12    1    1    2    0    0  0.35608364809E+02  0.90804578487E+01 -0.23091418068E+02  0.43400736716E+02  0.00000000000E+00 0.  1.
         11    1    3    3    0    0 -0.98476124076E+01 -0.24535054413E+01  0.16030191462E+02  0.18972669755E+02  0.51100000000E-03 0.  1.
        -11    1    3    3    0    0 -0.16262299085E+02 -0.83492826625E+01  0.44466700719E+01  0.18813446454E+02  0.51100000000E-03 0. -1.
        -12    1    3    3    0    0 -0.94984533169E+01  0.17223302551E+01  0.26145565341E+01  0.10001147074E+02  0.00000000000E+00 0.  1.
</event>
<event>
 7    1  0.4278745E-010  0.4778727E+02  0.7816164E-02  0.1312668E+00
        -11   -1    0    0    0    0  0.00000000000E+00  0.00000000000E+00  0.45593999997E+02  0.45594000000E+02  0.51100000000E-03 0.  1.
         11   -1    0    0    0    0 -0.00000000000E+00 -0.00000000000E+00 -0.45593999997E+02  0.45594000000E+02  0.51100000000E-03 0. -1.
    9900012    2    1    2    0    0 -0.67550856050E+01  0.37690594497E+02 -0.20430639618E+02  0.47787272699E+02  0.20000007544E+02 0.  0.
        -12    1    1    2    0    0  0.67550856050E+01 -0.37690594497E+02  0.20430639618E+02  0.43400727301E+02  0.00000000000E+00 0.  1.
         11    1    3    3    0    0 -0.44746430018E+01  0.27482284874E+02 -0.20947689824E+02  0.34843996916E+02  0.51100000000E-03 0. -1.
        -11    1    3    3    0    0 -0.12786600329E+01 -0.86834808831E+00  0.94775150226E+00  0.18130728208E+01  0.51100000000E-03 0.  1.
        -12    1    3    3    0    0 -0.10017825703E+01  0.11076657712E+02 -0.43070129616E+00  0.11130202962E+02  0.00000000000E+00 0.  1.
</event>
<event>
 7    1  0.3062695E-010  0.4778726E+02  0.7816164E-02  0.1312668E+00
        -11   -1    0    0    0    0  0.00000000000E+00  0.00000000000E+00  0.45593999997E+02  0.45594000000E+02  0.51100000000E-03 0.  1.
         11   -1    0    0    0    0 -0.00000000000E+00 -0.00000000000E+00 -0.45593999997E+02  0.45594000000E+02  0.51100000000E-03 0. -1.
    9900012    2    1    2    0    0  0.24874820839E+02 -0.34639954793E+02 -0.80585981413E+01  0.47787260561E+02  0.19999952203E+02 0.  0.
        -12    1    1    2    0    0 -0.24874820839E+02  0.34639954793E+02  0.80585981413E+01  0.43400739439E+02  0.00000000000E+00 0.  1.
         11    1    3    3    0    0  0.20348398051E+02 -0.23597947271E+02 -0.43707107651E+01  0.31464639383E+02  0.51100000000E-03 0. -1.
        -11    1    3    3    0    0  0.76842502619E+00 -0.76846859473E+01 -0.68919299681E+01  0.10351018021E+02  0.51100000000E-03 0.  1.
        -12    1    3    3    0    0  0.37579977620E+01 -0.33573215750E+01  0.32040425919E+01  0.59716031572E+01  0.00000000000E+00 0.  1.
</event>
<event>
 7    1  0.3062695E-010  0.4778727E+02  0.7816164E-02  0.1312668E+00
        -11   -1    0    0    0    0  0.00000000000E+00  0.00000000000E+00  0.45593999997E+02  0.45594000000E+02  0.51100000000E-03 0.  1.
         11   -1    0    0    0    0 -0.00000000000E+00 -0.00000000000E+00 -0.45593999997E+02  0.45594000000E+02  0.51100000000E-03 0. -1.
    9900012    2    1    2    0    0  0.43102335254E+02  0.28740740776E+01  0.41894875812E+01  0.47787269449E+02  0.19999992727E+02 0.  0.
        -12    1    1    2    0    0 -0.43102335254E+02 -0.28740740776E+01 -0.41894875812E+01  0.43400730551E+02  0.00000000000E+00 0.  1.
         11    1    3    3    0    0  0.84065544228E+01  0.58844434735E+01 -0.38710737179E+01  0.10967317094E+02  0.51100000000E-03 0. -1.
        -11    1    3    3    0    0  0.14662673842E+02 -0.45287101738E+00  0.78178176144E+01  0.16622796662E+02  0.51100000000E-03 0.  1.
         12    1    3    3    0    0  0.20033106989E+02 -0.25574983786E+01  0.24274368484E+00  0.20197155693E+02  0.00000000000E+00 0. -1.
</event>
<event>
 7    1  0.3062695E-010  0.4778727E+02  0.7816164E-02  0.1312668E+00
        -11   -1    0    0    0    0  0.00000000000E+00  0.00000000000E+00  0.45593999997E+02  0.45594000000E+02  0.51100000000E-03 0.  1.
         11   -1    0    0    0    0 -0.00000000000E+00 -0.00000000000E+00 -0.45593999997E+02  0.45594000000E+02  0.51100000000E-03 0. -1.
    9900012    2    1    2    0    0  0.16832050798E+02 -0.26998242634E+02 -0.29519493549E+02  0.47787267993E+02  0.19999986087E+02 0.  0.
        -12    1    1    2    0    0 -0.16832050798E+02  0.26998242634E+02  0.29519493549E+02  0.43400732007E+02  0.00000000000E+00 0.  1.
         11    1    3    3    0    0  0.12425598124E+02 -0.11373348371E+02 -0.23690276423E+02  0.29068500807E+02  0.51100000000E-03 0. -1.
        -11    1    3    3    0    0  0.34489349920E+01 -0.12911067355E+02 -0.75665696971E+01  0.15357206453E+02  0.51100000000E-03 0.  1.
         12    1    3    3    0    0  0.95751768203E+00 -0.27138269080E+01  0.17373525718E+01  0.33615607323E+01  0.00000000000E+00 0. -1.
</event>
<event>
 7    1  0.3062695E-010  0.4778727E+02  0.7816164E-02  0.1312668E+00
        -11   -1    0    0    0    0  0.00000000000E+00  0.00000000000E+00  0.45593999997E+02  0.45594000000E+02  0.51100000000E-03 0. -1.
         11   -1    0    0    0    0 -0.00000000000E+00 -0.00000000000E+00 -0.45593999997E+02  0.45594000000E+02  0.51100000000E-03 0.  1.
    9900012    2    1    2    0    0 -0.18749767691E+02  0.15833132590E+02  0.35796387525E+02  0.47787271482E+02  0.20000001995E+02 0.  0.
        -12    1    1    2    0    0  0.18749767691E+02 -0.15833132590E+02 -0.35796387525E+02  0.43400728518E+02  0.00000000000E+00 0.  1.
         11    1    3    3    0    0 -0.28342869477E+01 -0.36305725579E+01  0.12318662036E+02  0.13151565467E+02  0.51100000000E-03 0.  1.
        -11    1    3    3    0    0 -0.13820660623E+02  0.18070905975E+02  0.22304483899E+02  0.31859979678E+02  0.51100000000E-03 0. -1.
        -12    1    3    3    0    0 -0.20948201205E+01  0.13927991728E+01  0.11732415893E+01  0.27757263374E+01  0.00000000000E+00 0.  1.
</event>
<event>
 7    1  0.3062695E-010  0.4778727E+02  0.7816164E-02  0.1312668E+00
        -11   -1    0    0    0    0  0.00000000000E+00  0.00000000000E+00  0.45593999997E+02  0.45594000000E+02  0.51100000000E-03 0.  1.
         11   -1    0    0    0    0 -0.00000000000E+00 -0.00000000000E+00 -0.45593999997E+02  0.45594000000E+02  0.51100000000E-03 0. -1.
    9900012    2    1    2    0    0 -0.40335982062E+02  0.90464817471E+01 -0.13220940616E+02  0.47787267844E+02  0.19999985409E+02 0.  0.
        -12    1    1    2    0    0  0.40335982062E+02 -0.90464817471E+01  0.13220940616E+02  0.43400732156E+02  0.00000000000E+00 0.  1.
         11    1    3    3    0    0 -0.22471984956E+02  0.11224251340E+02 -0.13153448174E+02  0.28354666726E+02  0.51100000000E-03 0. -1.
        -11    1    3    3    0    0 -0.55352679332E+00 -0.82613934022E+00  0.17105868078E+01  0.19786373110E+01  0.51100000000E-03 0.  1.
         12    1    3    3    0    0 -0.17310470312E+02 -0.13516302531E+01 -0.17780792499E+01  0.17453963807E+02  0.00000000000E+00 0. -1.
</event>
<event>
 7    1  0.3062695E-010  0.4778727E+02  0.7816164E-02  0.1312668E+00
        -11   -1    0    0    0    0  0.00000000000E+00  0.00000000000E+00  0.45593999997E+02  0.45594000000E+02  0.51100000000E-03 0. -1.
         11   -1    0    0    0    0 -0.00000000000E+00 -0.00000000000E+00 -0.45593999997E+02  0.45594000000E+02  0.51100000000E-03 0.  1.
    9900012    2    1    2    0    0  0.10354948536E+02 -0.36433425947E+02  0.21189710355E+02  0.47787270624E+02  0.19999998085E+02 0.  0.
        -12    1    1    2    0    0 -0.10354948536E+02  0.36433425947E+02 -0.21189710355E+02  0.43400729376E+02  0.00000000000E+00 0.  1.
         11    1    3    3    0    0  0.22213495579E+01 -0.51360967222E+01  0.22963599809E+01  0.60487315051E+01  0.51100000000E-03 0. -1.
        -11    1    3    3    0    0 -0.10309053148E+01 -0.26747271852E+02  0.15642303907E+02  0.31002596489E+02  0.51100000000E-03 0.  1.
        -12    1    3    3    0    0  0.91645042926E+01 -0.45500573731E+01  0.32510464663E+01  0.10735942630E+02  0.00000000000E+00 0.  1.
</event>
<event>
 7    1  0.3062695E-010  0.4778728E+02  0.7816164E-02  0.1312668E+00
        -11   -1    0    0    0    0  0.00000000000E+00  0.00000000000E+00  0.45593999997E+02  0.45594000000E+02  0.51100000000E-03 0.  1.
         11   -1    0    0    0    0 -0.00000000000E+00 -0.00000000000E+00 -0.45593999997E+02  0.45594000000E+02  0.51100000000E-03 0. -1.
    9900012    2    1    2    0    0  0.22160166389E+02  0.34854919950E+02 -0.13329831808E+02  0.47787276100E+02  0.20000023048E+02 0.  0.
        -12    1    1    2    0    0 -0.22160166389E+02 -0.34854919950E+02  0.13329831808E+02  0.43400723900E+02  0.00000000000E+00 0.  1.
         11    1    3    3    0    0  0.18513032312E+02  0.21674526256E+02 -0.12442174719E+02  0.31101851485E+02  0.51100000000E-03 0. -1.
        -11    1    3    3    0    0  0.63777890365E+01  0.11805675956E+02  0.25766618572E+00  0.13420751465E+02  0.51100000000E-03 0.  1.
         12    1    3    3    0    0 -0.27306549598E+01  0.13747177373E+01 -0.11453232741E+01  0.32646731488E+01  0.00000000000E+00 0. -1.
</event>
<event>
 7    1  0.3062695E-010  0.4778727E+02  0.7816164E-02  0.1312668E+00
        -11   -1    0    0    0    0  0.00000000000E+00  0.00000000000E+00  0.45593999997E+02  0.45594000000E+02  0.51100000000E-03 0. -1.
         11   -1    0    0    0    0 -0.00000000000E+00 -0.00000000000E+00 -0.45593999997E+02  0.45594000000E+02  0.51100000000E-03 0.  1.
    9900012    2    1    2    0    0  0.25047573536E+02  0.34306258117E+02  0.89063552978E+01  0.47787269007E+02  0.19999990709E+02 0.  0.
        -12    1    1    2    0    0 -0.25047573536E+02 -0.34306258117E+02 -0.89063552978E+01  0.43400730993E+02  0.00000000000E+00 0.  1.
         11    1    3    3    0    0  0.89995971117E+01  0.37319593743E+01  0.69047483543E+01  0.11941349130E+02  0.51100000000E-03 0. -1.
        -11    1    3    3    0    0  0.44639354419E+01  0.18286054221E+02 -0.13637464468E+00  0.18823525093E+02  0.51100000000E-03 0.  1.
        -12    1    3    3    0    0  0.11584040983E+02  0.12288244521E+02  0.21379815881E+01  0.17022394784E+02  0.00000000000E+00 0.  1.
</event>
<event>
 7    1  0.3062695E-010  0.4778725E+02  0.7816164E-02  0.1312668E+00
        -11   -1    0    0    0    0  0.00000000000E+00  0.00000000000E+00  0.45593999997E+02  0.45594000000E+02  0.51100000000E-03 0.  1.
         11   -1    0    0    0    0 -0.00000000000E+00 -0.00000000000E+00 -0.45593999997E+02  0.45594000000E+02  0.51100000000E-03 0. -1.
    9900012    2    1    2    0    0 -0.31314110570E+01 -0.10945738289E+02 -0.41880907321E+02  0.47787247473E+02  0.19999892528E+02 0.  0.
        -12    1    1    2    0    0  0.31314110570E+01  0.10945738289E+02  0.41880907321E+02  0.43400752527E+02  0.00000000000E+00 0.  1.
         11    1    3    3    0    0  0.16384353500E+01  0.18556565818E+01 -0.44925586377E+00  0.25159019929E+01  0.51100000000E-03 0. -1.
        -11    1    3    3    0    0 -0.25402089509E+01 -0.54494700760E+00 -0.71939016312E+00  0.26957654244E+01  0.51100000000E-03 0.  1.
         12    1    3    3    0    0 -0.22296374561E+01 -0.12256447863E+02 -0.40712261294E+02  0.42575580056E+02  0.00000000000E+00 0. -1.
</event>
<event>
 7    1  0.3062695E-010  0.4778730E+02  0.7816164E-02  0.1312668E+00
        -11   -1    0    0    0    0  0.00000000000E+00  0.00000000000E+00  0.45593999997E+02  0.45594000000E+02  0.51100000000E-03 0. -1.
         11   -1    0    0    0    0 -0.00000000000E+00 -0.00000000000E+00 -0.45593999997E+02  0.45594000000E+02  0.51100000000E-03 0.  1.
    9900012    2    1    2    0    0 -0.27039549538E+01  0.13464740611E+02  0.41170497868E+02  0.47787302922E+02  0.20000145344E+02 0.  0.
        -12    1    1    2    0    0  0.27039549538E+01 -0.13464740611E+02 -0.41170497868E+02  0.43400697078E+02  0.00000000000E+00 0.  1.
         11    1    3    3    0    0  0.40392979205E+01  0.59952950683E+00  0.21103568126E+02  0.21495021545E+02  0.51100000000E-03 0. -1.
        -11    1    3    3    0    0 -0.20327855289E+01  0.12004732693E+02  0.13757738935E+02  0.18371750186E+02  0.51100000000E-03 0.  1.
        -12    1    3    3    0    0 -0.47104673455E+01  0.86047841069E+00  0.63091908072E+01  0.79205311911E+01  0.00000000000E+00 0.  1.
</event>
<event>
 7    1  0.3062695E-010  0.4778727E+02  0.7816164E-02  0.1312668E+00
        -11   -1    0    0    0    0  0.00000000000E+00  0.00000000000E+00  0.45593999997E+02  0.45594000000E+02  0.51100000000E-03 0.  1.
         11   -1    0    0    0    0 -0.00000000000E+00 -0.00000000000E+00 -0.45593999997E+02  0.45594000000E+02  0.51100000000E-03 0. -1.
    9900012    2    1    2    0    0  0.28209859632E+02  0.15803185728E+02 -0.28949725627E+02  0.47787268745E+02  0.19999989515E+02 0.  0.
        -12    1    1    2    0    0 -0.28209859632E+02 -0.15803185728E+02  0.28949725627E+02  0.43400731255E+02  0.00000000000E+00 0.  1.
         11    1    3    3    0    0  0.11322060750E+02  0.78422413488E+01 -0.23629726553E+02  0.27350571954E+02  0.51100000000E-03 0. -1.
        -11    1    3    3    0    0  0.91376961066E+01  0.76411744479E+01 -0.24152490882E+01  0.12153948556E+02  0.51100000000E-03 0.  1.
         12    1    3    3    0    0  0.77501027753E+01  0.31976993177E+00 -0.29047499858E+01  0.82827482346E+01  0.00000000000E+00 0. -1.
</event>
<event>
 7    1  0.3062695E-010  0.4778727E+02  0.7816164E-02  0.1312668E+00
        -11   -1    0    0    0    0  0.00000000000E+00  0.00000000000E+00  0.45593999997E+02  0.45594000000E+02  0.51100000000E-03 0.  1.
         11   -1    0    0    0    0 -0.00000000000E+00 -0.00000000000E+00 -0.45593999997E+02  0.45594000000E+02  0.51100000000E-03 0. -1.
    9900012    2    1    2    0    0  0.12300595394E+02  0.35959057570E+02 -0.20958643711E+02  0.47787271728E+02  0.20000003115E+02 0.  0.
        -12    1    1    2    0    0 -0.12300595394E+02 -0.35959057570E+02  0.20958643711E+02  0.43400728272E+02  0.00000000000E+00 0.  1.
         11    1    3    3    0    0  0.94375513971E+01  0.25632583167E+02 -0.23251134049E+02  0.35870767081E+02  0.51100000000E-03 0. -1.
        -11    1    3    3    0    0  0.33818085387E+01  0.35705347341E+01  0.10005570522E+01  0.50186115566E+01  0.51100000000E-03 0.  1.
         12    1    3    3    0    0 -0.51876454146E+00  0.67559396691E+01  0.12919332859E+01  0.68978930897E+01  0.00000000000E+00 0. -1.
</event>
<event>
 7    1  0.3062695E-010  0.4778727E+02  0.7816164E-02  0.1312668E+00
        -11   -1    0    0    0    0  0.00000000000E+00  0.00000000000E+00  0.45593999997E+02  0.45594000000E+02  0.51100000000E-03 0. -1.
         11   -1    0    0    0    0 -0.00000000000E+00 -0.00000000000E+00 -0.45593999997E+02  0.45594000000E+02  0.51100000000E-03 0.  1.
    9900012    2    1    2    0    0 -0.33364681997E+02  0.21614071687E+02  0.17414167536E+02  0.47787270390E+02  0.19999997018E+02 0.  0.
        -12    1    1    2    0    0  0.33364681997E+02 -0.21614071687E+02 -0.17414167536E+02  0.43400729610E+02  0.00000000000E+00 0.  1.
         11    1    3    3    0    0 -0.80823603284E+01 -0.24738726672E+01  0.30537484091E+01  0.89872116955E+01  0.51100000000E-03 0. -1.
        -11    1    3    3    0    0 -0.35115193430E+01 -0.85290721560E-01  0.14574013552E+01  0.38029017309E+01  0.51100000000E-03 0.  1.
         12    1    3    3    0    0 -0.21770802325E+02  0.24173235076E+02  0.12903017772E+02  0.34997156964E+02  0.00000000000E+00 0. -1.
</event>
<event>
 7    1  0.3062695E-010  0.4778727E+02  0.7816164E-02  0.1312668E+00
        -11   -1    0    0    0    0  0.00000000000E+00  0.00000000000E+00  0.45593999997E+02  0.45594000000E+02  0.51100000000E-03 0. -1.
         11   -1    0    0    0    0 -0.00000000000E+00 -0.00000000000E+00 -0.45593999997E+02  0.45594000000E+02  0.51100000000E-03 0.  1.
    9900012    2    1    2    0    0 -0.10162035359E+02  0.12744668907E+01  0.42175016081E+02  0.47787271781E+02  0.20000003360E+02 0.  0.
        -12    1    1    2    0    0  0.10162035359E+02 -0.12744668907E+01 -0.42175016081E+02  0.43400728219E+02  0.00000000000E+00 0.  1.
         11    1    3    3    0    0 -0.14334856093E+01 -0.55581021943E+01  0.20740605018E+02  0.21520224854E+02  0.51100000000E-03 0. -1.
        -11    1    3    3    0    0 -0.36504045574E+01  0.87529028484E+01  0.15905742801E+02  0.18518407491E+02  0.51100000000E-03 0.  1.
        -12    1    3    3    0    0 -0.50781451924E+01 -0.19203337634E+01  0.55286682617E+01  0.77486394358E+01  0.00000000000E+00 0.  1.
</event>
<event>
 7    1  0.3062695E-010  0.4778727E+02  0.7816164E-02  0.1312668E+00
        -11   -1    0    0    0    0  0.00000000000E+00  0.00000000000E+00  0.45593999997E+02  0.45594000000E+02  0.51100000000E-03 0.  1.
         11   -1    0    0    0    0 -0.00000000000E+00 -0.00000000000E+00 -0.45593999997E+02  0.45594000000E+02  0.51100000000E-03 0. -1.
    9900012    2    1    2    0    0  0.22380982369E+02  0.10878542767E+01 -0.37168958972E+02  0.47787270631E+02  0.19999998114E+02 0.  0.
        -12    1    1    2    0    0 -0.22380982369E+02 -0.10878542767E+01  0.37168958972E+02  0.43400729369E+02  0.00000000000E+00 0.  1.
         11    1    3    3    0    0  0.56719025411E+01  0.23340758099E+01 -0.10512321362E+02  0.12170755482E+02  0.51100000000E-03 0. -1.
        -11    1    3    3    0    0  0.10410553229E+02  0.28398508937E+01 -0.25915301999E+02  0.28072179282E+02  0.51100000000E-03 0.  1.
        -12    1    3    3    0    0  0.62985265988E+01 -0.40860724269E+01 -0.74133561070E+00  0.75443358675E+01  0.00000000000E+00 0.  1.
</event>
<event>
 7    1  0.3062695E-010  0.4778727E+02  0.7816164E-02  0.1312668E+00
        -11   -1    0    0    0    0  0.00000000000E+00  0.00000000000E+00  0.45593999997E+02  0.45594000000E+02  0.51100000000E-03 0.  1.
         11   -1    0    0    0    0 -0.00000000000E+00 -0.00000000000E+00 -0.45593999997E+02  0.45594000000E+02  0.51100000000E-03 0. -1.
    9900012    2    1    2    0    0 -0.24216360659E+02 -0.25301719617E+02 -0.25632283381E+02  0.47787273157E+02  0.20000009633E+02 0.  0.
        -12    1    1    2    0    0  0.24216360659E+02  0.25301719617E+02  0.25632283381E+02  0.43400726843E+02  0.00000000000E+00 0.  1.
         11    1    3    3    0    0 -0.15216669500E+02 -0.10361651328E+02 -0.44291074928E+01  0.18934831458E+02  0.51100000000E-03 0. -1.
        -11    1    3    3    0    0 -0.10089112009E+02 -0.91556469767E+01 -0.15795233092E+02  0.20859181225E+02  0.51100000000E-03 0.  1.
         12    1    3    3    0    0  0.10894208503E+01 -0.57844213126E+01 -0.54079427963E+01  0.79932604736E+01  0.00000000000E+00 0. -1.
</event>
<event>
 7    1  0.3062695E-010  0.4778726E+02  0.7816164E-02  0.1312668E+00
        -11   -1    0    0    0    0  0.00000000000E+00  0.00000000000E+00  0.45593999997E+02  0.45594000000E+02  0.51100000000E-03 0.  1.
         11   -1    0    0    0    0 -0.00000000000E+00 -0.00000000000E+00 -0.45593999997E+02  0.45594000000E+02  0.51100000000E-03 0. -1.
    9900012    2    1    2    0    0 -0.33138927214E+02 -0.12373864408E+02 -0.25146044493E+02  0.47787256102E+02  0.19999931871E+02 0.  0.
        -12    1    1    2    0    0  0.33138927214E+02  0.12373864408E+02  0.25146044493E+02  0.43400743898E+02  0.00000000000E+00 0.  1.
         11    1    3    3    0    0 -0.17060493167E+02 -0.29724955922E+01 -0.48213617327E+01  0.17976142144E+02  0.51100000000E-03 0. -1.
        -11    1    3    3    0    0 -0.16417033182E+02 -0.10766666510E+02 -0.20510466098E+02  0.28392240244E+02  0.51100000000E-03 0.  1.
        -12    1    3    3    0    0  0.33859913477E+00  0.13652976947E+01  0.18578333816E+00  0.14188737146E+01  0.00000000000E+00 0.  1.
</event>
<event>
 7    1  0.3062695E-010  0.4778727E+02  0.7816164E-02  0.1312668E+00
        -11   -1    0    0    0    0  0.00000000000E+00  0.00000000000E+00  0.45593999997E+02  0.45594000000E+02  0.51100000000E-03 0.  1.
         11   -1    0    0    0    0 -0.00000000000E+00 -0.00000000000E+00 -0.45593999997E+02  0.45594000000E+02  0.51100000000E-03 0. -1.
    9900012    2    1    2    0    0 -0.35445742011E+02  0.18603442595E+02 -0.16767070055E+02  0.47787270267E+02  0.19999996456E+02 0.  0.
        -12    1    1    2    0    0  0.35445742011E+02 -0.18603442595E+02  0.16767070055E+02  0.43400729733E+02  0.00000000000E+00 0.  1.
         11    1    3    3    0    0 -0.23579525824E+02  0.15875326725E+02 -0.16058582048E+02  0.32648094805E+02  0.51100000000E-03 0. -1.
        -11    1    3    3    0    0  0.25411702258E+00  0.26328761568E+01  0.11363549671E+01  0.28788739449E+01  0.51100000000E-03 0.  1.
         12    1    3    3    0    0 -0.12120333209E+02  0.95239713782E-01 -0.18448429744E+01  0.12260301518E+02  0.00000000000E+00 0. -1.
</event>
<event>
 7    1  0.3062695E-010  0.4778727E+02  0.7816164E-02  0.1312668E+00
        -11   -1    0    0    0    0  0.00000000000E+00  0.00000000000E+00  0.45593999997E+02  0.45594000000E+02  0.51100000000E-03 0. -1.
         11   -1    0    0    0    0 -0.00000000000E+00 -0.00000000000E+00 -0.45593999997E+02  0.45594000000E+02  0.51100000000E-03 0.  1.
    9900012    2    1    2    0    0 -0.36628031139E+02  0.21939528174E+02  0.77889596639E+01  0.47787268966E+02  0.19999990524E+02 0.  0.
        -12    1    1    2    0    0  0.36628031139E+02 -0.21939528174E+02 -0.77889596639E+01  0.43400731034E+02  0.00000000000E+00 0.  1.
         11    1    3    3    0    0 -0.15224594748E+02  0.18974848679E+02  0.84018112637E+01  0.25737591193E+02  0.51100000000E-03 0. -1.
        -11    1    3    3    0    0 -0.17238008203E+02  0.36223383695E+01  0.71365015760E+00  0.17628940946E+02  0.51100000000E-03 0.  1.
         12    1    3    3    0    0 -0.41654281881E+01 -0.65765887440E+00 -0.13265017573E+01  0.44207368275E+01  0.00000000000E+00 0. -1.
</event>
<event>
 7    1  0.3062695E-010  0.4778728E+02  0.7816164E-02  0.1312668E+00
        -11   -1    0    0    0    0  0.00000000000E+00  0.00000000000E+00  0.45593999997E+02  0.45594000000E+02  0.51100000000E-03 0.  1.
         11   -1    0    0    0    0 -0.00000000000E+00 -0.00000000000E+00 -0.45593999997E+02  0.45594000000E+02  0.51100000000E-03 0. -1.
    9900012    2    1    2    0    0 -0.38578358453E+01  0.42399359465E+02 -0.84281873322E+01  0.47787275096E+02  0.20000018475E+02 0.  0.
        -12    1    1    2    0    0  0.38578358453E+01 -0.42399359465E+02  0.84281873322E+01  0.43400724904E+02  0.00000000000E+00 0.  1.
         11    1    3    3    0    0 -0.97540054669E+01  0.32280304761E+02 -0.29636088839E+01  0.33851760308E+02  0.51100000000E-03 0. -1.
        -11    1    3    3    0    0  0.48355717908E+01  0.33183287706E+01 -0.17822647934E+01  0.61294802739E+01  0.51100000000E-03 0.  1.
         12    1    3    3    0    0  0.10605978307E+01  0.68007259336E+01 -0.36823136550E+01  0.78060345142E+01  0.00000000000E+00 0. -1.
</event>
<event>
 7    1  0.3062695E-010  0.4778728E+02  0.7816164E-02  0.1312668E+00
        -11   -1    0    0    0    0  0.00000000000E+00  0.00000000000E+00  0.45593999997E+02  0.45594000000E+02  0.51100000000E-03 0.  1.
         11   -1    0    0    0    0 -0.00000000000E+00 -0.00000000000E+00 -0.45593999997E+02  0.45594000000E+02  0.51100000000E-03 0. -1.
    9900012    2    1    2    0    0  0.10977546431E+02 -0.40220128540E+02 -0.12060577555E+02  0.47787276545E+02  0.20000025079E+02 0.  0.
        -12    1    1    2    0    0 -0.10977546431E+02  0.40220128540E+02  0.12060577555E+02  0.43400723455E+02  0.00000000000E+00 0.  1.
         11    1    3    3    0    0 -0.57050887718E+00 -0.24825949914E+01 -0.41096417013E+00  0.25802422523E+01  0.51100000000E-03 0.  1.
        -11    1    3    3    0    0 -0.28764047994E+00 -0.26285933999E+02 -0.11612411253E+02  0.28738148142E+02  0.51100000000E-03 0. -1.
        -12    1    3    3    0    0  0.11835695788E+02 -0.11451599550E+02 -0.37202131740E-01  0.16468886150E+02  0.00000000000E+00 0.  1.
</event>
<event>
 7    1  0.3062695E-010  0.4778727E+02  0.7816164E-02  0.1312668E+00
        -11   -1    0    0    0    0  0.00000000000E+00  0.00000000000E+00  0.45593999997E+02  0.45594000000E+02  0.51100000000E-03 0. -1.
         11   -1    0    0    0    0 -0.00000000000E+00 -0.00000000000E+00 -0.45593999997E+02  0.45594000000E+02  0.51100000000E-03 0.  1.
    9900012    2    1    2    0    0 -0.18647839959E+02 -0.31931707826E+02  0.22721072389E+02  0.47787273851E+02  0.20000012794E+02 0.  0.
        -12    1    1    2    0    0  0.18647839959E+02  0.31931707826E+02 -0.22721072389E+02  0.43400726149E+02  0.00000000000E+00 0.  1.
         11    1    3    3    0    0  0.24284050909E+01 -0.65649839943E+01  0.19867130077E+01  0.72762074577E+01  0.51100000000E-03 0. -1.
        -11    1    3    3    0    0 -0.16613307612E+02 -0.12671030443E+02  0.93765380890E+01  0.22901451244E+02  0.51100000000E-03 0.  1.
        -12    1    3    3    0    0 -0.44629374383E+01 -0.12695693389E+02  0.11357821292E+02  0.17609615149E+02  0.00000000000E+00 0.  1.
</event>
<event>
 7    1  0.3062695E-010  0.4778727E+02  0.7816164E-02  0.1312668E+00
        -11   -1    0    0    0    0  0.00000000000E+00  0.00000000000E+00  0.45593999997E+02  0.45594000000E+02  0.51100000000E-03 0.  1.
         11   -1    0    0    0    0 -0.00000000000E+00 -0.00000000000E+00 -0.45593999997E+02  0.45594000000E+02  0.51100000000E-03 0. -1.
    9900012    2    1    2    0    0 -0.17509631800E+02  0.33653525445E+02 -0.21082605807E+02  0.47787271340E+02  0.20000001346E+02 0.  0.
        -12    1    1    2    0    0  0.17509631800E+02 -0.33653525445E+02  0.21082605807E+02  0.43400728660E+02  0.00000000000E+00 0.  1.
         11    1    3    3    0    0 -0.13849362361E+02  0.28904421031E+02 -0.12242750791E+02  0.34309697465E+02  0.51100000000E-03 0. -1.
        -11    1    3    3    0    0 -0.21574273087E+01 -0.17949800539E+01 -0.50236328519E+01  0.57544185873E+01  0.51100000000E-03 0.  1.
        -12    1    3    3    0    0 -0.15028421296E+01  0.65440844673E+01 -0.38162221638E+01  0.77231552869E+01  0.00000000000E+00 0.  1.
</event>
<event>
 7    1  0.3062695E-010  0.4778727E+02  0.7816164E-02  0.1312668E+00
        -11   -1    0    0    0    0  0.00000000000E+00  0.00000000000E+00  0.45593999997E+02  0.45594000000E+02  0.51100000000E-03 0. -1.
         11   -1    0    0    0    0 -0.00000000000E+00 -0.00000000000E+00 -0.45593999997E+02  0.45594000000E+02  0.51100000000E-03 0.  1.
    9900012    2    1    2    0    0  0.34305660477E+02 -0.19229756288E+02  0.18356521289E+02  0.47787265657E+02  0.19999975438E+02 0.  0.
        -12    1    1    2    0    0 -0.34305660477E+02  0.19229756288E+02 -0.18356521289E+02  0.43400734343E+02  0.00000000000E+00 0.  1.
         11    1    3    3    0    0  0.18542584117E+02 -0.29164409899E+01  0.12817404383E+02  0.22729252279E+02  0.51100000000E-03 0. -1.
        -11    1    3    3    0    0 -0.85608112258E+00 -0.30566702079E+01  0.54869833436E+00  0.32213627196E+01  0.51100000000E-03 0.  1.
         12    1    3    3    0    0  0.16619157482E+02 -0.13256645090E+02  0.49904185722E+01  0.21836650659E+02  0.00000000000E+00 0. -1.
</event>
<event>
 7    1  0.3062695E-010  0.4778726E+02  0.7816164E-02  0.1312668E+00
        -11   -1    0    0    0    0  0.00000000000E+00  0.00000000000E+00  0.45593999997E+02  0.45594000000E+02  0.51100000000E-03 0.  1.
         11   -1    0    0    0    0 -0.00000000000E+00 -0.00000000000E+00 -0.45593999997E+02  0.45594000000E+02  0.51100000000E-03 0. -1.
    9900012    2    1    2    0    0  0.27572158991E+02 -0.33493667970E+02  0.12546227340E+01  0.47787264710E+02  0.19999971119E+02 0.  0.
        -12    1    1    2    0    0 -0.27572158991E+02  0.33493667970E+02 -0.12546227340E+01  0.43400735290E+02  0.00000000000E+00 0.  1.
         11    1    3    3    0    0  0.15623699365E+02 -0.20585633536E+02 -0.38503031354E+01  0.26128396897E+02  0.51100000000E-03 0. -1.
        -11    1    3    3    0    0  0.12285080927E+02 -0.77051081591E+01  0.70113141778E+01  0.16107465098E+02  0.51100000000E-03 0.  1.
        -12    1    3    3    0    0 -0.33662130077E+00 -0.52029262747E+01 -0.19063883084E+01  0.55514027148E+01  0.00000000000E+00 0.  1.
</event>
<event>
 7    1  0.3062695E-010  0.4778727E+02  0.7816164E-02  0.1312668E+00
        -11   -1    0    0    0    0  0.00000000000E+00  0.00000000000E+00  0.45593999997E+02  0.45594000000E+02  0.51100000000E-03 0.  1.
         11   -1    0    0    0    0 -0.00000000000E+00 -0.00000000000E+00 -0.45593999997E+02  0.45594000000E+02  0.51100000000E-03 0. -1.
    9900012    2    1    2    0    0 -0.21814570823E+02  0.35492638027E+02  0.12166376770E+02  0.47787267541E+02  0.19999984025E+02 0.  0.
        -12    1    1    2    0    0  0.21814570823E+02 -0.35492638027E+02 -0.12166376770E+02  0.43400732459E+02  0.00000000000E+00 0.  1.
         11    1    3    3    0    0 -0.94399689515E+01  0.28846129534E+01  0.13882502166E+01  0.99680110665E+01  0.51100000000E-03 0. -1.
        -11    1    3    3    0    0 -0.42416941375E+01  0.22896700308E+02  0.92666418148E+01  0.25062352342E+02  0.51100000000E-03 0.  1.
        -12    1    3    3    0    0 -0.81329077339E+01  0.97113247658E+01  0.15114847390E+01  0.12756904132E+02  0.00000000000E+00 0.  1.
</event>
<event>
 7    1  0.3062695E-010  0.4778727E+02  0.7816164E-02  0.1312668E+00
        -11   -1    0    0    0    0  0.00000000000E+00  0.00000000000E+00  0.45593999997E+02  0.45594000000E+02  0.51100000000E-03 0.  1.
         11   -1    0    0    0    0 -0.00000000000E+00 -0.00000000000E+00 -0.45593999997E+02  0.45594000000E+02  0.51100000000E-03 0. -1.
    9900012    2    1    2    0    0 -0.23192516547E+02  0.18449117816E+02 -0.31707422766E+02  0.47787269241E+02  0.19999991777E+02 0.  0.
        -12    1    1    2    0    0  0.23192516547E+02 -0.18449117816E+02  0.31707422766E+02  0.43400730759E+02  0.00000000000E+00 0.  1.
         11    1    3    3    0    0 -0.11355914973E+02  0.23036537526E+01 -0.74886583129E+01  0.13796507858E+02  0.51100000000E-03 0. -1.
        -11    1    3    3    0    0 -0.27567014672E+00  0.99380572189E+01 -0.62590643811E+01  0.11748057818E+02  0.51100000000E-03 0.  1.
        -12    1    3    3    0    0 -0.11560931428E+02  0.62074068442E+01 -0.17959700072E+02  0.22242703565E+02  0.00000000000E+00 0.  1.
</event>
<event>
 7    1  0.3062695E-010  0.4778727E+02  0.7816164E-02  0.1312668E+00
        -11   -1    0    0    0    0  0.00000000000E+00  0.00000000000E+00  0.45593999997E+02  0.45594000000E+02  0.51100000000E-03 0.  1.
         11   -1    0    0    0    0 -0.00000000000E+00 -0.00000000000E+00 -0.45593999997E+02  0.45594000000E+02  0.51100000000E-03 0. -1.
    9900012    2    1    2    0    0 -0.18520180849E+02 -0.24132699251E+02 -0.30955442118E+02  0.47787266497E+02  0.19999979268E+02 0.  0.
        -12    1    1    2    0    0  0.18520180849E+02  0.24132699251E+02  0.30955442118E+02  0.43400733503E+02  0.00000000000E+00 0.  1.
         11    1    3    3    0    0 -0.18277121781E+02 -0.12627044184E+02 -0.15913689607E+02  0.27326561119E+02  0.51100000000E-03 0. -1.
        -11    1    3    3    0    0  0.17371186206E+01 -0.99901615511E+01 -0.14820438409E+02  0.17957346793E+02  0.51100000000E-03 0.  1.
        -12    1    3    3    0    0 -0.19801776885E+01 -0.15154935162E+01 -0.22131410136E+00  0.25033585854E+01  0.00000000000E+00 0.  1.
</event>
<event>
 7    1  0.3062695E-010  0.4778727E+02  0.7816164E-02  0.1312668E+00
        -11   -1    0    0    0    0  0.00000000000E+00  0.00000000000E+00  0.45593999997E+02  0.45594000000E+02  0.51100000000E-03 0.  1.
         11   -1    0    0    0    0 -0.00000000000E+00 -0.00000000000E+00 -0.45593999997E+02  0.45594000000E+02  0.51100000000E-03 0. -1.
    9900012    2    1    2    0    0 -0.38035850879E+02  0.24257698302E+01 -0.20760851340E+02  0.47787271208E+02  0.20000000745E+02 0.  0.
        -12    1    1    2    0    0  0.38035850879E+02 -0.24257698302E+01  0.20760851340E+02  0.43400728792E+02  0.00000000000E+00 0.  1.
         11    1    3    3    0    0 -0.49790010556E+01 -0.42634675291E+00 -0.11526718386E+02  0.12563337936E+02  0.51100000000E-03 0. -1.
        -11    1    3    3    0    0 -0.14109529279E+02  0.23129526731E+01 -0.37986248135E+00  0.14302896990E+02  0.51100000000E-03 0.  1.
         12    1    3    3    0    0 -0.18947320544E+02  0.53916391005E+00 -0.88542704723E+01  0.20921036282E+02  0.00000000000E+00 0. -1.
</event>
<event>
 7    1  0.3062695E-010  0.4778727E+02  0.7816164E-02  0.1312668E+00
        -11   -1    0    0    0    0  0.00000000000E+00  0.00000000000E+00  0.45593999997E+02  0.45594000000E+02  0.51100000000E-03 0. -1.
         11   -1    0    0    0    0 -0.00000000000E+00 -0.00000000000E+00 -0.45593999997E+02  0.45594000000E+02  0.51100000000E-03 0.  1.
    9900012    2    1    2    0    0  0.38702532790E+02  0.15932555685E+02  0.11484391683E+02  0.47787266972E+02  0.19999981432E+02 0.  0.
        -12    1    1    2    0    0 -0.38702532790E+02 -0.15932555685E+02 -0.11484391683E+02  0.43400733028E+02  0.00000000000E+00 0.  1.
         11    1    3    3    0    0  0.71310414740E+00  0.14734179776E+01  0.56970665154E+00  0.17332178143E+01  0.51100000000E-03 0. -1.
        -11    1    3    3    0    0  0.16281992103E+02  0.91141223049E+01  0.14213437822E+02  0.23456178445E+02  0.51100000000E-03 0.  1.
        -12    1    3    3    0    0  0.21707436540E+02  0.53450154023E+01 -0.32987527911E+01  0.22597870713E+02  0.00000000000E+00 0.  1.
</event>
<event>
 7    1  0.3062695E-010  0.4778728E+02  0.7816164E-02  0.1312668E+00
        -11   -1    0    0    0    0  0.00000000000E+00  0.00000000000E+00  0.45593999997E+02  0.45594000000E+02  0.51100000000E-03 0.  1.
         11   -1    0    0    0    0 -0.00000000000E+00 -0.00000000000E+00 -0.45593999997E+02  0.45594000000E+02  0.51100000000E-03 0. -1.
    9900012    2    1    2    0    0 -0.18356383715E+02 -0.24121649208E+02 -0.31061414287E+02  0.47787282942E+02  0.20000054246E+02 0.  0.
        -12    1    1    2    0    0  0.18356383715E+02  0.24121649208E+02  0.31061414287E+02  0.43400717058E+02  0.00000000000E+00 0.  1.
         11    1    3    3    0    0 -0.87004495605E+01 -0.11964837280E+02 -0.20268022084E+02  0.25092785281E+02  0.51100000000E-03 0. -1.
        -11    1    3    3    0    0 -0.27455721758E+01 -0.76939367291E+01  0.10900981868E+01  0.82415498106E+01  0.51100000000E-03 0.  1.
        -12    1    3    3    0    0 -0.69103619784E+01 -0.44628751995E+01 -0.11883490390E+02  0.14452947851E+02  0.00000000000E+00 0.  1.
</event>
<event>
 7    1  0.3062695E-010  0.4778727E+02  0.7816164E-02  0.1312668E+00
        -11   -1    0    0    0    0  0.00000000000E+00  0.00000000000E+00  0.45593999997E+02  0.45594000000E+02  0.51100000000E-03 0.  1.
         11   -1    0    0    0    0 -0.00000000000E+00 -0.00000000000E+00 -0.45593999997E+02  0.45594000000E+02  0.51100000000E-03 0. -1.
    9900012    2    1    2    0    0  0.14985472714E+02  0.26615664811E+02 -0.30832855700E+02  0.47787274241E+02  0.20000014574E+02 0.  0.
        -12    1    1    2    0    0 -0.14985472714E+02 -0.26615664811E+02  0.30832855700E+02  0.43400725759E+02  0.00000000000E+00 0.  1.
         11    1    3    3    0    0  0.89177214028E+01  0.37778374966E+01 -0.91122016008E+01  0.13297745277E+02  0.51100000000E-03 0. -1.
        -11    1    3    3    0    0  0.62561845758E+01  0.24409036322E+02 -0.20205393156E+02  0.32298588398E+02  0.51100000000E-03 0.  1.
        -12    1    3    3    0    0 -0.18843326469E+00 -0.15712090078E+01 -0.15152609431E+01  0.21909405667E+01  0.00000000000E+00 0.  1.
</event>
<event>
 7    1  0.3062695E-010  0.4778727E+02  0.7816164E-02  0.1312668E+00
        -11   -1    0    0    0    0  0.00000000000E+00  0.00000000000E+00  0.45593999997E+02  0.45594000000E+02  0.51100000000E-03 0.  1.
         11   -1    0    0    0    0 -0.00000000000E+00 -0.00000000000E+00 -0.45593999997E+02  0.45594000000E+02  0.51100000000E-03 0. -1.
    9900012    2    1    2    0    0 -0.15528190701E+02  0.16766027506E+02 -0.36897139260E+02  0.47787271085E+02  0.20000000185E+02 0.  0.
        -12    1    1    2    0    0  0.15528190701E+02 -0.16766027506E+02  0.36897139260E+02  0.43400728915E+02  0.00000000000E+00 0.  1.
         11    1    3    3    0    0 -0.16677258344E+02  0.13404446731E+02 -0.20684848539E+02  0.29760260371E+02  0.51100000000E-03 0. -1.
        -11    1    3    3    0    0  0.33794347109E+01  0.37889129034E+01 -0.77471190882E+01  0.92625209518E+01  0.51100000000E-03 0.  1.
         12    1    3    3    0    0 -0.22303670680E+01 -0.42733212910E+00 -0.84651716331E+01  0.87644897618E+01  0.00000000000E+00 0. -1.
</event>
<event>
 7    1  0.3062695E-010  0.4778727E+02  0.7816164E-02  0.1312668E+00
        -11   -1    0    0    0    0  0.00000000000E+00  0.00000000000E+00  0.45593999997E+02  0.45594000000E+02  0.51100000000E-03 0.  1.
         11   -1    0    0    0    0 -0.00000000000E+00 -0.00000000000E+00 -0.45593999997E+02  0.45594000000E+02  0.51100000000E-03 0. -1.
    9900012    2    1    2    0    0 -0.21117310285E+02  0.29530647825E+01 -0.37801613169E+02  0.47787270243E+02  0.19999996347E+02 0.  0.
        -12    1    1    2    0    0  0.21117310285E+02 -0.29530647825E+01  0.37801613169E+02  0.43400729757E+02  0.00000000000E+00 0.  1.
         11    1    3    3    0    0 -0.23518183824E+01  0.53166133427E+01 -0.20622845458E+02  0.21426599875E+02  0.51100000000E-03 0. -1.
        -11    1    3    3    0    0  0.31448142580E+00  0.50002164852E+00 -0.11080626668E+00  0.60099792514E+00  0.51100000000E-03 0.  1.
         12    1    3    3    0    0 -0.19079973328E+02 -0.28635702087E+01 -0.17067961444E+02  0.25759672443E+02  0.00000000000E+00 0. -1.
</event>
<event>
 7    1  0.3062695E-010  0.4778727E+02  0.7816164E-02  0.1312668E+00
        -11   -1    0    0    0    0  0.00000000000E+00  0.00000000000E+00  0.45593999997E+02  0.45594000000E+02  0.51100000000E-03 0. -1.
         11   -1    0    0    0    0 -0.00000000000E+00 -0.00000000000E+00 -0.45593999997E+02  0.45594000000E+02  0.51100000000E-03 0.  1.
    9900012    2    1    2    0    0  0.41610164000E+02 -0.13705767830E+01 -0.12261275779E+02  0.47787272903E+02  0.20000008472E+02 0.  0.
        -12    1    1    2    0    0 -0.41610164000E+02  0.13705767830E+01  0.12261275779E+02  0.43400727097E+02  0.00000000000E+00 0.  1.
         11    1    3    3    0    0  0.19011731810E+02 -0.75563761183E+01 -0.60804038439E+01  0.21342822626E+02  0.51100000000E-03 0. -1.
        -11    1    3    3    0    0  0.14971497158E+02  0.57754533785E+01 -0.88843866286E+01  0.18342134961E+02  0.51100000000E-03 0.  1.
        -12    1    3    3    0    0  0.76269350317E+01  0.41034595682E+00  0.27035146938E+01  0.81023153161E+01  0.00000000000E+00 0.  1.
</event>
<event>
 7    1  0.3062695E-010  0.4778727E+02  0.7816164E-02  0.1312668E+00
        -11   -1    0    0    0    0  0.00000000000E+00  0.00000000000E+00  0.45593999997E+02  0.45594000000E+02  0.51100000000E-03 0.  1.
         11   -1    0    0    0    0 -0.00000000000E+00 -0.00000000000E+00 -0.45593999997E+02  0.45594000000E+02  0.51100000000E-03 0. -1.
    9900012    2    1    2    0    0  0.25170582886E+02 -0.29626690814E+02 -0.19295707768E+02  0.47787269710E+02  0.19999993917E+02 0.  0.
        -12    1    1    2    0    0 -0.25170582886E+02  0.29626690814E+02  0.19295707768E+02  0.43400730290E+02  0.00000000000E+00 0.  1.
         11    1    3    3    0    0  0.56624541218E+00 -0.22697720046E+01 -0.36128975244E+01  0.43041291341E+01  0.51100000000E-03 0. -1.
        -11    1    3    3    0    0  0.15855268986E+02 -0.15458092861E+02 -0.17995700095E+02  0.28533969435E+02  0.51100000000E-03 0.  1.
        -12    1    3    3    0    0  0.87490684881E+01 -0.11898825948E+02  0.23128898515E+01  0.14949171141E+02  0.00000000000E+00 0.  1.
</event>
<event>
 7    1  0.3062695E-010  0.4778727E+02  0.7816164E-02  0.1312668E+00
        -11   -1    0    0    0    0  0.00000000000E+00  0.00000000000E+00  0.45593999997E+02  0.45594000000E+02  0.51100000000E-03 0. -1.
         11   -1    0    0    0    0 -0.00000000000E+00 -0.00000000000E+00 -0.45593999997E+02  0.45594000000E+02  0.51100000000E-03 0.  1.
    9900012    2    1    2    0    0  0.37542983780E+02  0.19542898520E+02  0.96032678926E+01  0.47787271113E+02  0.20000000312E+02 0.  0.
        -12    1    1    2    0    0 -0.37542983780E+02 -0.19542898520E+02 -0.96032678926E+01  0.43400728887E+02  0.00000000000E+00 0.  1.
         11    1    3    3    0    0  0.17966179167E+02  0.25519324912E+01  0.69147932184E+00  0.18159683290E+02  0.51100000000E-03 0. -1.
        -11    1    3    3    0    0  0.14107382316E+01  0.77437200419E+01  0.24488260345E+01  0.82433082954E+01  0.51100000000E-03 0.  1.
         12    1    3    3    0    0  0.18166066382E+02  0.92472459874E+01  0.64629625362E+01  0.21384279527E+02  0.00000000000E+00 0. -1.
</event>
<event>
 7    1  0.3062695E-010  0.4778727E+02  0.7816164E-02  0.1312668E+00
        -11   -1    0    0    0    0  0.00000000000E+00  0.00000000000E+00  0.45593999997E+02  0.45594000000E+02  0.51100000000E-03 0.  1.
         11   -1    0    0    0    0 -0.00000000000E+00 -0.00000000000E+00 -0.45593999997E+02  0.45594000000E+02  0.51100000000E-03 0. -1.
    9900012    2    1    2    0    0 -0.29243663030E+02 -0.30399599312E+02 -0.10212522840E+02  0.47787273181E+02  0.20000009739E+02 0.  0.
        -12    1    1    2    0    0  0.29243663030E+02  0.30399599312E+02  0.10212522840E+02  0.43400726819E+02  0.00000000000E+00 0.  1.
         11    1    3    3    0    0 -0.18057270306E+02 -0.13253295743E+02 -0.10159579311E+02  0.24595363607E+02  0.51100000000E-03 0. -1.
        -11    1    3    3    0    0 -0.48757438348E+01 -0.10705665413E+02  0.50829355199E+01  0.12814850122E+02  0.51100000000E-03 0.  1.
        -12    1    3    3    0    0 -0.63106488892E+01 -0.64406381552E+01 -0.51358790499E+01  0.10377059452E+02  0.00000000000E+00 0.  1.
</event>
<event>
 7    1  0.3062695E-010  0.4778727E+02  0.7816164E-02  0.1312668E+00
        -11   -1    0    0    0    0  0.00000000000E+00  0.00000000000E+00  0.45593999997E+02  0.45594000000E+02  0.51100000000E-03 0. -1.
         11   -1    0    0    0    0 -0.00000000000E+00 -0.00000000000E+00 -0.45593999997E+02  0.45594000000E+02  0.51100000000E-03 0.  1.
    9900012    2    1    2    0    0  0.13811294583E+02  0.18240234686E+02  0.36880415272E+02  0.47787273623E+02  0.20000011755E+02 0.  0.
        -12    1    1    2    0    0 -0.13811294583E+02 -0.18240234686E+02 -0.36880415272E+02  0.43400726377E+02  0.00000000000E+00 0.  1.
         11    1    3    3    0    0  0.14683340277E+02  0.17387029904E+02  0.26314194214E+02  0.34790028859E+02  0.51100000000E-03 0. -1.
        -11    1    3    3    0    0 -0.29941561816E+00  0.39621272696E+01  0.36612504336E+01  0.54030414779E+01  0.51100000000E-03 0.  1.
         12    1    3    3    0    0 -0.57263007554E+00 -0.31089224875E+01  0.69049706237E+01  0.75942032861E+01  0.00000000000E+00 0. -1.
</event>
<event>
 7    1  0.3062695E-010  0.4778727E+02  0.7816164E-02  0.1312668E+00
        -11   -1    0    0    0    0  0.00000000000E+00  0.00000000000E+00  0.45593999997E+02  0.45594000000E+02  0.51100000000E-03 0.  1.
         11   -1    0    0    0    0 -0.00000000000E+00 -0.00000000000E+00 -0.45593999997E+02  0.45594000000E+02  0.51100000000E-03 0. -1.
    9900012    2    1    2    0    0  0.28833685770E+02  0.18437584772E+02 -0.26688903120E+02  0.47787268243E+02  0.19999987226E+02 0.  0.
        -12    1    1    2    0    0 -0.28833685770E+02 -0.18437584772E+02  0.26688903120E+02  0.43400731757E+02  0.00000000000E+00 0.  1.
         11    1    3    3    0    0  0.63865872888E+00  0.60089680465E+01 -0.88241726603E+01  0.10694933630E+02  0.51100000000E-03 0. -1.
        -11    1    3    3    0    0  0.22830187912E+02  0.79427623355E+01 -0.17934162161E+02  0.30098822672E+02  0.51100000000E-03 0.  1.
        -12    1    3    3    0    0  0.53648391295E+01  0.44858543902E+01  0.69431700993E-01  0.69935119401E+01  0.00000000000E+00 0.  1.
</event>
<event>
 7    1  0.3062695E-010  0.4778727E+02  0.7816164E-02  0.1312668E+00
        -11   -1    0    0    0    0  0.00000000000E+00  0.00000000000E+00  0.45593999997E+02  0.45594000000E+02  0.51100000000E-03 0.  1.
         11   -1    0    0    0    0 -0.00000000000E+00 -0.00000000000E+00 -0.45593999997E+02  0.45594000000E+02  0.51100000000E-03 0. -1.
    9900012    2    1    2    0    0 -0.36464496505E+02  0.23353588978E+02  0.29280643082E+01  0.47787272078E+02  0.20000004714E+02 0.  0.
        -12    1    1    2    0    0  0.36464496505E+02 -0.23353588978E+02 -0.29280643082E+01  0.43400727922E+02  0.00000000000E+00 0.  1.
         11    1    3    3    0    0 -0.13180045726E+02  0.16008545557E+02 -0.24615026277E+00  0.20737592107E+02  0.51100000000E-03 0. -1.
        -11    1    3    3    0    0 -0.15463575767E+02 -0.90965219143E+00  0.19567686161E+01  0.15613410463E+02  0.51100000000E-03 0.  1.
        -12    1    3    3    0    0 -0.78208750125E+01  0.82546956121E+01  0.12174459549E+01  0.11436269508E+02  0.00000000000E+00 0.  1.
</event>
<event>
 7    1  0.3062695E-010  0.4778728E+02  0.7816164E-02  0.1312668E+00
        -11   -1    0    0    0    0  0.00000000000E+00  0.00000000000E+00  0.45593999997E+02  0.45594000000E+02  0.51100000000E-03 0. -1.
         11   -1    0    0    0    0 -0.00000000000E+00 -0.00000000000E+00 -0.45593999997E+02  0.45594000000E+02  0.51100000000E-03 0.  1.
    9900012    2    1    2    0    0  0.13200136269E+02 -0.40570589226E+02  0.79628274622E+01  0.47787275019E+02  0.20000018122E+02 0.  0.
        -12    1    1    2    0    0 -0.13200136269E+02  0.40570589226E+02 -0.79628274622E+01  0.43400724981E+02  0.00000000000E+00 0.  1.
         11    1    3    3    0    0  0.75581003387E+01 -0.88510387706E+01  0.31432454505E+01  0.12055942944E+02  0.51100000000E-03 0. -1.
        -11    1    3    3    0    0  0.35330338556E+01 -0.31712905959E+02  0.16853358990E+01  0.31953577107E+02  0.51100000000E-03 0.  1.
        -12    1    3    3    0    0  0.21090020747E+01 -0.66444962399E-02  0.31342461127E+01  0.37777549676E+01  0.00000000000E+00 0.  1.
</event>
<event>
 7    1  0.3062695E-010  0.4778727E+02  0.7816164E-02  0.1312668E+00
        -11   -1    0    0    0    0  0.00000000000E+00  0.00000000000E+00  0.45593999997E+02  0.45594000000E+02  0.51100000000E-03 0. -1.
         11   -1    0    0    0    0 -0.00000000000E+00 -0.00000000000E+00 -0.45593999997E+02  0.45594000000E+02  0.51100000000E-03 0.  1.
    9900012    2    1    2    0    0 -0.10503300568E+02 -0.36609736030E+02  0.20809394105E+02  0.47787274453E+02  0.20000015540E+02 0.  0.
        -12    1    1    2    0    0  0.10503300568E+02  0.36609736030E+02 -0.20809394105E+02  0.43400725547E+02  0.00000000000E+00 0.  1.
         11    1    3    3    0    0 -0.76668094485E+01 -0.28775618495E+02  0.86376236561E+01  0.31006849720E+02  0.51100000000E-03 0. -1.
        -11    1    3    3    0    0  0.18468170577E+01 -0.91033038793E+00  0.61300953867E+01  0.64666455269E+01  0.51100000000E-03 0.  1.
        -12    1    3    3    0    0 -0.46833081772E+01 -0.69237871471E+01  0.60416750623E+01  0.10313779206E+02  0.00000000000E+00 0.  1.
</event>
<event>
 7    1  0.3062695E-010  0.4778727E+02  0.7816164E-02  0.1312668E+00
        -11   -1    0    0    0    0  0.00000000000E+00  0.00000000000E+00  0.45593999997E+02  0.45594000000E+02  0.51100000000E-03 0.  1.
         11   -1    0    0    0    0 -0.00000000000E+00 -0.00000000000E+00 -0.45593999997E+02  0.45594000000E+02  0.51100000000E-03 0. -1.
    9900012    2    1    2    0    0  0.43308645771E+02  0.23207465788E+01 -0.16120313769E+01  0.47787270647E+02  0.19999998189E+02 0.  0.
        -12    1    1    2    0    0 -0.43308645771E+02 -0.23207465788E+01  0.16120313769E+01  0.43400729353E+02  0.00000000000E+00 0.  1.
         11    1    3    3    0    0  0.11143587051E+02  0.16860967067E+01 -0.78397367017E+01  0.13728944835E+02  0.51100000000E-03 0. -1.
        -11    1    3    3    0    0  0.42333306249E+01 -0.17386961409E+01 -0.17708582869E+01  0.49071470106E+01  0.51100000000E-03 0.  1.
         12    1    3    3    0    0  0.27931728095E+02  0.23733460130E+01  0.79985636118E+01  0.29151178802E+02  0.00000000000E+00 0. -1.
</event>
<event>
 7    1  0.3062695E-010  0.4778727E+02  0.7816164E-02  0.1312668E+00
        -11   -1    0    0    0    0  0.00000000000E+00  0.00000000000E+00  0.45593999997E+02  0.45594000000E+02  0.51100000000E-03 0. -1.
         11   -1    0    0    0    0 -0.00000000000E+00 -0.00000000000E+00 -0.45593999997E+02  0.45594000000E+02  0.51100000000E-03 0.  1.
    9900012    2    1    2    0    0 -0.42895232755E+02  0.65638945962E+01  0.73321585002E+00  0.47787270618E+02  0.19999998057E+02 0.  0.
        -12    1    1    2    0    0  0.42895232755E+02 -0.65638945962E+01 -0.73321585002E+00  0.43400729382E+02  0.00000000000E+00 0.  1.
         11    1    3    3    0    0 -0.31149731174E+02  0.16238242487E+01 -0.69156061981E+01  0.31949462699E+02  0.51100000000E-03 0. -1.
        -11    1    3    3    0    0 -0.45321402514E+01  0.48669636024E+01  0.38650313517E+01  0.76919501803E+01  0.51100000000E-03 0.  1.
         12    1    3    3    0    0 -0.72133613293E+01  0.73106745011E-01  0.37837906964E+01  0.81458577386E+01  0.00000000000E+00 0. -1.
</event>
<event>
 7    1  0.3062695E-010  0.4778725E+02  0.7816164E-02  0.1312668E+00
        -11   -1    0    0    0    0  0.00000000000E+00  0.00000000000E+00  0.45593999997E+02  0.45594000000E+02  0.51100000000E-03 0.  1.
         11   -1    0    0    0    0 -0.00000000000E+00 -0.00000000000E+00 -0.45593999997E+02  0.45594000000E+02  0.51100000000E-03 0. -1.
    9900012    2    1    2    0    0 -0.34135651592E+02 -0.26258505632E+02 -0.53734133439E+01  0.47787246567E+02  0.19999888396E+02 0.  0.
        -12    1    1    2    0    0  0.34135651592E+02  0.26258505632E+02  0.53734133439E+01  0.43400753433E+02  0.00000000000E+00 0.  1.
         11    1    3    3    0    0 -0.30552825924E+02 -0.19693608645E+02 -0.11484843902E+02  0.38121057607E+02  0.51100000000E-03 0. -1.
        -11    1    3    3    0    0 -0.22062965184E+01 -0.36952883683E+01  0.33889504479E+01  0.54779454043E+01  0.51100000000E-03 0.  1.
         12    1    3    3    0    0 -0.13765291495E+01 -0.28696086189E+01  0.27224801106E+01  0.41882435552E+01  0.00000000000E+00 0. -1.
</event>
<event>
 7    1  0.3062695E-010  0.4778727E+02  0.7816164E-02  0.1312668E+00
        -11   -1    0    0    0    0  0.00000000000E+00  0.00000000000E+00  0.45593999997E+02  0.45594000000E+02  0.51100000000E-03 0.  1.
         11   -1    0    0    0    0 -0.00000000000E+00 -0.00000000000E+00 -0.45593999997E+02  0.45594000000E+02  0.51100000000E-03 0. -1.
    9900012    2    1    2    0    0  0.92720572758E+00  0.10102376716E+02 -0.42198407758E+02  0.47787270247E+02  0.19999996365E+02 0.  0.
        -12    1    1    2    0    0 -0.92720572758E+00 -0.10102376716E+02  0.42198407758E+02  0.43400729753E+02  0.00000000000E+00 0.  1.
         11    1    3    3    0    0  0.31392088459E+01  0.29954353087E+01 -0.12634069018E+02  0.13358404287E+02  0.51100000000E-03 0. -1.
        -11    1    3    3    0    0  0.29724248684E+01 -0.42298669658E+01 -0.82070676798E+01  0.96996414525E+01  0.51100000000E-03 0.  1.
        -12    1    3    3    0    0 -0.51844279867E+01  0.11336808373E+02 -0.21357271060E+02  0.24729224508E+02  0.00000000000E+00 0.  1.
</event>
<event>
 7    1  0.3062695E-010  0.4778727E+02  0.7816164E-02  0.1312668E+00
        -11   -1    0    0    0    0  0.00000000000E+00  0.00000000000E+00  0.45593999997E+02  0.45594000000E+02  0.51100000000E-03 0.  1.
         11   -1    0    0    0    0 -0.00000000000E+00 -0.00000000000E+00 -0.45593999997E+02  0.45594000000E+02  0.51100000000E-03 0. -1.
    9900012    2    1    2    0    0  0.34485458966E+02 -0.26031689929E+02  0.40899280506E+01  0.47787271064E+02  0.20000000091E+02 0.  0.
        -12    1    1    2    0    0 -0.34485458966E+02  0.26031689929E+02 -0.40899280506E+01  0.43400728936E+02  0.00000000000E+00 0.  1.
         11    1    3    3    0    0  0.17455165728E+02 -0.12256488205E+02 -0.17203361055E+01  0.21397753861E+02  0.51100000000E-03 0. -1.
        -11    1    3    3    0    0  0.70375737736E-01  0.11879009694E+01 -0.21127342904E+01  0.24248109000E+01  0.51100000000E-03 0.  1.
        -12    1    3    3    0    0  0.16959917501E+02 -0.14963102693E+02  0.79229984465E+01  0.23964706303E+02  0.00000000000E+00 0.  1.
</event>
<event>
 7    1  0.3062695E-010  0.4778727E+02  0.7816164E-02  0.1312668E+00
        -11   -1    0    0    0    0  0.00000000000E+00  0.00000000000E+00  0.45593999997E+02  0.45594000000E+02  0.51100000000E-03 0.  1.
         11   -1    0    0    0    0 -0.00000000000E+00 -0.00000000000E+00 -0.45593999997E+02  0.45594000000E+02  0.51100000000E-03 0. -1.
    9900012    2    1    2    0    0  0.82045966118E+01  0.19382255431E+02 -0.37955710344E+02  0.47787272139E+02  0.20000004988E+02 0.  0.
        -12    1    1    2    0    0 -0.82045966118E+01 -0.19382255431E+02  0.37955710344E+02  0.43400727861E+02  0.00000000000E+00 0.  1.
         11    1    3    3    0    0  0.51175938230E+01  0.12617760040E+02 -0.25645692254E+02  0.29036169968E+02  0.51100000000E-03 0. -1.
        -11    1    3    3    0    0 -0.41050124254E+01  0.10558075194E+00 -0.52821297388E+01  0.66905283160E+01  0.51100000000E-03 0.  1.
        -12    1    3    3    0    0  0.71920152143E+01  0.66589146396E+01 -0.70278883511E+01  0.12060573854E+02  0.00000000000E+00 0.  1.
</event>
<event>
 7    1  0.3062695E-010  0.4778727E+02  0.7816164E-02  0.1312668E+00
        -11   -1    0    0    0    0  0.00000000000E+00  0.00000000000E+00  0.45593999997E+02  0.45594000000E+02  0.51100000000E-03 0.  1.
         11   -1    0    0    0    0 -0.00000000000E+00 -0.00000000000E+00 -0.45593999997E+02  0.45594000000E+02  0.51100000000E-03 0. -1.
    9900012    2    1    2    0    0  0.17001310337E+02 -0.38957329753E+02 -0.87695430539E+01  0.47787274430E+02  0.20000015437E+02 0.  0.
        -12    1    1    2    0    0 -0.17001310337E+02  0.38957329753E+02  0.87695430539E+01  0.43400725570E+02  0.00000000000E+00 0.  1.
         11    1    3    3    0    0  0.17651825267E+02 -0.32743745886E+02 -0.38473099138E+01  0.37397080418E+02  0.51100000000E-03 0. -1.
        -11    1    3    3    0    0 -0.11708005040E+01  0.59845884126E+00 -0.30270826465E+01  0.33003267133E+01  0.51100000000E-03 0.  1.
         12    1    3    3    0    0  0.52028557385E+00 -0.68120427074E+01 -0.18951504936E+01  0.70898672992E+01  0.00000000000E+00 0. -1.
</event>
<event>
 7    1  0.3062695E-010  0.4778730E+02  0.7816164E-02  0.1312668E+00
        -11   -1    0    0    0    0  0.00000000000E+00  0.00000000000E+00  0.45593999997E+02  0.45594000000E+02  0.51100000000E-03 0. -1.
         11   -1    0    0    0    0 -0.00000000000E+00 -0.00000000000E+00 -0.45593999997E+02  0.45594000000E+02  0.51100000000E-03 0.  1.
    9900012    2    1    2    0    0  0.28235954473E+02 -0.32175594052E+02  0.71472131869E+01  0.47787301458E+02  0.20000138667E+02 0.  0.
        -12    1    1    2    0    0 -0.28235954473E+02  0.32175594052E+02 -0.71472131869E+01  0.43400698542E+02  0.00000000000E+00 0.  1.
         11    1    3    3    0    0  0.10180227548E+02 -0.14582475770E+02  0.20944133809E+01  0.17907322530E+02  0.51100000000E-03 0. -1.
        -11    1    3    3    0    0 -0.35010509865E+00  0.23123115927E+01  0.42167626891E+00  0.23763774151E+01  0.51100000000E-03 0.  1.
        -12    1    3    3    0    0  0.18405832024E+02 -0.19905429875E+02  0.46311235371E+01  0.27503601513E+02  0.00000000000E+00 0.  1.
</event>
<event>
 7    1  0.3062695E-010  0.4778728E+02  0.7816164E-02  0.1312668E+00
        -11   -1    0    0    0    0  0.00000000000E+00  0.00000000000E+00  0.45593999997E+02  0.45594000000E+02  0.51100000000E-03 0.  1.
         11   -1    0    0    0    0 -0.00000000000E+00 -0.00000000000E+00 -0.45593999997E+02  0.45594000000E+02  0.51100000000E-03 0. -1.
    9900012    2    1    2    0    0  0.16543552675E+02 -0.26977873399E+02 -0.29700631880E+02  0.47787282007E+02  0.20000049982E+02 0.  0.
        -12    1    1    2    0    0 -0.16543552675E+02  0.26977873399E+02  0.29700631880E+02  0.43400717993E+02  0.00000000000E+00 0.  1.
         11    1    3    3    0    0  0.19612064743E+02 -0.16284007287E+02 -0.15938747328E+02  0.30064025736E+02  0.51100000000E-03 0. -1.
        -11    1    3    3    0    0 -0.15377906549E+01 -0.40461815268E+01 -0.58349301208E+01  0.72651768610E+01  0.51100000000E-03 0.  1.
         12    1    3    3    0    0 -0.15307214131E+01 -0.66476845858E+01 -0.79269544309E+01  0.10458079410E+02  0.00000000000E+00 0. -1.
</event>
<event>
 7    1  0.3062695E-010  0.4778727E+02  0.7816164E-02  0.1312668E+00
        -11   -1    0    0    0    0  0.00000000000E+00  0.00000000000E+00  0.45593999997E+02  0.45594000000E+02  0.51100000000E-03 0.  1.
         11   -1    0    0    0    0 -0.00000000000E+00 -0.00000000000E+00 -0.45593999997E+02  0.45594000000E+02  0.51100000000E-03 0. -1.
    9900012    2    1    2    0    0  0.60957750340E+01  0.34826434127E+01 -0.42829148199E+02  0.47787271736E+02  0.20000003154E+02 0.  0.
        -12    1    1    2    0    0 -0.60957750340E+01 -0.34826434127E+01  0.42829148199E+02  0.43400728264E+02  0.00000000000E+00 0.  1.
         11    1    3    3    0    0  0.30345532217E+01 -0.78806215413E+00 -0.30867801027E+02  0.31026612701E+02  0.51100000000E-03 0. -1.
        -11    1    3    3    0    0 -0.23061432299E+01  0.35323740374E+01 -0.71688463227E+00  0.42790053487E+01  0.51100000000E-03 0.  1.
         12    1    3    3    0    0  0.53673650422E+01  0.73833152945E+00 -0.11244462540E+02  0.12481653686E+02  0.00000000000E+00 0. -1.
</event>
<event>
 7    1  0.3062695E-010  0.4778728E+02  0.7816164E-02  0.1312668E+00
        -11   -1    0    0    0    0  0.00000000000E+00  0.00000000000E+00  0.45593999997E+02  0.45594000000E+02  0.51100000000E-03 0.  1.
         11   -1    0    0    0    0 -0.00000000000E+00 -0.00000000000E+00 -0.45593999997E+02  0.45594000000E+02  0.51100000000E-03 0. -1.
    9900012    2    1    2    0    0  0.83549144982E+01 -0.38275708804E+02 -0.18675873897E+02  0.47787277120E+02  0.20000027701E+02 0.  0.
        -12    1    1    2    0    0 -0.83549144982E+01  0.38275708804E+02  0.18675873897E+02  0.43400722880E+02  0.00000000000E+00 0.  1.
         11    1    3    3    0    0  0.12777418472E+01 -0.28751963372E+02 -0.15710008206E+02  0.32788906356E+02  0.51100000000E-03 0. -1.
        -11    1    3    3    0    0 -0.71239323726E+00 -0.39439917007E+01  0.16848263427E+01  0.43475527283E+01  0.51100000000E-03 0.  1.
         12    1    3    3    0    0  0.77895658882E+01 -0.55797537313E+01 -0.46506920341E+01  0.10650818036E+02  0.00000000000E+00 0. -1.
</event>
<event>
 7    1  0.3062695E-010  0.4778727E+02  0.7816164E-02  0.1312668E+00
        -11   -1    0    0    0    0  0.00000000000E+00  0.00000000000E+00  0.45593999997E+02  0.45594000000E+02  0.51100000000E-03 0. -1.
         11   -1    0    0    0    0 -0.00000000000E+00 -0.00000000000E+00 -0.45593999997E+02  0.45594000000E+02  0.51100000000E-03 0.  1.
    9900012    2    1    2    0    0  0.21319421244E+01  0.37992002056E+02  0.20873091971E+02  0.47787269984E+02  0.19999995166E+02 0.  0.
        -12    1    1    2    0    0 -0.21319421244E+01 -0.37992002056E+02 -0.20873091971E+02  0.43400730016E+02  0.00000000000E+00 0.  1.
         11    1    3    3    0    0  0.53081424837E+01  0.36822196494E+01  0.71233657826E+01  0.96165200831E+01  0.51100000000E-03 0. -1.
        -11    1    3    3    0    0  0.87125268324E+00  0.14387764664E+02  0.16371726541E+01  0.14506797987E+02  0.51100000000E-03 0.  1.
         12    1    3    3    0    0 -0.40474530426E+01  0.19922017742E+02  0.12112553535E+02  0.23663951914E+02  0.00000000000E+00 0. -1.
</event>
<event>
 7    1  0.3062695E-010  0.4778727E+02  0.7816164E-02  0.1312668E+00
        -11   -1    0    0    0    0  0.00000000000E+00  0.00000000000E+00  0.45593999997E+02  0.45594000000E+02  0.51100000000E-03 0. -1.
         11   -1    0    0    0    0 -0.00000000000E+00 -0.00000000000E+00 -0.45593999997E+02  0.45594000000E+02  0.51100000000E-03 0.  1.
    9900012    2    1    2    0    0  0.17336680896E+02 -0.38183205810E+02  0.11185050639E+02  0.47787273414E+02  0.20000010802E+02 0.  0.
        -12    1    1    2    0    0 -0.17336680896E+02  0.38183205810E+02 -0.11185050639E+02  0.43400726586E+02  0.00000000000E+00 0.  1.
         11    1    3    3    0    0  0.20432791500E+02 -0.34136811684E+02  0.56395556642E+01  0.40182402476E+02  0.51100000000E-03 0. -1.
        -11    1    3    3    0    0 -0.19440839836E+01 -0.33034215078E+01  0.40598469887E+01  0.55834052358E+01  0.51100000000E-03 0.  1.
         12    1    3    3    0    0 -0.11520266198E+01 -0.74297261813E+00  0.14856479858E+01  0.20214657013E+01  0.00000000000E+00 0. -1.
</event>
<event>
 7    1  0.3062695E-010  0.4778727E+02  0.7816164E-02  0.1312668E+00
        -11   -1    0    0    0    0  0.00000000000E+00  0.00000000000E+00  0.45593999997E+02  0.45594000000E+02  0.51100000000E-03 0. -1.
         11   -1    0    0    0    0 -0.00000000000E+00 -0.00000000000E+00 -0.45593999997E+02  0.45594000000E+02  0.51100000000E-03 0.  1.
    9900012    2    1    2    0    0 -0.40623987004E+02  0.14580509938E+02  0.45523199914E+01  0.47787271810E+02  0.20000003489E+02 0.  0.
        -12    1    1    2    0    0  0.40623987004E+02 -0.14580509938E+02 -0.45523199914E+01  0.43400728190E+02  0.00000000000E+00 0.  1.
         11    1    3    3    0    0 -0.81603091607E+01  0.79115159213E+01  0.77844851645E+01  0.13776100294E+02  0.51100000000E-03 0.  1.
        -11    1    3    3    0    0 -0.32326418381E+02  0.57703676135E+01 -0.35924722757E+01  0.33033321435E+02  0.51100000000E-03 0. -1.
         12    1    3    3    0    0 -0.13725946283E+00  0.89862640288E+00  0.36030710268E+00  0.97785008070E+00  0.00000000000E+00 0. -1.
</event>
<event>
 7    1  0.3062695E-010  0.4778727E+02  0.7816164E-02  0.1312668E+00
        -11   -1    0    0    0    0  0.00000000000E+00  0.00000000000E+00  0.45593999997E+02  0.45594000000E+02  0.51100000000E-03 0.  1.
         11   -1    0    0    0    0 -0.00000000000E+00 -0.00000000000E+00 -0.45593999997E+02  0.45594000000E+02  0.51100000000E-03 0. -1.
    9900012    2    1    2    0    0  0.12101901947E+01  0.25264363797E+02 -0.35268550733E+02  0.47787270637E+02  0.19999998145E+02 0.  0.
        -12    1    1    2    0    0 -0.12101901947E+01 -0.25264363797E+02  0.35268550733E+02  0.43400729363E+02  0.00000000000E+00 0.  1.
         11    1    3    3    0    0  0.20662109940E+01  0.16669102825E+02 -0.30336677637E+02  0.34676248747E+02  0.51100000000E-03 0. -1.
        -11    1    3    3    0    0 -0.16221092843E+01  0.47764693244E+01  0.17814015865E+01  0.53496999552E+01  0.51100000000E-03 0.  1.
        -12    1    3    3    0    0  0.76608848509E+00  0.38187916474E+01 -0.67132746826E+01  0.77613219349E+01  0.00000000000E+00 0.  1.
</event>
<event>
 7    1  0.3062695E-010  0.4778727E+02  0.7816164E-02  0.1312668E+00
        -11   -1    0    0    0    0  0.00000000000E+00  0.00000000000E+00  0.45593999997E+02  0.45594000000E+02  0.51100000000E-03 0.  1.
         11   -1    0    0    0    0 -0.00000000000E+00 -0.00000000000E+00 -0.45593999997E+02  0.45594000000E+02  0.51100000000E-03 0. -1.
    9900012    2    1    2    0    0  0.24011101933E+02  0.15819993005E+02 -0.32508744158E+02  0.47787266810E+02  0.19999980694E+02 0.  0.
        -12    1    1    2    0    0 -0.24011101933E+02 -0.15819993005E+02  0.32508744158E+02  0.43400733190E+02  0.00000000000E+00 0.  1.
         11    1    3    3    0    0  0.14572078231E+02  0.80770964579E+00 -0.18662771747E+02  0.23691705476E+02  0.51100000000E-03 0.  1.
        -11    1    3    3    0    0 -0.15435058733E+00  0.12221586302E+01  0.10689733492E+01  0.16310119875E+01  0.51100000000E-03 0. -1.
         12    1    3    3    0    0  0.95933742888E+01  0.13790124729E+02 -0.14914945760E+02  0.22464549346E+02  0.00000000000E+00 0. -1.
</event>
<event>
 7    1  0.3062695E-010  0.4778727E+02  0.7816164E-02  0.1312668E+00
        -11   -1    0    0    0    0  0.00000000000E+00  0.00000000000E+00  0.45593999997E+02  0.45594000000E+02  0.51100000000E-03 0. -1.
         11   -1    0    0    0    0 -0.00000000000E+00 -0.00000000000E+00 -0.45593999997E+02  0.45594000000E+02  0.51100000000E-03 0.  1.
    9900012    2    1    2    0    0  0.69088267222E+01 -0.26791587760E+02  0.33438038720E+02  0.47787268499E+02  0.19999988395E+02 0.  0.
        -12    1    1    2    0    0 -0.69088267222E+01  0.26791587760E+02 -0.33438038720E+02  0.43400731501E+02  0.00000000000E+00 0.  1.
         11    1    3    3    0    0 -0.36441992844E+01 -0.93048382716E+01  0.42798340332E+01  0.10870932954E+02  0.51100000000E-03 0.  1.
        -11    1    3    3    0    0  0.26427471881E+01 -0.47851846015E+01  0.18387436475E+01  0.57674156113E+01  0.51100000000E-03 0. -1.
         12    1    3    3    0    0  0.79102788184E+01 -0.12701564887E+02  0.27319461039E+02  0.31148919934E+02  0.00000000000E+00 0. -1.
</event>
<event>
 7    1  0.3062695E-010  0.4778727E+02  0.7816164E-02  0.1312668E+00
        -11   -1    0    0    0    0  0.00000000000E+00  0.00000000000E+00  0.45593999997E+02  0.45594000000E+02  0.51100000000E-03 0. -1.
         11   -1    0    0    0    0 -0.00000000000E+00 -0.00000000000E+00 -0.45593999997E+02  0.45594000000E+02  0.51100000000E-03 0.  1.
    9900012    2    1    2    0    0  0.19620658187E+02 -0.35722940072E+02  0.14917255559E+02  0.47787272028E+02  0.20000004483E+02 0.  0.
        -12    1    1    2    0    0 -0.19620658187E+02  0.35722940072E+02 -0.14917255559E+02  0.43400727972E+02  0.00000000000E+00 0.  1.
         11    1    3    3    0    0  0.11859808699E+02 -0.14147007465E+02 -0.74743000046E-01  0.18460727758E+02  0.51100000000E-03 0. -1.
        -11    1    3    3    0    0  0.66769938312E+01 -0.15466967539E+02  0.15766998816E+02  0.23073958989E+02  0.51100000000E-03 0.  1.
        -12    1    3    3    0    0  0.10838556568E+01 -0.61089650684E+01 -0.77500025718E+00  0.62525852806E+01  0.00000000000E+00 0.  1.
</event>
<event>
 7    1  0.3062695E-010  0.4778728E+02  0.7816164E-02  0.1312668E+00
        -11   -1    0    0    0    0  0.00000000000E+00  0.00000000000E+00  0.45593999997E+02  0.45594000000E+02  0.51100000000E-03 0.  1.
         11   -1    0    0    0    0 -0.00000000000E+00 -0.00000000000E+00 -0.45593999997E+02  0.45594000000E+02  0.51100000000E-03 0. -1.
    9900012    2    1    2    0    0 -0.34120519157E+02  0.74693728989E+01 -0.25760843013E+02  0.47787281206E+02  0.20000046331E+02 0.  0.
        -12    1    1    2    0    0  0.34120519157E+02 -0.74693728989E+01  0.25760843013E+02  0.43400718794E+02  0.00000000000E+00 0.  1.
         11    1    3    3    0    0 -0.25508077858E+02  0.26148620732E+01 -0.11791691647E+02  0.28223102803E+02  0.51100000000E-03 0. -1.
        -11    1    3    3    0    0  0.13391063671E+01  0.29002680924E+01 -0.54592032711E+01  0.63251609851E+01  0.51100000000E-03 0.  1.
        -12    1    3    3    0    0 -0.99515476665E+01  0.19542427332E+01 -0.85099480949E+01  0.13239017418E+02  0.00000000000E+00 0.  1.
</event>
<event>
 7    1  0.3062695E-010  0.4778729E+02  0.7816164E-02  0.1312668E+00
        -11   -1    0    0    0    0  0.00000000000E+00  0.00000000000E+00  0.45593999997E+02  0.45594000000E+02  0.51100000000E-03 0. -1.
         11   -1    0    0    0    0 -0.00000000000E+00 -0.00000000000E+00 -0.45593999997E+02  0.45594000000E+02  0.51100000000E-03 0.  1.
    9900012    2    1    2    0    0 -0.30314245821E+02  0.17454275044E+02  0.25690785958E+02  0.47787289175E+02  0.20000082662E+02 0.  0.
        -12    1    1    2    0    0  0.30314245821E+02 -0.17454275044E+02 -0.25690785958E+02  0.43400710825E+02  0.00000000000E+00 0.  1.
         11    1    3    3    0    0 -0.89728251744E+01  0.13684418389E+01  0.14192757386E+02  0.16846916250E+02  0.51100000000E-03 0. -1.
        -11    1    3    3    0    0 -0.20486042596E+02  0.16023363186E+02  0.78123109910E+01  0.27156183684E+02  0.51100000000E-03 0.  1.
        -12    1    3    3    0    0 -0.85537805064E+00  0.62470019886E-01  0.36857175814E+01  0.37841892398E+01  0.00000000000E+00 0.  1.
</event>
<event>
 7    1  0.3062695E-010  0.4778728E+02  0.7816164E-02  0.1312668E+00
        -11   -1    0    0    0    0  0.00000000000E+00  0.00000000000E+00  0.45593999997E+02  0.45594000000E+02  0.51100000000E-03 0. -1.
         11   -1    0    0    0    0 -0.00000000000E+00 -0.00000000000E+00 -0.45593999997E+02  0.45594000000E+02  0.51100000000E-03 0.  1.
    9900012    2    1    2    0    0 -0.11620853050E+02  0.41047014547E+02 -0.79825574373E+01  0.47787275904E+02  0.20000022156E+02 0.  0.
        -12    1    1    2    0    0  0.11620853050E+02 -0.41047014547E+02  0.79825574373E+01  0.43400724096E+02  0.00000000000E+00 0.  1.
         11    1    3    3    0    0 -0.94902585617E+00  0.38359564609E+01 -0.12948621691E+00  0.39537297564E+01  0.51100000000E-03 0. -1.
        -11    1    3    3    0    0 -0.12479261417E+02  0.10987803650E+02 -0.51652146869E+01  0.17411009092E+02  0.51100000000E-03 0.  1.
        -12    1    3    3    0    0  0.18074342240E+01  0.26223254436E+02 -0.26878565334E+01  0.26422537055E+02  0.00000000000E+00 0.  1.
</event>
<event>
 7    1  0.3062695E-010  0.4778728E+02  0.7816164E-02  0.1312668E+00
        -11   -1    0    0    0    0  0.00000000000E+00  0.00000000000E+00  0.45593999997E+02  0.45594000000E+02  0.51100000000E-03 0.  1.
         11   -1    0    0    0    0 -0.00000000000E+00 -0.00000000000E+00 -0.45593999997E+02  0.45594000000E+02  0.51100000000E-03 0. -1.
    9900012    2    1    2    0    0 -0.29019775477E+02  0.32108884207E+02  0.32395827867E+01  0.47787277536E+02  0.20000029599E+02 0.  0.
        -12    1    1    2    0    0  0.29019775477E+02 -0.32108884207E+02 -0.32395827867E+01  0.43400722464E+02  0.00000000000E+00 0.  1.
         11    1    3    3    0    0 -0.36254435698E+01  0.28953398923E+01  0.57761150007E+01  0.74088014505E+01  0.51100000000E-03 0. -1.
        -11    1    3    3    0    0 -0.10323943807E+01  0.77555320905E+01 -0.85205196497E+00  0.78702038713E+01  0.51100000000E-03 0.  1.
         12    1    3    3    0    0 -0.24361937526E+02  0.21458012224E+02 -0.16844802491E+01  0.32508272214E+02  0.00000000000E+00 0. -1.
</event>
<event>
 7    1  0.3062695E-010  0.4778727E+02  0.7816164E-02  0.1312668E+00
        -11   -1    0    0    0    0  0.00000000000E+00  0.00000000000E+00  0.45593999997E+02  0.45594000000E+02  0.51100000000E-03 0. -1.
         11   -1    0    0    0    0 -0.00000000000E+00 -0.00000000000E+00 -0.45593999997E+02  0.45594000000E+02  0.51100000000E-03 0.  1.
    9900012    2    1    2    0    0 -0.27104959281E+02 -0.33896078646E+02  0.21429493038E-01  0.47787269309E+02  0.19999992089E+02 0.  0.
        -12    1    1    2    0    0  0.27104959281E+02  0.33896078646E+02 -0.21429493038E-01  0.43400730691E+02  0.00000000000E+00 0.  1.
         11    1    3    3    0    0 -0.42796598271E+01 -0.18688670004E+02  0.26381835706E+00  0.19174239884E+02  0.51100000000E-03 0. -1.
        -11    1    3    3    0    0 -0.14537121022E+02 -0.13308073624E+02 -0.23622057709E+01  0.19849753841E+02  0.51100000000E-03 0.  1.
         12    1    3    3    0    0 -0.82881784320E+01 -0.18993350182E+01  0.21198169069E+01  0.87632755834E+01  0.00000000000E+00 0. -1.
</event>
<event>
 7    1  0.3062695E-010  0.4778727E+02  0.7816164E-02  0.1312668E+00
        -11   -1    0    0    0    0  0.00000000000E+00  0.00000000000E+00  0.45593999997E+02  0.45594000000E+02  0.51100000000E-03 0.  1.
         11   -1    0    0    0    0 -0.00000000000E+00 -0.00000000000E+00 -0.45593999997E+02  0.45594000000E+02  0.51100000000E-03 0. -1.
    9900012    2    1    2    0    0 -0.13250762101E+02  0.36408091529E+02 -0.19557382790E+02  0.47787273663E+02  0.20000011937E+02 0.  0.
        -12    1    1    2    0    0  0.13250762101E+02 -0.36408091529E+02  0.19557382790E+02  0.43400726337E+02  0.00000000000E+00 0.  1.
         11    1    3    3    0    0 -0.63624894740E+01  0.27475903116E+02 -0.22037309916E+02  0.35791752583E+02  0.51100000000E-03 0. -1.
        -11    1    3    3    0    0 -0.66272955920E+01  0.69154562183E+01  0.13612558184E+01  0.96745852229E+01  0.51100000000E-03 0.  1.
         12    1    3    3    0    0 -0.26097703470E+00  0.20167321943E+01  0.11186713077E+01  0.23209358567E+01  0.00000000000E+00 0. -1.
</event>
<event>
 7    1  0.3062695E-010  0.4778727E+02  0.7816164E-02  0.1312668E+00
        -11   -1    0    0    0    0  0.00000000000E+00  0.00000000000E+00  0.45593999997E+02  0.45594000000E+02  0.51100000000E-03 0.  1.
         11   -1    0    0    0    0 -0.00000000000E+00 -0.00000000000E+00 -0.45593999997E+02  0.45594000000E+02  0.51100000000E-03 0. -1.
    9900012    2    1    2    0    0 -0.20404378572E+02 -0.22416557919E+02 -0.31060947747E+02  0.47787271794E+02  0.20000003420E+02 0.  0.
        -12    1    1    2    0    0  0.20404378572E+02  0.22416557919E+02  0.31060947747E+02  0.43400728206E+02  0.00000000000E+00 0.  1.
         11    1    3    3    0    0 -0.21458916333E+02 -0.19454486618E+02 -0.24800037774E+02  0.38131404559E+02  0.51100000000E-03 0. -1.
        -11    1    3    3    0    0  0.11483794177E+01 -0.16542778148E+01 -0.75519149309E+01  0.78158064049E+01  0.51100000000E-03 0.  1.
         12    1    3    3    0    0 -0.93841656699E-01 -0.13077934860E+01  0.12910049583E+01  0.18400608308E+01  0.00000000000E+00 0. -1.
</event>
<event>
 7    1  0.3062695E-010  0.4778727E+02  0.7816164E-02  0.1312668E+00
        -11   -1    0    0    0    0  0.00000000000E+00  0.00000000000E+00  0.45593999997E+02  0.45594000000E+02  0.51100000000E-03 0.  1.
         11   -1    0    0    0    0 -0.00000000000E+00 -0.00000000000E+00 -0.45593999997E+02  0.45594000000E+02  0.51100000000E-03 0. -1.
    9900012    2    1    2    0    0  0.10384185354E+02 -0.20409590576E+02 -0.36867879493E+02  0.47787271536E+02  0.20000002240E+02 0.  0.
        -12    1    1    2    0    0 -0.10384185354E+02  0.20409590576E+02  0.36867879493E+02  0.43400728464E+02  0.00000000000E+00 0.  1.
         11    1    3    3    0    0  0.29571163040E+01 -0.68653423116E+01 -0.57235659640E+00  0.74970030163E+01  0.51100000000E-03 0. -1.
        -11    1    3    3    0    0 -0.75292540911E+00  0.68334555223E+00 -0.30428399145E+01  0.32082289229E+01  0.51100000000E-03 0.  1.
         12    1    3    3    0    0  0.81799944587E+01 -0.14227593816E+02 -0.33252682982E+02  0.37082039597E+02  0.00000000000E+00 0. -1.
</event>
<event>
 7    1  0.3062695E-010  0.4778728E+02  0.7816164E-02  0.1312668E+00
        -11   -1    0    0    0    0  0.00000000000E+00  0.00000000000E+00  0.45593999997E+02  0.45594000000E+02  0.51100000000E-03 0. -1.
         11   -1    0    0    0    0 -0.00000000000E+00 -0.00000000000E+00 -0.45593999997E+02  0.45594000000E+02  0.51100000000E-03 0.  1.
    9900012    2    1    2    0    0 -0.36115706986E+01 -0.41644188256E+02  0.11676515917E+02  0.47787275555E+02  0.20000020566E+02 0.  0.
        -12    1    1    2    0    0  0.36115706986E+01  0.41644188256E+02 -0.11676515917E+02  0.43400724445E+02  0.00000000000E+00 0.  1.
         11    1    3    3    0    0 -0.41801599932E+01 -0.22576166105E+02  0.88981614690E+01  0.24623856143E+02  0.51100000000E-03 0. -1.
        -11    1    3    3    0    0  0.24164546646E+01 -0.40620557585E+01 -0.43720710643E+01  0.64385212420E+01  0.51100000000E-03 0.  1.
        -12    1    3    3    0    0 -0.18478653700E+01 -0.15005966392E+02  0.71504255122E+01  0.16724898170E+02  0.00000000000E+00 0.  1.
</event>
<event>
 7    1  0.3062695E-010  0.4778727E+02  0.7816164E-02  0.1312668E+00
        -11   -1    0    0    0    0  0.00000000000E+00  0.00000000000E+00  0.45593999997E+02  0.45594000000E+02  0.51100000000E-03 0.  1.
         11   -1    0    0    0    0 -0.00000000000E+00 -0.00000000000E+00 -0.45593999997E+02  0.45594000000E+02  0.51100000000E-03 0. -1.
    9900012    2    1    2    0    0 -0.12210238850E+02 -0.36300748085E+02 -0.20415420981E+02  0.47787266617E+02  0.19999979816E+02 0.  0.
        -12    1    1    2    0    0  0.12210238850E+02  0.36300748085E+02  0.20415420981E+02  0.43400733383E+02  0.00000000000E+00 0.  1.
         11    1    3    3    0    0 -0.68046508173E+01 -0.25745924324E+02 -0.20333262913E+02  0.33505185762E+02  0.51100000000E-03 0. -1.
        -11    1    3    3    0    0 -0.40308933592E+01 -0.10631578893E+01  0.17443979901E+01  0.45189966342E+01  0.51100000000E-03 0.  1.
         12    1    3    3    0    0 -0.13746946733E+01 -0.94916658720E+01 -0.18265560587E+01  0.97630842210E+01  0.00000000000E+00 0. -1.
</event>
<event>
 7    1  0.3062695E-010  0.4778727E+02  0.7816164E-02  0.1312668E+00
        -11   -1    0    0    0    0  0.00000000000E+00  0.00000000000E+00  0.45593999997E+02  0.45594000000E+02  0.51100000000E-03 0.  1.
         11   -1    0    0    0    0 -0.00000000000E+00 -0.00000000000E+00 -0.45593999997E+02  0.45594000000E+02  0.51100000000E-03 0. -1.
    9900012    2    1    2    0    0  0.31335558381E+02 -0.30021889958E+02 -0.62637645812E+00  0.47787269094E+02  0.19999991108E+02 0.  0.
        -12    1    1    2    0    0 -0.31335558381E+02  0.30021889958E+02  0.62637645812E+00  0.43400730906E+02  0.00000000000E+00 0.  1.
         11    1    3    3    0    0  0.13924295404E+02 -0.15130655206E+02  0.68593077278E+01  0.21676550285E+02  0.51100000000E-03 0. -1.
        -11    1    3    3    0    0  0.13297168948E+01 -0.63764082699E+01 -0.38115772891E+01  0.75468437864E+01  0.51100000000E-03 0.  1.
         12    1    3    3    0    0  0.16081546081E+02 -0.85148264823E+01 -0.36741068968E+01  0.18563875023E+02  0.00000000000E+00 0. -1.
</event>
<event>
 7    1  0.3062695E-010  0.4778727E+02  0.7816164E-02  0.1312668E+00
        -11   -1    0    0    0    0  0.00000000000E+00  0.00000000000E+00  0.45593999997E+02  0.45594000000E+02  0.51100000000E-03 0.  1.
         11   -1    0    0    0    0 -0.00000000000E+00 -0.00000000000E+00 -0.45593999997E+02  0.45594000000E+02  0.51100000000E-03 0. -1.
    9900012    2    1    2    0    0 -0.42304063864E+01  0.39151619373E+02 -0.18244936559E+02  0.47787270193E+02  0.19999996119E+02 0.  0.
        -12    1    1    2    0    0  0.42304063864E+01 -0.39151619373E+02  0.18244936559E+02  0.43400729807E+02  0.00000000000E+00 0.  1.
         11    1    3    3    0    0  0.99294509019E-01  0.53881619645E+01 -0.88971310430E+01  0.10401975284E+02  0.51100000000E-03 0. -1.
        -11    1    3    3    0    0  0.13398237251E+00  0.30134102713E+02 -0.96005578512E+01  0.31626773609E+02  0.51100000000E-03 0.  1.
        -12    1    3    3    0    0 -0.44636832679E+01  0.36293546952E+01  0.25275233511E+00  0.57585213000E+01  0.00000000000E+00 0.  1.
</event>
<event>
 7    1  0.3062695E-010  0.4778727E+02  0.7816164E-02  0.1312668E+00
        -11   -1    0    0    0    0  0.00000000000E+00  0.00000000000E+00  0.45593999997E+02  0.45594000000E+02  0.51100000000E-03 0.  1.
         11   -1    0    0    0    0 -0.00000000000E+00 -0.00000000000E+00 -0.45593999997E+02  0.45594000000E+02  0.51100000000E-03 0. -1.
    9900012    2    1    2    0    0  0.42527239430E+02  0.86343848428E+01  0.71038106690E+00  0.47787270324E+02  0.19999996714E+02 0.  0.
        -12    1    1    2    0    0 -0.42527239430E+02 -0.86343848428E+01 -0.71038106690E+00  0.43400729676E+02  0.00000000000E+00 0.  1.
         11    1    3    3    0    0  0.39878348851E+02  0.90971743389E+01 -0.13151507910E+00  0.40903038818E+02  0.51100000000E-03 0. -1.
        -11    1    3    3    0    0 -0.14105441353E+00  0.22313926095E+01  0.18215896089E+01  0.28839553203E+01  0.51100000000E-03 0.  1.
         12    1    3    3    0    0  0.27899449926E+01 -0.26941821056E+01 -0.97969346289E+00  0.40002761856E+01  0.00000000000E+00 0. -1.
</event>
<event>
 7    1  0.3062695E-010  0.4778727E+02  0.7816164E-02  0.1312668E+00
        -11   -1    0    0    0    0  0.00000000000E+00  0.00000000000E+00  0.45593999997E+02  0.45594000000E+02  0.51100000000E-03 0.  1.
         11   -1    0    0    0    0 -0.00000000000E+00 -0.00000000000E+00 -0.45593999997E+02  0.45594000000E+02  0.51100000000E-03 0. -1.
    9900012    2    1    2    0    0  0.30448944635E+02  0.17889658692E+02 -0.25227859487E+02  0.47787274064E+02  0.20000013765E+02 0.  0.
        -12    1    1    2    0    0 -0.30448944635E+02 -0.17889658692E+02  0.25227859487E+02  0.43400725936E+02  0.00000000000E+00 0.  1.
         11    1    3    3    0    0  0.10177362873E+02  0.47606070973E+01 -0.12944741171E+02  0.17140840680E+02  0.51100000000E-03 0. -1.
        -11    1    3    3    0    0  0.14358271930E+02  0.13532323363E+02 -0.34813282907E+01  0.20035054164E+02  0.51100000000E-03 0.  1.
        -12    1    3    3    0    0  0.59133098326E+01 -0.40327176813E+00 -0.88017900257E+01  0.10611379220E+02  0.00000000000E+00 0.  1.
</event>
<event>
 7    1  0.3062695E-010  0.4778728E+02  0.7816164E-02  0.1312668E+00
        -11   -1    0    0    0    0  0.00000000000E+00  0.00000000000E+00  0.45593999997E+02  0.45594000000E+02  0.51100000000E-03 0.  1.
         11   -1    0    0    0    0 -0.00000000000E+00 -0.00000000000E+00 -0.45593999997E+02  0.45594000000E+02  0.51100000000E-03 0. -1.
    9900012    2    1    2    0    0  0.22763574033E+02 -0.28803633025E+02 -0.23147210069E+02  0.47787275211E+02  0.20000018998E+02 0.  0.
        -12    1    1    2    0    0 -0.22763574033E+02  0.28803633025E+02  0.23147210069E+02  0.43400724789E+02  0.00000000000E+00 0.  1.
         11    1    3    3    0    0  0.92839537120E+01 -0.85149313590E+01 -0.54514369328E+01  0.13726398562E+02  0.51100000000E-03 0. -1.
        -11    1    3    3    0    0  0.29872842995E+01 -0.17495075207E+02 -0.13952179399E+02  0.22575757667E+02  0.51100000000E-03 0.  1.
        -12    1    3    3    0    0  0.10492336021E+02 -0.27936264587E+01 -0.37435937373E+01  0.11485118983E+02  0.00000000000E+00 0.  1.
</event>
<event>
 7    1  0.3062695E-010  0.4778727E+02  0.7816164E-02  0.1312668E+00
        -11   -1    0    0    0    0  0.00000000000E+00  0.00000000000E+00  0.45593999997E+02  0.45594000000E+02  0.51100000000E-03 0. -1.
         11   -1    0    0    0    0 -0.00000000000E+00 -0.00000000000E+00 -0.45593999997E+02  0.45594000000E+02  0.51100000000E-03 0.  1.
    9900012    2    1    2    0    0  0.42906437070E+02 -0.56742632098E+01  0.32347508180E+01  0.47787271689E+02  0.20000002940E+02 0.  0.
        -12    1    1    2    0    0 -0.42906437070E+02  0.56742632098E+01 -0.32347508180E+01  0.43400728311E+02  0.00000000000E+00 0.  1.
         11    1    3    3    0    0  0.33607177434E+02 -0.10866298916E+02  0.69247614709E+01  0.35992654097E+02  0.51100000000E-03 0. -1.
        -11    1    3    3    0    0  0.78373128864E+01  0.33684856812E+01 -0.40268879834E+01  0.94332389006E+01  0.51100000000E-03 0.  1.
         12    1    3    3    0    0  0.14619467496E+01  0.18235500249E+01  0.33687733056E+00  0.23613786922E+01  0.00000000000E+00 0. -1.
</event>
<event>
 7    1  0.3062695E-010  0.4778727E+02  0.7816164E-02  0.1312668E+00
        -11   -1    0    0    0    0  0.00000000000E+00  0.00000000000E+00  0.45593999997E+02  0.45594000000E+02  0.51100000000E-03 0.  1.
         11   -1    0    0    0    0 -0.00000000000E+00 -0.00000000000E+00 -0.45593999997E+02  0.45594000000E+02  0.51100000000E-03 0. -1.
    9900012    2    1    2    0    0  0.39900302196E+02 -0.85492199767E+01  0.14781737968E+02  0.47787273567E+02  0.20000011501E+02 0.  0.
        -12    1    1    2    0    0 -0.39900302196E+02  0.85492199767E+01 -0.14781737968E+02  0.43400726433E+02  0.00000000000E+00 0.  1.
         11    1    3    3    0    0  0.48046253799E+00  0.11615226660E+01  0.23647791939E+01  0.26780888804E+01  0.51100000000E-03 0. -1.
        -11    1    3    3    0    0  0.25794529312E+02  0.10267708757E+01  0.52725524741E+01  0.26347899551E+02  0.51100000000E-03 0.  1.
        -12    1    3    3    0    0  0.13625310346E+02 -0.10737513518E+02  0.71444062997E+01  0.18761285136E+02  0.00000000000E+00 0.  1.
</event>
<event>
 7    1  0.3062695E-010  0.4778727E+02  0.7816164E-02  0.1312668E+00
        -11   -1    0    0    0    0  0.00000000000E+00  0.00000000000E+00  0.45593999997E+02  0.45594000000E+02  0.51100000000E-03 0.  1.
         11   -1    0    0    0    0 -0.00000000000E+00 -0.00000000000E+00 -0.45593999997E+02  0.45594000000E+02  0.51100000000E-03 0. -1.
    9900012    2    1    2    0    0 -0.27504886004E+02 -0.16906226491E+01 -0.33529782355E+02  0.47787271160E+02  0.20000000529E+02 0.  0.
        -12    1    1    2    0    0  0.27504886004E+02  0.16906226491E+01  0.33529782355E+02  0.43400728840E+02  0.00000000000E+00 0.  1.
         11    1    3    3    0    0 -0.33573971969E+01 -0.34108266872E+01 -0.14603072879E+02  0.15367354762E+02  0.51100000000E-03 0. -1.
        -11    1    3    3    0    0 -0.18780289949E+02  0.41364578787E+01 -0.18220950659E+02  0.26491746215E+02  0.51100000000E-03 0.  1.
         12    1    3    3    0    0 -0.53671988589E+01 -0.24162538406E+01 -0.70575881671E+00  0.59281701831E+01  0.00000000000E+00 0. -1.
</event>
<event>
 7    1  0.3062695E-010  0.4778727E+02  0.7816164E-02  0.1312668E+00
        -11   -1    0    0    0    0  0.00000000000E+00  0.00000000000E+00  0.45593999997E+02  0.45594000000E+02  0.51100000000E-03 0.  1.
         11   -1    0    0    0    0 -0.00000000000E+00 -0.00000000000E+00 -0.45593999997E+02  0.45594000000E+02  0.51100000000E-03 0. -1.
    9900012    2    1    2    0    0 -0.15983494013E+02 -0.66537640742E+01 -0.39797973984E+02  0.47787269701E+02  0.19999993875E+02 0.  0.
        -12    1    1    2    0    0  0.15983494013E+02  0.66537640742E+01  0.39797973984E+02  0.43400730299E+02  0.00000000000E+00 0.  1.
         11    1    3    3    0    0  0.44233586205E+00 -0.52890248278E+01 -0.20912407630E+02  0.21575408172E+02  0.51100000000E-03 0. -1.
        -11    1    3    3    0    0 -0.10870531308E+02  0.25753165020E+01 -0.13541251863E+02  0.17554663434E+02  0.51100000000E-03 0.  1.
        -12    1    3    3    0    0 -0.55552985672E+01 -0.39400557484E+01 -0.53443144917E+01  0.86571980951E+01  0.00000000000E+00 0.  1.
</event>
<event>
 7    1  0.3062695E-010  0.4778726E+02  0.7816164E-02  0.1312668E+00
        -11   -1    0    0    0    0  0.00000000000E+00  0.00000000000E+00  0.45593999997E+02  0.45594000000E+02  0.51100000000E-03 0. -1.
         11   -1    0    0    0    0 -0.00000000000E+00 -0.00000000000E+00 -0.45593999997E+02  0.45594000000E+02  0.51100000000E-03 0.  1.
    9900012    2    1    2    0    0 -0.41977142570E+02 -0.46216103015E+01  0.10009198739E+02  0.47787264528E+02  0.19999970288E+02 0.  0.
        -12    1    1    2    0    0  0.41977142570E+02  0.46216103015E+01 -0.10009198739E+02  0.43400735472E+02  0.00000000000E+00 0.  1.
         11    1    3    3    0    0 -0.33970370677E+01 -0.59888255306E+01  0.28783427991E+01  0.74626235069E+01  0.51100000000E-03 0. -1.
        -11    1    3    3    0    0 -0.54925086896E+01 -0.16498843618E+01  0.39164032897E+01  0.69446371468E+01  0.51100000000E-03 0.  1.
         12    1    3    3    0    0 -0.33087596813E+02  0.30170995909E+01  0.32144526500E+01  0.33380003874E+02  0.00000000000E+00 0. -1.
</event>
<event>
 7    1  0.3062695E-010  0.4778727E+02  0.7816164E-02  0.1312668E+00
        -11   -1    0    0    0    0  0.00000000000E+00  0.00000000000E+00  0.45593999997E+02  0.45594000000E+02  0.51100000000E-03 0. -1.
         11   -1    0    0    0    0 -0.00000000000E+00 -0.00000000000E+00 -0.45593999997E+02  0.45594000000E+02  0.51100000000E-03 0.  1.
    9900012    2    1    2    0    0 -0.71110447351E+01 -0.42720030063E+02 -0.28381436489E+01  0.47787274370E+02  0.20000015163E+02 0.  0.
        -12    1    1    2    0    0  0.71110447351E+01  0.42720030063E+02  0.28381436489E+01  0.43400725630E+02  0.00000000000E+00 0.  1.
         11    1    3    3    0    0 -0.30511626985E+00 -0.77320475697E+01 -0.77692518701E+01  0.10965351360E+02  0.51100000000E-03 0. -1.
        -11    1    3    3    0    0 -0.82579937331E+01 -0.24772561679E+02  0.25842585567E+01  0.26240287064E+02  0.51100000000E-03 0.  1.
         12    1    3    3    0    0  0.14520652679E+01 -0.10215420815E+02  0.23468496645E+01  0.10581635947E+02  0.00000000000E+00 0. -1.
</event>
<event>
 7    1  0.3062695E-010  0.4778728E+02  0.7816164E-02  0.1312668E+00
        -11   -1    0    0    0    0  0.00000000000E+00  0.00000000000E+00  0.45593999997E+02  0.45594000000E+02  0.51100000000E-03 0.  1.
         11   -1    0    0    0    0 -0.00000000000E+00 -0.00000000000E+00 -0.45593999997E+02  0.45594000000E+02  0.51100000000E-03 0. -1.
    9900012    2    1    2    0    0 -0.38216991784E+01 -0.24200877763E+02 -0.35823663147E+02  0.47787277536E+02  0.20000029598E+02 0.  0.
        -12    1    1    2    0    0  0.38216991784E+01  0.24200877763E+02  0.35823663147E+02  0.43400722464E+02  0.00000000000E+00 0.  1.
         11    1    3    3    0    0 -0.31332194634E+00  0.10396056847E+01 -0.21732132010E+01  0.24293633939E+01  0.51100000000E-03 0. -1.
        -11    1    3    3    0    0  0.58386163915E+01 -0.60078068769E+01 -0.55610424037E+01  0.10055266168E+02  0.51100000000E-03 0.  1.
        -12    1    3    3    0    0 -0.93469936235E+01 -0.19232676571E+02 -0.28089407542E+02  0.35302647974E+02  0.00000000000E+00 0.  1.
</event>
<event>
 7    1  0.3062695E-010  0.4778727E+02  0.7816164E-02  0.1312668E+00
        -11   -1    0    0    0    0  0.00000000000E+00  0.00000000000E+00  0.45593999997E+02  0.45594000000E+02  0.51100000000E-03 0. -1.
         11   -1    0    0    0    0 -0.00000000000E+00 -0.00000000000E+00 -0.45593999997E+02  0.45594000000E+02  0.51100000000E-03 0.  1.
    9900012    2    1    2    0    0 -0.40979653696E+02  0.12090267986E+02 -0.76234369194E+01  0.47787269735E+02  0.19999994032E+02 0.  0.
        -12    1    1    2    0    0  0.40979653696E+02 -0.12090267986E+02  0.76234369194E+01  0.43400730265E+02  0.00000000000E+00 0.  1.
         11    1    3    3    0    0 -0.17603457023E+02  0.98635435472E+01 -0.26543970170E+01  0.20352322085E+02  0.51100000000E-03 0. -1.
        -11    1    3    3    0    0 -0.62825700391E+01  0.60116736287E+01  0.13947252061E+01  0.88065977980E+01  0.51100000000E-03 0.  1.
        -12    1    3    3    0    0 -0.17093626634E+02 -0.37849491894E+01 -0.63637651084E+01  0.18628349853E+02  0.00000000000E+00 0.  1.
</event>
<event>
 7    1  0.3062695E-010  0.4778727E+02  0.7816164E-02  0.1312668E+00
        -11   -1    0    0    0    0  0.00000000000E+00  0.00000000000E+00  0.45593999997E+02  0.45594000000E+02  0.51100000000E-03 0.  1.
         11   -1    0    0    0    0 -0.00000000000E+00 -0.00000000000E+00 -0.45593999997E+02  0.45594000000E+02  0.51100000000E-03 0. -1.
    9900012    2    1    2    0    0 -0.38329857587E+02 -0.18561437839E+02 -0.83617284814E+01  0.47787268894E+02  0.19999990197E+02 0.  0.
        -12    1    1    2    0    0  0.38329857587E+02  0.18561437839E+02  0.83617284814E+01  0.43400731106E+02  0.00000000000E+00 0.  1.
         11    1    3    3    0    0 -0.95337713910E+01 -0.10931411482E+02 -0.94153342512E+01  0.17292688433E+02  0.51100000000E-03 0. -1.
        -11    1    3    3    0    0 -0.95323473338E+00 -0.15393738765E+01 -0.69579615710E+00  0.19397064061E+01  0.51100000000E-03 0.  1.
         12    1    3    3    0    0 -0.27842851463E+02 -0.60906524810E+01  0.17494019270E+01  0.28554874055E+02  0.00000000000E+00 0. -1.
</event>
<event>
 7    1  0.3062695E-010  0.4778727E+02  0.7816164E-02  0.1312668E+00
        -11   -1    0    0    0    0  0.00000000000E+00  0.00000000000E+00  0.45593999997E+02  0.45594000000E+02  0.51100000000E-03 0.  1.
         11   -1    0    0    0    0 -0.00000000000E+00 -0.00000000000E+00 -0.45593999997E+02  0.45594000000E+02  0.51100000000E-03 0. -1.
    9900012    2    1    2    0    0 -0.42969956640E+02 -0.29380944337E+01 -0.53454738344E+01  0.47787266561E+02  0.19999979558E+02 0.  0.
        -12    1    1    2    0    0  0.42969956640E+02  0.29380944337E+01  0.53454738344E+01  0.43400733439E+02  0.00000000000E+00 0.  1.
         11    1    3    3    0    0 -0.13191960898E+02  0.28157424454E+01 -0.77093955105E+00  0.13511128224E+02  0.51100000000E-03 0. -1.
        -11    1    3    3    0    0 -0.13888422901E+02 -0.82311496693E+01 -0.77114398308E+01  0.17891518104E+02  0.51100000000E-03 0.  1.
        -12    1    3    3    0    0 -0.15889572841E+02  0.24773127902E+01  0.31369055475E+01  0.16384620232E+02  0.00000000000E+00 0.  1.
</event>
<event>
 7    1  0.3062695E-010  0.4778727E+02  0.7816164E-02  0.1312668E+00
        -11   -1    0    0    0    0  0.00000000000E+00  0.00000000000E+00  0.45593999997E+02  0.45594000000E+02  0.51100000000E-03 0.  1.
         11   -1    0    0    0    0 -0.00000000000E+00 -0.00000000000E+00 -0.45593999997E+02  0.45594000000E+02  0.51100000000E-03 0. -1.
    9900012    2    1    2    0    0  0.20354036028E+02  0.35075374418E+02 -0.15461386285E+02  0.47787272598E+02  0.20000007083E+02 0.  0.
        -12    1    1    2    0    0 -0.20354036028E+02 -0.35075374418E+02  0.15461386285E+02  0.43400727402E+02  0.00000000000E+00 0.  1.
         11    1    3    3    0    0  0.12307614236E+01  0.22170513743E+01 -0.71707901986E+01  0.76059399690E+01  0.51100000000E-03 0. -1.
        -11    1    3    3    0    0  0.15566106196E+02  0.20917042747E+02 -0.18082572602E+01  0.26136107858E+02  0.51100000000E-03 0.  1.
        -12    1    3    3    0    0  0.35571684084E+01  0.11941280296E+02 -0.64823388265E+01  0.14045224771E+02  0.00000000000E+00 0.  1.
</event>
<event>
 7    1  0.3062695E-010  0.4778727E+02  0.7816164E-02  0.1312668E+00
        -11   -1    0    0    0    0  0.00000000000E+00  0.00000000000E+00  0.45593999997E+02  0.45594000000E+02  0.51100000000E-03 0. -1.
         11   -1    0    0    0    0 -0.00000000000E+00 -0.00000000000E+00 -0.45593999997E+02  0.45594000000E+02  0.51100000000E-03 0.  1.
    9900012    2    1    2    0    0 -0.37601200755E+02 -0.14721628798E+02  0.15907445507E+02  0.47787268725E+02  0.19999989423E+02 0.  0.
        -12    1    1    2    0    0  0.37601200755E+02  0.14721628798E+02 -0.15907445507E+02  0.43400731275E+02  0.00000000000E+00 0.  1.
         11    1    3    3    0    0 -0.24781665595E+02 -0.42276206074E+01  0.12624611912E+02  0.28131557935E+02  0.51100000000E-03 0. -1.
        -11    1    3    3    0    0 -0.49842322829E-03 -0.49843680790E+01  0.27499131955E+01  0.56926222639E+01  0.51100000000E-03 0.  1.
        -12    1    3    3    0    0 -0.12819036737E+02 -0.55096401117E+01  0.53292039919E+00  0.13963088525E+02  0.00000000000E+00 0.  1.
</event>
<event>
 7    1  0.3062695E-010  0.4778727E+02  0.7816164E-02  0.1312668E+00
        -11   -1    0    0    0    0  0.00000000000E+00  0.00000000000E+00  0.45593999997E+02  0.45594000000E+02  0.51100000000E-03 0. -1.
         11   -1    0    0    0    0 -0.00000000000E+00 -0.00000000000E+00 -0.45593999997E+02  0.45594000000E+02  0.51100000000E-03 0.  1.
    9900012    2    1    2    0    0 -0.10819951479E+02  0.36055004757E+00  0.42028822307E+02  0.47787271310E+02  0.20000001210E+02 0.  0.
        -12    1    1    2    0    0  0.10819951479E+02 -0.36055004757E+00 -0.42028822307E+02  0.43400728690E+02  0.00000000000E+00 0.  1.
         11    1    3    3    0    0 -0.81208218161E+01 -0.31887017446E+01  0.25537091101E+02  0.26986266655E+02  0.51100000000E-03 0. -1.
        -11    1    3    3    0    0  0.40424502499E+01  0.26013379071E+01  0.29387382220E+01  0.56342298079E+01  0.51100000000E-03 0.  1.
        -12    1    3    3    0    0 -0.67415799127E+01  0.94791388501E+00  0.13552992984E+02  0.15166774847E+02  0.00000000000E+00 0.  1.
</event>
<event>
 7    1  0.3062695E-010  0.4778727E+02  0.7816164E-02  0.1312668E+00
        -11   -1    0    0    0    0  0.00000000000E+00  0.00000000000E+00  0.45593999997E+02  0.45594000000E+02  0.51100000000E-03 0. -1.
         11   -1    0    0    0    0 -0.00000000000E+00 -0.00000000000E+00 -0.45593999997E+02  0.45594000000E+02  0.51100000000E-03 0.  1.
    9900012    2    1    2    0    0 -0.28766690145E+02 -0.19356353690E+02  0.26104264382E+02  0.47787268336E+02  0.19999987650E+02 0.  0.
        -12    1    1    2    0    0  0.28766690145E+02  0.19356353690E+02 -0.26104264382E+02  0.43400731664E+02  0.00000000000E+00 0.  1.
         11    1    3    3    0    0 -0.24040155064E+02 -0.17714195908E+02  0.16252647039E+02  0.33998093008E+02  0.51100000000E-03 0. -1.
        -11    1    3    3    0    0 -0.58178884717E+01  0.84577652238E+00  0.93223665977E+01  0.11021328570E+02  0.51100000000E-03 0.  1.
         12    1    3    3    0    0  0.10913533902E+01 -0.24879343040E+01  0.52925074485E+00  0.27678467577E+01  0.00000000000E+00 0. -1.
</event>
<event>
 7    1  0.3062695E-010  0.4778727E+02  0.7816164E-02  0.1312668E+00
        -11   -1    0    0    0    0  0.00000000000E+00  0.00000000000E+00  0.45593999997E+02  0.45594000000E+02  0.51100000000E-03 0.  1.
         11   -1    0    0    0    0 -0.00000000000E+00 -0.00000000000E+00 -0.45593999997E+02  0.45594000000E+02  0.51100000000E-03 0. -1.
    9900012    2    1    2    0    0 -0.12440540644E+02 -0.25776076220E+02 -0.32625911076E+02  0.47787271546E+02  0.20000002288E+02 0.  0.
        -12    1    1    2    0    0  0.12440540644E+02  0.25776076220E+02  0.32625911076E+02  0.43400728454E+02  0.00000000000E+00 0.  1.
         11    1    3    3    0    0 -0.65469136584E+00 -0.17690071660E+02 -0.23731070730E+02  0.29606265796E+02  0.51100000000E-03 0. -1.
        -11    1    3    3    0    0 -0.11101810929E+02 -0.44960456417E+01 -0.80458228691E+01  0.14429133661E+02  0.51100000000E-03 0.  1.
        -12    1    3    3    0    0 -0.68403834916E+00 -0.35899589181E+01 -0.84901747634E+00  0.37518720889E+01  0.00000000000E+00 0.  1.
</event>
<event>
 7    1  0.3062695E-010  0.4778727E+02  0.7816164E-02  0.1312668E+00
        -11   -1    0    0    0    0  0.00000000000E+00  0.00000000000E+00  0.45593999997E+02  0.45594000000E+02  0.51100000000E-03 0.  1.
         11   -1    0    0    0    0 -0.00000000000E+00 -0.00000000000E+00 -0.45593999997E+02  0.45594000000E+02  0.51100000000E-03 0. -1.
    9900012    2    1    2    0    0 -0.23305729951E+02 -0.28039414765E+02 -0.23542671802E+02  0.47787271613E+02  0.20000002593E+02 0.  0.
        -12    1    1    2    0    0  0.23305729951E+02  0.28039414765E+02  0.23542671802E+02  0.43400728387E+02  0.00000000000E+00 0.  1.
         11    1    3    3    0    0 -0.41923344101E+01 -0.12745644372E+02 -0.60098027218E+01  0.14701865436E+02  0.51100000000E-03 0. -1.
        -11    1    3    3    0    0 -0.10930405758E+02 -0.71038902760E+00 -0.43260417930E+01  0.11776801793E+02  0.51100000000E-03 0.  1.
        -12    1    3    3    0    0 -0.81829897827E+01 -0.14583381365E+02 -0.13206827287E+02  0.21308604385E+02  0.00000000000E+00 0.  1.
</event>
<event>
 7    1  0.3062695E-010  0.4778727E+02  0.7816164E-02  0.1312668E+00
        -11   -1    0    0    0    0  0.00000000000E+00  0.00000000000E+00  0.45593999997E+02  0.45594000000E+02  0.51100000000E-03 0.  1.
         11   -1    0    0    0    0 -0.00000000000E+00 -0.00000000000E+00 -0.45593999997E+02  0.45594000000E+02  0.51100000000E-03 0. -1.
    9900012    2    1    2    0    0  0.36747144526E+02 -0.60552096931E+01 -0.22284634332E+02  0.47787272787E+02  0.20000007946E+02 0.  0.
        -12    1    1    2    0    0 -0.36747144526E+02  0.60552096931E+01  0.22284634332E+02  0.43400727213E+02  0.00000000000E+00 0.  1.
         11    1    3    3    0    0  0.31173425163E+02 -0.31425471297E+00 -0.19288297161E+02  0.36659508999E+02  0.51100000000E-03 0. -1.
        -11    1    3    3    0    0  0.39434294721E+01 -0.35172901600E+01 -0.53374442548E+01  0.75106775663E+01  0.51100000000E-03 0.  1.
         12    1    3    3    0    0  0.16302898909E+01 -0.22236648201E+01  0.23411070831E+01  0.36170862217E+01  0.00000000000E+00 0. -1.
</event>
<event>
 7    1  0.3062695E-010  0.4778727E+02  0.7816164E-02  0.1312668E+00
        -11   -1    0    0    0    0  0.00000000000E+00  0.00000000000E+00  0.45593999997E+02  0.45594000000E+02  0.51100000000E-03 0. -1.
         11   -1    0    0    0    0 -0.00000000000E+00 -0.00000000000E+00 -0.45593999997E+02  0.45594000000E+02  0.51100000000E-03 0.  1.
    9900012    2    1    2    0    0  0.12023473846E+02 -0.33491360486E+01  0.41567324708E+02  0.47787272829E+02  0.20000008134E+02 0.  0.
        -12    1    1    2    0    0 -0.12023473846E+02  0.33491360486E+01 -0.41567324708E+02  0.43400727171E+02  0.00000000000E+00 0.  1.
         11    1    3    3    0    0  0.11295410595E+02 -0.30501700426E+01  0.28826622114E+02  0.31110512381E+02  0.51100000000E-03 0. -1.
        -11    1    3    3    0    0  0.51428279984E+00 -0.25151154399E+01 -0.10013335077E+01  0.27555328938E+01  0.51100000000E-03 0.  1.
         12    1    3    3    0    0  0.21378045144E+00  0.22161494339E+01  0.13742036102E+02  0.13921227554E+02  0.00000000000E+00 0. -1.
</event>
<event>
 7    1  0.3062695E-010  0.4778727E+02  0.7816164E-02  0.1312668E+00
        -11   -1    0    0    0    0  0.00000000000E+00  0.00000000000E+00  0.45593999997E+02  0.45594000000E+02  0.51100000000E-03 0.  1.
         11   -1    0    0    0    0 -0.00000000000E+00 -0.00000000000E+00 -0.45593999997E+02  0.45594000000E+02  0.51100000000E-03 0. -1.
    9900012    2    1    2    0    0  0.32664654291E+02  0.46903050030E+01 -0.28189436509E+02  0.47787274987E+02  0.20000017977E+02 0.  0.
        -12    1    1    2    0    0 -0.32664654291E+02 -0.46903050030E+01  0.28189436509E+02  0.43400725013E+02  0.00000000000E+00 0.  1.
         11    1    3    3    0    0  0.11667878326E+02 -0.54935463215E+01 -0.13672782740E+02  0.18795303241E+02  0.51100000000E-03 0. -1.
        -11    1    3    3    0    0  0.20621427920E+02  0.68762029688E+01 -0.12100333780E+02  0.24878575815E+02  0.51100000000E-03 0.  1.
        -12    1    3    3    0    0  0.37534804491E+00  0.33076483557E+01 -0.24163199886E+01  0.41133959312E+01  0.00000000000E+00 0.  1.
</event>
<event>
 7    1  0.3062695E-010  0.4778727E+02  0.7816164E-02  0.1312668E+00
        -11   -1    0    0    0    0  0.00000000000E+00  0.00000000000E+00  0.45593999997E+02  0.45594000000E+02  0.51100000000E-03 0. -1.
         11   -1    0    0    0    0 -0.00000000000E+00 -0.00000000000E+00 -0.45593999997E+02  0.45594000000E+02  0.51100000000E-03 0.  1.
    9900012    2    1    2    0    0 -0.18924767620E+01  0.41150245457E+02  0.13663789363E+02  0.47787270638E+02  0.19999998145E+02 0.  0.
        -12    1    1    2    0    0  0.18924767620E+01 -0.41150245457E+02 -0.13663789363E+02  0.43400729362E+02  0.00000000000E+00 0.  1.
         11    1    3    3    0    0 -0.80885003813E+00  0.30602065103E+00  0.47802004379E+01  0.48577982163E+01  0.51100000000E-03 0. -1.
        -11    1    3    3    0    0 -0.31255242958E+01  0.42909305187E+01  0.24726416141E+00  0.53143321939E+01  0.51100000000E-03 0.  1.
         12    1    3    3    0    0  0.20418975720E+01  0.36553294287E+02  0.86363247638E+01  0.37615140227E+02  0.00000000000E+00 0. -1.
</event>
<event>
 7    1  0.3062695E-010  0.4778727E+02  0.7816164E-02  0.1312668E+00
        -11   -1    0    0    0    0  0.00000000000E+00  0.00000000000E+00  0.45593999997E+02  0.45594000000E+02  0.51100000000E-03 0. -1.
         11   -1    0    0    0    0 -0.00000000000E+00 -0.00000000000E+00 -0.45593999997E+02  0.45594000000E+02  0.51100000000E-03 0.  1.
    9900012    2    1    2    0    0  0.53499850631E+00 -0.19209114822E+02  0.38914610472E+02  0.47787271621E+02  0.20000002630E+02 0.  0.
        -12    1    1    2    0    0 -0.53499850631E+00  0.19209114822E+02 -0.38914610472E+02  0.43400728379E+02  0.00000000000E+00 0.  1.
         11    1    3    3    0    0  0.50110350252E+01 -0.14559643385E+02  0.25865371916E+02  0.30101680222E+02  0.51100000000E-03 0. -1.
        -11    1    3    3    0    0 -0.20934239248E+01  0.31338264550E+01  0.35710369079E+01  0.51918779683E+01  0.51100000000E-03 0.  1.
        -12    1    3    3    0    0 -0.23826125940E+01 -0.77832978911E+01  0.94782016474E+01  0.12493713431E+02  0.00000000000E+00 0.  1.
</event>
<event>
 7    1  0.3062695E-010  0.4778724E+02  0.7816164E-02  0.1312668E+00
        -11   -1    0    0    0    0  0.00000000000E+00  0.00000000000E+00  0.45593999997E+02  0.45594000000E+02  0.51100000000E-03 0. -1.
         11   -1    0    0    0    0 -0.00000000000E+00 -0.00000000000E+00 -0.45593999997E+02  0.45594000000E+02  0.51100000000E-03 0.  1.
    9900012    2    1    2    0    0 -0.98060887599E+01 -0.67130561295E+01  0.41742086369E+02  0.47787236483E+02  0.19999842422E+02 0.  0.
        -12    1    1    2    0    0  0.98060887599E+01  0.67130561295E+01 -0.41742086369E+02  0.43400763517E+02  0.00000000000E+00 0.  1.
         11    1    3    3    0    0 -0.71369706889E+01 -0.62555408276E+01  0.18773177999E+02  0.21035692385E+02  0.51100000000E-03 0. -1.
        -11    1    3    3    0    0  0.44311488436E+01  0.34170592946E+01  0.10266781963E+02  0.11692655234E+02  0.51100000000E-03 0.  1.
        -12    1    3    3    0    0 -0.71002669146E+01 -0.38745745966E+01  0.12702126407E+02  0.15058888864E+02  0.00000000000E+00 0.  1.
</event>
<event>
 7    1  0.3062695E-010  0.4778727E+02  0.7816164E-02  0.1312668E+00
        -11   -1    0    0    0    0  0.00000000000E+00  0.00000000000E+00  0.45593999997E+02  0.45594000000E+02  0.51100000000E-03 0. -1.
         11   -1    0    0    0    0 -0.00000000000E+00 -0.00000000000E+00 -0.45593999997E+02  0.45594000000E+02  0.51100000000E-03 0.  1.
    9900012    2    1    2    0    0  0.20814160194E+02  0.36762347344E+02  0.99460470668E+01  0.47787270754E+02  0.19999998676E+02 0.  0.
        -12    1    1    2    0    0 -0.20814160194E+02 -0.36762347344E+02 -0.99460470668E+01  0.43400729246E+02  0.00000000000E+00 0.  1.
         11    1    3    3    0    0  0.11678021978E+02  0.22231889853E+02  0.36145007763E+01  0.25371199023E+02  0.51100000000E-03 0. -1.
        -11    1    3    3    0    0 -0.21202929929E+01 -0.28079023234E+00  0.27289395708E+01  0.34672174683E+01  0.51100000000E-03 0.  1.
        -12    1    3    3    0    0  0.11256431209E+02  0.14811247724E+02  0.36026067197E+01  0.18948854263E+02  0.00000000000E+00 0.  1.
</event>
<event>
 7    1  0.3062695E-010  0.4778728E+02  0.7816164E-02  0.1312668E+00
        -11   -1    0    0    0    0  0.00000000000E+00  0.00000000000E+00  0.45593999997E+02  0.45594000000E+02  0.51100000000E-03 0. -1.
         11   -1    0    0    0    0 -0.00000000000E+00 -0.00000000000E+00 -0.45593999997E+02  0.45594000000E+02  0.51100000000E-03 0.  1.
    9900012    2    1    2    0    0 -0.23421103367E+02 -0.35990744404E+02  0.63040347645E+01  0.47787278577E+02  0.20000034344E+02 0.  0.
        -12    1    1    2    0    0  0.23421103367E+02  0.35990744404E+02 -0.63040347645E+01  0.43400721423E+02  0.00000000000E+00 0.  1.
         11    1    3    3    0    0 -0.12343332982E+02 -0.19025722152E+02  0.21942327637E+01  0.22784877226E+02  0.51100000000E-03 0. -1.
        -11    1    3    3    0    0  0.94471772426E+00  0.66345272390E+00  0.34678069490E+01  0.36549071660E+01  0.51100000000E-03 0.  1.
        -12    1    3    3    0    0 -0.12022488109E+02 -0.17628474976E+02  0.64199505178E+00  0.21347494185E+02  0.00000000000E+00 0.  1.
</event>
<event>
 7    1  0.3062695E-010  0.4778727E+02  0.7816164E-02  0.1312668E+00
        -11   -1    0    0    0    0  0.00000000000E+00  0.00000000000E+00  0.45593999997E+02  0.45594000000E+02  0.51100000000E-03 0. -1.
         11   -1    0    0    0    0 -0.00000000000E+00 -0.00000000000E+00 -0.45593999997E+02  0.45594000000E+02  0.51100000000E-03 0.  1.
    9900012    2    1    2    0    0  0.17254891751E+02 -0.37591987760E+02 -0.13142834474E+02  0.47787274993E+02  0.20000018004E+02 0.  0.
        -12    1    1    2    0    0 -0.17254891751E+02  0.37591987760E+02  0.13142834474E+02  0.43400725007E+02  0.00000000000E+00 0.  1.
         11    1    3    3    0    0  0.17552701559E+01 -0.24149469040E+02 -0.71896307237E+01  0.25258040669E+02  0.51100000000E-03 0. -1.
        -11    1    3    3    0    0  0.35633497345E+01 -0.25512255925E+00 -0.26255329306E+01  0.44335056425E+01  0.51100000000E-03 0.  1.
         12    1    3    3    0    0  0.11936271861E+02 -0.13187396161E+02 -0.33276708196E+01  0.18095728682E+02  0.00000000000E+00 0. -1.
</event>
<event>
 7    1  0.4518268E-010  0.4778728E+02  0.7816164E-02  0.1312668E+00
        -11   -1    0    0    0    0  0.00000000000E+00  0.00000000000E+00  0.45593999997E+02  0.45594000000E+02  0.51100000000E-03 0.  1.
         11   -1    0    0    0    0 -0.00000000000E+00 -0.00000000000E+00 -0.45593999997E+02  0.45594000000E+02  0.51100000000E-03 0. -1.
    9900012    2    1    2    0    0 -0.40275642373E+02  0.94510117582E+01 -0.13121487822E+02  0.47787280715E+02  0.20000044091E+02 0.  0.
        -12    1    1    2    0    0  0.40275642373E+02 -0.94510117582E+01  0.13121487822E+02  0.43400719285E+02  0.00000000000E+00 0.  1.
         11    1    3    3    0    0 -0.13399373141E+02  0.28056793363E+01 -0.53799458371E+01  0.14709141871E+02  0.51100000000E-03 0. -1.
        -11    1    3    3    0    0 -0.28671991333E+02  0.56723007623E+01 -0.49887085497E+01  0.29650384419E+02  0.51100000000E-03 0.  1.
        -12    1    3    3    0    0  0.17957221010E+01  0.97303165967E+00 -0.27528334356E+01  0.34277544251E+01  0.00000000000E+00 0.  1.
</event>
<event>
 7    1  0.3062695E-010  0.4778725E+02  0.7816164E-02  0.1312668E+00
        -11   -1    0    0    0    0  0.00000000000E+00  0.00000000000E+00  0.45593999997E+02  0.45594000000E+02  0.51100000000E-03 0. -1.
         11   -1    0    0    0    0 -0.00000000000E+00 -0.00000000000E+00 -0.45593999997E+02  0.45594000000E+02  0.51100000000E-03 0.  1.
    9900012    2    1    2    0    0 -0.36746997016E+02  0.15852916495E+02  0.16791912286E+02  0.47787250360E+02  0.19999905689E+02 0.  0.
        -12    1    1    2    0    0  0.36746997016E+02 -0.15852916495E+02 -0.16791912286E+02  0.43400749640E+02  0.00000000000E+00 0.  1.
         11    1    3    3    0    0 -0.28567371142E+02  0.15974644365E+02  0.81968111100E+01  0.33741245816E+02  0.51100000000E-03 0. -1.
        -11    1    3    3    0    0 -0.29327691828E+01  0.28115867474E+01  0.65286875251E+01  0.76895979206E+01  0.51100000000E-03 0.  1.
         12    1    3    3    0    0 -0.52468566913E+01 -0.29333146174E+01  0.20664136513E+01  0.63564066234E+01  0.00000000000E+00 0. -1.
</event>
<event>
 7    1  0.3062695E-010  0.4778727E+02  0.7816164E-02  0.1312668E+00
        -11   -1    0    0    0    0  0.00000000000E+00  0.00000000000E+00  0.45593999997E+02  0.45594000000E+02  0.51100000000E-03 0.  1.
         11   -1    0    0    0    0 -0.00000000000E+00 -0.00000000000E+00 -0.45593999997E+02  0.45594000000E+02  0.51100000000E-03 0. -1.
    9900012    2    1    2    0    0 -0.35798632269E+02  0.13909920627E+02 -0.20213737856E+02  0.47787272330E+02  0.20000005862E+02 0.  0.
        -12    1    1    2    0    0  0.35798632269E+02 -0.13909920627E+02  0.20213737856E+02  0.43400727670E+02  0.00000000000E+00 0.  1.
         11    1    3    3    0    0 -0.59245822586E+01 -0.12860905712E+01  0.27768310720E+01  0.66682452684E+01  0.51100000000E-03 0.  1.
        -11    1    3    3    0    0 -0.21294563967E+02  0.10221978680E+02 -0.12663586308E+02  0.26801375359E+02  0.51100000000E-03 0. -1.
        -12    1    3    3    0    0 -0.85794860428E+01  0.49740325178E+01 -0.10326982620E+02  0.14317651703E+02  0.00000000000E+00 0.  1.
</event>
<event>
 7    1  0.3062695E-010  0.4778726E+02  0.7816164E-02  0.1312668E+00
        -11   -1    0    0    0    0  0.00000000000E+00  0.00000000000E+00  0.45593999997E+02  0.45594000000E+02  0.51100000000E-03 0. -1.
         11   -1    0    0    0    0 -0.00000000000E+00 -0.00000000000E+00 -0.45593999997E+02  0.45594000000E+02  0.51100000000E-03 0.  1.
    9900012    2    1    2    0    0 -0.25179286791E+02 -0.33269297972E+02  0.11949106874E+02  0.47787264684E+02  0.19999971000E+02 0.  0.
        -12    1    1    2    0    0  0.25179286791E+02  0.33269297972E+02 -0.11949106874E+02  0.43400735316E+02  0.00000000000E+00 0.  1.
         11    1    3    3    0    0 -0.29311476572E+01 -0.13115451337E+02  0.31687584600E+01  0.13807524065E+02  0.51100000000E-03 0. -1.
        -11    1    3    3    0    0 -0.22583223612E+02 -0.21534183046E+02  0.91379363268E+01  0.32514995136E+02  0.51100000000E-03 0.  1.
        -12    1    3    3    0    0  0.33508447798E+00  0.13803364105E+01 -0.35758791276E+00  0.14647454826E+01  0.00000000000E+00 0.  1.
</event>
<event>
 7    1  0.3062695E-010  0.4778727E+02  0.7816164E-02  0.1312668E+00
        -11   -1    0    0    0    0  0.00000000000E+00  0.00000000000E+00  0.45593999997E+02  0.45594000000E+02  0.51100000000E-03 0. -1.
         11   -1    0    0    0    0 -0.00000000000E+00 -0.00000000000E+00 -0.45593999997E+02  0.45594000000E+02  0.51100000000E-03 0.  1.
    9900012    2    1    2    0    0 -0.13095778250E+02 -0.39497610556E+02 -0.12331369881E+02  0.47787270389E+02  0.19999997013E+02 0.  0.
        -12    1    1    2    0    0  0.13095778250E+02  0.39497610556E+02  0.12331369881E+02  0.43400729611E+02  0.00000000000E+00 0.  1.
         11    1    3    3    0    0 -0.88821521872E+01 -0.32899754600E+02 -0.16693617084E+02  0.37946848773E+02  0.51100000000E-03 0. -1.
        -11    1    3    3    0    0 -0.38411470033E+01 -0.34482379867E+01  0.42171863393E+01  0.66655394677E+01  0.51100000000E-03 0.  1.
         12    1    3    3    0    0 -0.37247905970E+00 -0.31496179691E+01  0.14506086384E+00  0.31748821483E+01  0.00000000000E+00 0. -1.
</event>
<event>
 7    1  0.3062695E-010  0.4778726E+02  0.7816164E-02  0.1312668E+00
        -11   -1    0    0    0    0  0.00000000000E+00  0.00000000000E+00  0.45593999997E+02  0.45594000000E+02  0.51100000000E-03 0.  1.
         11   -1    0    0    0    0 -0.00000000000E+00 -0.00000000000E+00 -0.45593999997E+02  0.45594000000E+02  0.51100000000E-03 0. -1.
    9900012    2    1    2    0    0 -0.18091385683E+02 -0.70230228560E+01 -0.38820142829E+02  0.47787256052E+02  0.19999931642E+02 0.  0.
        -12    1    1    2    0    0  0.18091385683E+02  0.70230228560E+01  0.38820142829E+02  0.43400743948E+02  0.00000000000E+00 0.  1.
         11    1    3    3    0    0 -0.56288801997E+01  0.10189053569E+00 -0.46091114045E+01  0.72758904736E+01  0.51100000000E-03 0. -1.
        -11    1    3    3    0    0  0.48718648384E+00 -0.13838536738E+00  0.16622450615E+01  0.17376881440E+01  0.51100000000E-03 0.  1.
        -12    1    3    3    0    0 -0.12949691967E+02 -0.69865280243E+01 -0.35873276487E+02  0.38773677434E+02  0.00000000000E+00 0.  1.
</event>
<event>
 7    1  0.3062695E-010  0.4778727E+02  0.7816164E-02  0.1312668E+00
        -11   -1    0    0    0    0  0.00000000000E+00  0.00000000000E+00  0.45593999997E+02  0.45594000000E+02  0.51100000000E-03 0.  1.
         11   -1    0    0    0    0 -0.00000000000E+00 -0.00000000000E+00 -0.45593999997E+02  0.45594000000E+02  0.51100000000E-03 0. -1.
    9900012    2    1    2    0    0  0.14795882339E+02 -0.24982768493E+02 -0.32257811528E+02  0.47787271200E+02  0.20000000710E+02 0.  0.
        -12    1    1    2    0    0 -0.14795882339E+02  0.24982768493E+02  0.32257811528E+02  0.43400728800E+02  0.00000000000E+00 0.  1.
         11    1    3    3    0    0  0.13004046425E+01  0.26677033626E+01  0.70866323817E-03  0.29677759734E+01  0.51100000000E-03 0.  1.
        -11    1    3    3    0    0  0.64676899879E+01 -0.17231171320E+02 -0.17036024400E+02  0.25079282415E+02  0.51100000000E-03 0. -1.
        -12    1    3    3    0    0  0.70277877084E+01 -0.10419300535E+02 -0.15222495792E+02  0.19740212812E+02  0.00000000000E+00 0.  1.
</event>
<event>
 7    1  0.3062695E-010  0.4778727E+02  0.7816164E-02  0.1312668E+00
        -11   -1    0    0    0    0  0.00000000000E+00  0.00000000000E+00  0.45593999997E+02  0.45594000000E+02  0.51100000000E-03 0.  1.
         11   -1    0    0    0    0 -0.00000000000E+00 -0.00000000000E+00 -0.45593999997E+02  0.45594000000E+02  0.51100000000E-03 0. -1.
    9900012    2    1    2    0    0  0.15495038732E+02  0.26543901743E+02 -0.30642262024E+02  0.47787272276E+02  0.20000005614E+02 0.  0.
        -12    1    1    2    0    0 -0.15495038732E+02 -0.26543901743E+02  0.30642262024E+02  0.43400727724E+02  0.00000000000E+00 0.  1.
         11    1    3    3    0    0  0.48677417973E+01  0.11047372591E+02 -0.20575816028E+02  0.23855891450E+02  0.51100000000E-03 0. -1.
        -11    1    3    3    0    0  0.10945814169E+02  0.10583312300E+02 -0.33265992982E+01  0.15584723616E+02  0.51100000000E-03 0.  1.
        -12    1    3    3    0    0 -0.31851723431E+00  0.49132168522E+01 -0.67398466976E+01  0.83466572095E+01  0.00000000000E+00 0.  1.
</event>
<event>
 7    1  0.3062695E-010  0.4778726E+02  0.7816164E-02  0.1312668E+00
        -11   -1    0    0    0    0  0.00000000000E+00  0.00000000000E+00  0.45593999997E+02  0.45594000000E+02  0.51100000000E-03 0.  1.
         11   -1    0    0    0    0 -0.00000000000E+00 -0.00000000000E+00 -0.45593999997E+02  0.45594000000E+02  0.51100000000E-03 0. -1.
    9900012    2    1    2    0    0 -0.34953903016E+01 -0.36348170595E+02  0.23456702952E+02  0.47787260694E+02  0.19999952807E+02 0.  0.
        -12    1    1    2    0    0  0.34953903016E+01  0.36348170595E+02 -0.23456702952E+02  0.43400739306E+02  0.00000000000E+00 0.  1.
         11    1    3    3    0    0  0.50349148036E+01 -0.35224118186E+01  0.12851593913E+01  0.62776896245E+01  0.51100000000E-03 0. -1.
        -11    1    3    3    0    0 -0.63414285316E+01 -0.90156303358E+01  0.51958801891E+01  0.12185748946E+02  0.51100000000E-03 0.  1.
         12    1    3    3    0    0 -0.21888765736E+01 -0.23810128441E+02  0.16975663371E+02  0.29323822123E+02  0.00000000000E+00 0. -1.
</event>
<event>
 7    1  0.3062695E-010  0.4778727E+02  0.7816164E-02  0.1312668E+00
        -11   -1    0    0    0    0  0.00000000000E+00  0.00000000000E+00  0.45593999997E+02  0.45594000000E+02  0.51100000000E-03 0.  1.
         11   -1    0    0    0    0 -0.00000000000E+00 -0.00000000000E+00 -0.45593999997E+02  0.45594000000E+02  0.51100000000E-03 0. -1.
    9900012    2    1    2    0    0 -0.19115404233E+02  0.36983130834E+02 -0.12266727224E+02  0.47787271411E+02  0.20000001671E+02 0.  0.
        -12    1    1    2    0    0  0.19115404233E+02 -0.36983130834E+02  0.12266727224E+02  0.43400728589E+02  0.00000000000E+00 0.  1.
         11    1    3    3    0    0  0.59033053225E+00  0.44482583156E+01  0.35761824766E+00  0.45014867824E+01  0.51100000000E-03 0. -1.
        -11    1    3    3    0    0 -0.46835358463E+01  0.28455628896E+01 -0.79934385143E+01  0.96916353483E+01  0.51100000000E-03 0.  1.
        -12    1    3    3    0    0 -0.15022198918E+02  0.29689309629E+02 -0.46309069569E+01  0.33594149280E+02  0.00000000000E+00 0.  1.
</event>
<event>
 7    1  0.3062695E-010  0.4778727E+02  0.7816164E-02  0.1312668E+00
        -11   -1    0    0    0    0  0.00000000000E+00  0.00000000000E+00  0.45593999997E+02  0.45594000000E+02  0.51100000000E-03 0.  1.
         11   -1    0    0    0    0 -0.00000000000E+00 -0.00000000000E+00 -0.45593999997E+02  0.45594000000E+02  0.51100000000E-03 0. -1.
    9900012    2    1    2    0    0  0.30464037108E+02 -0.82578040300E+00 -0.30901195460E+02  0.47787270155E+02  0.19999995945E+02 0.  0.
        -12    1    1    2    0    0 -0.30464037108E+02  0.82578040300E+00  0.30901195460E+02  0.43400729845E+02  0.00000000000E+00 0.  1.
         11    1    3    3    0    0  0.10959596055E+02 -0.20135391715E+01 -0.13799560376E+02  0.17736824759E+02  0.51100000000E-03 0.  1.
        -11    1    3    3    0    0  0.61925710364E+01  0.75285028319E+01 -0.48928789392E+01  0.10907179081E+02  0.51100000000E-03 0. -1.
        -12    1    3    3    0    0  0.13311870017E+02 -0.63407440634E+01 -0.12208756145E+02  0.19143266315E+02  0.00000000000E+00 0.  1.
</event>
<event>
 7    1  0.3062695E-010  0.4778727E+02  0.7816164E-02  0.1312668E+00
        -11   -1    0    0    0    0  0.00000000000E+00  0.00000000000E+00  0.45593999997E+02  0.45594000000E+02  0.51100000000E-03 0.  1.
         11   -1    0    0    0    0 -0.00000000000E+00 -0.00000000000E+00 -0.45593999997E+02  0.45594000000E+02  0.51100000000E-03 0. -1.
    9900012    2    1    2    0    0 -0.13300092832E+02 -0.15937215874E+02 -0.38114771846E+02  0.47787272449E+02  0.20000006403E+02 0.  0.
        -12    1    1    2    0    0  0.13300092832E+02  0.15937215874E+02  0.38114771846E+02  0.43400727551E+02  0.00000000000E+00 0.  1.
         11    1    3    3    0    0 -0.46655833859E+01 -0.23911778053E+01 -0.83075266052E+01  0.98234616192E+01  0.51100000000E-03 0. -1.
        -11    1    3    3    0    0  0.32139756268E+01  0.16270789779E+01 -0.85885962722E+01  0.93134854656E+01  0.51100000000E-03 0.  1.
        -12    1    3    3    0    0 -0.11848485073E+02 -0.15173117046E+02 -0.21218648968E+02  0.28650325364E+02  0.00000000000E+00 0.  1.
</event>
<event>
 7    1  0.3062695E-010  0.4778727E+02  0.7816164E-02  0.1312668E+00
        -11   -1    0    0    0    0  0.00000000000E+00  0.00000000000E+00  0.45593999997E+02  0.45594000000E+02  0.51100000000E-03 0.  1.
         11   -1    0    0    0    0 -0.00000000000E+00 -0.00000000000E+00 -0.45593999997E+02  0.45594000000E+02  0.51100000000E-03 0. -1.
    9900012    2    1    2    0    0 -0.37600225742E+02 -0.18783272740E+02 -0.10818279535E+02  0.47787268638E+02  0.19999989028E+02 0.  0.
        -12    1    1    2    0    0  0.37600225742E+02  0.18783272740E+02  0.10818279535E+02  0.43400731362E+02  0.00000000000E+00 0.  1.
         11    1    3    3    0    0 -0.87054892958E+01 -0.33057402243E+01  0.23644552025E+01  0.96075028481E+01  0.51100000000E-03 0. -1.
        -11    1    3    3    0    0 -0.19327866170E+02 -0.37667466806E+01 -0.11890219778E+02  0.23002871949E+02  0.51100000000E-03 0.  1.
        -12    1    3    3    0    0 -0.95668702757E+01 -0.11710785835E+02 -0.12925149590E+01  0.15176893841E+02  0.00000000000E+00 0.  1.
</event>
<event>
 7    1  0.3062695E-010  0.4778727E+02  0.7816164E-02  0.1312668E+00
        -11   -1    0    0    0    0  0.00000000000E+00  0.00000000000E+00  0.45593999997E+02  0.45594000000E+02  0.51100000000E-03 0.  1.
         11   -1    0    0    0    0 -0.00000000000E+00 -0.00000000000E+00 -0.45593999997E+02  0.45594000000E+02  0.51100000000E-03 0. -1.
    9900012    2    1    2    0    0 -0.27901937754E+02 -0.43360093242E+01 -0.32959129328E+02  0.47787270590E+02  0.19999997926E+02 0.  0.
        -12    1    1    2    0    0  0.27901937754E+02  0.43360093242E+01  0.32959129328E+02  0.43400729410E+02  0.00000000000E+00 0.  1.
         11    1    3    3    0    0 -0.23178282550E+02 -0.83818075831E+01 -0.25008995174E+02  0.35113207205E+02  0.51100000000E-03 0. -1.
        -11    1    3    3    0    0 -0.46962812178E+01  0.46458249322E+01 -0.23042333557E+01  0.69963017513E+01  0.51100000000E-03 0.  1.
         12    1    3    3    0    0 -0.27373986214E-01 -0.60002667329E+00 -0.56459007978E+01  0.56777616331E+01  0.00000000000E+00 0. -1.
</event>
<event>
 7    1  0.3062695E-010  0.4778727E+02  0.7816164E-02  0.1312668E+00
        -11   -1    0    0    0    0  0.00000000000E+00  0.00000000000E+00  0.45593999997E+02  0.45594000000E+02  0.51100000000E-03 0.  1.
         11   -1    0    0    0    0 -0.00000000000E+00 -0.00000000000E+00 -0.45593999997E+02  0.45594000000E+02  0.51100000000E-03 0. -1.
    9900012    2    1    2    0    0  0.50184410112E+01 -0.41982300626E+02  0.97941332581E+01  0.47787270026E+02  0.19999995355E+02 0.  0.
        -12    1    1    2    0    0 -0.50184410112E+01  0.41982300626E+02 -0.97941332581E+01  0.43400729974E+02  0.00000000000E+00 0.  1.
         11    1    3    3    0    0  0.43008503791E+01 -0.22495226727E+02  0.12336319291E+02  0.26013790831E+02  0.51100000000E-03 0. -1.
        -11    1    3    3    0    0 -0.44408681871E+00 -0.10704573758E+02 -0.59813301604E+01  0.12270347313E+02  0.51100000000E-03 0.  1.
        -12    1    3    3    0    0  0.11616774508E+01 -0.87825001416E+01  0.34391441274E+01  0.95031318820E+01  0.00000000000E+00 0.  1.
</event>
<event>
 7    1  0.3062695E-010  0.4778727E+02  0.7816164E-02  0.1312668E+00
        -11   -1    0    0    0    0  0.00000000000E+00  0.00000000000E+00  0.45593999997E+02  0.45594000000E+02  0.51100000000E-03 0. -1.
         11   -1    0    0    0    0 -0.00000000000E+00 -0.00000000000E+00 -0.45593999997E+02  0.45594000000E+02  0.51100000000E-03 0.  1.
    9900012    2    1    2    0    0 -0.15140261898E+02  0.22150771177E+02  0.34113620005E+02  0.47787271159E+02  0.20000000523E+02 0.  0.
        -12    1    1    2    0    0  0.15140261898E+02 -0.22150771177E+02 -0.34113620005E+02  0.43400728841E+02  0.00000000000E+00 0.  1.
         11    1    3    3    0    0 -0.45273438571E+01  0.10962834097E+02  0.10950784500E+02  0.16143117892E+02  0.51100000000E-03 0. -1.
        -11    1    3    3    0    0  0.34002050670E+01  0.33353328490E+01  0.22323936977E+01  0.52601731525E+01  0.51100000000E-03 0.  1.
        -12    1    3    3    0    0 -0.14013123108E+02  0.78526042302E+01  0.20930441807E+02  0.26383980115E+02  0.00000000000E+00 0.  1.
</event>
<event>
 7    1  0.3062695E-010  0.4778727E+02  0.7816164E-02  0.1312668E+00
        -11   -1    0    0    0    0  0.00000000000E+00  0.00000000000E+00  0.45593999997E+02  0.45594000000E+02  0.51100000000E-03 0.  1.
         11   -1    0    0    0    0 -0.00000000000E+00 -0.00000000000E+00 -0.45593999997E+02  0.45594000000E+02  0.51100000000E-03 0. -1.
    9900012    2    1    2    0    0  0.34666911479E+02  0.14186570660E+02 -0.21921904173E+02  0.47787269348E+02  0.19999992265E+02 0.  0.
        -12    1    1    2    0    0 -0.34666911479E+02 -0.14186570660E+02  0.21921904173E+02  0.43400730652E+02  0.00000000000E+00 0.  1.
         11    1    3    3    0    0  0.28140136991E+02  0.85284882990E+01 -0.17823842134E+02  0.34384469914E+02  0.51100000000E-03 0. -1.
        -11    1    3    3    0    0  0.19338093411E+00 -0.21540456116E+01  0.68202324844E+00  0.22677003009E+01  0.51100000000E-03 0.  1.
         12    1    3    3    0    0  0.63333935532E+01  0.78121279723E+01 -0.47800852874E+01  0.11135099133E+02  0.00000000000E+00 0. -1.
</event>
<event>
 7    1  0.3062695E-010  0.4778726E+02  0.7816164E-02  0.1312668E+00
        -11   -1    0    0    0    0  0.00000000000E+00  0.00000000000E+00  0.45593999997E+02  0.45594000000E+02  0.51100000000E-03 0.  1.
         11   -1    0    0    0    0 -0.00000000000E+00 -0.00000000000E+00 -0.45593999997E+02  0.45594000000E+02  0.51100000000E-03 0. -1.
    9900012    2    1    2    0    0  0.15513439381E+02  0.41190128634E+01 -0.40323576485E+02  0.47787263959E+02  0.19999967695E+02 0.  0.
        -12    1    1    2    0    0 -0.15513439381E+02 -0.41190128634E+01  0.40323576485E+02  0.43400736041E+02  0.00000000000E+00 0.  1.
         11    1    3    3    0    0  0.77480913224E+01  0.10901716845E+02 -0.17051844356E+02  0.21671311578E+02  0.51100000000E-03 0.  1.
        -11    1    3    3    0    0  0.70235690784E+01 -0.65578542278E+01 -0.15038775377E+02  0.17846589023E+02  0.51100000000E-03 0. -1.
        -12    1    3    3    0    0  0.74177898007E+00 -0.22484975343E+00 -0.82329567518E+01  0.82693633578E+01  0.00000000000E+00 0.  1.
</event>
<event>
 7    1  0.3062695E-010  0.4778727E+02  0.7816164E-02  0.1312668E+00
        -11   -1    0    0    0    0  0.00000000000E+00  0.00000000000E+00  0.45593999997E+02  0.45594000000E+02  0.51100000000E-03 0. -1.
         11   -1    0    0    0    0 -0.00000000000E+00 -0.00000000000E+00 -0.45593999997E+02  0.45594000000E+02  0.51100000000E-03 0.  1.
    9900012    2    1    2    0    0 -0.14954442587E+02 -0.37429150252E+02  0.16094934840E+02  0.47787267643E+02  0.19999984491E+02 0.  0.
        -12    1    1    2    0    0  0.14954442587E+02  0.37429150252E+02 -0.16094934840E+02  0.43400732357E+02  0.00000000000E+00 0.  1.
         11    1    3    3    0    0 -0.31283943000E+01 -0.50394502122E+01  0.10681806581E+02  0.12218179137E+02  0.51100000000E-03 0. -1.
        -11    1    3    3    0    0 -0.64006388894E+01 -0.17642498050E+02 -0.51438590266E+00  0.18774730591E+02  0.51100000000E-03 0.  1.
         12    1    3    3    0    0 -0.54254093974E+01 -0.14747201990E+02  0.59275141615E+01  0.16794357915E+02  0.00000000000E+00 0. -1.
</event>
<event>
 7    1  0.3062695E-010  0.4778728E+02  0.7816164E-02  0.1312668E+00
        -11   -1    0    0    0    0  0.00000000000E+00  0.00000000000E+00  0.45593999997E+02  0.45594000000E+02  0.51100000000E-03 0. -1.
         11   -1    0    0    0    0 -0.00000000000E+00 -0.00000000000E+00 -0.45593999997E+02  0.45594000000E+02  0.51100000000E-03 0.  1.
    9900012    2    1    2    0    0 -0.33097797324E+02  0.10128682705E+02  0.26183356068E+02  0.47787279545E+02  0.20000038757E+02 0.  0.
        -12    1    1    2    0    0  0.33097797324E+02 -0.10128682705E+02 -0.26183356068E+02  0.43400720455E+02  0.00000000000E+00 0.  1.
         11    1    3    3    0    0 -0.20950473219E+02  0.16842916512E+01  0.72580903107E+01  0.22235985287E+02  0.51100000000E-03 0. -1.
        -11    1    3    3    0    0 -0.87990349412E+01  0.95025397461E+01  0.11426086598E+02  0.17270689990E+02  0.51100000000E-03 0.  1.
        -12    1    3    3    0    0 -0.33482891638E+01 -0.10581486926E+01  0.74991791592E+01  0.82806042679E+01  0.00000000000E+00 0.  1.
</event>
<event>
 7    1  0.3062695E-010  0.4778727E+02  0.7816164E-02  0.1312668E+00
        -11   -1    0    0    0    0  0.00000000000E+00  0.00000000000E+00  0.45593999997E+02  0.45594000000E+02  0.51100000000E-03 0.  1.
         11   -1    0    0    0    0 -0.00000000000E+00 -0.00000000000E+00 -0.45593999997E+02  0.45594000000E+02  0.51100000000E-03 0. -1.
    9900012    2    1    2    0    0  0.75055570257E+00 -0.21860436315E+02 -0.37485749989E+02  0.47787268877E+02  0.19999990119E+02 0.  0.
        -12    1    1    2    0    0 -0.75055570257E+00  0.21860436315E+02  0.37485749989E+02  0.43400731123E+02  0.00000000000E+00 0.  1.
         11    1    3    3    0    0  0.12953904359E+01  0.14470116831E+01  0.21701429089E+00  0.19542197052E+01  0.51100000000E-03 0. -1.
        -11    1    3    3    0    0 -0.14587540578E+01 -0.54806238746E+01 -0.21770281729E+01  0.60749200310E+01  0.51100000000E-03 0.  1.
         12    1    3    3    0    0  0.91391932444E+00 -0.17826824124E+02 -0.35525736107E+02  0.39758129141E+02  0.00000000000E+00 0. -1.
</event>
<event>
 7    1  0.3062695E-010  0.4778727E+02  0.7816164E-02  0.1312668E+00
        -11   -1    0    0    0    0  0.00000000000E+00  0.00000000000E+00  0.45593999997E+02  0.45594000000E+02  0.51100000000E-03 0.  1.
         11   -1    0    0    0    0 -0.00000000000E+00 -0.00000000000E+00 -0.45593999997E+02  0.45594000000E+02  0.51100000000E-03 0. -1.
    9900012    2    1    2    0    0  0.51525310322E+01 -0.28004350589E+02 -0.32754097180E+02  0.47787272932E+02  0.20000008606E+02 0.  0.
        -12    1    1    2    0    0 -0.51525310322E+01  0.28004350589E+02  0.32754097180E+02  0.43400727068E+02  0.00000000000E+00 0.  1.
         11    1    3    3    0    0  0.36182800358E+01 -0.18003306608E+02 -0.28827123075E+02  0.34179146044E+02  0.51100000000E-03 0. -1.
        -11    1    3    3    0    0 -0.20563634314E+01 -0.25441766328E+01  0.16144166105E+01  0.36479866439E+01  0.51100000000E-03 0.  1.
         12    1    3    3    0    0  0.35906144279E+01 -0.74568673486E+01 -0.55413907154E+01  0.99601402442E+01  0.00000000000E+00 0. -1.
</event>
<event>
 7    1  0.3062695E-010  0.4778727E+02  0.7816164E-02  0.1312668E+00
        -11   -1    0    0    0    0  0.00000000000E+00  0.00000000000E+00  0.45593999997E+02  0.45594000000E+02  0.51100000000E-03 0.  1.
         11   -1    0    0    0    0 -0.00000000000E+00 -0.00000000000E+00 -0.45593999997E+02  0.45594000000E+02  0.51100000000E-03 0. -1.
    9900012    2    1    2    0    0  0.32040935706E+02  0.88856444603E+01 -0.27893502480E+02  0.47787265917E+02  0.19999976620E+02 0.  0.
        -12    1    1    2    0    0 -0.32040935706E+02 -0.88856444603E+01  0.27893502480E+02  0.43400734083E+02  0.00000000000E+00 0.  1.
         11    1    3    3    0    0  0.18487181133E+02  0.95146488347E+01 -0.71267449059E+01  0.21979419963E+02  0.51100000000E-03 0. -1.
        -11    1    3    3    0    0  0.10251268752E+02  0.12108372426E+01 -0.19026117088E+02  0.21645964279E+02  0.51100000000E-03 0.  1.
         12    1    3    3    0    0  0.33024858205E+01 -0.18398416170E+01 -0.17406404857E+01  0.41618816743E+01  0.00000000000E+00 0. -1.
</event>
<event>
 7    1  0.3062695E-010  0.4778728E+02  0.7816164E-02  0.1312668E+00
        -11   -1    0    0    0    0  0.00000000000E+00  0.00000000000E+00  0.45593999997E+02  0.45594000000E+02  0.51100000000E-03 0.  1.
         11   -1    0    0    0    0 -0.00000000000E+00 -0.00000000000E+00 -0.45593999997E+02  0.45594000000E+02  0.51100000000E-03 0. -1.
    9900012    2    1    2    0    0  0.14864986042E+01  0.76100571187E+01 -0.42702458736E+02  0.47787278467E+02  0.20000033845E+02 0.  0.
        -12    1    1    2    0    0 -0.14864986042E+01 -0.76100571187E+01  0.42702458736E+02  0.43400721533E+02  0.00000000000E+00 0.  1.
         11    1    3    3    0    0 -0.39343347484E+00 -0.92768609804E+00 -0.14100070689E+02  0.14136031448E+02  0.51100000000E-03 0. -1.
        -11    1    3    3    0    0 -0.84073216768E+00  0.12385152397E+02 -0.24221233667E+02  0.27217034943E+02  0.51100000000E-03 0.  1.
        -12    1    3    3    0    0  0.27206642468E+01 -0.38474091805E+01 -0.43811543793E+01  0.64342120761E+01  0.00000000000E+00 0.  1.
</event>
<event>
 7    1  0.3062695E-010  0.4778727E+02  0.7816164E-02  0.1312668E+00
        -11   -1    0    0    0    0  0.00000000000E+00  0.00000000000E+00  0.45593999997E+02  0.45594000000E+02  0.51100000000E-03 0.  1.
         11   -1    0    0    0    0 -0.00000000000E+00 -0.00000000000E+00 -0.45593999997E+02  0.45594000000E+02  0.51100000000E-03 0. -1.
    9900012    2    1    2    0    0 -0.10540804045E+02  0.63286985780E-02 -0.42101245394E+02  0.47787268973E+02  0.19999990554E+02 0.  0.
        -12    1    1    2    0    0  0.10540804045E+02 -0.63286985780E-02  0.42101245394E+02  0.43400731027E+02  0.00000000000E+00 0.  1.
         11    1    3    3    0    0 -0.29726505287E+01 -0.80176833147E+01 -0.12441409772E+02  0.15096641159E+02  0.51100000000E-03 0. -1.
        -11    1    3    3    0    0 -0.11067203346E+01  0.52124583745E+01 -0.61005250911E+01  0.81000591883E+01  0.51100000000E-03 0.  1.
         12    1    3    3    0    0 -0.64614331822E+01  0.28115536388E+01 -0.23559310531E+02  0.24590568625E+02  0.00000000000E+00 0. -1.
</event>
<event>
 7    1  0.3571061E-010  0.4778727E+02  0.7816164E-02  0.1312668E+00
        -11   -1    0    0    0    0  0.00000000000E+00  0.00000000000E+00  0.45593999997E+02  0.45594000000E+02  0.51100000000E-03 0. -1.
         11   -1    0    0    0    0 -0.00000000000E+00 -0.00000000000E+00 -0.45593999997E+02  0.45594000000E+02  0.51100000000E-03 0.  1.
    9900012    2    1    2    0    0  0.27514319804E+02 -0.31117287486E+02  0.12581729442E+02  0.47787270853E+02  0.19999999126E+02 0.  0.
        -12    1    1    2    0    0 -0.27514319804E+02  0.31117287486E+02 -0.12581729442E+02  0.43400729147E+02  0.00000000000E+00 0.  1.
         11    1    3    3    0    0  0.18539710776E+02 -0.18751645318E+02  0.87495697590E+01  0.27783089263E+02  0.51100000000E-03 0. -1.
        -11    1    3    3    0    0 -0.13686209866E+01 -0.77141941470E+01  0.36951856751E+01  0.86623502686E+01  0.51100000000E-03 0.  1.
        -12    1    3    3    0    0  0.10343230015E+02 -0.46514480212E+01  0.13697400759E+00  0.11341831321E+02  0.00000000000E+00 0.  1.
</event>
<event>
 7    1  0.3062695E-010  0.4778727E+02  0.7816164E-02  0.1312668E+00
        -11   -1    0    0    0    0  0.00000000000E+00  0.00000000000E+00  0.45593999997E+02  0.45594000000E+02  0.51100000000E-03 0.  1.
         11   -1    0    0    0    0 -0.00000000000E+00 -0.00000000000E+00 -0.45593999997E+02  0.45594000000E+02  0.51100000000E-03 0. -1.
    9900012    2    1    2    0    0 -0.28345122174E+02  0.32169334249E+02 -0.67313728717E+01  0.47787269616E+02  0.19999993489E+02 0.  0.
        -12    1    1    2    0    0  0.28345122174E+02 -0.32169334249E+02  0.67313728717E+01  0.43400730384E+02  0.00000000000E+00 0.  1.
         11    1    3    3    0    0 -0.22569583680E+02  0.18640867119E+02 -0.86466994892E+01  0.30522671030E+02  0.51100000000E-03 0. -1.
        -11    1    3    3    0    0 -0.22623060659E+00  0.33877989212E+01  0.42822783294E+01  0.54650040960E+01  0.51100000000E-03 0.  1.
        -12    1    3    3    0    0 -0.55493078869E+01  0.10140668209E+02 -0.23669517118E+01  0.11799594491E+02  0.00000000000E+00 0.  1.
</event>
<event>
 7    1  0.3062695E-010  0.4778726E+02  0.7816164E-02  0.1312668E+00
        -11   -1    0    0    0    0  0.00000000000E+00  0.00000000000E+00  0.45593999997E+02  0.45594000000E+02  0.51100000000E-03 0. -1.
         11   -1    0    0    0    0 -0.00000000000E+00 -0.00000000000E+00 -0.45593999997E+02  0.45594000000E+02  0.51100000000E-03 0.  1.
    9900012    2    1    2    0    0  0.43276039204E+02 -0.12444061874E+01 -0.30430210913E+01  0.47787261604E+02  0.19999956958E+02 0.  0.
        -12    1    1    2    0    0 -0.43276039204E+02  0.12444061874E+01  0.30430210913E+01  0.43400738396E+02  0.00000000000E+00 0.  1.
         11    1    3    3    0    0  0.18162692722E+02 -0.70159154271E+01  0.50320078989E+01  0.20110384878E+02  0.51100000000E-03 0. -1.
        -11    1    3    3    0    0  0.25403960219E+02  0.54401609188E+01 -0.76967401843E+01  0.27096057930E+02  0.51100000000E-03 0.  1.
         12    1    3    3    0    0 -0.29061373643E+00  0.33134832088E+00 -0.37828880586E+00  0.58081879635E+00  0.00000000000E+00 0. -1.
</event>
<event>
 7    1  0.3062695E-010  0.4778728E+02  0.7816164E-02  0.1312668E+00
        -11   -1    0    0    0    0  0.00000000000E+00  0.00000000000E+00  0.45593999997E+02  0.45594000000E+02  0.51100000000E-03 0.  1.
         11   -1    0    0    0    0 -0.00000000000E+00 -0.00000000000E+00 -0.45593999997E+02  0.45594000000E+02  0.51100000000E-03 0. -1.
    9900012    2    1    2    0    0  0.32811666267E+02 -0.72758127494E+01 -0.27460512679E+02  0.47787278220E+02  0.20000032718E+02 0.  0.
        -12    1    1    2    0    0 -0.32811666267E+02  0.72758127494E+01  0.27460512679E+02  0.43400721780E+02  0.00000000000E+00 0.  1.
         11    1    3    3    0    0 -0.10049571377E+01  0.31958042949E+01 -0.92295456722E+00  0.34749027806E+01  0.51100000000E-03 0.  1.
        -11    1    3    3    0    0  0.23578476486E+02 -0.84013108954E+01 -0.19231489275E+02  0.31565436131E+02  0.51100000000E-03 0. -1.
        -12    1    3    3    0    0  0.10238146919E+02 -0.20703061489E+01 -0.73060688375E+01  0.12746939309E+02  0.00000000000E+00 0.  1.
</event>
<event>
 7    1  0.3062695E-010  0.4778726E+02  0.7816164E-02  0.1312668E+00
        -11   -1    0    0    0    0  0.00000000000E+00  0.00000000000E+00  0.45593999997E+02  0.45594000000E+02  0.51100000000E-03 0.  1.
         11   -1    0    0    0    0 -0.00000000000E+00 -0.00000000000E+00 -0.45593999997E+02  0.45594000000E+02  0.51100000000E-03 0. -1.
    9900012    2    1    2    0    0 -0.31931880617E+02  0.78652290119E+01 -0.28321678826E+02  0.47787259007E+02  0.19999945118E+02 0.  0.
        -12    1    1    2    0    0  0.31931880617E+02 -0.78652290119E+01  0.28321678826E+02  0.43400740993E+02  0.00000000000E+00 0.  1.
         11    1    3    3    0    0 -0.21514046554E+02  0.86893080129E+01 -0.28603001825E+02  0.36830557781E+02  0.51100000000E-03 0. -1.
        -11    1    3    3    0    0 -0.99852397088E+01 -0.39653723373E+00 -0.45279121677E+00  0.10003363133E+02  0.51100000000E-03 0.  1.
         12    1    3    3    0    0 -0.43259435505E+00 -0.42754176727E+00  0.73411421513E+00  0.95333809304E+00  0.00000000000E+00 0. -1.
</event>
<event>
 7    1  0.3062695E-010  0.4778726E+02  0.7816164E-02  0.1312668E+00
        -11   -1    0    0    0    0  0.00000000000E+00  0.00000000000E+00  0.45593999997E+02  0.45594000000E+02  0.51100000000E-03 0.  1.
         11   -1    0    0    0    0 -0.00000000000E+00 -0.00000000000E+00 -0.45593999997E+02  0.45594000000E+02  0.51100000000E-03 0. -1.
    9900012    2    1    2    0    0 -0.10142911561E+02  0.13437906242E+02 -0.40002100780E+02  0.47787262150E+02  0.19999959448E+02 0.  0.
        -12    1    1    2    0    0  0.10142911561E+02 -0.13437906242E+02  0.40002100780E+02  0.43400737850E+02  0.00000000000E+00 0.  1.
         11    1    3    3    0    0 -0.48021393673E+01  0.80572893886E+01 -0.28879139467E+01  0.98143008931E+01  0.51100000000E-03 0. -1.
        -11    1    3    3    0    0 -0.39919223085E+01  0.29702004735E+01 -0.28365422663E+02  0.28798519714E+02  0.51100000000E-03 0.  1.
         12    1    3    3    0    0 -0.13488498850E+01  0.24104163802E+01 -0.87487641698E+01  0.91744415436E+01  0.00000000000E+00 0. -1.
</event>
<event>
 7    1  0.3062695E-010  0.4778727E+02  0.7816164E-02  0.1312668E+00
        -11   -1    0    0    0    0  0.00000000000E+00  0.00000000000E+00  0.45593999997E+02  0.45594000000E+02  0.51100000000E-03 0. -1.
         11   -1    0    0    0    0 -0.00000000000E+00 -0.00000000000E+00 -0.45593999997E+02  0.45594000000E+02  0.51100000000E-03 0.  1.
    9900012    2    1    2    0    0  0.33692522877E+02 -0.13382283548E+02  0.23861092388E+02  0.47787270275E+02  0.19999996490E+02 0.  0.
        -12    1    1    2    0    0 -0.33692522877E+02  0.13382283548E+02 -0.23861092388E+02  0.43400729725E+02  0.00000000000E+00 0.  1.
         11    1    3    3    0    0  0.27372894913E+02 -0.12900017642E+02  0.13519083659E+02  0.33142894477E+02  0.51100000000E-03 0. -1.
        -11    1    3    3    0    0 -0.28998318659E+00  0.26049400891E+01  0.48506880367E+01  0.55135268029E+01  0.51100000000E-03 0.  1.
        -12    1    3    3    0    0  0.66096111506E+01 -0.30872059950E+01  0.54913206926E+01  0.91308489949E+01  0.00000000000E+00 0.  1.
</event>
<event>
 7    1  0.3062695E-010  0.4778727E+02  0.7816164E-02  0.1312668E+00
        -11   -1    0    0    0    0  0.00000000000E+00  0.00000000000E+00  0.45593999997E+02  0.45594000000E+02  0.51100000000E-03 0.  1.
         11   -1    0    0    0    0 -0.00000000000E+00 -0.00000000000E+00 -0.45593999997E+02  0.45594000000E+02  0.51100000000E-03 0. -1.
    9900012    2    1    2    0    0  0.13269097488E+02 -0.24323402340E+02 -0.33405483060E+02  0.47787272494E+02  0.20000006609E+02 0.  0.
        -12    1    1    2    0    0 -0.13269097488E+02  0.24323402340E+02  0.33405483060E+02  0.43400727506E+02  0.00000000000E+00 0.  1.
         11    1    3    3    0    0  0.37491491567E+01 -0.11645293888E+02 -0.17688250418E+02  0.21506817344E+02  0.51100000000E-03 0. -1.
        -11    1    3    3    0    0  0.77449398713E+00 -0.63900821543E+01 -0.13952192453E+02  0.15365437364E+02  0.51100000000E-03 0.  1.
         12    1    3    3    0    0  0.87454543439E+01 -0.62880262983E+01 -0.17650401890E+01  0.10915017786E+02  0.00000000000E+00 0. -1.
</event>
<event>
 7    1  0.3062695E-010  0.4778727E+02  0.7816164E-02  0.1312668E+00
        -11   -1    0    0    0    0  0.00000000000E+00  0.00000000000E+00  0.45593999997E+02  0.45594000000E+02  0.51100000000E-03 0. -1.
         11   -1    0    0    0    0 -0.00000000000E+00 -0.00000000000E+00 -0.45593999997E+02  0.45594000000E+02  0.51100000000E-03 0.  1.
    9900012    2    1    2    0    0 -0.85599930634E+00  0.23873796922E+02  0.36234405759E+02  0.47787273335E+02  0.20000010445E+02 0.  0.
        -12    1    1    2    0    0  0.85599930634E+00 -0.23873796922E+02 -0.36234405759E+02  0.43400726665E+02  0.00000000000E+00 0.  1.
         11    1    3    3    0    0 -0.68792558547E+01  0.14210598971E+02  0.22471007889E+02  0.27462910990E+02  0.51100000000E-03 0. -1.
        -11    1    3    3    0    0  0.87082247311E+01  0.77376209717E+01  0.10845053820E+02  0.15916002918E+02  0.51100000000E-03 0.  1.
        -12    1    3    3    0    0 -0.26849681827E+01  0.19255769793E+01  0.29183440499E+01  0.44083594272E+01  0.00000000000E+00 0.  1.
</event>
<event>
 7    1  0.3062695E-010  0.4778726E+02  0.7816164E-02  0.1312668E+00
        -11   -1    0    0    0    0  0.00000000000E+00  0.00000000000E+00  0.45593999997E+02  0.45594000000E+02  0.51100000000E-03 0.  1.
         11   -1    0    0    0    0 -0.00000000000E+00 -0.00000000000E+00 -0.45593999997E+02  0.45594000000E+02  0.51100000000E-03 0. -1.
    9900012    2    1    2    0    0  0.30083094142E+02  0.28219046175E+02 -0.13502473649E+02  0.47787263660E+02  0.19999966333E+02 0.  0.
        -12    1    1    2    0    0 -0.30083094142E+02 -0.28219046175E+02  0.13502473649E+02  0.43400736340E+02  0.00000000000E+00 0.  1.
         11    1    3    3    0    0  0.10265294435E+02  0.55489630794E+00 -0.40715678794E+01  0.11057207830E+02  0.51100000000E-03 0. -1.
        -11    1    3    3    0    0  0.90270293405E+01  0.17418066017E+02 -0.10372514220E+01  0.19645665508E+02  0.51100000000E-03 0.  1.
         12    1    3    3    0    0  0.10790770367E+02  0.10246083850E+02 -0.83936543472E+01  0.17084390322E+02  0.00000000000E+00 0. -1.
</event>
<event>
 7    1  0.3062695E-010  0.4778727E+02  0.7816164E-02  0.1312668E+00
        -11   -1    0    0    0    0  0.00000000000E+00  0.00000000000E+00  0.45593999997E+02  0.45594000000E+02  0.51100000000E-03 0.  1.
         11   -1    0    0    0    0 -0.00000000000E+00 -0.00000000000E+00 -0.45593999997E+02  0.45594000000E+02  0.51100000000E-03 0. -1.
    9900012    2    1    2    0    0 -0.34408910046E+02  0.26450704717E+02 -0.10182018266E+00  0.47787271458E+02  0.20000001887E+02 0.  0.
        -12    1    1    2    0    0  0.34408910046E+02 -0.26450704717E+02  0.10182018266E+00  0.43400728542E+02  0.00000000000E+00 0.  1.
         11    1    3    3    0    0 -0.28723847096E+02  0.23366850717E+02 -0.76227341865E+00  0.37035795731E+02  0.51100000000E-03 0. -1.
        -11    1    3    3    0    0 -0.17156360779E+01 -0.21505107595E+01  0.27182995485E+01  0.38674612312E+01  0.51100000000E-03 0.  1.
         12    1    3    3    0    0 -0.39694268720E+01  0.52343647601E+01 -0.20578463125E+01  0.68840144959E+01  0.00000000000E+00 0. -1.
</event>
<event>
 7    1  0.3062695E-010  0.4778727E+02  0.7816164E-02  0.1312668E+00
        -11   -1    0    0    0    0  0.00000000000E+00  0.00000000000E+00  0.45593999997E+02  0.45594000000E+02  0.51100000000E-03 0. -1.
         11   -1    0    0    0    0 -0.00000000000E+00 -0.00000000000E+00 -0.45593999997E+02  0.45594000000E+02  0.51100000000E-03 0.  1.
    9900012    2    1    2    0    0  0.95736056979E+01  0.25210868445E+02  0.34005608918E+02  0.47787271300E+02  0.20000001166E+02 0.  0.
        -12    1    1    2    0    0 -0.95736056979E+01 -0.25210868445E+02 -0.34005608918E+02  0.43400728700E+02  0.00000000000E+00 0.  1.
         11    1    3    3    0    0 -0.77132842140E+00  0.14393222913E+02  0.19064475029E+02  0.23900084136E+02  0.51100000000E-03 0. -1.
        -11    1    3    3    0    0  0.25817425807E+01 -0.22558357358E+01  0.29538692408E+01  0.45254318438E+01  0.51100000000E-03 0.  1.
         12    1    3    3    0    0  0.77631915386E+01  0.13073481268E+02  0.11987264649E+02  0.19361755320E+02  0.00000000000E+00 0. -1.
</event>
<event>
 7    1  0.3062695E-010  0.4778726E+02  0.7816164E-02  0.1312668E+00
        -11   -1    0    0    0    0  0.00000000000E+00  0.00000000000E+00  0.45593999997E+02  0.45594000000E+02  0.51100000000E-03 0. -1.
         11   -1    0    0    0    0 -0.00000000000E+00 -0.00000000000E+00 -0.45593999997E+02  0.45594000000E+02  0.51100000000E-03 0.  1.
    9900012    2    1    2    0    0 -0.36178029549E+02  0.18515800322E+02  0.15229550993E+02  0.47787263749E+02  0.19999966739E+02 0.  0.
        -12    1    1    2    0    0  0.36178029549E+02 -0.18515800322E+02 -0.15229550993E+02  0.43400736251E+02  0.00000000000E+00 0.  1.
         11    1    3    3    0    0 -0.33356959411E+02  0.15497556110E+02  0.13583735828E+02  0.39209423176E+02  0.51100000000E-03 0. -1.
        -11    1    3    3    0    0 -0.92829946391E+00  0.11044579183E+01  0.44576617320E+01  0.46853298247E+01  0.51100000000E-03 0.  1.
         12    1    3    3    0    0 -0.18927706744E+01  0.19137862945E+01 -0.28118465675E+01  0.38925107483E+01  0.00000000000E+00 0. -1.
</event>
<event>
 7    1  0.3062695E-010  0.4778729E+02  0.7816164E-02  0.1312668E+00
        -11   -1    0    0    0    0  0.00000000000E+00  0.00000000000E+00  0.45593999997E+02  0.45594000000E+02  0.51100000000E-03 0. -1.
         11   -1    0    0    0    0 -0.00000000000E+00 -0.00000000000E+00 -0.45593999997E+02  0.45594000000E+02  0.51100000000E-03 0.  1.
    9900012    2    1    2    0    0  0.13745828602E+02  0.32506225055E+02  0.25259049300E+02  0.47787285227E+02  0.20000064663E+02 0.  0.
        -12    1    1    2    0    0 -0.13745828602E+02 -0.32506225055E+02 -0.25259049300E+02  0.43400714773E+02  0.00000000000E+00 0.  1.
         11    1    3    3    0    0  0.32961854250E+01  0.14724426691E+02  0.10059997801E+02  0.18134969968E+02  0.51100000000E-03 0. -1.
        -11    1    3    3    0    0  0.38283885169E+01  0.14900389863E+02  0.33011019493E+01  0.15734530532E+02  0.51100000000E-03 0.  1.
        -12    1    3    3    0    0  0.66212546598E+01  0.28814085011E+01  0.11897949549E+02  0.13917784727E+02  0.00000000000E+00 0.  1.
</event>
<event>
 7    1  0.3062695E-010  0.4778727E+02  0.7816164E-02  0.1312668E+00
        -11   -1    0    0    0    0  0.00000000000E+00  0.00000000000E+00  0.45593999997E+02  0.45594000000E+02  0.51100000000E-03 0.  1.
         11   -1    0    0    0    0 -0.00000000000E+00 -0.00000000000E+00 -0.45593999997E+02  0.45594000000E+02  0.51100000000E-03 0. -1.
    9900012    2    1    2    0    0 -0.23510895328E+02  0.71225991409E+01 -0.35778899382E+02  0.47787271220E+02  0.20000000799E+02 0.  0.
        -12    1    1    2    0    0  0.23510895328E+02 -0.71225991409E+01  0.35778899382E+02  0.43400728780E+02  0.00000000000E+00 0.  1.
         11    1    3    3    0    0 -0.87952612993E+01 -0.28735522661E+01 -0.31962711272E+01  0.97892835963E+01  0.51100000000E-03 0.  1.
        -11    1    3    3    0    0 -0.15513464801E+02  0.92713267506E+01 -0.28274083300E+02  0.33556651749E+02  0.51100000000E-03 0. -1.
        -12    1    3    3    0    0  0.79783077231E+00  0.72482465638E+00 -0.43085449551E+01  0.44413358749E+01  0.00000000000E+00 0.  1.
</event>
<event>
 7    1  0.3062695E-010  0.4778727E+02  0.7816164E-02  0.1312668E+00
        -11   -1    0    0    0    0  0.00000000000E+00  0.00000000000E+00  0.45593999997E+02  0.45594000000E+02  0.51100000000E-03 0.  1.
         11   -1    0    0    0    0 -0.00000000000E+00 -0.00000000000E+00 -0.45593999997E+02  0.45594000000E+02  0.51100000000E-03 0. -1.
    9900012    2    1    2    0    0 -0.16089838289E+02 -0.20904314533E+02 -0.34463755861E+02  0.47787265786E+02  0.19999976024E+02 0.  0.
        -12    1    1    2    0    0  0.16089838289E+02  0.20904314533E+02  0.34463755861E+02  0.43400734214E+02  0.00000000000E+00 0.  1.
         11    1    3    3    0    0 -0.43772532047E-01 -0.90794847154E+00 -0.13518797606E+02  0.13549323799E+02  0.51100000000E-03 0. -1.
        -11    1    3    3    0    0 -0.46297593436E+01 -0.22613312551E+01 -0.10806557638E+01  0.52646089851E+01  0.51100000000E-03 0.  1.
         12    1    3    3    0    0 -0.11416306414E+02 -0.17735034806E+02 -0.19864302492E+02  0.28973333001E+02  0.00000000000E+00 0. -1.
</event>
<event>
 7    1  0.3062695E-010  0.4778727E+02  0.7816164E-02  0.1312668E+00
        -11   -1    0    0    0    0  0.00000000000E+00  0.00000000000E+00  0.45593999997E+02  0.45594000000E+02  0.51100000000E-03 0.  1.
         11   -1    0    0    0    0 -0.00000000000E+00 -0.00000000000E+00 -0.45593999997E+02  0.45594000000E+02  0.51100000000E-03 0. -1.
    9900012    2    1    2    0    0 -0.28125463742E+02  0.32073267434E+02 -0.79929360160E+01  0.47787271657E+02  0.20000002791E+02 0.  0.
        -12    1    1    2    0    0  0.28125463742E+02 -0.32073267434E+02  0.79929360160E+01  0.43400728343E+02  0.00000000000E+00 0.  1.
         11    1    3    3    0    0 -0.92004558941E+01  0.77211446898E+01 -0.36665465746E+01  0.12558185698E+02  0.51100000000E-03 0. -1.
        -11    1    3    3    0    0 -0.17760633858E+02  0.26798072226E+02 -0.47122075632E+01  0.32492794439E+02  0.51100000000E-03 0.  1.
        -12    1    3    3    0    0 -0.11643739898E+01 -0.24459494822E+01  0.38581812184E+00  0.27362915197E+01  0.00000000000E+00 0.  1.
</event>
<event>
 7    1  0.3062695E-010  0.4778728E+02  0.7816164E-02  0.1312668E+00
        -11   -1    0    0    0    0  0.00000000000E+00  0.00000000000E+00  0.45593999997E+02  0.45594000000E+02  0.51100000000E-03 0.  1.
         11   -1    0    0    0    0 -0.00000000000E+00 -0.00000000000E+00 -0.45593999997E+02  0.45594000000E+02  0.51100000000E-03 0. -1.
    9900012    2    1    2    0    0  0.14042194006E+02  0.71289557055E+01 -0.40442769599E+02  0.47787276103E+02  0.20000023063E+02 0.  0.
        -12    1    1    2    0    0 -0.14042194006E+02 -0.71289557055E+01  0.40442769599E+02  0.43400723897E+02  0.00000000000E+00 0.  1.
         11    1    3    3    0    0 -0.89695407228E+00  0.55638454213E+01 -0.54739610424E+01  0.78565356382E+01  0.51100000000E-03 0. -1.
        -11    1    3    3    0    0  0.82943847176E+01 -0.47887646499E+01 -0.13276064824E+02  0.16370185772E+02  0.51100000000E-03 0.  1.
         12    1    3    3    0    0  0.66447633609E+01  0.63538749340E+01 -0.21692743732E+02  0.23560554693E+02  0.00000000000E+00 0. -1.
</event>
<event>
 7    1  0.3062695E-010  0.4778727E+02  0.7816164E-02  0.1312668E+00
        -11   -1    0    0    0    0  0.00000000000E+00  0.00000000000E+00  0.45593999997E+02  0.45594000000E+02  0.51100000000E-03 0. -1.
         11   -1    0    0    0    0 -0.00000000000E+00 -0.00000000000E+00 -0.45593999997E+02  0.45594000000E+02  0.51100000000E-03 0.  1.
    9900012    2    1    2    0    0  0.83006159239E+01 -0.42592114501E+02  0.79680280779E+00  0.47787270316E+02  0.19999996680E+02 0.  0.
        -12    1    1    2    0    0 -0.83006159239E+01  0.42592114501E+02 -0.79680280779E+00  0.43400729684E+02  0.00000000000E+00 0.  1.
         11    1    3    3    0    0  0.10363815275E+02 -0.24851659482E+02  0.60638780522E+01  0.27600439550E+02  0.51100000000E-03 0. -1.
        -11    1    3    3    0    0 -0.45052970641E+01 -0.10128779292E+02 -0.10136219275E+01  0.11131814823E+02  0.51100000000E-03 0.  1.
         12    1    3    3    0    0  0.24420977129E+01 -0.76116757263E+01 -0.42534533170E+01  0.90550159426E+01  0.00000000000E+00 0. -1.
</event>
<event>
 7    1  0.3062695E-010  0.4778728E+02  0.7816164E-02  0.1312668E+00
        -11   -1    0    0    0    0  0.00000000000E+00  0.00000000000E+00  0.45593999997E+02  0.45594000000E+02  0.51100000000E-03 0.  1.
         11   -1    0    0    0    0 -0.00000000000E+00 -0.00000000000E+00 -0.45593999997E+02  0.45594000000E+02  0.51100000000E-03 0. -1.
    9900012    2    1    2    0    0  0.34260984285E+02  0.23452995829E+02 -0.12639797027E+02  0.47787279656E+02  0.20000039263E+02 0.  0.
        -12    1    1    2    0    0 -0.34260984285E+02 -0.23452995829E+02  0.12639797027E+02  0.43400720344E+02  0.00000000000E+00 0.  1.
         11    1    3    3    0    0  0.25033679940E+02  0.22124167570E+02 -0.59308961326E+01  0.33931393299E+02  0.51100000000E-03 0. -1.
        -11    1    3    3    0    0  0.50849663131E+01 -0.77321913617E+00 -0.75496930468E+01  0.91352403143E+01  0.51100000000E-03 0.  1.
        -12    1    3    3    0    0  0.41423380315E+01  0.21020473948E+01  0.84079215221E+00  0.47206460427E+01  0.00000000000E+00 0.  1.
</event>
<event>
 7    1  0.3062695E-010  0.4778727E+02  0.7816164E-02  0.1312668E+00
        -11   -1    0    0    0    0  0.00000000000E+00  0.00000000000E+00  0.45593999997E+02  0.45594000000E+02  0.51100000000E-03 0.  1.
         11   -1    0    0    0    0 -0.00000000000E+00 -0.00000000000E+00 -0.45593999997E+02  0.45594000000E+02  0.51100000000E-03 0. -1.
    9900012    2    1    2    0    0  0.59202242729E+01 -0.89612878243E+01 -0.42050796831E+02  0.47787271331E+02  0.20000001305E+02 0.  0.
        -12    1    1    2    0    0 -0.59202242729E+01  0.89612878243E+01  0.42050796831E+02  0.43400728669E+02  0.00000000000E+00 0.  1.
         11    1    3    3    0    0  0.61666388385E+01  0.27588125021E+01 -0.16299338869E+02  0.17643892111E+02  0.51100000000E-03 0. -1.
        -11    1    3    3    0    0  0.60210094710E+00 -0.12473058778E+02 -0.15855360054E+02  0.20182471691E+02  0.51100000000E-03 0.  1.
         12    1    3    3    0    0 -0.84851551274E+00  0.75295845168E+00 -0.98960979076E+01  0.99609075290E+01  0.00000000000E+00 0. -1.
</event>
<event>
 7    1  0.3062695E-010  0.4778727E+02  0.7816164E-02  0.1312668E+00
        -11   -1    0    0    0    0  0.00000000000E+00  0.00000000000E+00  0.45593999997E+02  0.45594000000E+02  0.51100000000E-03 0.  1.
         11   -1    0    0    0    0 -0.00000000000E+00 -0.00000000000E+00 -0.45593999997E+02  0.45594000000E+02  0.51100000000E-03 0. -1.
    9900012    2    1    2    0    0 -0.41180393717E+02  0.13263684654E+02 -0.34457382459E+01  0.47787271097E+02  0.20000000238E+02 0.  0.
        -12    1    1    2    0    0  0.41180393717E+02 -0.13263684654E+02  0.34457382459E+01  0.43400728903E+02  0.00000000000E+00 0.  1.
         11    1    3    3    0    0 -0.24056251442E+02 -0.14386624620E+01  0.24325395398E+01  0.24221689289E+02  0.51100000000E-03 0. -1.
        -11    1    3    3    0    0 -0.15410771976E+02  0.12792497668E+02 -0.62317715208E+01  0.20975577848E+02  0.51100000000E-03 0.  1.
         12    1    3    3    0    0 -0.17133702988E+01  0.19098494478E+01  0.35349373511E+00  0.25900039604E+01  0.00000000000E+00 0. -1.
</event>
<event>
 7    1  0.3062695E-010  0.4778727E+02  0.7816164E-02  0.1312668E+00
        -11   -1    0    0    0    0  0.00000000000E+00  0.00000000000E+00  0.45593999997E+02  0.45594000000E+02  0.51100000000E-03 0.  1.
         11   -1    0    0    0    0 -0.00000000000E+00 -0.00000000000E+00 -0.45593999997E+02  0.45594000000E+02  0.51100000000E-03 0. -1.
    9900012    2    1    2    0    0 -0.55431304667E+01 -0.42772139767E+02  0.48415738299E+01  0.47787273361E+02  0.20000010563E+02 0.  0.
        -12    1    1    2    0    0  0.55431304667E+01  0.42772139767E+02 -0.48415738299E+01  0.43400726639E+02  0.00000000000E+00 0.  1.
         11    1    3    3    0    0 -0.10570040040E+02 -0.27645032027E+02  0.14553959329E+01  0.29632612437E+02  0.51100000000E-03 0. -1.
        -11    1    3    3    0    0  0.52175390540E+01 -0.15640996794E+02  0.43441622205E+01  0.17050960094E+02  0.51100000000E-03 0.  1.
        -12    1    3    3    0    0 -0.19062948111E+00  0.51388905387E+00 -0.95798432358E+00  0.11037008304E+01  0.00000000000E+00 0.  1.
</event>
<event>
 7    1  0.3062695E-010  0.4778727E+02  0.7816164E-02  0.1312668E+00
        -11   -1    0    0    0    0  0.00000000000E+00  0.00000000000E+00  0.45593999997E+02  0.45594000000E+02  0.51100000000E-03 0.  1.
         11   -1    0    0    0    0 -0.00000000000E+00 -0.00000000000E+00 -0.45593999997E+02  0.45594000000E+02  0.51100000000E-03 0. -1.
    9900012    2    1    2    0    0 -0.21875360178E+02  0.26086763866E+02 -0.26917882476E+02  0.47787273866E+02  0.20000012865E+02 0.  0.
        -12    1    1    2    0    0  0.21875360178E+02 -0.26086763866E+02  0.26917882476E+02  0.43400726134E+02  0.00000000000E+00 0.  1.
         11    1    3    3    0    0 -0.12747481200E+02  0.18610300833E+02 -0.58283937384E+01  0.23298320709E+02  0.51100000000E-03 0. -1.
        -11    1    3    3    0    0 -0.76939461092E+01  0.72215158444E+01 -0.20178714142E+02  0.22771201165E+02  0.51100000000E-03 0.  1.
         12    1    3    3    0    0 -0.14339328686E+01  0.25494718943E+00 -0.91077459580E+00  0.17177519918E+01  0.00000000000E+00 0. -1.
</event>
<event>
 7    1  0.3062695E-010  0.4778727E+02  0.7816164E-02  0.1312668E+00
        -11   -1    0    0    0    0  0.00000000000E+00  0.00000000000E+00  0.45593999997E+02  0.45594000000E+02  0.51100000000E-03 0. -1.
         11   -1    0    0    0    0 -0.00000000000E+00 -0.00000000000E+00 -0.45593999997E+02  0.45594000000E+02  0.51100000000E-03 0.  1.
    9900012    2    1    2    0    0  0.19293737696E+02  0.36133564053E+02  0.14343668575E+02  0.47787267361E+02  0.19999983205E+02 0.  0.
        -12    1    1    2    0    0 -0.19293737696E+02 -0.36133564053E+02 -0.14343668575E+02  0.43400732639E+02  0.00000000000E+00 0.  1.
         11    1    3    3    0    0  0.17309197208E+02  0.20269061052E+02  0.14408373254E+02  0.30299246922E+02  0.51100000000E-03 0. -1.
        -11    1    3    3    0    0  0.33960940123E+01  0.82111707296E+01 -0.26747269772E+01  0.92795982647E+01  0.51100000000E-03 0.  1.
         12    1    3    3    0    0 -0.14115535244E+01  0.76533322706E+01  0.26100222979E+01  0.82084221743E+01  0.00000000000E+00 0. -1.
</event>
<event>
 7    1  0.3062695E-010  0.4778727E+02  0.7816164E-02  0.1312668E+00
        -11   -1    0    0    0    0  0.00000000000E+00  0.00000000000E+00  0.45593999997E+02  0.45594000000E+02  0.51100000000E-03 0.  1.
         11   -1    0    0    0    0 -0.00000000000E+00 -0.00000000000E+00 -0.45593999997E+02  0.45594000000E+02  0.51100000000E-03 0. -1.
    9900012    2    1    2    0    0  0.22105131916E+02  0.30544562669E+02 -0.21494554430E+02  0.47787273787E+02  0.20000012505E+02 0.  0.
        -12    1    1    2    0    0 -0.22105131916E+02 -0.30544562669E+02  0.21494554430E+02  0.43400726213E+02  0.00000000000E+00 0.  1.
         11    1    3    3    0    0  0.15086565423E+02  0.78197878497E+01 -0.71843350764E+01  0.18449070682E+02  0.51100000000E-03 0. -1.
        -11    1    3    3    0    0  0.54252632323E+01  0.16395050134E+02 -0.14867096254E+02  0.22787314482E+02  0.51100000000E-03 0.  1.
        -12    1    3    3    0    0  0.15933032610E+01  0.63297246850E+01  0.55687689993E+00  0.65508886230E+01  0.00000000000E+00 0.  1.
</event>
<event>
 7    1  0.3062695E-010  0.4778727E+02  0.7816164E-02  0.1312668E+00
        -11   -1    0    0    0    0  0.00000000000E+00  0.00000000000E+00  0.45593999997E+02  0.45594000000E+02  0.51100000000E-03 0.  1.
         11   -1    0    0    0    0 -0.00000000000E+00 -0.00000000000E+00 -0.45593999997E+02  0.45594000000E+02  0.51100000000E-03 0. -1.
    9900012    2    1    2    0    0  0.14618439714E+02 -0.23808476788E+02 -0.33212658418E+02  0.47787273902E+02  0.20000013030E+02 0.  0.
        -12    1    1    2    0    0 -0.14618439714E+02  0.23808476788E+02  0.33212658418E+02  0.43400726098E+02  0.00000000000E+00 0.  1.
         11    1    3    3    0    0  0.86550579576E+01 -0.37744451289E+01 -0.19451809212E+02  0.21622426926E+02  0.51100000000E-03 0. -1.
        -11    1    3    3    0    0  0.77276433841E+01 -0.16973364356E+02 -0.10770273800E+02  0.21536257052E+02  0.51100000000E-03 0.  1.
         12    1    3    3    0    0 -0.17642616274E+01 -0.30606673028E+01 -0.29905754061E+01  0.46285899244E+01  0.00000000000E+00 0. -1.
</event>
<event>
 7    1  0.3062695E-010  0.4778727E+02  0.7816164E-02  0.1312668E+00
        -11   -1    0    0    0    0  0.00000000000E+00  0.00000000000E+00  0.45593999997E+02  0.45594000000E+02  0.51100000000E-03 0.  1.
         11   -1    0    0    0    0 -0.00000000000E+00 -0.00000000000E+00 -0.45593999997E+02  0.45594000000E+02  0.51100000000E-03 0. -1.
    9900012    2    1    2    0    0  0.27699550948E+02  0.41290243703E+01 -0.33155829404E+02  0.47787274333E+02  0.20000014993E+02 0.  0.
        -12    1    1    2    0    0 -0.27699550948E+02 -0.41290243703E+01  0.33155829404E+02  0.43400725667E+02  0.00000000000E+00 0.  1.
         11    1    3    3    0    0  0.12946836501E+02  0.15944058763E+01 -0.29751757236E+01  0.13379625418E+02  0.51100000000E-03 0. -1.
        -11    1    3    3    0    0  0.12053268742E+02  0.18624452845E+01 -0.28853735064E+02  0.31325517030E+02  0.51100000000E-03 0.  1.
        -12    1    3    3    0    0  0.26994457050E+01  0.67217320952E+00 -0.13269186162E+01  0.30821318842E+01  0.00000000000E+00 0.  1.
</event>
<event>
 7    1  0.3062695E-010  0.4778727E+02  0.7816164E-02  0.1312668E+00
        -11   -1    0    0    0    0  0.00000000000E+00  0.00000000000E+00  0.45593999997E+02  0.45594000000E+02  0.51100000000E-03 0. -1.
         11   -1    0    0    0    0 -0.00000000000E+00 -0.00000000000E+00 -0.45593999997E+02  0.45594000000E+02  0.51100000000E-03 0.  1.
    9900012    2    1    2    0    0 -0.13977469849E+02  0.40801371605E+02 -0.48478802364E+01  0.47787268082E+02  0.19999986494E+02 0.  0.
        -12    1    1    2    0    0  0.13977469849E+02 -0.40801371605E+02  0.48478802364E+01  0.43400731918E+02  0.00000000000E+00 0.  1.
         11    1    3    3    0    0 -0.86965656795E+01  0.10456480461E+02  0.86077409487E+00  0.13627515201E+02  0.51100000000E-03 0. -1.
        -11    1    3    3    0    0  0.17877219070E+01  0.20932728009E+02 -0.73870419043E+01  0.22269787603E+02  0.51100000000E-03 0.  1.
        -12    1    3    3    0    0 -0.70686260761E+01  0.94121631353E+01  0.16783875730E+01  0.11889965279E+02  0.00000000000E+00 0.  1.
</event>
<event>
 7    1  0.3062695E-010  0.4778727E+02  0.7816164E-02  0.1312668E+00
        -11   -1    0    0    0    0  0.00000000000E+00  0.00000000000E+00  0.45593999997E+02  0.45594000000E+02  0.51100000000E-03 0.  1.
         11   -1    0    0    0    0 -0.00000000000E+00 -0.00000000000E+00 -0.45593999997E+02  0.45594000000E+02  0.51100000000E-03 0. -1.
    9900012    2    1    2    0    0  0.28666616925E+02  0.85973273969E+01  0.31431429748E+02  0.47787265671E+02  0.19999975499E+02 0.  0.
        -12    1    1    2    0    0 -0.28666616925E+02 -0.85973273969E+01 -0.31431429748E+02  0.43400734329E+02  0.00000000000E+00 0.  1.
         11    1    3    3    0    0  0.37318923600E+01  0.52965784362E+01  0.11158574013E+02  0.12903276250E+02  0.51100000000E-03 0. -1.
        -11    1    3    3    0    0  0.13244537258E+02  0.65631151609E+01  0.55158168742E+01  0.15777087305E+02  0.51100000000E-03 0.  1.
        -12    1    3    3    0    0  0.11690187308E+02 -0.32623662003E+01  0.14757038860E+02  0.19106902115E+02  0.00000000000E+00 0.  1.
</event>
<event>
 7    1  0.3062695E-010  0.4778727E+02  0.7816164E-02  0.1312668E+00
        -11   -1    0    0    0    0  0.00000000000E+00  0.00000000000E+00  0.45593999997E+02  0.45594000000E+02  0.51100000000E-03 0.  1.
         11   -1    0    0    0    0 -0.00000000000E+00 -0.00000000000E+00 -0.45593999997E+02  0.45594000000E+02  0.51100000000E-03 0. -1.
    9900012    2    1    2    0    0  0.38517716778E+02 -0.13913119010E+02 -0.14367811067E+02  0.47787269808E+02  0.19999994363E+02 0.  0.
        -12    1    1    2    0    0 -0.38517716778E+02  0.13913119010E+02  0.14367811067E+02  0.43400730192E+02  0.00000000000E+00 0.  1.
         11    1    3    3    0    0  0.23484509869E+02  0.21064843395E+00 -0.12583690996E+02  0.26644246206E+02  0.51100000000E-03 0. -1.
        -11    1    3    3    0    0  0.86776090131E+01 -0.72638865769E+01 -0.30136675460E+01  0.11710983679E+02  0.51100000000E-03 0.  1.
         12    1    3    3    0    0  0.63555978951E+01 -0.68598808670E+01  0.12295474750E+01  0.94320399229E+01  0.00000000000E+00 0. -1.
</event>
<event>
 7    1  0.3062695E-010  0.4778728E+02  0.7816164E-02  0.1312668E+00
        -11   -1    0    0    0    0  0.00000000000E+00  0.00000000000E+00  0.45593999997E+02  0.45594000000E+02  0.51100000000E-03 0.  1.
         11   -1    0    0    0    0 -0.00000000000E+00 -0.00000000000E+00 -0.45593999997E+02  0.45594000000E+02  0.51100000000E-03 0. -1.
    9900012    2    1    2    0    0  0.22422953322E+02 -0.21210595676E+02 -0.30511382181E+02  0.47787278264E+02  0.20000032916E+02 0.  0.
        -12    1    1    2    0    0 -0.22422953322E+02  0.21210595676E+02  0.30511382181E+02  0.43400721736E+02  0.00000000000E+00 0.  1.
         11    1    3    3    0    0  0.20623546032E+02 -0.23279443389E+02 -0.22140845812E+02  0.38176958876E+02  0.51100000000E-03 0. -1.
        -11    1    3    3    0    0  0.28547644431E+01  0.13624298402E+01 -0.72756778300E+01  0.79335605653E+01  0.51100000000E-03 0.  1.
         12    1    3    3    0    0 -0.10553571526E+01  0.70641787296E+00 -0.10948585383E+01  0.16767588228E+01  0.00000000000E+00 0. -1.
</event>
<event>
 7    1  0.3062695E-010  0.4778727E+02  0.7816164E-02  0.1312668E+00
        -11   -1    0    0    0    0  0.00000000000E+00  0.00000000000E+00  0.45593999997E+02  0.45594000000E+02  0.51100000000E-03 0.  1.
         11   -1    0    0    0    0 -0.00000000000E+00 -0.00000000000E+00 -0.45593999997E+02  0.45594000000E+02  0.51100000000E-03 0. -1.
    9900012    2    1    2    0    0  0.36085629010E+02 -0.11575307151E+02 -0.21153316524E+02  0.47787272395E+02  0.20000006158E+02 0.  0.
        -12    1    1    2    0    0 -0.36085629010E+02  0.11575307151E+02  0.21153316524E+02  0.43400727605E+02  0.00000000000E+00 0.  1.
         11    1    3    3    0    0  0.25140735390E+02 -0.13282197687E+01 -0.82229069316E+01  0.26484654847E+02  0.51100000000E-03 0. -1.
        -11    1    3    3    0    0  0.99061797873E+01 -0.79614363531E+01 -0.13689877433E+02  0.18679657683E+02  0.51100000000E-03 0.  1.
         12    1    3    3    0    0  0.10387138329E+01 -0.22856510291E+01  0.75946783994E+00  0.26229598650E+01  0.00000000000E+00 0. -1.
</event>
<event>
 7    1  0.3062695E-010  0.4778727E+02  0.7816164E-02  0.1312668E+00
        -11   -1    0    0    0    0  0.00000000000E+00  0.00000000000E+00  0.45593999997E+02  0.45594000000E+02  0.51100000000E-03 0. -1.
         11   -1    0    0    0    0 -0.00000000000E+00 -0.00000000000E+00 -0.45593999997E+02  0.45594000000E+02  0.51100000000E-03 0.  1.
    9900012    2    1    2    0    0  0.15251728848E+02 -0.38785639888E+02  0.12111250862E+02  0.47787268534E+02  0.19999988554E+02 0.  0.
        -12    1    1    2    0    0 -0.15251728848E+02  0.38785639888E+02 -0.12111250862E+02  0.43400731466E+02  0.00000000000E+00 0.  1.
         11    1    3    3    0    0  0.74881734596E+01 -0.62093210544E+01  0.91183942878E+01  0.13333173829E+02  0.51100000000E-03 0. -1.
        -11    1    3    3    0    0  0.13716225389E+01 -0.19035833783E+02 -0.44809911133E+00  0.19090445497E+02  0.51100000000E-03 0.  1.
         12    1    3    3    0    0  0.63919328492E+01 -0.13540485050E+02  0.34409556852E+01  0.15363649208E+02  0.00000000000E+00 0. -1.
</event>
<event>
 7    1  0.3062695E-010  0.4778727E+02  0.7816164E-02  0.1312668E+00
        -11   -1    0    0    0    0  0.00000000000E+00  0.00000000000E+00  0.45593999997E+02  0.45594000000E+02  0.51100000000E-03 0.  1.
         11   -1    0    0    0    0 -0.00000000000E+00 -0.00000000000E+00 -0.45593999997E+02  0.45594000000E+02  0.51100000000E-03 0. -1.
    9900012    2    1    2    0    0  0.18645447953E+02  0.38033398924E+02  0.94567984970E+01  0.47787271886E+02  0.20000003835E+02 0.  0.
        -12    1    1    2    0    0 -0.18645447953E+02 -0.38033398924E+02 -0.94567984970E+01  0.43400728114E+02  0.00000000000E+00 0.  1.
         11    1    3    3    0    0  0.17401020730E+02  0.24729606517E+02  0.11868697159E+02  0.32484071996E+02  0.51100000000E-03 0. -1.
        -11    1    3    3    0    0  0.29268924144E+01  0.11466421496E+02 -0.38276731764E+01  0.12437708926E+02  0.51100000000E-03 0.  1.
        -12    1    3    3    0    0 -0.16824651917E+01  0.18373709110E+01  0.14157745140E+01  0.28654909632E+01  0.00000000000E+00 0.  1.
</event>
<event>
 7    1  0.3062695E-010  0.4778727E+02  0.7816164E-02  0.1312668E+00
        -11   -1    0    0    0    0  0.00000000000E+00  0.00000000000E+00  0.45593999997E+02  0.45594000000E+02  0.51100000000E-03 0. -1.
         11   -1    0    0    0    0 -0.00000000000E+00 -0.00000000000E+00 -0.45593999997E+02  0.45594000000E+02  0.51100000000E-03 0.  1.
    9900012    2    1    2    0    0  0.11580437408E+02 -0.41811436736E+02  0.11490462820E+01  0.47787273279E+02  0.20000010189E+02 0.  0.
        -12    1    1    2    0    0 -0.11580437408E+02  0.41811436736E+02 -0.11490462820E+01  0.43400726721E+02  0.00000000000E+00 0.  1.
         11    1    3    3    0    0  0.89655898969E+01 -0.30810981813E+02 -0.55304347382E+01  0.32562004102E+02  0.51100000000E-03 0. -1.
        -11    1    3    3    0    0  0.12416470188E+00 -0.92073309630E+00  0.45273393514E+01  0.46216845599E+01  0.51100000000E-03 0.  1.
         12    1    3    3    0    0  0.24906828097E+01 -0.10079721828E+02  0.21521416689E+01  0.10603584618E+02  0.00000000000E+00 0. -1.
</event>
<event>
 7    1  0.3062695E-010  0.4778726E+02  0.7816164E-02  0.1312668E+00
        -11   -1    0    0    0    0  0.00000000000E+00  0.00000000000E+00  0.45593999997E+02  0.45594000000E+02  0.51100000000E-03 0.  1.
         11   -1    0    0    0    0 -0.00000000000E+00 -0.00000000000E+00 -0.45593999997E+02  0.45594000000E+02  0.51100000000E-03 0. -1.
    9900012    2    1    2    0    0  0.22169893676E+02 -0.15916839635E+02 -0.33745726310E+02  0.47787262521E+02  0.19999961137E+02 0.  0.
        -12    1    1    2    0    0 -0.22169893676E+02  0.15916839635E+02  0.33745726310E+02  0.43400737479E+02  0.00000000000E+00 0.  1.
         11    1    3    3    0    0  0.23929060350E+01 -0.55034282929E+01 -0.56814481523E+01  0.82639322139E+01  0.51100000000E-03 0. -1.
        -11    1    3    3    0    0  0.26691761672E+01 -0.75888379518E+00 -0.16492572972E+02  0.16724394444E+02  0.51100000000E-03 0.  1.
        -12    1    3    3    0    0  0.17107811474E+02 -0.96545275466E+01 -0.11571705185E+02  0.22798935863E+02  0.00000000000E+00 0.  1.
</event>
<event>
 7    1  0.3062695E-010  0.4778727E+02  0.7816164E-02  0.1312668E+00
        -11   -1    0    0    0    0  0.00000000000E+00  0.00000000000E+00  0.45593999997E+02  0.45594000000E+02  0.51100000000E-03 0. -1.
         11   -1    0    0    0    0 -0.00000000000E+00 -0.00000000000E+00 -0.45593999997E+02  0.45594000000E+02  0.51100000000E-03 0.  1.
    9900012    2    1    2    0    0 -0.25479887737E+02  0.33643386523E+02  0.10125278302E+02  0.47787269632E+02  0.19999993559E+02 0.  0.
        -12    1    1    2    0    0  0.25479887737E+02 -0.33643386523E+02 -0.10125278302E+02  0.43400730368E+02  0.00000000000E+00 0.  1.
         11    1    3    3    0    0 -0.12416652773E+02  0.22080468367E+02  0.58761761666E+00  0.25339014269E+02  0.51100000000E-03 0. -1.
        -11    1    3    3    0    0 -0.55522102138E+01  0.32869745264E+01  0.92378617945E+01  0.11268066852E+02  0.51100000000E-03 0.  1.
         12    1    3    3    0    0 -0.75110247505E+01  0.82759436293E+01  0.29979889075E+00  0.11180188511E+02  0.00000000000E+00 0. -1.
</event>
<event>
 7    1  0.3062695E-010  0.4778727E+02  0.7816164E-02  0.1312668E+00
        -11   -1    0    0    0    0  0.00000000000E+00  0.00000000000E+00  0.45593999997E+02  0.45594000000E+02  0.51100000000E-03 0.  1.
         11   -1    0    0    0    0 -0.00000000000E+00 -0.00000000000E+00 -0.45593999997E+02  0.45594000000E+02  0.51100000000E-03 0. -1.
    9900012    2    1    2    0    0  0.38066145961E+02 -0.20076458593E+02 -0.56149398539E+01  0.47787271809E+02  0.20000003484E+02 0.  0.
        -12    1    1    2    0    0 -0.38066145961E+02  0.20076458593E+02  0.56149398539E+01  0.43400728191E+02  0.00000000000E+00 0.  1.
         11    1    3    3    0    0  0.29602851212E+02 -0.11137650052E+02 -0.73014192995E+01  0.32460541779E+02  0.51100000000E-03 0. -1.
        -11    1    3    3    0    0  0.41069221993E-01 -0.62458320659E+01 -0.33995529134E+00  0.62552118059E+01  0.51100000000E-03 0.  1.
        -12    1    3    3    0    0  0.84222255276E+01 -0.26929764750E+01  0.20264347370E+01  0.90715182233E+01  0.00000000000E+00 0.  1.
</event>
<event>
 7    1  0.3062695E-010  0.4778727E+02  0.7816164E-02  0.1312668E+00
        -11   -1    0    0    0    0  0.00000000000E+00  0.00000000000E+00  0.45593999997E+02  0.45594000000E+02  0.51100000000E-03 0.  1.
         11   -1    0    0    0    0 -0.00000000000E+00 -0.00000000000E+00 -0.45593999997E+02  0.45594000000E+02  0.51100000000E-03 0. -1.
    9900012    2    1    2    0    0  0.15811850737E+02  0.23943988093E+02 -0.32562160305E+02  0.47787268747E+02  0.19999989527E+02 0.  0.
        -12    1    1    2    0    0 -0.15811850737E+02 -0.23943988093E+02  0.32562160305E+02  0.43400731253E+02  0.00000000000E+00 0.  1.
         11    1    3    3    0    0  0.10250549624E+02  0.26034079157E+01 -0.13896710815E+02  0.17463392342E+02  0.51100000000E-03 0. -1.
        -11    1    3    3    0    0 -0.86507436939E+00  0.14222030282E+02 -0.10094262989E+02  0.17461633503E+02  0.51100000000E-03 0.  1.
        -12    1    3    3    0    0  0.64263754827E+01  0.71185498950E+01 -0.85711865006E+01  0.12862242902E+02  0.00000000000E+00 0.  1.
</event>
<event>
 7    1  0.3062695E-010  0.4778727E+02  0.7816164E-02  0.1312668E+00
        -11   -1    0    0    0    0  0.00000000000E+00  0.00000000000E+00  0.45593999997E+02  0.45594000000E+02  0.51100000000E-03 0. -1.
         11   -1    0    0    0    0 -0.00000000000E+00 -0.00000000000E+00 -0.45593999997E+02  0.45594000000E+02  0.51100000000E-03 0.  1.
    9900012    2    1    2    0    0 -0.41015484196E+02  0.81196880860E+01 -0.11637198671E+02  0.47787266465E+02  0.19999979122E+02 0.  0.
        -12    1    1    2    0    0  0.41015484196E+02 -0.81196880860E+01  0.11637198671E+02  0.43400733535E+02  0.00000000000E+00 0.  1.
         11    1    3    3    0    0 -0.14605653758E+02  0.21827553782E+01 -0.55739272070E+00  0.14778370331E+02  0.51100000000E-03 0. -1.
        -11    1    3    3    0    0 -0.91532237998E+01 -0.51910149069E+01 -0.29898765032E+01  0.10939264302E+02  0.51100000000E-03 0.  1.
        -12    1    3    3    0    0 -0.17256606638E+02  0.11127947615E+02 -0.80899294472E+01  0.22069631833E+02  0.00000000000E+00 0.  1.
</event>
<event>
 7    1  0.3062695E-010  0.4778727E+02  0.7816164E-02  0.1312668E+00
        -11   -1    0    0    0    0  0.00000000000E+00  0.00000000000E+00  0.45593999997E+02  0.45594000000E+02  0.51100000000E-03 0. -1.
         11   -1    0    0    0    0 -0.00000000000E+00 -0.00000000000E+00 -0.45593999997E+02  0.45594000000E+02  0.51100000000E-03 0.  1.
    9900012    2    1    2    0    0  0.25069128800E+02  0.22093490153E+02  0.27695477366E+02  0.47787274286E+02  0.20000014781E+02 0.  0.
        -12    1    1    2    0    0 -0.25069128800E+02 -0.22093490153E+02 -0.27695477366E+02  0.43400725714E+02  0.00000000000E+00 0.  1.
         11    1    3    3    0    0  0.14759745857E+01 -0.60590353466E+00  0.59633919938E+01  0.61731405625E+01  0.51100000000E-03 0. -1.
        -11    1    3    3    0    0  0.22508667419E+02  0.24087172914E+02  0.22256243781E+02  0.39776530712E+02  0.51100000000E-03 0.  1.
        -12    1    3    3    0    0  0.10844867952E+01 -0.13877792261E+01 -0.52415840961E+00  0.18376030115E+01  0.00000000000E+00 0.  1.
</event>
<event>
 7    1  0.3062695E-010  0.4778727E+02  0.7816164E-02  0.1312668E+00
        -11   -1    0    0    0    0  0.00000000000E+00  0.00000000000E+00  0.45593999997E+02  0.45594000000E+02  0.51100000000E-03 0.  1.
         11   -1    0    0    0    0 -0.00000000000E+00 -0.00000000000E+00 -0.45593999997E+02  0.45594000000E+02  0.51100000000E-03 0. -1.
    9900012    2    1    2    0    0 -0.10671741611E+02  0.31621918432E+02 -0.27745119206E+02  0.47787269199E+02  0.19999991585E+02 0.  0.
        -12    1    1    2    0    0  0.10671741611E+02 -0.31621918432E+02  0.27745119206E+02  0.43400730801E+02  0.00000000000E+00 0.  1.
         11    1    3    3    0    0 -0.70543106412E+01  0.41514240316E+01 -0.11060240131E+01  0.82595949956E+01  0.51100000000E-03 0.  1.
        -11    1    3    3    0    0 -0.20398082479E+01  0.24390122048E+02 -0.18490874901E+02  0.30674929928E+02  0.51100000000E-03 0. -1.
         12    1    3    3    0    0 -0.15776227216E+01  0.30803723524E+01 -0.81482202918E+01  0.88527442754E+01  0.00000000000E+00 0. -1.
</event>
<event>
 7    1  0.3062695E-010  0.4778727E+02  0.7816164E-02  0.1312668E+00
        -11   -1    0    0    0    0  0.00000000000E+00  0.00000000000E+00  0.45593999997E+02  0.45594000000E+02  0.51100000000E-03 0. -1.
         11   -1    0    0    0    0 -0.00000000000E+00 -0.00000000000E+00 -0.45593999997E+02  0.45594000000E+02  0.51100000000E-03 0.  1.
    9900012    2    1    2    0    0 -0.31990179127E+01 -0.35692012990E+02  0.24484069253E+02  0.47787272425E+02  0.20000006295E+02 0.  0.
        -12    1    1    2    0    0  0.31990179127E+01  0.35692012990E+02 -0.24484069253E+02  0.43400727575E+02  0.00000000000E+00 0.  1.
         11    1    3    3    0    0 -0.20727102362E+01 -0.29186499774E+02  0.18976198525E+02  0.34874690070E+02  0.51100000000E-03 0. -1.
        -11    1    3    3    0    0  0.42408573650E+01 -0.33103716645E+01  0.31622402213E+01  0.62404483193E+01  0.51100000000E-03 0.  1.
         12    1    3    3    0    0 -0.53671650415E+01 -0.31951415512E+01  0.23456305065E+01  0.66721340355E+01  0.00000000000E+00 0. -1.
</event>
<event>
 7    1  0.3062695E-010  0.4778727E+02  0.7816164E-02  0.1312668E+00
        -11   -1    0    0    0    0  0.00000000000E+00  0.00000000000E+00  0.45593999997E+02  0.45594000000E+02  0.51100000000E-03 0.  1.
         11   -1    0    0    0    0 -0.00000000000E+00 -0.00000000000E+00 -0.45593999997E+02  0.45594000000E+02  0.51100000000E-03 0. -1.
    9900012    2    1    2    0    0 -0.75108948566E+01 -0.20913729655E+01 -0.42694678677E+02  0.47787274548E+02  0.20000015975E+02 0.  0.
        -12    1    1    2    0    0  0.75108948566E+01  0.20913729655E+01  0.42694678677E+02  0.43400725452E+02  0.00000000000E+00 0.  1.
         11    1    3    3    0    0 -0.10068121624E+02 -0.66924378744E+01 -0.38121022964E+02  0.39992101593E+02  0.51100000000E-03 0. -1.
        -11    1    3    3    0    0  0.19375915904E+01  0.27573435918E+01 -0.47698287878E+01  0.58402458665E+01  0.51100000000E-03 0.  1.
         12    1    3    3    0    0  0.61963517699E+00  0.18437213171E+01  0.19617307496E+00  0.19549270889E+01  0.00000000000E+00 0. -1.
</event>
<event>
 7    1  0.3062695E-010  0.4778727E+02  0.7816164E-02  0.1312668E+00
        -11   -1    0    0    0    0  0.00000000000E+00  0.00000000000E+00  0.45593999997E+02  0.45594000000E+02  0.51100000000E-03 0.  1.
         11   -1    0    0    0    0 -0.00000000000E+00 -0.00000000000E+00 -0.45593999997E+02  0.45594000000E+02  0.51100000000E-03 0. -1.
    9900012    2    1    2    0    0 -0.49261963424E+00  0.95178373172E+01 -0.42341365640E+02  0.47787272522E+02  0.20000006739E+02 0.  0.
        -12    1    1    2    0    0  0.49261963424E+00 -0.95178373172E+01  0.42341365640E+02  0.43400727478E+02  0.00000000000E+00 0.  1.
         11    1    3    3    0    0  0.17638798635E+01  0.49759251548E+01 -0.84347923472E+01  0.99507198494E+01  0.51100000000E-03 0. -1.
        -11    1    3    3    0    0  0.89739077571E+00 -0.37660680243E+00  0.15889766493E+01  0.18633276526E+01  0.51100000000E-03 0.  1.
        -12    1    3    3    0    0 -0.31538902735E+01  0.49185189648E+01 -0.35495549942E+02  0.35973225020E+02  0.00000000000E+00 0.  1.
</event>
<event>
 7    1  0.3062695E-010  0.4778726E+02  0.7816164E-02  0.1312668E+00
        -11   -1    0    0    0    0  0.00000000000E+00  0.00000000000E+00  0.45593999997E+02  0.45594000000E+02  0.51100000000E-03 0. -1.
         11   -1    0    0    0    0 -0.00000000000E+00 -0.00000000000E+00 -0.45593999997E+02  0.45594000000E+02  0.51100000000E-03 0.  1.
    9900012    2    1    2    0    0  0.11518660315E+02 -0.39480329482E+02  0.13865376540E+02  0.47787255559E+02  0.19999929396E+02 0.  0.
        -12    1    1    2    0    0 -0.11518660315E+02  0.39480329482E+02 -0.13865376540E+02  0.43400744441E+02  0.00000000000E+00 0.  1.
         11    1    3    3    0    0  0.31625322239E+01 -0.11991425018E+02 -0.30451454197E+01  0.12769839267E+02  0.51100000000E-03 0. -1.
        -11    1    3    3    0    0  0.38682553737E+01 -0.15064039628E+01  0.11857250200E+01  0.43172441000E+01  0.51100000000E-03 0.  1.
         12    1    3    3    0    0  0.44878727170E+01 -0.25982500501E+02  0.15724796940E+02  0.30700172192E+02  0.00000000000E+00 0. -1.
</event>
<event>
 7    1  0.3062695E-010  0.4778727E+02  0.7816164E-02  0.1312668E+00
        -11   -1    0    0    0    0  0.00000000000E+00  0.00000000000E+00  0.45593999997E+02  0.45594000000E+02  0.51100000000E-03 0.  1.
         11   -1    0    0    0    0 -0.00000000000E+00 -0.00000000000E+00 -0.45593999997E+02  0.45594000000E+02  0.51100000000E-03 0. -1.
    9900012    2    1    2    0    0 -0.97130066806E+01 -0.38603871107E+02 -0.17292241922E+02  0.47787274270E+02  0.20000014706E+02 0.  0.
        -12    1    1    2    0    0  0.97130066806E+01  0.38603871107E+02  0.17292241922E+02  0.43400725730E+02  0.00000000000E+00 0.  1.
         11    1    3    3    0    0  0.10433396957E+01 -0.14132488406E+02 -0.24966958394E+01  0.14389206949E+02  0.51100000000E-03 0. -1.
        -11    1    3    3    0    0 -0.29921193384E+01 -0.17188921954E+02 -0.14601603008E+02  0.22751233521E+02  0.51100000000E-03 0.  1.
        -12    1    3    3    0    0 -0.77642270379E+01 -0.72824607475E+01 -0.19394307440E+00  0.10646833799E+02  0.00000000000E+00 0.  1.
</event>
<event>
 7    1  0.3062695E-010  0.4778727E+02  0.7816164E-02  0.1312668E+00
        -11   -1    0    0    0    0  0.00000000000E+00  0.00000000000E+00  0.45593999997E+02  0.45594000000E+02  0.51100000000E-03 0.  1.
         11   -1    0    0    0    0 -0.00000000000E+00 -0.00000000000E+00 -0.45593999997E+02  0.45594000000E+02  0.51100000000E-03 0. -1.
    9900012    2    1    2    0    0 -0.97937359970E+01  0.89216222220E+01 -0.41329295400E+02  0.47787271134E+02  0.20000000408E+02 0.  0.
        -12    1    1    2    0    0  0.97937359970E+01 -0.89216222220E+01  0.41329295400E+02  0.43400728866E+02  0.00000000000E+00 0.  1.
         11    1    3    3    0    0 -0.79543903522E+01  0.25317117836E+01 -0.10701984963E+02  0.13572559554E+02  0.51100000000E-03 0. -1.
        -11    1    3    3    0    0  0.37632586371E+01 -0.14858036058E+01 -0.17206854195E+02  0.17676129652E+02  0.51100000000E-03 0.  1.
        -12    1    3    3    0    0 -0.56026042820E+01  0.78757140442E+01 -0.13420456242E+02  0.16538581928E+02  0.00000000000E+00 0.  1.
</event>
<event>
 7    1  0.3062695E-010  0.4778727E+02  0.7816164E-02  0.1312668E+00
        -11   -1    0    0    0    0  0.00000000000E+00  0.00000000000E+00  0.45593999997E+02  0.45594000000E+02  0.51100000000E-03 0.  1.
         11   -1    0    0    0    0 -0.00000000000E+00 -0.00000000000E+00 -0.45593999997E+02  0.45594000000E+02  0.51100000000E-03 0. -1.
    9900012    2    1    2    0    0 -0.21454687014E+02  0.20205926779E+02 -0.31859694041E+02  0.47787272169E+02  0.20000005125E+02 0.  0.
        -12    1    1    2    0    0  0.21454687014E+02 -0.20205926779E+02  0.31859694041E+02  0.43400727831E+02  0.00000000000E+00 0.  1.
         11    1    3    3    0    0 -0.42983501691E+01  0.95745654023E+01 -0.20723670407E+02  0.23229692900E+02  0.51100000000E-03 0. -1.
        -11    1    3    3    0    0 -0.98347158334E+01  0.27108369129E+01 -0.19419937255E+01  0.10384681612E+02  0.51100000000E-03 0.  1.
         12    1    3    3    0    0 -0.73216210119E+01  0.79205244636E+01 -0.91940299088E+01  0.14172897657E+02  0.00000000000E+00 0. -1.
</event>
<event>
 7    1  0.3711975E-010  0.4778727E+02  0.7816164E-02  0.1312668E+00
        -11   -1    0    0    0    0  0.00000000000E+00  0.00000000000E+00  0.45593999997E+02  0.45594000000E+02  0.51100000000E-03 0. -1.
         11   -1    0    0    0    0 -0.00000000000E+00 -0.00000000000E+00 -0.45593999997E+02  0.45594000000E+02  0.51100000000E-03 0.  1.
    9900012    2    1    2    0    0  0.97554259249E+01  0.31103701805E+02  0.28653351061E+02  0.47787272725E+02  0.20000007662E+02 0.  0.
        -12    1    1    2    0    0 -0.97554259249E+01 -0.31103701805E+02 -0.28653351061E+02  0.43400727275E+02  0.00000000000E+00 0.  1.
         11    1    3    3    0    0  0.35544708338E+01  0.17772096670E+02  0.23546557804E+02  0.29714004570E+02  0.51100000000E-03 0. -1.
        -11    1    3    3    0    0  0.83885750251E+01  0.84627643271E+01  0.43358938382E+01  0.12680163510E+02  0.51100000000E-03 0.  1.
        -12    1    3    3    0    0 -0.21876199339E+01  0.48688408083E+01  0.77089941963E+00  0.53931046446E+01  0.00000000000E+00 0.  1.
</event>
<event>
 7    1  0.3062695E-010  0.4778727E+02  0.7816164E-02  0.1312668E+00
        -11   -1    0    0    0    0  0.00000000000E+00  0.00000000000E+00  0.45593999997E+02  0.45594000000E+02  0.51100000000E-03 0.  1.
         11   -1    0    0    0    0 -0.00000000000E+00 -0.00000000000E+00 -0.45593999997E+02  0.45594000000E+02  0.51100000000E-03 0. -1.
    9900012    2    1    2    0    0  0.19196660451E+02 -0.18728611084E+02 -0.34122583244E+02  0.47787270365E+02  0.19999996902E+02 0.  0.
        -12    1    1    2    0    0 -0.19196660451E+02  0.18728611084E+02  0.34122583244E+02  0.43400729635E+02  0.00000000000E+00 0.  1.
         11    1    3    3    0    0  0.11252790247E+02 -0.49097424418E+01 -0.18921826759E+02  0.22555850402E+02  0.51100000000E-03 0. -1.
        -11    1    3    3    0    0 -0.25706271752E+01 -0.69912948346E+01 -0.41935668774E+01  0.85482355462E+01  0.51100000000E-03 0.  1.
        -12    1    3    3    0    0  0.10514497379E+02 -0.68275738074E+01 -0.11007189608E+02  0.16683184417E+02  0.00000000000E+00 0.  1.
</event>
<event>
 7    1  0.3062695E-010  0.4778727E+02  0.7816164E-02  0.1312668E+00
        -11   -1    0    0    0    0  0.00000000000E+00  0.00000000000E+00  0.45593999997E+02  0.45594000000E+02  0.51100000000E-03 0.  1.
         11   -1    0    0    0    0 -0.00000000000E+00 -0.00000000000E+00 -0.45593999997E+02  0.45594000000E+02  0.51100000000E-03 0. -1.
    9900012    2    1    2    0    0 -0.12148654564E+02  0.34358290866E+02 -0.23569924999E+02  0.47787270474E+02  0.19999997399E+02 0.  0.
        -12    1    1    2    0    0  0.12148654564E+02 -0.34358290866E+02  0.23569924999E+02  0.43400729526E+02  0.00000000000E+00 0.  1.
         11    1    3    3    0    0 -0.14148742133E+01  0.10448860380E+02 -0.58594667412E+01  0.12062914367E+02  0.51100000000E-03 0. -1.
        -11    1    3    3    0    0 -0.42398982440E+01  0.10221270855E+02 -0.17339182259E+02  0.20569354795E+02  0.51100000000E-03 0.  1.
        -12    1    3    3    0    0 -0.64938821066E+01  0.13688159631E+02 -0.37127599889E+00  0.15155001312E+02  0.00000000000E+00 0.  1.
</event>
<event>
 7    1  0.3062695E-010  0.4778727E+02  0.7816164E-02  0.1312668E+00
        -11   -1    0    0    0    0  0.00000000000E+00  0.00000000000E+00  0.45593999997E+02  0.45594000000E+02  0.51100000000E-03 0.  1.
         11   -1    0    0    0    0 -0.00000000000E+00 -0.00000000000E+00 -0.45593999997E+02  0.45594000000E+02  0.51100000000E-03 0. -1.
    9900012    2    1    2    0    0 -0.26348985054E+02  0.55420803719E+01 -0.34038794711E+02  0.47787271739E+02  0.20000003168E+02 0.  0.
        -12    1    1    2    0    0  0.26348985054E+02 -0.55420803719E+01  0.34038794711E+02  0.43400728261E+02  0.00000000000E+00 0.  1.
         11    1    3    3    0    0 -0.12852539568E+02 -0.14487387127E+01 -0.86474380719E+01  0.15558431884E+02  0.51100000000E-03 0. -1.
        -11    1    3    3    0    0 -0.66432445526E+00  0.29270144694E+01 -0.14799882038E+02  0.15101167150E+02  0.51100000000E-03 0.  1.
        -12    1    3    3    0    0 -0.12832121030E+02  0.40638046152E+01 -0.10591474600E+02  0.17127672705E+02  0.00000000000E+00 0.  1.
</event>
<event>
 7    1  0.3062695E-010  0.4778727E+02  0.7816164E-02  0.1312668E+00
        -11   -1    0    0    0    0  0.00000000000E+00  0.00000000000E+00  0.45593999997E+02  0.45594000000E+02  0.51100000000E-03 0.  1.
         11   -1    0    0    0    0 -0.00000000000E+00 -0.00000000000E+00 -0.45593999997E+02  0.45594000000E+02  0.51100000000E-03 0. -1.
    9900012    2    1    2    0    0 -0.13206553416E+02 -0.18405048963E+02 -0.37019786195E+02  0.47787269011E+02  0.19999990730E+02 0.  0.
        -12    1    1    2    0    0  0.13206553416E+02  0.18405048963E+02  0.37019786195E+02  0.43400730989E+02  0.00000000000E+00 0.  1.
         11    1    3    3    0    0 -0.42148761006E+01 -0.20875719943E+01 -0.89658571866E+01  0.10124709019E+02  0.51100000000E-03 0. -1.
        -11    1    3    3    0    0  0.24844355431E+01 -0.22388087575E+01  0.91775544105E+00  0.34679907628E+01  0.51100000000E-03 0.  1.
        -12    1    3    3    0    0 -0.11476112858E+02 -0.14078668211E+02 -0.28971684449E+02  0.34194569229E+02  0.00000000000E+00 0.  1.
</event>
<event>
 7    1  0.3062695E-010  0.4778727E+02  0.7816164E-02  0.1312668E+00
        -11   -1    0    0    0    0  0.00000000000E+00  0.00000000000E+00  0.45593999997E+02  0.45594000000E+02  0.51100000000E-03 0.  1.
         11   -1    0    0    0    0 -0.00000000000E+00 -0.00000000000E+00 -0.45593999997E+02  0.45594000000E+02  0.51100000000E-03 0. -1.
    9900012    2    1    2    0    0 -0.14849970352E+02  0.32914460519E+02 -0.24077791018E+02  0.47787270156E+02  0.19999995948E+02 0.  0.
        -12    1    1    2    0    0  0.14849970352E+02 -0.32914460519E+02  0.24077791018E+02  0.43400729844E+02  0.00000000000E+00 0.  1.
         11    1    3    3    0    0 -0.60604519553E+01  0.14210528161E+02 -0.58639563609E+01  0.16524350909E+02  0.51100000000E-03 0. -1.
        -11    1    3    3    0    0 -0.78846038316E+01  0.52037346263E+01 -0.14369744974E+02  0.17196959107E+02  0.51100000000E-03 0.  1.
        -12    1    3    3    0    0 -0.90491456564E+00  0.13500197732E+02 -0.38440896835E+01  0.14065960140E+02  0.00000000000E+00 0.  1.
</event>
<event>
 7    1  0.3062695E-010  0.4778727E+02  0.7816164E-02  0.1312668E+00
        -11   -1    0    0    0    0  0.00000000000E+00  0.00000000000E+00  0.45593999997E+02  0.45594000000E+02  0.51100000000E-03 0.  1.
         11   -1    0    0    0    0 -0.00000000000E+00 -0.00000000000E+00 -0.45593999997E+02  0.45594000000E+02  0.51100000000E-03 0. -1.
    9900012    2    1    2    0    0  0.21727175870E+01  0.14603457980E+02 -0.40812273179E+02  0.47787270412E+02  0.19999997118E+02 0.  0.
        -12    1    1    2    0    0 -0.21727175870E+01 -0.14603457980E+02  0.40812273179E+02  0.43400729588E+02  0.00000000000E+00 0.  1.
         11    1    3    3    0    0 -0.47747195258E+01  0.19744107529E+01 -0.23857866947E+02  0.24410941397E+02  0.51100000000E-03 0. -1.
        -11    1    3    3    0    0  0.61568382740E+01  0.73066161958E+01 -0.63132634104E+01  0.11452099935E+02  0.51100000000E-03 0.  1.
         12    1    3    3    0    0  0.79059883883E+00  0.53224310313E+01 -0.10641142822E+02  0.11924229081E+02  0.00000000000E+00 0. -1.
</event>
<event>
 7    1  0.3062695E-010  0.4778728E+02  0.7816164E-02  0.1312668E+00
        -11   -1    0    0    0    0  0.00000000000E+00  0.00000000000E+00  0.45593999997E+02  0.45594000000E+02  0.51100000000E-03 0.  1.
         11   -1    0    0    0    0 -0.00000000000E+00 -0.00000000000E+00 -0.45593999997E+02  0.45594000000E+02  0.51100000000E-03 0. -1.
    9900012    2    1    2    0    0  0.75619522464E+01  0.38408392848E+02 -0.18741264249E+02  0.47787277095E+02  0.20000027589E+02 0.  0.
        -12    1    1    2    0    0 -0.75619522464E+01 -0.38408392848E+02  0.18741264249E+02  0.43400722905E+02  0.00000000000E+00 0.  1.
         11    1    3    3    0    0  0.46101879403E+01 -0.71852239186E+00 -0.24369265294E+01  0.52639071462E+01  0.51100000000E-03 0.  1.
        -11    1    3    3    0    0  0.27117026436E-02  0.16951057705E+01 -0.37353193927E+00  0.17357757048E+01  0.51100000000E-03 0. -1.
         12    1    3    3    0    0  0.29490526034E+01  0.37431809470E+02 -0.15930805780E+02  0.40787594245E+02  0.00000000000E+00 0. -1.
</event>
<event>
 7    1  0.3062695E-010  0.4778728E+02  0.7816164E-02  0.1312668E+00
        -11   -1    0    0    0    0  0.00000000000E+00  0.00000000000E+00  0.45593999997E+02  0.45594000000E+02  0.51100000000E-03 0. -1.
         11   -1    0    0    0    0 -0.00000000000E+00 -0.00000000000E+00 -0.45593999997E+02  0.45594000000E+02  0.51100000000E-03 0.  1.
    9900012    2    1    2    0    0 -0.33033456996E+02  0.86350482688E+01  0.26792713085E+02  0.47787276340E+02  0.20000024146E+02 0.  0.
        -12    1    1    2    0    0  0.33033456996E+02 -0.86350482688E+01 -0.26792713085E+02  0.43400723660E+02  0.00000000000E+00 0.  1.
         11    1    3    3    0    0 -0.72328471508E+01  0.62017193036E+01  0.16371462638E+02  0.18942021787E+02  0.51100000000E-03 0. -1.
        -11    1    3    3    0    0 -0.23557810851E+02  0.43313290393E+01  0.94733359310E+01  0.25758007634E+02  0.51100000000E-03 0.  1.
         12    1    3    3    0    0 -0.22427989949E+01 -0.18980000742E+01  0.94791451613E+00  0.30872469197E+01  0.00000000000E+00 0. -1.
</event>
<event>
 7    1  0.3062695E-010  0.4778727E+02  0.7816164E-02  0.1312668E+00
        -11   -1    0    0    0    0  0.00000000000E+00  0.00000000000E+00  0.45593999997E+02  0.45594000000E+02  0.51100000000E-03 0.  1.
         11   -1    0    0    0    0 -0.00000000000E+00 -0.00000000000E+00 -0.45593999997E+02  0.45594000000E+02  0.51100000000E-03 0. -1.
    9900012    2    1    2    0    0 -0.33408690535E+02  0.14933927228E+02 -0.23333676873E+02  0.47787271180E+02  0.20000000616E+02 0.  0.
        -12    1    1    2    0    0  0.33408690535E+02 -0.14933927228E+02  0.23333676873E+02  0.43400728820E+02  0.00000000000E+00 0.  1.
         11    1    3    3    0    0  0.26143039641E+01  0.15405662382E+01 -0.30087912735E+01  0.42732604343E+01  0.51100000000E-03 0.  1.
        -11    1    3    3    0    0 -0.32319496361E+02  0.12038732712E+02 -0.17594248466E+02  0.38717418686E+02  0.51100000000E-03 0. -1.
        -12    1    3    3    0    0 -0.37034981375E+01  0.13546282783E+01 -0.27306371336E+01  0.47965920592E+01  0.00000000000E+00 0.  1.
</event>
<event>
 7    1  0.3062695E-010  0.4778727E+02  0.7816164E-02  0.1312668E+00
        -11   -1    0    0    0    0  0.00000000000E+00  0.00000000000E+00  0.45593999997E+02  0.45594000000E+02  0.51100000000E-03 0. -1.
         11   -1    0    0    0    0 -0.00000000000E+00 -0.00000000000E+00 -0.45593999997E+02  0.45594000000E+02  0.51100000000E-03 0.  1.
    9900012    2    1    2    0    0 -0.26891925249E+02 -0.31933535398E+02  0.11861588792E+02  0.47787267111E+02  0.19999982064E+02 0.  0.
        -12    1    1    2    0    0  0.26891925249E+02  0.31933535398E+02 -0.11861588792E+02  0.43400732889E+02  0.00000000000E+00 0.  1.
         11    1    3    3    0    0 -0.66013649908E+01 -0.12518751076E+02  0.12395341918E+02  0.18813337018E+02  0.51100000000E-03 0. -1.
        -11    1    3    3    0    0 -0.65752327068E+01 -0.63851071845E+01 -0.35275127525E+01  0.98207242801E+01  0.51100000000E-03 0.  1.
         12    1    3    3    0    0 -0.13715327552E+02 -0.13029677138E+02  0.29937596267E+01  0.19153205812E+02  0.00000000000E+00 0. -1.
</event>
<event>
 7    1  0.3062695E-010  0.4778727E+02  0.7816164E-02  0.1312668E+00
        -11   -1    0    0    0    0  0.00000000000E+00  0.00000000000E+00  0.45593999997E+02  0.45594000000E+02  0.51100000000E-03 0. -1.
         11   -1    0    0    0    0 -0.00000000000E+00 -0.00000000000E+00 -0.45593999997E+02  0.45594000000E+02  0.51100000000E-03 0.  1.
    9900012    2    1    2    0    0 -0.23375772746E+02 -0.59831614717E+01 -0.36074895982E+02  0.47787273131E+02  0.20000009513E+02 0.  0.
        -12    1    1    2    0    0  0.23375772746E+02  0.59831614717E+01  0.36074895982E+02  0.43400726869E+02  0.00000000000E+00 0.  1.
         11    1    3    3    0    0 -0.86496204686E+01  0.19566413505E+01 -0.62548243482E+01  0.10852060058E+02  0.51100000000E-03 0. -1.
        -11    1    3    3    0    0 -0.88302675687E+00  0.36369443912E+01 -0.54375624938E+01  0.66010746771E+01  0.51100000000E-03 0.  1.
        -12    1    3    3    0    0 -0.13843125520E+02 -0.11576747213E+02 -0.24382509140E+02  0.30334138395E+02  0.00000000000E+00 0.  1.
</event>
<event>
 7    1  0.3062695E-010  0.4778727E+02  0.7816164E-02  0.1312668E+00
        -11   -1    0    0    0    0  0.00000000000E+00  0.00000000000E+00  0.45593999997E+02  0.45594000000E+02  0.51100000000E-03 0.  1.
         11   -1    0    0    0    0 -0.00000000000E+00 -0.00000000000E+00 -0.45593999997E+02  0.45594000000E+02  0.51100000000E-03 0. -1.
    9900012    2    1    2    0    0  0.22593488340E+02 -0.68533405933E+01 -0.36416880745E+02  0.47787271943E+02  0.20000004098E+02 0.  0.
        -12    1    1    2    0    0 -0.22593488340E+02  0.68533405933E+01  0.36416880745E+02  0.43400728057E+02  0.00000000000E+00 0.  1.
         11    1    3    3    0    0  0.91429166321E+01 -0.92110393295E+01 -0.26312014654E+02  0.29338682409E+02  0.51100000000E-03 0. -1.
        -11    1    3    3    0    0  0.52830312889E+01 -0.23635908681E+01 -0.23897639009E+01  0.62616254403E+01  0.51100000000E-03 0.  1.
         12    1    3    3    0    0  0.81675404194E+01  0.47212896044E+01 -0.77151021897E+01  0.12186964094E+02  0.00000000000E+00 0. -1.
</event>
<event>
 7    1  0.3062695E-010  0.4778728E+02  0.7816164E-02  0.1312668E+00
        -11   -1    0    0    0    0  0.00000000000E+00  0.00000000000E+00  0.45593999997E+02  0.45594000000E+02  0.51100000000E-03 0.  1.
         11   -1    0    0    0    0 -0.00000000000E+00 -0.00000000000E+00 -0.45593999997E+02  0.45594000000E+02  0.51100000000E-03 0. -1.
    9900012    2    1    2    0    0  0.17346555374E+02 -0.31386441650E+02 -0.24446082045E+02  0.47787278461E+02  0.20000033813E+02 0.  0.
        -12    1    1    2    0    0 -0.17346555374E+02  0.31386441650E+02  0.24446082045E+02  0.43400721539E+02  0.00000000000E+00 0.  1.
         11    1    3    3    0    0  0.81226072961E+01 -0.14140460974E+02 -0.26594698396E+01  0.16522777186E+02  0.51100000000E-03 0. -1.
        -11    1    3    3    0    0  0.69189718824E+01 -0.30027185588E+01 -0.10589054971E+02  0.13000637527E+02  0.51100000000E-03 0.  1.
         12    1    3    3    0    0  0.23049761954E+01 -0.14243262117E+02 -0.11197557234E+02  0.18263863748E+02  0.00000000000E+00 0. -1.
</event>
<event>
 7    1  0.3062695E-010  0.4778727E+02  0.7816164E-02  0.1312668E+00
        -11   -1    0    0    0    0  0.00000000000E+00  0.00000000000E+00  0.45593999997E+02  0.45594000000E+02  0.51100000000E-03 0.  1.
         11   -1    0    0    0    0 -0.00000000000E+00 -0.00000000000E+00 -0.45593999997E+02  0.45594000000E+02  0.51100000000E-03 0. -1.
    9900012    2    1    2    0    0  0.40648993885E+02  0.12676352590E+02 -0.84019467701E+01  0.47787270417E+02  0.19999997137E+02 0.  0.
        -12    1    1    2    0    0 -0.40648993885E+02 -0.12676352590E+02  0.84019467701E+01  0.43400729583E+02  0.00000000000E+00 0.  1.
         11    1    3    3    0    0  0.65891531451E+01 -0.37800521377E+00 -0.49845845539E+01  0.82707865737E+01  0.51100000000E-03 0. -1.
        -11    1    3    3    0    0  0.30124864375E+02  0.15132643627E+02  0.30709142948E+00  0.33713478939E+02  0.51100000000E-03 0.  1.
        -12    1    3    3    0    0  0.39349763654E+01 -0.20782858237E+01 -0.37244536456E+01  0.58030049043E+01  0.00000000000E+00 0.  1.
</event>
<event>
 7    1  0.3062695E-010  0.4778727E+02  0.7816164E-02  0.1312668E+00
        -11   -1    0    0    0    0  0.00000000000E+00  0.00000000000E+00  0.45593999997E+02  0.45594000000E+02  0.51100000000E-03 0.  1.
         11   -1    0    0    0    0 -0.00000000000E+00 -0.00000000000E+00 -0.45593999997E+02  0.45594000000E+02  0.51100000000E-03 0. -1.
    9900012    2    1    2    0    0  0.32276650313E+02  0.27468939867E+02 -0.93433573076E+01  0.47787272602E+02  0.20000007103E+02 0.  0.
        -12    1    1    2    0    0 -0.32276650313E+02 -0.27468939867E+02  0.93433573076E+01  0.43400727398E+02  0.00000000000E+00 0.  1.
         11    1    3    3    0    0  0.14910865259E+00  0.55158947571E+01 -0.77355386850E-01  0.55184520003E+01  0.51100000000E-03 0. -1.
        -11    1    3    3    0    0  0.21094105162E+02  0.16254992737E+02 -0.12527137699E+02  0.29429835893E+02  0.51100000000E-03 0.  1.
        -12    1    3    3    0    0  0.11033436498E+02  0.56980523727E+01  0.32611357778E+01  0.12838984709E+02  0.00000000000E+00 0.  1.
</event>
<event>
 7    1  0.3062695E-010  0.4778727E+02  0.7816164E-02  0.1312668E+00
        -11   -1    0    0    0    0  0.00000000000E+00  0.00000000000E+00  0.45593999997E+02  0.45594000000E+02  0.51100000000E-03 0. -1.
         11   -1    0    0    0    0 -0.00000000000E+00 -0.00000000000E+00 -0.45593999997E+02  0.45594000000E+02  0.51100000000E-03 0.  1.
    9900012    2    1    2    0    0 -0.19629621994E+02  0.35256009371E+02  0.15978584781E+02  0.47787269269E+02  0.19999991903E+02 0.  0.
        -12    1    1    2    0    0  0.19629621994E+02 -0.35256009371E+02 -0.15978584781E+02  0.43400730731E+02  0.00000000000E+00 0.  1.
         11    1    3    3    0    0 -0.17000333161E+02  0.25394989521E+02  0.56114995603E+01  0.31070979192E+02  0.51100000000E-03 0. -1.
        -11    1    3    3    0    0 -0.52369589120E+00  0.76288848867E+00 -0.14096852347E+01  0.16862588635E+01  0.51100000000E-03 0.  1.
         12    1    3    3    0    0 -0.21055929425E+01  0.90981313609E+01  0.11776770456E+02  0.15030031213E+02  0.00000000000E+00 0. -1.
</event>
<event>
 7    1  0.3062695E-010  0.4778727E+02  0.7816164E-02  0.1312668E+00
        -11   -1    0    0    0    0  0.00000000000E+00  0.00000000000E+00  0.45593999997E+02  0.45594000000E+02  0.51100000000E-03 0.  1.
         11   -1    0    0    0    0 -0.00000000000E+00 -0.00000000000E+00 -0.45593999997E+02  0.45594000000E+02  0.51100000000E-03 0. -1.
    9900012    2    1    2    0    0 -0.37165455875E+02  0.16580336314E+02 -0.15081267657E+02  0.47787270779E+02  0.19999998792E+02 0.  0.
        -12    1    1    2    0    0  0.37165455875E+02 -0.16580336314E+02  0.15081267657E+02  0.43400729221E+02  0.00000000000E+00 0.  1.
         11    1    3    3    0    0 -0.62251940110E+01  0.86866541931E+01 -0.55607141243E+01  0.12047096886E+02  0.51100000000E-03 0. -1.
        -11    1    3    3    0    0 -0.12385906717E+02 -0.13669798069E+01  0.97347127481E+00  0.12499078589E+02  0.51100000000E-03 0.  1.
        -12    1    3    3    0    0 -0.18554355148E+02  0.92606619281E+01 -0.10494024808E+02  0.23241095305E+02  0.00000000000E+00 0.  1.
</event>
<event>
 7    1  0.3062695E-010  0.4778727E+02  0.7816164E-02  0.1312668E+00
        -11   -1    0    0    0    0  0.00000000000E+00  0.00000000000E+00  0.45593999997E+02  0.45594000000E+02  0.51100000000E-03 0.  1.
         11   -1    0    0    0    0 -0.00000000000E+00 -0.00000000000E+00 -0.45593999997E+02  0.45594000000E+02  0.51100000000E-03 0. -1.
    9900012    2    1    2    0    0  0.61586113456E+01  0.95272643539E+01 -0.41891836998E+02  0.47787271126E+02  0.20000000371E+02 0.  0.
        -12    1    1    2    0    0 -0.61586113456E+01 -0.95272643539E+01  0.41891836998E+02  0.43400728874E+02  0.00000000000E+00 0.  1.
         11    1    3    3    0    0  0.72844843634E+01  0.11830390887E+01 -0.35290748760E+02  0.36054129336E+02  0.51100000000E-03 0. -1.
        -11    1    3    3    0    0 -0.70153465485E+00  0.62875520603E+01 -0.71653671614E+01  0.95586583055E+01  0.51100000000E-03 0.  1.
         12    1    3    3    0    0 -0.42433836289E+00  0.20566732050E+01  0.56427892351E+00  0.21744834839E+01  0.00000000000E+00 0. -1.
</event>
<event>
 7    1  0.3062695E-010  0.4778727E+02  0.7816164E-02  0.1312668E+00
        -11   -1    0    0    0    0  0.00000000000E+00  0.00000000000E+00  0.45593999997E+02  0.45594000000E+02  0.51100000000E-03 0.  1.
         11   -1    0    0    0    0 -0.00000000000E+00 -0.00000000000E+00 -0.45593999997E+02  0.45594000000E+02  0.51100000000E-03 0. -1.
    9900012    2    1    2    0    0  0.32116855136E+02 -0.17312187974E+02 -0.23503603743E+02  0.47787266997E+02  0.19999981548E+02 0.  0.
        -12    1    1    2    0    0 -0.32116855136E+02  0.17312187974E+02  0.23503603743E+02  0.43400733003E+02  0.00000000000E+00 0.  1.
         11    1    3    3    0    0  0.94096100237E+01 -0.13304445749E+02 -0.70686735353E+01  0.17762747065E+02  0.51100000000E-03 0. -1.
        -11    1    3    3    0    0  0.29158470009E+01  0.26003439153E+01 -0.89511780265E+00  0.40081402610E+01  0.51100000000E-03 0.  1.
         12    1    3    3    0    0  0.19791398111E+02 -0.66080861408E+01 -0.15539812405E+02  0.26016379672E+02  0.00000000000E+00 0. -1.
</event>
<event>
 7    1  0.3062695E-010  0.4778727E+02  0.7816164E-02  0.1312668E+00
        -11   -1    0    0    0    0  0.00000000000E+00  0.00000000000E+00  0.45593999997E+02  0.45594000000E+02  0.51100000000E-03 0.  1.
         11   -1    0    0    0    0 -0.00000000000E+00 -0.00000000000E+00 -0.45593999997E+02  0.45594000000E+02  0.51100000000E-03 0. -1.
    9900012    2    1    2    0    0 -0.22862067689E+02  0.20517072889E+02 -0.30659400403E+02  0.47787271296E+02  0.20000001149E+02 0.  0.
        -12    1    1    2    0    0  0.22862067689E+02 -0.20517072889E+02  0.30659400403E+02  0.43400728704E+02  0.00000000000E+00 0.  1.
         11    1    3    3    0    0 -0.16513271718E+01  0.47839086649E+00 -0.43265502623E+01  0.46556177552E+01  0.51100000000E-03 0. -1.
        -11    1    3    3    0    0 -0.18402959239E+02  0.10208240052E+02 -0.25221062620E+02  0.32847816878E+02  0.51100000000E-03 0.  1.
        -12    1    3    3    0    0 -0.28077812790E+01  0.98304419698E+01 -0.11117875208E+01  0.10283836664E+02  0.00000000000E+00 0.  1.
</event>
<event>
 7    1  0.3062695E-010  0.4778727E+02  0.7816164E-02  0.1312668E+00
        -11   -1    0    0    0    0  0.00000000000E+00  0.00000000000E+00  0.45593999997E+02  0.45594000000E+02  0.51100000000E-03 0.  1.
         11   -1    0    0    0    0 -0.00000000000E+00 -0.00000000000E+00 -0.45593999997E+02  0.45594000000E+02  0.51100000000E-03 0. -1.
    9900012    2    1    2    0    0  0.86850249253E+01  0.37203841091E+02 -0.20592907320E+02  0.47787270954E+02  0.19999999586E+02 0.  0.
        -12    1    1    2    0    0 -0.86850249253E+01 -0.37203841091E+02  0.20592907320E+02  0.43400729046E+02  0.00000000000E+00 0.  1.
         11    1    3    3    0    0 -0.36982253195E+01  0.14992842088E+02 -0.10960060427E+02  0.18936343607E+02  0.51100000000E-03 0. -1.
        -11    1    3    3    0    0  0.45096919258E+01  0.66893409559E+01  0.14787364661E+01  0.82019062106E+01  0.51100000000E-03 0.  1.
         12    1    3    3    0    0  0.78735583190E+01  0.15521658047E+02 -0.11111583359E+02  0.20649021136E+02  0.00000000000E+00 0. -1.
</event>
<event>
 7    1  0.3062695E-010  0.4778727E+02  0.7816164E-02  0.1312668E+00
        -11   -1    0    0    0    0  0.00000000000E+00  0.00000000000E+00  0.45593999997E+02  0.45594000000E+02  0.51100000000E-03 0.  1.
         11   -1    0    0    0    0 -0.00000000000E+00 -0.00000000000E+00 -0.45593999997E+02  0.45594000000E+02  0.51100000000E-03 0. -1.
    9900012    2    1    2    0    0  0.38571251513E+02 -0.48637187948E+01 -0.19293157989E+02  0.47787272483E+02  0.20000006560E+02 0.  0.
        -12    1    1    2    0    0 -0.38571251513E+02  0.48637187948E+01  0.19293157989E+02  0.43400727517E+02  0.00000000000E+00 0.  1.
         11    1    3    3    0    0  0.33772160356E+02 -0.25123145900E+01 -0.22186876828E+02  0.40486146314E+02  0.51100000000E-03 0. -1.
        -11    1    3    3    0    0  0.19051760164E+01 -0.31500173289E+01  0.18717183713E+01  0.41298468189E+01  0.51100000000E-03 0.  1.
         12    1    3    3    0    0  0.28939151407E+01  0.79861312403E+00  0.10220004672E+01  0.31712793505E+01  0.00000000000E+00 0. -1.
</event>
<event>
 7    1  0.3062695E-010  0.4778726E+02  0.7816164E-02  0.1312668E+00
        -11   -1    0    0    0    0  0.00000000000E+00  0.00000000000E+00  0.45593999997E+02  0.45594000000E+02  0.51100000000E-03 0.  1.
         11   -1    0    0    0    0 -0.00000000000E+00 -0.00000000000E+00 -0.45593999997E+02  0.45594000000E+02  0.51100000000E-03 0. -1.
    9900012    2    1    2    0    0  0.15800084105E+02  0.32140567867E+02 -0.24514590061E+02  0.47787263987E+02  0.19999967824E+02 0.  0.
        -12    1    1    2    0    0 -0.15800084105E+02 -0.32140567867E+02  0.24514590061E+02  0.43400736013E+02  0.00000000000E+00 0.  1.
         11    1    3    3    0    0  0.12882369177E+02  0.31453364444E+02 -0.24483718387E+02  0.41889402440E+02  0.51100000000E-03 0. -1.
        -11    1    3    3    0    0  0.45867601359E+00 -0.17440162835E+01  0.12674423981E+01  0.22041748969E+01  0.51100000000E-03 0.  1.
         12    1    3    3    0    0  0.24590389136E+01  0.24312197065E+01 -0.12983140730E+01  0.36936866505E+01  0.00000000000E+00 0. -1.
</event>
<event>
 7    1  0.3062695E-010  0.4778727E+02  0.7816164E-02  0.1312668E+00
        -11   -1    0    0    0    0  0.00000000000E+00  0.00000000000E+00  0.45593999997E+02  0.45594000000E+02  0.51100000000E-03 0.  1.
         11   -1    0    0    0    0 -0.00000000000E+00 -0.00000000000E+00 -0.45593999997E+02  0.45594000000E+02  0.51100000000E-03 0. -1.
    9900012    2    1    2    0    0  0.27352125060E+02 -0.29921912392E+02 -0.15497219909E+02  0.47787269460E+02  0.19999992774E+02 0.  0.
        -12    1    1    2    0    0 -0.27352125060E+02  0.29921912392E+02  0.15497219909E+02  0.43400730540E+02  0.00000000000E+00 0.  1.
         11    1    3    3    0    0 -0.39360469480E+00 -0.86048030312E+01 -0.49704613167E+01  0.99450010469E+01  0.51100000000E-03 0. -1.
        -11    1    3    3    0    0  0.27750209029E+01 -0.70086516644E+01 -0.15564679548E+01  0.76970469610E+01  0.51100000000E-03 0.  1.
         12    1    3    3    0    0  0.24970708852E+02 -0.14308457697E+02 -0.89702906378E+01  0.30145221452E+02  0.00000000000E+00 0. -1.
</event>
<event>
 7    1  0.3062695E-010  0.4778727E+02  0.7816164E-02  0.1312668E+00
        -11   -1    0    0    0    0  0.00000000000E+00  0.00000000000E+00  0.45593999997E+02  0.45594000000E+02  0.51100000000E-03 0. -1.
         11   -1    0    0    0    0 -0.00000000000E+00 -0.00000000000E+00 -0.45593999997E+02  0.45594000000E+02  0.51100000000E-03 0.  1.
    9900012    2    1    2    0    0 -0.17438112379E+02  0.39386034709E+02  0.53174703638E+01  0.47787274378E+02  0.20000015198E+02 0.  0.
        -12    1    1    2    0    0  0.17438112379E+02 -0.39386034709E+02 -0.53174703638E+01  0.43400725622E+02  0.00000000000E+00 0.  1.
         11    1    3    3    0    0 -0.84220985963E+01  0.19543465704E+02  0.10408152070E+02  0.23689838038E+02  0.51100000000E-03 0. -1.
        -11    1    3    3    0    0 -0.34369571723E+01  0.14920459729E+02 -0.63058685160E+01  0.16558887980E+02  0.51100000000E-03 0.  1.
         12    1    3    3    0    0 -0.55790566104E+01  0.49221092760E+01  0.12151868093E+01  0.75385483595E+01  0.00000000000E+00 0. -1.
</event>
<event>
 7    1  0.3062695E-010  0.4778727E+02  0.7816164E-02  0.1312668E+00
        -11   -1    0    0    0    0  0.00000000000E+00  0.00000000000E+00  0.45593999997E+02  0.45594000000E+02  0.51100000000E-03 0.  1.
         11   -1    0    0    0    0 -0.00000000000E+00 -0.00000000000E+00 -0.45593999997E+02  0.45594000000E+02  0.51100000000E-03 0. -1.
    9900012    2    1    2    0    0 -0.13148731372E+01 -0.42419601937E+02  0.90813877566E+01  0.47787272777E+02  0.20000007900E+02 0.  0.
        -12    1    1    2    0    0  0.13148731372E+01  0.42419601937E+02 -0.90813877566E+01  0.43400727223E+02  0.00000000000E+00 0.  1.
         11    1    3    3    0    0  0.43932921864E+01 -0.29350095745E+02  0.91855832442E+01  0.31066124255E+02  0.51100000000E-03 0. -1.
        -11    1    3    3    0    0 -0.47183941506E+01 -0.12261455044E+02  0.29020109429E+01  0.13454671714E+02  0.51100000000E-03 0.  1.
         12    1    3    3    0    0 -0.98977117310E+00 -0.80805114877E+00 -0.30062064306E+01  0.32664768080E+01  0.00000000000E+00 0. -1.
</event>
<event>
 7    1  0.3062695E-010  0.4778727E+02  0.7816164E-02  0.1312668E+00
        -11   -1    0    0    0    0  0.00000000000E+00  0.00000000000E+00  0.45593999997E+02  0.45594000000E+02  0.51100000000E-03 0.  1.
         11   -1    0    0    0    0 -0.00000000000E+00 -0.00000000000E+00 -0.45593999997E+02  0.45594000000E+02  0.51100000000E-03 0. -1.
    9900012    2    1    2    0    0  0.41361325152E+02  0.11797836099E+02 -0.58030343684E+01  0.47787270020E+02  0.19999995329E+02 0.  0.
        -12    1    1    2    0    0 -0.41361325152E+02 -0.11797836099E+02  0.58030343684E+01  0.43400729980E+02  0.00000000000E+00 0.  1.
         11    1    3    3    0    0  0.32558881172E+02  0.13071506496E+02 -0.32331796633E+01  0.35233485156E+02  0.51100000000E-03 0. -1.
        -11    1    3    3    0    0  0.86841329828E+01 -0.33344368904E+01 -0.57827355403E-01  0.93024716771E+01  0.51100000000E-03 0.  1.
         12    1    3    3    0    0  0.11831099667E+00  0.20607664936E+01 -0.25120273497E+01  0.32513131868E+01  0.00000000000E+00 0. -1.
</event>
<event>
 7    1  0.3062695E-010  0.4778727E+02  0.7816164E-02  0.1312668E+00
        -11   -1    0    0    0    0  0.00000000000E+00  0.00000000000E+00  0.45593999997E+02  0.45594000000E+02  0.51100000000E-03 0.  1.
         11   -1    0    0    0    0 -0.00000000000E+00 -0.00000000000E+00 -0.45593999997E+02  0.45594000000E+02  0.51100000000E-03 0. -1.
    9900012    2    1    2    0    0  0.40509662878E+02  0.15370734011E+02 -0.25162055292E+01  0.47787267969E+02  0.19999985977E+02 0.  0.
        -12    1    1    2    0    0 -0.40509662878E+02 -0.15370734011E+02  0.25162055292E+01  0.43400732031E+02  0.00000000000E+00 0.  1.
         11    1    3    3    0    0  0.16341202627E+02  0.13600626785E+02 -0.29194212371E+01  0.21460078584E+02  0.51100000000E-03 0. -1.
        -11    1    3    3    0    0  0.11228030157E+02  0.34384502791E+00  0.52962836223E+01  0.12419239553E+02  0.51100000000E-03 0.  1.
        -12    1    3    3    0    0  0.12940430095E+02  0.14262621990E+01 -0.48930679144E+01  0.13907949832E+02  0.00000000000E+00 0.  1.
</event>
<event>
 7    1  0.3062695E-010  0.4778727E+02  0.7816164E-02  0.1312668E+00
        -11   -1    0    0    0    0  0.00000000000E+00  0.00000000000E+00  0.45593999997E+02  0.45594000000E+02  0.51100000000E-03 0.  1.
         11   -1    0    0    0    0 -0.00000000000E+00 -0.00000000000E+00 -0.45593999997E+02  0.45594000000E+02  0.51100000000E-03 0. -1.
    9900012    2    1    2    0    0 -0.22643286312E+02 -0.90860158628E+01 -0.35893586327E+02  0.47787266842E+02  0.19999980837E+02 0.  0.
        -12    1    1    2    0    0  0.22643286312E+02  0.90860158628E+01  0.35893586327E+02  0.43400733158E+02  0.00000000000E+00 0.  1.
         11    1    3    3    0    0 -0.22561978594E+01 -0.95886430400E+01 -0.14209699933E+02  0.17290114996E+02  0.51100000000E-03 0. -1.
        -11    1    3    3    0    0 -0.16135228754E+02 -0.23453198709E+01 -0.15894588940E+02  0.22770245718E+02  0.51100000000E-03 0.  1.
         12    1    3    3    0    0 -0.42518596989E+01  0.28479470481E+01 -0.57892974542E+01  0.77269061273E+01  0.00000000000E+00 0. -1.
</event>
<event>
 7    1  0.3062695E-010  0.4778727E+02  0.7816164E-02  0.1312668E+00
        -11   -1    0    0    0    0  0.00000000000E+00  0.00000000000E+00  0.45593999997E+02  0.45594000000E+02  0.51100000000E-03 0.  1.
         11   -1    0    0    0    0 -0.00000000000E+00 -0.00000000000E+00 -0.45593999997E+02  0.45594000000E+02  0.51100000000E-03 0. -1.
    9900012    2    1    2    0    0 -0.14985596213E+02  0.31115939252E+02 -0.26284092990E+02  0.47787270585E+02  0.19999997907E+02 0.  0.
        -12    1    1    2    0    0  0.14985596213E+02 -0.31115939252E+02  0.26284092990E+02  0.43400729415E+02  0.00000000000E+00 0.  1.
         11    1    3    3    0    0 -0.10556184216E+02  0.74768742805E+01 -0.10852218914E+02  0.16885121552E+02  0.51100000000E-03 0. -1.
        -11    1    3    3    0    0 -0.49525658612E+01  0.23019626750E+02 -0.10289757395E+02  0.25696502327E+02  0.51100000000E-03 0.  1.
        -12    1    3    3    0    0  0.52315386378E+00  0.61943822157E+00 -0.51421166812E+01  0.52056467071E+01  0.00000000000E+00 0.  1.
</event>
<event>
 7    1  0.3062695E-010  0.4778727E+02  0.7816164E-02  0.1312668E+00
        -11   -1    0    0    0    0  0.00000000000E+00  0.00000000000E+00  0.45593999997E+02  0.45594000000E+02  0.51100000000E-03 0. -1.
         11   -1    0    0    0    0 -0.00000000000E+00 -0.00000000000E+00 -0.45593999997E+02  0.45594000000E+02  0.51100000000E-03 0.  1.
    9900012    2    1    2    0    0  0.39184635457E+02  0.17828342673E+02  0.55079894015E+01  0.47787269527E+02  0.19999993079E+02 0.  0.
        -12    1    1    2    0    0 -0.39184635457E+02 -0.17828342673E+02 -0.55079894015E+01  0.43400730473E+02  0.00000000000E+00 0.  1.
         11    1    3    3    0    0  0.49144893514E+01  0.48376792659E+01  0.80495893832E+01  0.10599586585E+02  0.51100000000E-03 0. -1.
        -11    1    3    3    0    0  0.29876600705E+02  0.12925466000E+02 -0.11294026893E+01  0.32572296383E+02  0.51100000000E-03 0.  1.
         12    1    3    3    0    0  0.43935454011E+01  0.65197407363E-01 -0.14121972924E+01  0.46153865587E+01  0.00000000000E+00 0. -1.
</event>
<event>
 7    1  0.3062695E-010  0.4778727E+02  0.7816164E-02  0.1312668E+00
        -11   -1    0    0    0    0  0.00000000000E+00  0.00000000000E+00  0.45593999997E+02  0.45594000000E+02  0.51100000000E-03 0.  1.
         11   -1    0    0    0    0 -0.00000000000E+00 -0.00000000000E+00 -0.45593999997E+02  0.45594000000E+02  0.51100000000E-03 0. -1.
    9900012    2    1    2    0    0  0.38302094776E+01 -0.11955526230E+02 -0.41545373167E+02  0.47787272545E+02  0.20000006840E+02 0.  0.
        -12    1    1    2    0    0 -0.38302094776E+01  0.11955526230E+02  0.41545373167E+02  0.43400727455E+02  0.00000000000E+00 0.  1.
         11    1    3    3    0    0 -0.20785616317E+01 -0.10486916456E+02 -0.16883049290E+02  0.19983322767E+02  0.51100000000E-03 0. -1.
        -11    1    3    3    0    0  0.91271075382E+01 -0.96484840499E+00 -0.14772250928E+02  0.17391216812E+02  0.51100000000E-03 0.  1.
         12    1    3    3    0    0 -0.32183364288E+01 -0.50376136849E+00 -0.98900729482E+01  0.10412732965E+02  0.00000000000E+00 0. -1.
</event>
<event>
 7    1  0.3062695E-010  0.4778728E+02  0.7816164E-02  0.1312668E+00
        -11   -1    0    0    0    0  0.00000000000E+00  0.00000000000E+00  0.45593999997E+02  0.45594000000E+02  0.51100000000E-03 0.  1.
         11   -1    0    0    0    0 -0.00000000000E+00 -0.00000000000E+00 -0.45593999997E+02  0.45594000000E+02  0.51100000000E-03 0. -1.
    9900012    2    1    2    0    0 -0.39216513417E+02 -0.10968416216E+02  0.15012722355E+02  0.47787275221E+02  0.20000019041E+02 0.  0.
        -12    1    1    2    0    0  0.39216513417E+02  0.10968416216E+02 -0.15012722355E+02  0.43400724779E+02  0.00000000000E+00 0.  1.
         11    1    3    3    0    0 -0.35640716865E+02 -0.91901523724E+01  0.94081905854E+01  0.37989915104E+02  0.51100000000E-03 0. -1.
        -11    1    3    3    0    0  0.13866517020E+01 -0.94759263669E+00 -0.62291428938E+00  0.17913004273E+01  0.51100000000E-03 0.  1.
         12    1    3    3    0    0 -0.49624482537E+01 -0.83067120695E+00  0.62274460590E+01  0.80060596889E+01  0.00000000000E+00 0. -1.
</event>
<event>
 7    1  0.3062695E-010  0.4778727E+02  0.7816164E-02  0.1312668E+00
        -11   -1    0    0    0    0  0.00000000000E+00  0.00000000000E+00  0.45593999997E+02  0.45594000000E+02  0.51100000000E-03 0. -1.
         11   -1    0    0    0    0 -0.00000000000E+00 -0.00000000000E+00 -0.45593999997E+02  0.45594000000E+02  0.51100000000E-03 0.  1.
    9900012    2    1    2    0    0 -0.30753016641E+02 -0.30607426351E+02 -0.10298883479E+01  0.47787271315E+02  0.20000001234E+02 0.  0.
        -12    1    1    2    0    0  0.30753016641E+02  0.30607426351E+02  0.10298883479E+01  0.43400728685E+02  0.00000000000E+00 0.  1.
         11    1    3    3    0    0 -0.19776955131E+02 -0.22204786068E+02  0.19711334852E+01  0.29800433656E+02  0.51100000000E-03 0. -1.
        -11    1    3    3    0    0 -0.22471703704E+01 -0.36854605895E+01 -0.62064704684E+01  0.75599385160E+01  0.51100000000E-03 0.  1.
        -12    1    3    3    0    0 -0.87288911401E+01 -0.47171796933E+01  0.32054486352E+01  0.10426899143E+02  0.00000000000E+00 0.  1.
</event>
<event>
 7    1  0.3062695E-010  0.4778726E+02  0.7816164E-02  0.1312668E+00
        -11   -1    0    0    0    0  0.00000000000E+00  0.00000000000E+00  0.45593999997E+02  0.45594000000E+02  0.51100000000E-03 0. -1.
         11   -1    0    0    0    0 -0.00000000000E+00 -0.00000000000E+00 -0.45593999997E+02  0.45594000000E+02  0.51100000000E-03 0.  1.
    9900012    2    1    2    0    0  0.21907409084E+02 -0.37065472114E+02  0.54626055023E+01  0.47787264353E+02  0.19999969492E+02 0.  0.
        -12    1    1    2    0    0 -0.21907409084E+02  0.37065472114E+02 -0.54626055023E+01  0.43400735647E+02  0.00000000000E+00 0.  1.
         11    1    3    3    0    0  0.21166823302E+02 -0.31137007162E+02 -0.63076186034E+00  0.37655616905E+02  0.51100000000E-03 0. -1.
        -11    1    3    3    0    0 -0.23605700090E+01 -0.24823217381E+01  0.30442404481E+01  0.45827515911E+01  0.51100000000E-03 0.  1.
         12    1    3    3    0    0  0.31011557915E+01 -0.34461432135E+01  0.30491269146E+01  0.55488958570E+01  0.00000000000E+00 0. -1.
</event>
<event>
 7    1  0.3062695E-010  0.4778727E+02  0.7816164E-02  0.1312668E+00
        -11   -1    0    0    0    0  0.00000000000E+00  0.00000000000E+00  0.45593999997E+02  0.45594000000E+02  0.51100000000E-03 0.  1.
         11   -1    0    0    0    0 -0.00000000000E+00 -0.00000000000E+00 -0.45593999997E+02  0.45594000000E+02  0.51100000000E-03 0. -1.
    9900012    2    1    2    0    0 -0.27605068243E+02 -0.13529293018E+02 -0.30635629242E+02  0.47787270267E+02  0.19999996457E+02 0.  0.
        -12    1    1    2    0    0  0.27605068243E+02  0.13529293018E+02  0.30635629242E+02  0.43400729733E+02  0.00000000000E+00 0.  1.
         11    1    3    3    0    0 -0.25168446210E+01 -0.32524358086E+01 -0.25984936694E+01  0.48646700964E+01  0.51100000000E-03 0. -1.
        -11    1    3    3    0    0 -0.10728059418E+02 -0.32229499815E+01 -0.66976109391E+00  0.11221730956E+02  0.51100000000E-03 0.  1.
        -12    1    3    3    0    0 -0.14360164204E+02 -0.70539072282E+01 -0.27367374478E+02  0.31700869215E+02  0.00000000000E+00 0.  1.
</event>
<event>
 7    1  0.3062695E-010  0.4778727E+02  0.7816164E-02  0.1312668E+00
        -11   -1    0    0    0    0  0.00000000000E+00  0.00000000000E+00  0.45593999997E+02  0.45594000000E+02  0.51100000000E-03 0.  1.
         11   -1    0    0    0    0 -0.00000000000E+00 -0.00000000000E+00 -0.45593999997E+02  0.45594000000E+02  0.51100000000E-03 0. -1.
    9900012    2    1    2    0    0 -0.34186309106E+02  0.83523631438E+01 -0.25399951565E+02  0.47787271436E+02  0.20000001786E+02 0.  0.
        -12    1    1    2    0    0  0.34186309106E+02 -0.83523631438E+01  0.25399951565E+02  0.43400728564E+02  0.00000000000E+00 0.  1.
         11    1    3    3    0    0 -0.60059440044E+01  0.48617117258E+01 -0.87941949858E+01  0.11706642132E+02  0.51100000000E-03 0. -1.
        -11    1    3    3    0    0 -0.19187064117E+02 -0.39277954894E+01 -0.64512205312E+01  0.20620117687E+02  0.51100000000E-03 0.  1.
        -12    1    3    3    0    0 -0.89933009846E+01  0.74184469073E+01 -0.10154536048E+02  0.15460511617E+02  0.00000000000E+00 0.  1.
</event>
<event>
 7    1  0.3062695E-010  0.4778727E+02  0.7816164E-02  0.1312668E+00
        -11   -1    0    0    0    0  0.00000000000E+00  0.00000000000E+00  0.45593999997E+02  0.45594000000E+02  0.51100000000E-03 0.  1.
         11   -1    0    0    0    0 -0.00000000000E+00 -0.00000000000E+00 -0.45593999997E+02  0.45594000000E+02  0.51100000000E-03 0. -1.
    9900012    2    1    2    0    0  0.27607092326E+02  0.12632335562E+02 -0.31014447975E+02  0.47787269227E+02  0.19999991712E+02 0.  0.
        -12    1    1    2    0    0 -0.27607092326E+02 -0.12632335562E+02  0.31014447975E+02  0.43400730773E+02  0.00000000000E+00 0.  1.
         11    1    3    3    0    0  0.50717796753E+01  0.11854597711E+01 -0.42247017321E+01  0.67064423453E+01  0.51100000000E-03 0. -1.
        -11    1    3    3    0    0  0.58232754183E+01 -0.48393048279E+01 -0.44848960859E+01  0.88002102802E+01  0.51100000000E-03 0.  1.
        -12    1    3    3    0    0  0.16712037232E+02  0.16286180619E+02 -0.22304850157E+02  0.32280616601E+02  0.00000000000E+00 0.  1.
</event>
<event>
 7    1  0.3062695E-010  0.4778727E+02  0.7816164E-02  0.1312668E+00
        -11   -1    0    0    0    0  0.00000000000E+00  0.00000000000E+00  0.45593999997E+02  0.45594000000E+02  0.51100000000E-03 0.  1.
         11   -1    0    0    0    0 -0.00000000000E+00 -0.00000000000E+00 -0.45593999997E+02  0.45594000000E+02  0.51100000000E-03 0. -1.
    9900012    2    1    2    0    0  0.26875335165E+02 -0.32734356868E+02 -0.94763491945E+01  0.47787274731E+02  0.20000016809E+02 0.  0.
        -12    1    1    2    0    0 -0.26875335165E+02  0.32734356868E+02  0.94763491945E+01  0.43400725269E+02  0.00000000000E+00 0.  1.
         11    1    3    3    0    0  0.10668553347E+02 -0.45286342289E+01 -0.42868461984E+01  0.12357330176E+02  0.51100000000E-03 0. -1.
        -11    1    3    3    0    0  0.13522667147E+02 -0.28954811480E+02 -0.60266960129E+01  0.32520219859E+02  0.51100000000E-03 0.  1.
        -12    1    3    3    0    0  0.26841146709E+01  0.74908884026E+00  0.83719301684E+00  0.29097246957E+01  0.00000000000E+00 0.  1.
</event>
<event>
 7    1  0.3062695E-010  0.4778727E+02  0.7816164E-02  0.1312668E+00
        -11   -1    0    0    0    0  0.00000000000E+00  0.00000000000E+00  0.45593999997E+02  0.45594000000E+02  0.51100000000E-03 0. -1.
         11   -1    0    0    0    0 -0.00000000000E+00 -0.00000000000E+00 -0.45593999997E+02  0.45594000000E+02  0.51100000000E-03 0.  1.
    9900012    2    1    2    0    0 -0.35649969483E+02  0.22723444135E+02 -0.98157062022E+01  0.47787270446E+02  0.19999997273E+02 0.  0.
        -12    1    1    2    0    0  0.35649969483E+02 -0.22723444135E+02  0.98157062022E+01  0.43400729554E+02  0.00000000000E+00 0.  1.
         11    1    3    3    0    0 -0.65481601313E+01  0.40366835041E+01  0.49140903799E+01  0.91280610942E+01  0.51100000000E-03 0. -1.
        -11    1    3    3    0    0 -0.17066658525E+02  0.13489401160E+02 -0.13237763853E+02  0.25465136343E+02  0.51100000000E-03 0.  1.
        -12    1    3    3    0    0 -0.12035150828E+02  0.51973594710E+01 -0.14920327289E+01  0.13194073009E+02  0.00000000000E+00 0.  1.
</event>
<event>
 7    1  0.3062695E-010  0.4778727E+02  0.7816164E-02  0.1312668E+00
        -11   -1    0    0    0    0  0.00000000000E+00  0.00000000000E+00  0.45593999997E+02  0.45594000000E+02  0.51100000000E-03 0.  1.
         11   -1    0    0    0    0 -0.00000000000E+00 -0.00000000000E+00 -0.45593999997E+02  0.45594000000E+02  0.51100000000E-03 0. -1.
    9900012    2    1    2    0    0  0.29012336838E+02 -0.32203323821E+02  0.22030907734E+01  0.47787270019E+02  0.19999995326E+02 0.  0.
        -12    1    1    2    0    0 -0.29012336838E+02  0.32203323821E+02 -0.22030907734E+01  0.43400729981E+02  0.00000000000E+00 0.  1.
         11    1    3    3    0    0  0.12718827485E+02 -0.11958362109E+02  0.13837089535E+01  0.17512442652E+02  0.51100000000E-03 0. -1.
        -11    1    3    3    0    0  0.78581399529E+01 -0.12548933827E+02  0.79570235533E+01  0.16808935951E+02  0.51100000000E-03 0.  1.
        -12    1    3    3    0    0  0.84353694004E+01 -0.76960278852E+01 -0.71376417333E+01  0.13465891417E+02  0.00000000000E+00 0.  1.
</event>
<event>
 7    1  0.3062695E-010  0.4778727E+02  0.7816164E-02  0.1312668E+00
        -11   -1    0    0    0    0  0.00000000000E+00  0.00000000000E+00  0.45593999997E+02  0.45594000000E+02  0.51100000000E-03 0. -1.
         11   -1    0    0    0    0 -0.00000000000E+00 -0.00000000000E+00 -0.45593999997E+02  0.45594000000E+02  0.51100000000E-03 0.  1.
    9900012    2    1    2    0    0  0.71343532156E+01 -0.42058696922E+02  0.79868921402E+01  0.47787269262E+02  0.19999991872E+02 0.  0.
        -12    1    1    2    0    0 -0.71343532156E+01  0.42058696922E+02 -0.79868921402E+01  0.43400730738E+02  0.00000000000E+00 0.  1.
         11    1    3    3    0    0  0.52562918446E+01 -0.70211327993E+01  0.27892311902E+01  0.92035167537E+01  0.51100000000E-03 0. -1.
        -11    1    3    3    0    0 -0.45748145893E+01 -0.24018804777E+02 -0.82713312732E+00  0.24464587896E+02  0.51100000000E-03 0.  1.
        -12    1    3    3    0    0  0.64528759603E+01 -0.11018759345E+02  0.60247940773E+01  0.14119164612E+02  0.00000000000E+00 0.  1.
</event>
<event>
 7    1  0.3062695E-010  0.4778727E+02  0.7816164E-02  0.1312668E+00
        -11   -1    0    0    0    0  0.00000000000E+00  0.00000000000E+00  0.45593999997E+02  0.45594000000E+02  0.51100000000E-03 0. -1.
         11   -1    0    0    0    0 -0.00000000000E+00 -0.00000000000E+00 -0.45593999997E+02  0.45594000000E+02  0.51100000000E-03 0.  1.
    9900012    2    1    2    0    0 -0.42360963554E+02  0.80464553620E+01  0.49423291590E+01  0.47787270805E+02  0.19999998908E+02 0.  0.
        -12    1    1    2    0    0  0.42360963554E+02 -0.80464553620E+01 -0.49423291590E+01  0.43400729195E+02  0.00000000000E+00 0.  1.
         11    1    3    3    0    0 -0.87144794807E+01  0.96680112437E+00  0.29891625069E+01  0.92634739589E+01  0.51100000000E-03 0. -1.
        -11    1    3    3    0    0 -0.12358855135E+02  0.80849052460E+01  0.74125104152E+01  0.16524294357E+02  0.51100000000E-03 0.  1.
        -12    1    3    3    0    0 -0.21287628939E+02 -0.10052510084E+01 -0.54593437631E+01  0.21999502489E+02  0.00000000000E+00 0.  1.
</event>
<event>
 7    1  0.3062695E-010  0.4778726E+02  0.7816164E-02  0.1312668E+00
        -11   -1    0    0    0    0  0.00000000000E+00  0.00000000000E+00  0.45593999997E+02  0.45594000000E+02  0.51100000000E-03 0.  1.
         11   -1    0    0    0    0 -0.00000000000E+00 -0.00000000000E+00 -0.45593999997E+02  0.45594000000E+02  0.51100000000E-03 0. -1.
    9900012    2    1    2    0    0  0.41484733776E+02 -0.66398849796E+01 -0.10888186870E+02  0.47787264726E+02  0.19999971190E+02 0.  0.
        -12    1    1    2    0    0 -0.41484733776E+02  0.66398849796E+01  0.10888186870E+02  0.43400735274E+02  0.00000000000E+00 0.  1.
         11    1    3    3    0    0  0.17665440504E+02 -0.47136068215E+00  0.29792777326E+01  0.17921106694E+02  0.51100000000E-03 0. -1.
        -11    1    3    3    0    0  0.24501135474E+02 -0.68065042499E+01 -0.12871952487E+02  0.28501250862E+02  0.51100000000E-03 0.  1.
        -12    1    3    3    0    0 -0.68184220159E+00  0.63797995251E+00 -0.99551211583E+00  0.13649071692E+01  0.00000000000E+00 0.  1.
</event>
<event>
 7    1  0.3062695E-010  0.4778727E+02  0.7816164E-02  0.1312668E+00
        -11   -1    0    0    0    0  0.00000000000E+00  0.00000000000E+00  0.45593999997E+02  0.45594000000E+02  0.51100000000E-03 0.  1.
         11   -1    0    0    0    0 -0.00000000000E+00 -0.00000000000E+00 -0.45593999997E+02  0.45594000000E+02  0.51100000000E-03 0. -1.
    9900012    2    1    2    0    0 -0.42581570163E+02 -0.66183733559E+00 -0.83663025676E+01  0.47787272301E+02  0.20000005727E+02 0.  0.
        -12    1    1    2    0    0  0.42581570163E+02  0.66183733559E+00  0.83663025676E+01  0.43400727699E+02  0.00000000000E+00 0.  1.
         11    1    3    3    0    0 -0.38117595948E+02  0.61033081286E+01 -0.71713442273E+01  0.39263592159E+02  0.51100000000E-03 0. -1.
        -11    1    3    3    0    0 -0.19432736900E+01 -0.37441617864E+01 -0.17174630574E+01  0.45546393635E+01  0.51100000000E-03 0.  1.
         12    1    3    3    0    0 -0.25207005251E+01 -0.30209836778E+01  0.52250471706E+00  0.39690407781E+01  0.00000000000E+00 0. -1.
</event>
<event>
 7    1  0.3062695E-010  0.4778728E+02  0.7816164E-02  0.1312668E+00
        -11   -1    0    0    0    0  0.00000000000E+00  0.00000000000E+00  0.45593999997E+02  0.45594000000E+02  0.51100000000E-03 0. -1.
         11   -1    0    0    0    0 -0.00000000000E+00 -0.00000000000E+00 -0.45593999997E+02  0.45594000000E+02  0.51100000000E-03 0.  1.
    9900012    2    1    2    0    0  0.20830435519E+02 -0.37918856611E+02  0.34461432920E+01  0.47787278414E+02  0.20000033601E+02 0.  0.
        -12    1    1    2    0    0 -0.20830435519E+02  0.37918856611E+02 -0.34461432920E+01  0.43400721586E+02  0.00000000000E+00 0.  1.
         11    1    3    3    0    0  0.20167823419E+02 -0.17994781099E+02  0.58717999225E+01  0.27659198883E+02  0.51100000000E-03 0. -1.
        -11    1    3    3    0    0 -0.25783500521E+00 -0.10281631714E+02 -0.92704320510E+00  0.10326559880E+02  0.51100000000E-03 0.  1.
         12    1    3    3    0    0  0.92044710542E+00 -0.96424437975E+01 -0.14986134254E+01  0.98015196506E+01  0.00000000000E+00 0. -1.
</event>
<event>
 7    1  0.3062695E-010  0.4778727E+02  0.7816164E-02  0.1312668E+00
        -11   -1    0    0    0    0  0.00000000000E+00  0.00000000000E+00  0.45593999997E+02  0.45594000000E+02  0.51100000000E-03 0. -1.
         11   -1    0    0    0    0 -0.00000000000E+00 -0.00000000000E+00 -0.45593999997E+02  0.45594000000E+02  0.51100000000E-03 0.  1.
    9900012    2    1    2    0    0 -0.21316055413E+02  0.36478330033E+02  0.99287628516E+01  0.47787272908E+02  0.20000008496E+02 0.  0.
        -12    1    1    2    0    0  0.21316055413E+02 -0.36478330033E+02 -0.99287628516E+01  0.43400727092E+02  0.00000000000E+00 0.  1.
         11    1    3    3    0    0 -0.14569931904E+02  0.30796814083E+02  0.61235414468E+01  0.34615378569E+02  0.51100000000E-03 0. -1.
        -11    1    3    3    0    0  0.82653865202E+00  0.47407895865E+01  0.25245683572E+01  0.54343074718E+01  0.51100000000E-03 0.  1.
         12    1    3    3    0    0 -0.75726621613E+01  0.94072636341E+00  0.12806530476E+01  0.77375868672E+01  0.00000000000E+00 0. -1.
</event>
<event>
 7    1  0.3062695E-010  0.4778728E+02  0.7816164E-02  0.1312668E+00
        -11   -1    0    0    0    0  0.00000000000E+00  0.00000000000E+00  0.45593999997E+02  0.45594000000E+02  0.51100000000E-03 0.  1.
         11   -1    0    0    0    0 -0.00000000000E+00 -0.00000000000E+00 -0.45593999997E+02  0.45594000000E+02  0.51100000000E-03 0. -1.
    9900012    2    1    2    0    0 -0.11051920099E+02 -0.24660383966E+02 -0.33960910150E+02  0.47787275427E+02  0.20000019983E+02 0.  0.
        -12    1    1    2    0    0  0.11051920099E+02  0.24660383966E+02  0.33960910150E+02  0.43400724573E+02  0.00000000000E+00 0.  1.
         11    1    3    3    0    0 -0.88462773970E+01 -0.19159164790E+02 -0.23262905670E+02  0.31408486110E+02  0.51100000000E-03 0. -1.
        -11    1    3    3    0    0  0.17458560373E+01 -0.39461393585E+01  0.55553522671E+00  0.43507066999E+01  0.51100000000E-03 0.  1.
         12    1    3    3    0    0 -0.39514987398E+01 -0.15550798172E+01 -0.11253539707E+02  0.12028082618E+02  0.00000000000E+00 0. -1.
</event>
<event>
 7    1  0.3062695E-010  0.4778727E+02  0.7816164E-02  0.1312668E+00
        -11   -1    0    0    0    0  0.00000000000E+00  0.00000000000E+00  0.45593999997E+02  0.45594000000E+02  0.51100000000E-03 0. -1.
         11   -1    0    0    0    0 -0.00000000000E+00 -0.00000000000E+00 -0.45593999997E+02  0.45594000000E+02  0.51100000000E-03 0.  1.
    9900012    2    1    2    0    0  0.77413579908E+01 -0.39383890691E+02 -0.16510720006E+02  0.47787270229E+02  0.19999996284E+02 0.  0.
        -12    1    1    2    0    0 -0.77413579908E+01  0.39383890691E+02  0.16510720006E+02  0.43400729771E+02  0.00000000000E+00 0.  1.
         11    1    3    3    0    0  0.89592225913E+00 -0.88872196635E+01 -0.88951123343E+01  0.12605886472E+02  0.51100000000E-03 0. -1.
        -11    1    3    3    0    0  0.51114523944E+01 -0.27769557871E+02 -0.15138044728E+01  0.28276613909E+02  0.51100000000E-03 0.  1.
        -12    1    3    3    0    0  0.17339833373E+01 -0.27271131568E+01 -0.61018031988E+01  0.69047698485E+01  0.00000000000E+00 0.  1.
</event>
<event>
 7    1  0.3062695E-010  0.4778727E+02  0.7816164E-02  0.1312668E+00
        -11   -1    0    0    0    0  0.00000000000E+00  0.00000000000E+00  0.45593999997E+02  0.45594000000E+02  0.51100000000E-03 0.  1.
         11   -1    0    0    0    0 -0.00000000000E+00 -0.00000000000E+00 -0.45593999997E+02  0.45594000000E+02  0.51100000000E-03 0. -1.
    9900012    2    1    2    0    0 -0.32053201108E+02 -0.29149720495E+02 -0.25513075200E+01  0.47787273320E+02  0.20000010377E+02 0.  0.
        -12    1    1    2    0    0  0.32053201108E+02  0.29149720495E+02  0.25513075200E+01  0.43400726680E+02  0.00000000000E+00 0.  1.
         11    1    3    3    0    0  0.10236060883E+01 -0.52716060218E+01  0.30639161829E+01  0.61826517054E+01  0.51100000000E-03 0. -1.
        -11    1    3    3    0    0 -0.12525217111E+02 -0.87418099447E+01 -0.50050995713E+01  0.16073311008E+02  0.51100000000E-03 0.  1.
         12    1    3    3    0    0 -0.20551590086E+02 -0.15136304529E+02 -0.61012413169E+00  0.25531310607E+02  0.00000000000E+00 0. -1.
</event>
<event>
 7    1  0.3062695E-010  0.4778727E+02  0.7816164E-02  0.1312668E+00
        -11   -1    0    0    0    0  0.00000000000E+00  0.00000000000E+00  0.45593999997E+02  0.45594000000E+02  0.51100000000E-03 0.  1.
         11   -1    0    0    0    0 -0.00000000000E+00 -0.00000000000E+00 -0.45593999997E+02  0.45594000000E+02  0.51100000000E-03 0. -1.
    9900012    2    1    2    0    0  0.40512251542E+02  0.96166317274E+01 -0.12243410130E+02  0.47787271637E+02  0.20000002703E+02 0.  0.
        -12    1    1    2    0    0 -0.40512251542E+02 -0.96166317274E+01  0.12243410130E+02  0.43400728363E+02  0.00000000000E+00 0.  1.
         11    1    3    3    0    0  0.12423196256E+02  0.57222569761E+01 -0.85809418868E+01  0.16146596980E+02  0.51100000000E-03 0. -1.
        -11    1    3    3    0    0  0.18034397456E+02  0.79049757706E+01  0.12973333500E+01  0.19733504697E+02  0.51100000000E-03 0.  1.
        -12    1    3    3    0    0  0.10054657830E+02 -0.40106010193E+01 -0.49598015934E+01  0.11907169961E+02  0.00000000000E+00 0.  1.
</event>
<event>
 7    1  0.3062695E-010  0.4778727E+02  0.7816164E-02  0.1312668E+00
        -11   -1    0    0    0    0  0.00000000000E+00  0.00000000000E+00  0.45593999997E+02  0.45594000000E+02  0.51100000000E-03 0.  1.
         11   -1    0    0    0    0 -0.00000000000E+00 -0.00000000000E+00 -0.45593999997E+02  0.45594000000E+02  0.51100000000E-03 0. -1.
    9900012    2    1    2    0    0  0.31673208809E+02 -0.29376988929E+02  0.41741573403E+01  0.47787271616E+02  0.20000002605E+02 0.  0.
        -12    1    1    2    0    0 -0.31673208809E+02  0.29376988929E+02 -0.41741573403E+01  0.43400728384E+02  0.00000000000E+00 0.  1.
         11    1    3    3    0    0  0.19622592101E+02 -0.22695607279E+02  0.18183619899E+01  0.30057331071E+02  0.51100000000E-03 0. -1.
        -11    1    3    3    0    0  0.91713733805E+01 -0.32407896522E+01  0.64376858100E+01  0.11664501966E+02  0.51100000000E-03 0.  1.
         12    1    3    3    0    0  0.28792433271E+01 -0.34405919978E+01 -0.40818904596E+01  0.60654385791E+01  0.00000000000E+00 0. -1.
</event>
<event>
 7    1  0.3062695E-010  0.4778727E+02  0.7816164E-02  0.1312668E+00
        -11   -1    0    0    0    0  0.00000000000E+00  0.00000000000E+00  0.45593999997E+02  0.45594000000E+02  0.51100000000E-03 0.  1.
         11   -1    0    0    0    0 -0.00000000000E+00 -0.00000000000E+00 -0.45593999997E+02  0.45594000000E+02  0.51100000000E-03 0. -1.
    9900012    2    1    2    0    0 -0.94508599788E+01  0.51590025520E+01 -0.42043893473E+02  0.47787273739E+02  0.20000012284E+02 0.  0.
        -12    1    1    2    0    0  0.94508599788E+01 -0.51590025520E+01  0.42043893473E+02  0.43400726261E+02  0.00000000000E+00 0.  1.
         11    1    3    3    0    0 -0.70944303814E+01  0.66581737381E+01 -0.41018231894E+02  0.42156346710E+02  0.51100000000E-03 0. -1.
        -11    1    3    3    0    0 -0.93159156599E+00 -0.20769844163E+01  0.14627662411E+01  0.27058108671E+01  0.51100000000E-03 0.  1.
        -12    1    3    3    0    0 -0.14248380314E+01  0.57781323020E+00 -0.24884278201E+01  0.29251161618E+01  0.00000000000E+00 0.  1.
</event>
<event>
 7    1  0.3062695E-010  0.4778727E+02  0.7816164E-02  0.1312668E+00
        -11   -1    0    0    0    0  0.00000000000E+00  0.00000000000E+00  0.45593999997E+02  0.45594000000E+02  0.51100000000E-03 0.  1.
         11   -1    0    0    0    0 -0.00000000000E+00 -0.00000000000E+00 -0.45593999997E+02  0.45594000000E+02  0.51100000000E-03 0. -1.
    9900012    2    1    2    0    0 -0.41745396651E+02  0.10759957788E+02  0.50168125585E+01  0.47787271418E+02  0.20000001705E+02 0.  0.
        -12    1    1    2    0    0  0.41745396651E+02 -0.10759957788E+02 -0.50168125585E+01  0.43400728582E+02  0.00000000000E+00 0.  1.
         11    1    3    3    0    0 -0.10755556166E+02  0.25774026733E+01  0.45121013539E+00  0.11069263021E+02  0.51100000000E-03 0. -1.
        -11    1    3    3    0    0 -0.10890519021E+02 -0.49170346386E+01  0.43783721621E+01  0.12725988261E+02  0.51100000000E-03 0.  1.
        -12    1    3    3    0    0 -0.20099321464E+02  0.13099589753E+02  0.18723026092E+00  0.23992020136E+02  0.00000000000E+00 0.  1.
</event>
<event>
 7    1  0.3062695E-010  0.4778727E+02  0.7816164E-02  0.1312668E+00
        -11   -1    0    0    0    0  0.00000000000E+00  0.00000000000E+00  0.45593999997E+02  0.45594000000E+02  0.51100000000E-03 0. -1.
         11   -1    0    0    0    0 -0.00000000000E+00 -0.00000000000E+00 -0.45593999997E+02  0.45594000000E+02  0.51100000000E-03 0.  1.
    9900012    2    1    2    0    0  0.61944139597E+00  0.32819498809E+02  0.28392255023E+02  0.47787270110E+02  0.19999995740E+02 0.  0.
        -12    1    1    2    0    0 -0.61944139597E+00 -0.32819498809E+02 -0.28392255023E+02  0.43400729890E+02  0.00000000000E+00 0.  1.
         11    1    3    3    0    0  0.16462550843E+01  0.27651976646E+02  0.27912005669E+02  0.39324572839E+02  0.51100000000E-03 0. -1.
        -11    1    3    3    0    0  0.97306071830E+00  0.60854578146E+01 -0.17971402185E+00  0.61653824995E+01  0.51100000000E-03 0.  1.
         12    1    3    3    0    0 -0.19998744067E+01 -0.91793565182E+00  0.65996337600E+00  0.22973147719E+01  0.00000000000E+00 0. -1.
</event>
<event>
 7    1  0.3062695E-010  0.4778728E+02  0.7816164E-02  0.1312668E+00
        -11   -1    0    0    0    0  0.00000000000E+00  0.00000000000E+00  0.45593999997E+02  0.45594000000E+02  0.51100000000E-03 0.  1.
         11   -1    0    0    0    0 -0.00000000000E+00 -0.00000000000E+00 -0.45593999997E+02  0.45594000000E+02  0.51100000000E-03 0. -1.
    9900012    2    1    2    0    0  0.32058404056E+02 -0.14780140165E+02 -0.25247346928E+02  0.47787281794E+02  0.20000049011E+02 0.  0.
        -12    1    1    2    0    0 -0.32058404056E+02  0.14780140165E+02  0.25247346928E+02  0.43400718206E+02  0.00000000000E+00 0.  1.
         11    1    3    3    0    0  0.17196094620E+00 -0.60733811022E+00 -0.77933291243E+01  0.78188496115E+01  0.51100000000E-03 0. -1.
        -11    1    3    3    0    0  0.17841653629E+02 -0.58331832262E+01 -0.49927833296E+01  0.19423658677E+02  0.51100000000E-03 0.  1.
         12    1    3    3    0    0  0.14044789481E+02 -0.83396188285E+01 -0.12461234474E+02  0.20544773505E+02  0.00000000000E+00 0. -1.
</event>
<event>
 7    1  0.3062695E-010  0.4778727E+02  0.7816164E-02  0.1312668E+00
        -11   -1    0    0    0    0  0.00000000000E+00  0.00000000000E+00  0.45593999997E+02  0.45594000000E+02  0.51100000000E-03 0.  1.
         11   -1    0    0    0    0 -0.00000000000E+00 -0.00000000000E+00 -0.45593999997E+02  0.45594000000E+02  0.51100000000E-03 0. -1.
    9900012    2    1    2    0    0  0.64283147666E+01 -0.37173906794E+02 -0.21456959759E+02  0.47787266145E+02  0.19999977661E+02 0.  0.
        -12    1    1    2    0    0 -0.64283147666E+01  0.37173906794E+02  0.21456959759E+02  0.43400733855E+02  0.00000000000E+00 0.  1.
         11    1    3    3    0    0  0.97758484174E+01 -0.82529313509E+01 -0.87116215776E+01  0.15478063152E+02  0.51100000000E-03 0.  1.
        -11    1    3    3    0    0 -0.31556072593E+01 -0.28732310779E+02 -0.11621946005E+02  0.31154023321E+02  0.51100000000E-03 0. -1.
        -12    1    3    3    0    0 -0.19192639157E+00 -0.18866466466E+00 -0.11233921755E+01  0.11551796724E+01  0.00000000000E+00 0.  1.
</event>
<event>
 7    1  0.3062695E-010  0.4778727E+02  0.7816164E-02  0.1312668E+00
        -11   -1    0    0    0    0  0.00000000000E+00  0.00000000000E+00  0.45593999997E+02  0.45594000000E+02  0.51100000000E-03 0.  1.
         11   -1    0    0    0    0 -0.00000000000E+00 -0.00000000000E+00 -0.45593999997E+02  0.45594000000E+02  0.51100000000E-03 0. -1.
    9900012    2    1    2    0    0 -0.30806849215E+02  0.12074675729E+02 -0.28084939962E+02  0.47787267228E+02  0.19999982599E+02 0.  0.
        -12    1    1    2    0    0  0.30806849215E+02 -0.12074675729E+02  0.28084939962E+02  0.43400732772E+02  0.00000000000E+00 0.  1.
         11    1    3    3    0    0 -0.25465636427E+02  0.47609804671E+01 -0.20229623682E+02  0.32869488104E+02  0.51100000000E-03 0. -1.
        -11    1    3    3    0    0 -0.66387353177E+00  0.71332568561E+01 -0.20325039120E+01  0.74468217284E+01  0.51100000000E-03 0.  1.
        -12    1    3    3    0    0 -0.46773392555E+01  0.18043840551E+00 -0.58228123681E+01  0.74709573954E+01  0.00000000000E+00 0.  1.
</event>
<event>
 7    1  0.3062695E-010  0.4778726E+02  0.7816164E-02  0.1312668E+00
        -11   -1    0    0    0    0  0.00000000000E+00  0.00000000000E+00  0.45593999997E+02  0.45594000000E+02  0.51100000000E-03 0.  1.
         11   -1    0    0    0    0 -0.00000000000E+00 -0.00000000000E+00 -0.45593999997E+02  0.45594000000E+02  0.51100000000E-03 0. -1.
    9900012    2    1    2    0    0 -0.40003535871E+02  0.13773766517E+02 -0.96759660666E+01  0.47787264459E+02  0.19999969972E+02 0.  0.
        -12    1    1    2    0    0  0.40003535871E+02 -0.13773766517E+02  0.96759660666E+01  0.43400735541E+02  0.00000000000E+00 0.  1.
         11    1    3    3    0    0 -0.29462234974E+01  0.23357651338E+01  0.50252131576E+01  0.62760496490E+01  0.51100000000E-03 0.  1.
        -11    1    3    3    0    0 -0.21986852343E+02  0.75470170343E+01 -0.92689527230E+01  0.25025839185E+02  0.51100000000E-03 0. -1.
        -12    1    3    3    0    0 -0.15070460030E+02  0.38909843492E+01 -0.54322265012E+01  0.16485375624E+02  0.00000000000E+00 0.  1.
</event>
<event>
 7    1  0.3062695E-010  0.4778727E+02  0.7816164E-02  0.1312668E+00
        -11   -1    0    0    0    0  0.00000000000E+00  0.00000000000E+00  0.45593999997E+02  0.45594000000E+02  0.51100000000E-03 0.  1.
         11   -1    0    0    0    0 -0.00000000000E+00 -0.00000000000E+00 -0.45593999997E+02  0.45594000000E+02  0.51100000000E-03 0. -1.
    9900012    2    1    2    0    0 -0.21226803330E+02  0.21548813356E+02 -0.31123859470E+02  0.47787272299E+02  0.20000005721E+02 0.  0.
        -12    1    1    2    0    0  0.21226803330E+02 -0.21548813356E+02  0.31123859470E+02  0.43400727701E+02  0.00000000000E+00 0.  1.
         11    1    3    3    0    0 -0.97995388231E+01  0.17927460005E+02 -0.16445355700E+02  0.26227361814E+02  0.51100000000E-03 0. -1.
        -11    1    3    3    0    0 -0.37694088732E+00  0.45901912619E+01 -0.54079787917E+01  0.71033918043E+01  0.51100000000E-03 0.  1.
         12    1    3    3    0    0 -0.11050323619E+02 -0.96883791109E+00 -0.92705249790E+01  0.14456518681E+02  0.00000000000E+00 0. -1.
</event>
<event>
 7    1  0.3062695E-010  0.4778726E+02  0.7816164E-02  0.1312668E+00
        -11   -1    0    0    0    0  0.00000000000E+00  0.00000000000E+00  0.45593999997E+02  0.45594000000E+02  0.51100000000E-03 0.  1.
         11   -1    0    0    0    0 -0.00000000000E+00 -0.00000000000E+00 -0.45593999997E+02  0.45594000000E+02  0.51100000000E-03 0. -1.
    9900012    2    1    2    0    0  0.41800429392E+02  0.82176127494E+01  0.82957331430E+01  0.47787259856E+02  0.19999948986E+02 0.  0.
        -12    1    1    2    0    0 -0.41800429392E+02 -0.82176127494E+01 -0.82957331430E+01  0.43400740144E+02  0.00000000000E+00 0.  1.
         11    1    3    3    0    0  0.34120635995E+02  0.17593487941E+01  0.44462904037E+01  0.34454065181E+02  0.51100000000E-03 0. -1.
        -11    1    3    3    0    0  0.25075164447E+01  0.10113690113E+01  0.50482619117E+01  0.57267315798E+01  0.51100000000E-03 0.  1.
         12    1    3    3    0    0  0.51722769530E+01  0.54468949441E+01 -0.11988191724E+01  0.76064630952E+01  0.00000000000E+00 0. -1.
</event>
<event>
 7    1  0.3062695E-010  0.4778729E+02  0.7816164E-02  0.1312668E+00
        -11   -1    0    0    0    0  0.00000000000E+00  0.00000000000E+00  0.45593999997E+02  0.45594000000E+02  0.51100000000E-03 0. -1.
         11   -1    0    0    0    0 -0.00000000000E+00 -0.00000000000E+00 -0.45593999997E+02  0.45594000000E+02  0.51100000000E-03 0.  1.
    9900012    2    1    2    0    0 -0.30660607735E+02 -0.37074179383E+01  0.30492691304E+02  0.47787285289E+02  0.20000064948E+02 0.  0.
        -12    1    1    2    0    0  0.30660607735E+02  0.37074179383E+01 -0.30492691304E+02  0.43400714711E+02  0.00000000000E+00 0.  1.
         11    1    3    3    0    0 -0.34984932255E+01 -0.11315316641E+01  0.21508336287E+01  0.42598009713E+01  0.51100000000E-03 0. -1.
        -11    1    3    3    0    0 -0.18965216825E+02 -0.10456386837E+02  0.19055356438E+02  0.28846526379E+02  0.51100000000E-03 0.  1.
        -12    1    3    3    0    0 -0.81968976846E+01  0.78805005630E+01  0.92865012373E+01  0.14680957939E+02  0.00000000000E+00 0.  1.
</event>
<event>
 7    1  0.3062695E-010  0.4778727E+02  0.7816164E-02  0.1312668E+00
        -11   -1    0    0    0    0  0.00000000000E+00  0.00000000000E+00  0.45593999997E+02  0.45594000000E+02  0.51100000000E-03 0.  1.
         11   -1    0    0    0    0 -0.00000000000E+00 -0.00000000000E+00 -0.45593999997E+02  0.45594000000E+02  0.51100000000E-03 0. -1.
    9900012    2    1    2    0    0 -0.20241823164E+02 -0.35988744076E+02 -0.13367955691E+02  0.47787270230E+02  0.19999996287E+02 0.  0.
        -12    1    1    2    0    0  0.20241823164E+02  0.35988744076E+02  0.13367955691E+02  0.43400729770E+02  0.00000000000E+00 0.  1.
         11    1    3    3    0    0 -0.71124712662E+01 -0.11756096671E+02  0.13113976249E+01  0.13802638169E+02  0.51100000000E-03 0. -1.
        -11    1    3    3    0    0 -0.11157727062E+02 -0.85910834358E+01 -0.10806549502E+02  0.17750580277E+02  0.51100000000E-03 0.  1.
        -12    1    3    3    0    0 -0.19716248361E+01 -0.15641563970E+02 -0.38728038146E+01  0.16234051783E+02  0.00000000000E+00 0.  1.
</event>
<event>
 7    1  0.3062695E-010  0.4778727E+02  0.7816164E-02  0.1312668E+00
        -11   -1    0    0    0    0  0.00000000000E+00  0.00000000000E+00  0.45593999997E+02  0.45594000000E+02  0.51100000000E-03 0. -1.
         11   -1    0    0    0    0 -0.00000000000E+00 -0.00000000000E+00 -0.45593999997E+02  0.45594000000E+02  0.51100000000E-03 0.  1.
    9900012    2    1    2    0    0  0.39667433044E+02 -0.16834602178E+02  0.51685898873E+01  0.47787269635E+02  0.19999993573E+02 0.  0.
        -12    1    1    2    0    0 -0.39667433044E+02  0.16834602178E+02 -0.51685898873E+01  0.43400730365E+02  0.00000000000E+00 0.  1.
         11    1    3    3    0    0  0.21389244431E+02 -0.10188281719E+02  0.11108621864E+02  0.26166817569E+02  0.51100000000E-03 0. -1.
        -11    1    3    3    0    0  0.67819952972E+01 -0.24072780251E+00 -0.49947869620E+01  0.84262273375E+01  0.51100000000E-03 0.  1.
         12    1    3    3    0    0  0.11496193316E+02 -0.64055926569E+01 -0.94524501462E+00  0.13194224728E+02  0.00000000000E+00 0. -1.
</event>
<event>
 7    1  0.3062695E-010  0.4778727E+02  0.7816164E-02  0.1312668E+00
        -11   -1    0    0    0    0  0.00000000000E+00  0.00000000000E+00  0.45593999997E+02  0.45594000000E+02  0.51100000000E-03 0.  1.
         11   -1    0    0    0    0 -0.00000000000E+00 -0.00000000000E+00 -0.45593999997E+02  0.45594000000E+02  0.51100000000E-03 0. -1.
    9900012    2    1    2    0    0  0.34617312958E+02 -0.99463300407E+01 -0.24214361692E+02  0.47787272473E+02  0.20000006512E+02 0.  0.
        -12    1    1    2    0    0 -0.34617312958E+02  0.99463300407E+01  0.24214361692E+02  0.43400727527E+02  0.00000000000E+00 0.  1.
         11    1    3    3    0    0  0.29082677137E+02 -0.59288988805E+01 -0.21012504601E+02  0.36365908503E+02  0.51100000000E-03 0. -1.
        -11    1    3    3    0    0  0.57426478053E+00 -0.56405682100E+01 -0.10023470803E+01  0.57576461945E+01  0.51100000000E-03 0.  1.
        -12    1    3    3    0    0  0.49603710411E+01  0.16231370499E+01 -0.21995100105E+01  0.56637177750E+01  0.00000000000E+00 0.  1.
</event>
<event>
 7    1  0.3062695E-010  0.4778727E+02  0.7816164E-02  0.1312668E+00
        -11   -1    0    0    0    0  0.00000000000E+00  0.00000000000E+00  0.45593999997E+02  0.45594000000E+02  0.51100000000E-03 0.  1.
         11   -1    0    0    0    0 -0.00000000000E+00 -0.00000000000E+00 -0.45593999997E+02  0.45594000000E+02  0.51100000000E-03 0. -1.
    9900012    2    1    2    0    0  0.36484274551E+02  0.14219063854E+02 -0.18717352552E+02  0.47787270133E+02  0.19999995846E+02 0.  0.
        -12    1    1    2    0    0 -0.36484274551E+02 -0.14219063854E+02  0.18717352552E+02  0.43400729867E+02  0.00000000000E+00 0.  1.
         11    1    3    3    0    0  0.32350113707E+02  0.14620505560E+02 -0.13837048402E+02  0.38101875917E+02  0.51100000000E-03 0. -1.
        -11    1    3    3    0    0  0.44579919360E+00 -0.34588614732E+01 -0.13731854529E+01  0.37480792629E+01  0.51100000000E-03 0.  1.
        -12    1    3    3    0    0  0.36883616506E+01  0.30574197668E+01 -0.35071186971E+01  0.59373149530E+01  0.00000000000E+00 0.  1.
</event>
<event>
 7    1  0.3062695E-010  0.4778727E+02  0.7816164E-02  0.1312668E+00
        -11   -1    0    0    0    0  0.00000000000E+00  0.00000000000E+00  0.45593999997E+02  0.45594000000E+02  0.51100000000E-03 0. -1.
         11   -1    0    0    0    0 -0.00000000000E+00 -0.00000000000E+00 -0.45593999997E+02  0.45594000000E+02  0.51100000000E-03 0.  1.
    9900012    2    1    2    0    0  0.25058572953E+02 -0.25189435575E+02  0.24923553238E+02  0.47787271331E+02  0.20000001305E+02 0.  0.
        -12    1    1    2    0    0 -0.25058572953E+02  0.25189435575E+02 -0.24923553238E+02  0.43400728669E+02  0.00000000000E+00 0.  1.
         11    1    3    3    0    0  0.31884047274E+01 -0.54147830334E+01  0.60648734803E+01  0.87331833027E+01  0.51100000000E-03 0. -1.
        -11    1    3    3    0    0  0.38136061422E+01 -0.23645213482E+01  0.12350839493E+02  0.13140692123E+02  0.51100000000E-03 0.  1.
        -12    1    3    3    0    0  0.18056562083E+02 -0.17410131193E+02  0.65078402644E+01  0.25913395905E+02  0.00000000000E+00 0.  1.
</event>
<event>
 7    1  0.3062695E-010  0.4778727E+02  0.7816164E-02  0.1312668E+00
        -11   -1    0    0    0    0  0.00000000000E+00  0.00000000000E+00  0.45593999997E+02  0.45594000000E+02  0.51100000000E-03 0.  1.
         11   -1    0    0    0    0 -0.00000000000E+00 -0.00000000000E+00 -0.45593999997E+02  0.45594000000E+02  0.51100000000E-03 0. -1.
    9900012    2    1    2    0    0 -0.11991374551E+01  0.22956543667E+02 -0.36812804493E+02  0.47787269563E+02  0.19999993248E+02 0.  0.
        -12    1    1    2    0    0  0.11991374551E+01 -0.22956543667E+02  0.36812804493E+02  0.43400730437E+02  0.00000000000E+00 0.  1.
         11    1    3    3    0    0 -0.15834255077E+01  0.34445780349E+01 -0.16920302605E+02  0.17339809535E+02  0.51100000000E-03 0.  1.
        -11    1    3    3    0    0  0.72662128804E+00 -0.14378645321E+01 -0.34702918634E+01  0.38260108190E+01  0.51100000000E-03 0. -1.
         12    1    3    3    0    0 -0.34233323543E+00  0.20949830164E+02 -0.16422210025E+02  0.26621449210E+02  0.00000000000E+00 0. -1.
</event>
<event>
 7    1  0.3062695E-010  0.4778727E+02  0.7816164E-02  0.1312668E+00
        -11   -1    0    0    0    0  0.00000000000E+00  0.00000000000E+00  0.45593999997E+02  0.45594000000E+02  0.51100000000E-03 0. -1.
         11   -1    0    0    0    0 -0.00000000000E+00 -0.00000000000E+00 -0.45593999997E+02  0.45594000000E+02  0.51100000000E-03 0.  1.
    9900012    2    1    2    0    0 -0.16137969477E+02 -0.16096123672E+02  0.36933778248E+02  0.47787271529E+02  0.20000002208E+02 0.  0.
        -12    1    1    2    0    0  0.16137969477E+02  0.16096123672E+02 -0.36933778248E+02  0.43400728471E+02  0.00000000000E+00 0.  1.
         11    1    3    3    0    0 -0.10957242497E+02 -0.13239452577E+02  0.26626612372E+02  0.31691020090E+02  0.51100000000E-03 0. -1.
        -11    1    3    3    0    0 -0.48295210445E+01  0.35187276682E+01  0.51548780977E+01  0.78916719639E+01  0.51100000000E-03 0.  1.
        -12    1    3    3    0    0 -0.35120593560E+00 -0.63753987637E+01  0.51522877787E+01  0.82045794749E+01  0.00000000000E+00 0.  1.
</event>
<event>
 7    1  0.3062695E-010  0.4778727E+02  0.7816164E-02  0.1312668E+00
        -11   -1    0    0    0    0  0.00000000000E+00  0.00000000000E+00  0.45593999997E+02  0.45594000000E+02  0.51100000000E-03 0.  1.
         11   -1    0    0    0    0 -0.00000000000E+00 -0.00000000000E+00 -0.45593999997E+02  0.45594000000E+02  0.51100000000E-03 0. -1.
    9900012    2    1    2    0    0  0.72850022926E+01 -0.12735048235E+02 -0.40845693026E+02  0.47787270159E+02  0.19999995962E+02 0.  0.
        -12    1    1    2    0    0 -0.72850022926E+01  0.12735048235E+02  0.40845693026E+02  0.43400729841E+02  0.00000000000E+00 0.  1.
         11    1    3    3    0    0 -0.35283633516E+01 -0.49529256499E+01 -0.11605102371E+02  0.13101878558E+02  0.51100000000E-03 0. -1.
        -11    1    3    3    0    0  0.11952889994E+02 -0.12719687040E+01 -0.17962609639E+02  0.21613533467E+02  0.51100000000E-03 0.  1.
        -12    1    3    3    0    0 -0.11395243499E+01 -0.65101538808E+01 -0.11277981016E+02  0.13071858135E+02  0.00000000000E+00 0.  1.
</event>
<event>
 7    1  0.3116722E-010  0.4778727E+02  0.7816164E-02  0.1312668E+00
        -11   -1    0    0    0    0  0.00000000000E+00  0.00000000000E+00  0.45593999997E+02  0.45594000000E+02  0.51100000000E-03 0. -1.
         11   -1    0    0    0    0 -0.00000000000E+00 -0.00000000000E+00 -0.45593999997E+02  0.45594000000E+02  0.51100000000E-03 0.  1.
    9900012    2    1    2    0    0 -0.22326566423E+02 -0.33990127470E+02  0.15159785496E+02  0.47787269246E+02  0.19999991802E+02 0.  0.
        -12    1    1    2    0    0  0.22326566423E+02  0.33990127470E+02 -0.15159785496E+02  0.43400730754E+02  0.00000000000E+00 0.  1.
         11    1    3    3    0    0 -0.16385709555E+02 -0.23828916905E+02  0.56963387192E+01  0.29474684622E+02  0.51100000000E-03 0. -1.
        -11    1    3    3    0    0 -0.56181487597E+01 -0.97065946172E+01  0.11581843090E+02  0.16122055209E+02  0.51100000000E-03 0.  1.
        -12    1    3    3    0    0 -0.32270810836E+00 -0.45461594712E+00 -0.21183963125E+01  0.21905294153E+01  0.00000000000E+00 0.  1.
</event>
<event>
 7    1  0.3062695E-010  0.4778727E+02  0.7816164E-02  0.1312668E+00
        -11   -1    0    0    0    0  0.00000000000E+00  0.00000000000E+00  0.45593999997E+02  0.45594000000E+02  0.51100000000E-03 0.  1.
         11   -1    0    0    0    0 -0.00000000000E+00 -0.00000000000E+00 -0.45593999997E+02  0.45594000000E+02  0.51100000000E-03 0. -1.
    9900012    2    1    2    0    0 -0.40821419497E+02 -0.49749658838E+01 -0.13873884315E+02  0.47787271420E+02  0.20000001712E+02 0.  0.
        -12    1    1    2    0    0  0.40821419497E+02  0.49749658838E+01  0.13873884315E+02  0.43400728580E+02  0.00000000000E+00 0.  1.
         11    1    3    3    0    0  0.16020645853E+01 -0.14670173381E+01  0.19983447682E+00  0.21814410111E+01  0.51100000000E-03 0. -1.
        -11    1    3    3    0    0 -0.35791741189E+02 -0.11922364522E+01 -0.14340944445E+02  0.38576325032E+02  0.51100000000E-03 0.  1.
        -12    1    3    3    0    0 -0.66317428930E+01 -0.23157120935E+01  0.26722565301E+00  0.70295053773E+01  0.00000000000E+00 0.  1.
</event>
<event>
 7    1  0.3062695E-010  0.4778728E+02  0.7816164E-02  0.1312668E+00
        -11   -1    0    0    0    0  0.00000000000E+00  0.00000000000E+00  0.45593999997E+02  0.45594000000E+02  0.51100000000E-03 0.  1.
         11   -1    0    0    0    0 -0.00000000000E+00 -0.00000000000E+00 -0.45593999997E+02  0.45594000000E+02  0.51100000000E-03 0. -1.
    9900012    2    1    2    0    0  0.30530730700E+02 -0.29377584350E+02 -0.94050468936E+01  0.47787275509E+02  0.20000020354E+02 0.  0.
        -12    1    1    2    0    0 -0.30530730700E+02  0.29377584350E+02  0.94050468936E+01  0.43400724491E+02  0.00000000000E+00 0.  1.
         11    1    3    3    0    0  0.26693648379E+02 -0.26433814091E+02 -0.80227191170E+01  0.38414338644E+02  0.51100000000E-03 0. -1.
        -11    1    3    3    0    0  0.20911671958E+01 -0.41133948478E+01 -0.39364775377E+01  0.60653815280E+01  0.51100000000E-03 0.  1.
         12    1    3    3    0    0  0.17459151256E+01  0.11696245889E+01  0.25541497610E+01  0.33075553369E+01  0.00000000000E+00 0. -1.
</event>
<event>
 7    1  0.3062695E-010  0.4778727E+02  0.7816164E-02  0.1312668E+00
        -11   -1    0    0    0    0  0.00000000000E+00  0.00000000000E+00  0.45593999997E+02  0.45594000000E+02  0.51100000000E-03 0.  1.
         11   -1    0    0    0    0 -0.00000000000E+00 -0.00000000000E+00 -0.45593999997E+02  0.45594000000E+02  0.51100000000E-03 0. -1.
    9900012    2    1    2    0    0 -0.44939239482E+01 -0.17733204386E+02 -0.39356847317E+02  0.47787270502E+02  0.19999997525E+02 0.  0.
        -12    1    1    2    0    0  0.44939239482E+01  0.17733204386E+02  0.39356847317E+02  0.43400729498E+02  0.00000000000E+00 0.  1.
         11    1    3    3    0    0 -0.34323553011E+01 -0.50418215672E+01 -0.85729464406E+01  0.10521237501E+02  0.51100000000E-03 0. -1.
        -11    1    3    3    0    0  0.23816299018E+01 -0.15836739845E+02 -0.26326306276E+02  0.30814751213E+02  0.51100000000E-03 0.  1.
        -12    1    3    3    0    0 -0.34431985489E+01  0.31453570266E+01 -0.44575946004E+01  0.64512817869E+01  0.00000000000E+00 0.  1.
</event>
<event>
 7    1  0.3062695E-010  0.4778727E+02  0.7816164E-02  0.1312668E+00
        -11   -1    0    0    0    0  0.00000000000E+00  0.00000000000E+00  0.45593999997E+02  0.45594000000E+02  0.51100000000E-03 0. -1.
         11   -1    0    0    0    0 -0.00000000000E+00 -0.00000000000E+00 -0.45593999997E+02  0.45594000000E+02  0.51100000000E-03 0.  1.
    9900012    2    1    2    0    0 -0.24599106518E+01  0.28084239919E+02  0.32997692103E+02  0.47787269864E+02  0.19999994616E+02 0.  0.
        -12    1    1    2    0    0  0.24599106518E+01 -0.28084239919E+02 -0.32997692103E+02  0.43400730136E+02  0.00000000000E+00 0.  1.
         11    1    3    3    0    0  0.10096504363E+01  0.19768478881E+02  0.24858880125E+02  0.31776973937E+02  0.51100000000E-03 0. -1.
        -11    1    3    3    0    0 -0.19761261017E+01 -0.11045814713E+01 -0.12840672437E+01  0.26026915960E+01  0.51100000000E-03 0.  1.
        -12    1    3    3    0    0 -0.14934349864E+01  0.94203425097E+01  0.94228792215E+01  0.13407604330E+02  0.00000000000E+00 0.  1.
</event>
<event>
 7    1  0.3062695E-010  0.4778727E+02  0.7816164E-02  0.1312668E+00
        -11   -1    0    0    0    0  0.00000000000E+00  0.00000000000E+00  0.45593999997E+02  0.45594000000E+02  0.51100000000E-03 0. -1.
         11   -1    0    0    0    0 -0.00000000000E+00 -0.00000000000E+00 -0.45593999997E+02  0.45594000000E+02  0.51100000000E-03 0.  1.
    9900012    2    1    2    0    0 -0.37773081181E+02 -0.18438999277E+02  0.10808376924E+02  0.47787269960E+02  0.19999995057E+02 0.  0.
        -12    1    1    2    0    0  0.37773081181E+02  0.18438999277E+02 -0.10808376924E+02  0.43400730040E+02  0.00000000000E+00 0.  1.
         11    1    3    3    0    0 -0.80501090959E+01 -0.10780341517E+02  0.57754404456E+01  0.14641575471E+02  0.51100000000E-03 0. -1.
        -11    1    3    3    0    0 -0.26214417198E+02 -0.48265639254E+01  0.36764751106E+00  0.26657579660E+02  0.51100000000E-03 0.  1.
        -12    1    3    3    0    0 -0.35085548867E+01 -0.28320938340E+01  0.46652889678E+01  0.64881148287E+01  0.00000000000E+00 0.  1.
</event>
<event>
 7    1  0.3062695E-010  0.4778727E+02  0.7816164E-02  0.1312668E+00
        -11   -1    0    0    0    0  0.00000000000E+00  0.00000000000E+00  0.45593999997E+02  0.45594000000E+02  0.51100000000E-03 0.  1.
         11   -1    0    0    0    0 -0.00000000000E+00 -0.00000000000E+00 -0.45593999997E+02  0.45594000000E+02  0.51100000000E-03 0. -1.
    9900012    2    1    2    0    0  0.32679825039E+02 -0.21191127885E+02 -0.19146497328E+02  0.47787271601E+02  0.20000002537E+02 0.  0.
        -12    1    1    2    0    0 -0.32679825039E+02  0.21191127885E+02  0.19146497328E+02  0.43400728399E+02  0.00000000000E+00 0.  1.
         11    1    3    3    0    0  0.11050791719E+02 -0.10335267890E+02 -0.61408884895E+01  0.16329368380E+02  0.51100000000E-03 0. -1.
        -11    1    3    3    0    0 -0.67170451549E-01 -0.27894471519E+01 -0.70128284172E+01  0.75475353562E+01  0.51100000000E-03 0.  1.
        -12    1    3    3    0    0  0.21696203771E+02 -0.80664128435E+01 -0.59927804211E+01  0.23910367865E+02  0.00000000000E+00 0.  1.
</event>
<event>
 7    1  0.3062695E-010  0.4778727E+02  0.7816164E-02  0.1312668E+00
        -11   -1    0    0    0    0  0.00000000000E+00  0.00000000000E+00  0.45593999997E+02  0.45594000000E+02  0.51100000000E-03 0.  1.
         11   -1    0    0    0    0 -0.00000000000E+00 -0.00000000000E+00 -0.45593999997E+02  0.45594000000E+02  0.51100000000E-03 0. -1.
    9900012    2    1    2    0    0  0.10992820157E+02 -0.13319291530E+02 -0.39816799162E+02  0.47787272848E+02  0.20000008223E+02 0.  0.
        -12    1    1    2    0    0 -0.10992820157E+02  0.13319291530E+02  0.39816799162E+02  0.43400727152E+02  0.00000000000E+00 0.  1.
         11    1    3    3    0    0  0.97167579304E+00  0.69259326159E+00 -0.62183417387E+01  0.63317938622E+01  0.51100000000E-03 0. -1.
        -11    1    3    3    0    0  0.36743082153E+01  0.33895486984E+01 -0.12016210747E+02  0.13014565003E+02  0.51100000000E-03 0.  1.
        -12    1    3    3    0    0  0.63468361485E+01 -0.17401433490E+02 -0.21582246676E+02  0.28440913983E+02  0.00000000000E+00 0.  1.
</event>
<event>
 7    1  0.3062695E-010  0.4778727E+02  0.7816164E-02  0.1312668E+00
        -11   -1    0    0    0    0  0.00000000000E+00  0.00000000000E+00  0.45593999997E+02  0.45594000000E+02  0.51100000000E-03 0.  1.
         11   -1    0    0    0    0 -0.00000000000E+00 -0.00000000000E+00 -0.45593999997E+02  0.45594000000E+02  0.51100000000E-03 0. -1.
    9900012    2    1    2    0    0 -0.82103083005E+01  0.25982107292E+02 -0.33780828900E+02  0.47787268867E+02  0.19999990072E+02 0.  0.
        -12    1    1    2    0    0  0.82103083005E+01 -0.25982107292E+02  0.33780828900E+02  0.43400731133E+02  0.00000000000E+00 0.  1.
         11    1    3    3    0    0  0.44669075002E+01  0.74309204403E+01 -0.16903337815E+02  0.18997227975E+02  0.51100000000E-03 0. -1.
        -11    1    3    3    0    0 -0.80641833076E+01  0.70646920307E+01 -0.58556985321E+01  0.12215978531E+02  0.51100000000E-03 0.  1.
         12    1    3    3    0    0 -0.46130324931E+01  0.11486494821E+02 -0.11021792553E+02  0.16574062361E+02  0.00000000000E+00 0. -1.
</event>
<event>
 7    1  0.3062695E-010  0.4778727E+02  0.7816164E-02  0.1312668E+00
        -11   -1    0    0    0    0  0.00000000000E+00  0.00000000000E+00  0.45593999997E+02  0.45594000000E+02  0.51100000000E-03 0.  1.
         11   -1    0    0    0    0 -0.00000000000E+00 -0.00000000000E+00 -0.45593999997E+02  0.45594000000E+02  0.51100000000E-03 0. -1.
    9900012    2    1    2    0    0 -0.16080822480E+02  0.39529491642E+02 -0.79025178544E+01  0.47787270173E+02  0.19999996026E+02 0.  0.
        -12    1    1    2    0    0  0.16080822480E+02 -0.39529491642E+02  0.79025178544E+01  0.43400729827E+02  0.00000000000E+00 0.  1.
         11    1    3    3    0    0 -0.80693900500E+01  0.16197906857E+02 -0.33942319784E+01  0.18412171336E+02  0.51100000000E-03 0. -1.
        -11    1    3    3    0    0 -0.98452240551E+01  0.85875595819E+01 -0.61268236017E+01  0.14429573243E+02  0.51100000000E-03 0.  1.
        -12    1    3    3    0    0  0.18337916248E+01  0.14744025203E+02  0.16185377257E+01  0.14945525594E+02  0.00000000000E+00 0.  1.
</event>
<event>
 7    1  0.3062695E-010  0.4778727E+02  0.7816164E-02  0.1312668E+00
        -11   -1    0    0    0    0  0.00000000000E+00  0.00000000000E+00  0.45593999997E+02  0.45594000000E+02  0.51100000000E-03 0. -1.
         11   -1    0    0    0    0 -0.00000000000E+00 -0.00000000000E+00 -0.45593999997E+02  0.45594000000E+02  0.51100000000E-03 0.  1.
    9900012    2    1    2    0    0 -0.26768068522E+02  0.34154765550E+02 -0.73874977353E+00  0.47787271280E+02  0.20000001075E+02 0.  0.
        -12    1    1    2    0    0  0.26768068522E+02 -0.34154765550E+02  0.73874977353E+00  0.43400728720E+02  0.00000000000E+00 0.  1.
         11    1    3    3    0    0 -0.51179437965E+01  0.16605630886E+02 -0.33664290628E+01  0.17699524590E+02  0.51100000000E-03 0. -1.
        -11    1    3    3    0    0 -0.46636487182E+01 -0.89968402117E+00  0.15142446383E+01  0.49851768063E+01  0.51100000000E-03 0.  1.
        -12    1    3    3    0    0 -0.16986476008E+02  0.18448818685E+02  0.11134346510E+01  0.25102569884E+02  0.00000000000E+00 0.  1.
</event>
<event>
 7    1  0.3062695E-010  0.4778727E+02  0.7816164E-02  0.1312668E+00
        -11   -1    0    0    0    0  0.00000000000E+00  0.00000000000E+00  0.45593999997E+02  0.45594000000E+02  0.51100000000E-03 0.  1.
         11   -1    0    0    0    0 -0.00000000000E+00 -0.00000000000E+00 -0.45593999997E+02  0.45594000000E+02  0.51100000000E-03 0. -1.
    9900012    2    1    2    0    0  0.10296627657E+02  0.34498027795E+02 -0.24238171043E+02  0.47787269611E+02  0.19999993464E+02 0.  0.
        -12    1    1    2    0    0 -0.10296627657E+02 -0.34498027795E+02  0.24238171043E+02  0.43400730389E+02  0.00000000000E+00 0.  1.
         11    1    3    3    0    0 -0.15490487550E+01  0.18510792264E+02 -0.15822348140E+02  0.24400731203E+02  0.51100000000E-03 0. -1.
        -11    1    3    3    0    0  0.97489166805E+01  0.16205892005E+02 -0.53292625316E+01  0.19648749363E+02  0.51100000000E-03 0.  1.
        -12    1    3    3    0    0  0.20967597314E+01 -0.21865647492E+00 -0.30865603705E+01  0.37377890451E+01  0.00000000000E+00 0.  1.
</event>
<event>
 7    1  0.3062695E-010  0.4778727E+02  0.7816164E-02  0.1312668E+00
        -11   -1    0    0    0    0  0.00000000000E+00  0.00000000000E+00  0.45593999997E+02  0.45594000000E+02  0.51100000000E-03 0.  1.
         11   -1    0    0    0    0 -0.00000000000E+00 -0.00000000000E+00 -0.45593999997E+02  0.45594000000E+02  0.51100000000E-03 0. -1.
    9900012    2    1    2    0    0 -0.11733658033E+02  0.19696093346E+02 -0.36851162023E+02  0.47787274587E+02  0.20000016152E+02 0.  0.
        -12    1    1    2    0    0  0.11733658033E+02 -0.19696093346E+02  0.36851162023E+02  0.43400725413E+02  0.00000000000E+00 0.  1.
         11    1    3    3    0    0 -0.27731350395E+01  0.48033642707E+01 -0.63648529083E+01  0.84423894171E+01  0.51100000000E-03 0. -1.
        -11    1    3    3    0    0 -0.28414848872E+01  0.38112443165E+01  0.14673043981E+01  0.49751986957E+01  0.51100000000E-03 0.  1.
        -12    1    3    3    0    0 -0.61190381063E+01  0.11081484759E+02 -0.31953613513E+02  0.34369686474E+02  0.00000000000E+00 0.  1.
</event>
<event>
 7    1  0.3062695E-010  0.4778727E+02  0.7816164E-02  0.1312668E+00
        -11   -1    0    0    0    0  0.00000000000E+00  0.00000000000E+00  0.45593999997E+02  0.45594000000E+02  0.51100000000E-03 0. -1.
         11   -1    0    0    0    0 -0.00000000000E+00 -0.00000000000E+00 -0.45593999997E+02  0.45594000000E+02  0.51100000000E-03 0.  1.
    9900012    2    1    2    0    0  0.22394934791E+01 -0.32048423720E+02  0.29180584127E+02  0.47787270928E+02  0.19999999468E+02 0.  0.
        -12    1    1    2    0    0 -0.22394934791E+01  0.32048423720E+02 -0.29180584127E+02  0.43400729072E+02  0.00000000000E+00 0.  1.
         11    1    3    3    0    0 -0.10139698309E+01 -0.24577183283E+01  0.45111741257E+01  0.52363352120E+01  0.51100000000E-03 0. -1.
        -11    1    3    3    0    0 -0.13595762547E+01 -0.22566983794E+01  0.11615534988E+02  0.11910574650E+02  0.51100000000E-03 0.  1.
        -12    1    3    3    0    0  0.46130395647E+01 -0.27334007013E+02  0.13053875014E+02  0.30640361066E+02  0.00000000000E+00 0.  1.
</event>
<event>
 7    1  0.3062695E-010  0.4778727E+02  0.7816164E-02  0.1312668E+00
        -11   -1    0    0    0    0  0.00000000000E+00  0.00000000000E+00  0.45593999997E+02  0.45594000000E+02  0.51100000000E-03 0.  1.
         11   -1    0    0    0    0 -0.00000000000E+00 -0.00000000000E+00 -0.45593999997E+02  0.45594000000E+02  0.51100000000E-03 0. -1.
    9900012    2    1    2    0    0 -0.32529146346E+01  0.32149622646E+02 -0.28973153357E+02  0.47787270682E+02  0.19999998348E+02 0.  0.
        -12    1    1    2    0    0  0.32529146346E+01 -0.32149622646E+02  0.28973153357E+02  0.43400729318E+02  0.00000000000E+00 0.  1.
         11    1    3    3    0    0  0.19480538293E+01  0.58327016378E+01 -0.49512783661E+01  0.78949654741E+01  0.51100000000E-03 0. -1.
        -11    1    3    3    0    0  0.60977422905E+01  0.11293886448E+02 -0.74981906661E+01  0.14864629012E+02  0.51100000000E-03 0.  1.
        -12    1    3    3    0    0 -0.11298710754E+02  0.15023034560E+02 -0.16523684325E+02  0.25027676196E+02  0.00000000000E+00 0.  1.
</event>
<event>
 7    1  0.3062695E-010  0.4778728E+02  0.7816164E-02  0.1312668E+00
        -11   -1    0    0    0    0  0.00000000000E+00  0.00000000000E+00  0.45593999997E+02  0.45594000000E+02  0.51100000000E-03 0. -1.
         11   -1    0    0    0    0 -0.00000000000E+00 -0.00000000000E+00 -0.45593999997E+02  0.45594000000E+02  0.51100000000E-03 0.  1.
    9900012    2    1    2    0    0 -0.24531882625E+02 -0.35688549650E+02  0.28525468548E+01  0.47787275757E+02  0.20000021486E+02 0.  0.
        -12    1    1    2    0    0  0.24531882625E+02  0.35688549650E+02 -0.28525468548E+01  0.43400724243E+02  0.00000000000E+00 0.  1.
         11    1    3    3    0    0 -0.20622483896E+02 -0.23634072292E+02  0.49672839126E+01  0.31757363317E+02  0.51100000000E-03 0. -1.
        -11    1    3    3    0    0 -0.54231758052E+01 -0.98100151407E+01 -0.48209733762E+01  0.12202008746E+02  0.51100000000E-03 0.  1.
         12    1    3    3    0    0  0.15137770754E+01 -0.22444622174E+01  0.27062363184E+01  0.38279036940E+01  0.00000000000E+00 0. -1.
</event>
<event>
 7    1  0.3062695E-010  0.4778729E+02  0.7816164E-02  0.1312668E+00
        -11   -1    0    0    0    0  0.00000000000E+00  0.00000000000E+00  0.45593999997E+02  0.45594000000E+02  0.51100000000E-03 0.  1.
         11   -1    0    0    0    0 -0.00000000000E+00 -0.00000000000E+00 -0.45593999997E+02  0.45594000000E+02  0.51100000000E-03 0. -1.
    9900012    2    1    2    0    0 -0.29522976933E+02 -0.25038845992E+02 -0.19623246348E+02  0.47787288337E+02  0.20000078844E+02 0.  0.
        -12    1    1    2    0    0  0.29522976933E+02  0.25038845992E+02  0.19623246348E+02  0.43400711663E+02  0.00000000000E+00 0.  1.
         11    1    3    3    0    0 -0.15370951436E+02 -0.75628742208E+01 -0.16082667320E+02  0.23497136057E+02  0.51100000000E-03 0. -1.
        -11    1    3    3    0    0 -0.92180502600E+01 -0.13500833233E+02  0.11781251416E+01  0.16390025250E+02  0.51100000000E-03 0.  1.
        -12    1    3    3    0    0 -0.49339752376E+01 -0.39751385385E+01 -0.47187041700E+01  0.79001270300E+01  0.00000000000E+00 0.  1.
</event>
<event>
 7    1  0.3062695E-010  0.4778727E+02  0.7816164E-02  0.1312668E+00
        -11   -1    0    0    0    0  0.00000000000E+00  0.00000000000E+00  0.45593999997E+02  0.45594000000E+02  0.51100000000E-03 0. -1.
         11   -1    0    0    0    0 -0.00000000000E+00 -0.00000000000E+00 -0.45593999997E+02  0.45594000000E+02  0.51100000000E-03 0.  1.
    9900012    2    1    2    0    0 -0.27772539174E+02  0.30742532567E+02 -0.12930809122E+02  0.47787273447E+02  0.20000010952E+02 0.  0.
        -12    1    1    2    0    0  0.27772539174E+02 -0.30742532567E+02  0.12930809122E+02  0.43400726553E+02  0.00000000000E+00 0.  1.
         11    1    3    3    0    0 -0.18013613878E+02  0.13141315386E+02 -0.33701243601E+01  0.22550880105E+02  0.51100000000E-03 0. -1.
        -11    1    3    3    0    0  0.25784382542E+01  0.16282909319E+01 -0.21707181500E+01  0.37432195684E+01  0.51100000000E-03 0.  1.
        -12    1    3    3    0    0 -0.12337363550E+02  0.15972926249E+02 -0.73899666116E+01  0.21493173773E+02  0.00000000000E+00 0.  1.
</event>
<event>
 7    1  0.3062695E-010  0.4778727E+02  0.7816164E-02  0.1312668E+00
        -11   -1    0    0    0    0  0.00000000000E+00  0.00000000000E+00  0.45593999997E+02  0.45594000000E+02  0.51100000000E-03 0.  1.
         11   -1    0    0    0    0 -0.00000000000E+00 -0.00000000000E+00 -0.45593999997E+02  0.45594000000E+02  0.51100000000E-03 0. -1.
    9900012    2    1    2    0    0 -0.25342098514E+02 -0.23806765316E+02 -0.25973820544E+02  0.47787269758E+02  0.19999994136E+02 0.  0.
        -12    1    1    2    0    0  0.25342098514E+02  0.23806765316E+02  0.25973820544E+02  0.43400730242E+02  0.00000000000E+00 0.  1.
         11    1    3    3    0    0 -0.92760522243E+00  0.19612597514E+01  0.74316466388E+00  0.22933131579E+01  0.51100000000E-03 0.  1.
        -11    1    3    3    0    0 -0.62932955836E+01 -0.44028135041E+01 -0.15516139101E+01  0.78356775101E+01  0.51100000000E-03 0. -1.
         12    1    3    3    0    0 -0.18121197707E+02 -0.21365211564E+02 -0.25165371297E+02  0.37658279090E+02  0.00000000000E+00 0. -1.
</event>
<event>
 7    1  0.3062695E-010  0.4778727E+02  0.7816164E-02  0.1312668E+00
        -11   -1    0    0    0    0  0.00000000000E+00  0.00000000000E+00  0.45593999997E+02  0.45594000000E+02  0.51100000000E-03 0.  1.
         11   -1    0    0    0    0 -0.00000000000E+00 -0.00000000000E+00 -0.45593999997E+02  0.45594000000E+02  0.51100000000E-03 0. -1.
    9900012    2    1    2    0    0  0.12453771996E+02 -0.39615699459E+02 -0.12614407333E+02  0.47787270134E+02  0.19999995849E+02 0.  0.
        -12    1    1    2    0    0 -0.12453771996E+02  0.39615699459E+02  0.12614407333E+02  0.43400729866E+02  0.00000000000E+00 0.  1.
         11    1    3    3    0    0 -0.21296821329E+01 -0.17534512708E+02 -0.73259244314E+01  0.19122339055E+02  0.51100000000E-03 0. -1.
        -11    1    3    3    0    0  0.91927520638E+01 -0.97065687624E+01 -0.69462967130E+01  0.15065696331E+02  0.51100000000E-03 0.  1.
         12    1    3    3    0    0  0.53907020652E+01 -0.12374617989E+02  0.16578138112E+01  0.13599234749E+02  0.00000000000E+00 0. -1.
</event>
<event>
 7    1  0.3062695E-010  0.4778728E+02  0.7816164E-02  0.1312668E+00
        -11   -1    0    0    0    0  0.00000000000E+00  0.00000000000E+00  0.45593999997E+02  0.45594000000E+02  0.51100000000E-03 0. -1.
         11   -1    0    0    0    0 -0.00000000000E+00 -0.00000000000E+00 -0.45593999997E+02  0.45594000000E+02  0.51100000000E-03 0.  1.
    9900012    2    1    2    0    0 -0.33329957141E+02 -0.20357379685E+01  0.27723502915E+02  0.47787275513E+02  0.20000020373E+02 0.  0.
        -12    1    1    2    0    0  0.33329957141E+02  0.20357379685E+01 -0.27723502915E+02  0.43400724487E+02  0.00000000000E+00 0.  1.
         11    1    3    3    0    0 -0.15226797240E+02 -0.42085594762E+01  0.21085021353E+02  0.26346640256E+02  0.51100000000E-03 0. -1.
        -11    1    3    3    0    0 -0.86377132572E+00  0.25890293876E+01  0.25120433786E+01  0.37093848911E+01  0.51100000000E-03 0.  1.
         12    1    3    3    0    0 -0.17239388576E+02 -0.41620787989E+00  0.41264381840E+01  0.17731250366E+02  0.00000000000E+00 0. -1.
</event>
<event>
 7    1  0.3062695E-010  0.4778727E+02  0.7816164E-02  0.1312668E+00
        -11   -1    0    0    0    0  0.00000000000E+00  0.00000000000E+00  0.45593999997E+02  0.45594000000E+02  0.51100000000E-03 0.  1.
         11   -1    0    0    0    0 -0.00000000000E+00 -0.00000000000E+00 -0.45593999997E+02  0.45594000000E+02  0.51100000000E-03 0. -1.
    9900012    2    1    2    0    0  0.45652002281E+01  0.18233726456E+02 -0.39119223589E+02  0.47787268580E+02  0.19999988763E+02 0.  0.
        -12    1    1    2    0    0 -0.45652002281E+01 -0.18233726456E+02  0.39119223589E+02  0.43400731420E+02  0.00000000000E+00 0.  1.
         11    1    3    3    0    0  0.30766328584E+01  0.26918624118E+01  0.24836482886E+00  0.40955437171E+01  0.51100000000E-03 0. -1.
        -11    1    3    3    0    0  0.36039106712E+01  0.15205469935E+02 -0.27477445658E+02  0.31610196270E+02  0.51100000000E-03 0.  1.
        -12    1    3    3    0    0 -0.21153433015E+01  0.33639410853E+00 -0.11890142760E+02  0.12081528593E+02  0.00000000000E+00 0.  1.
</event>
<event>
 7    1  0.3062695E-010  0.4778727E+02  0.7816164E-02  0.1312668E+00
        -11   -1    0    0    0    0  0.00000000000E+00  0.00000000000E+00  0.45593999997E+02  0.45594000000E+02  0.51100000000E-03 0.  1.
         11   -1    0    0    0    0 -0.00000000000E+00 -0.00000000000E+00 -0.45593999997E+02  0.45594000000E+02  0.51100000000E-03 0. -1.
    9900012    2    1    2    0    0  0.39401565931E+02 -0.17607328152E+01 -0.18111878737E+02  0.47787265799E+02  0.19999976082E+02 0.  0.
        -12    1    1    2    0    0 -0.39401565931E+02  0.17607328152E+01  0.18111878737E+02  0.43400734201E+02  0.00000000000E+00 0.  1.
         11    1    3    3    0    0  0.88140584030E+01 -0.65065368969E+01 -0.68204863158E+00  0.10976695246E+02  0.51100000000E-03 0. -1.
        -11    1    3    3    0    0  0.20851913856E+01 -0.22553982292E+01 -0.17481699148E+01  0.35342527639E+01  0.51100000000E-03 0.  1.
         12    1    3    3    0    0  0.28502316142E+02  0.70012023110E+01 -0.15681660191E+02  0.33276317789E+02  0.00000000000E+00 0. -1.
</event>
<event>
 7    1  0.3062695E-010  0.4778726E+02  0.7816164E-02  0.1312668E+00
        -11   -1    0    0    0    0  0.00000000000E+00  0.00000000000E+00  0.45593999997E+02  0.45594000000E+02  0.51100000000E-03 0. -1.
         11   -1    0    0    0    0 -0.00000000000E+00 -0.00000000000E+00 -0.45593999997E+02  0.45594000000E+02  0.51100000000E-03 0.  1.
    9900012    2    1    2    0    0  0.36789858135E+02  0.20583604665E+02 -0.10317236898E+02  0.47787264756E+02  0.19999971326E+02 0.  0.
        -12    1    1    2    0    0 -0.36789858135E+02 -0.20583604665E+02  0.10317236898E+02  0.43400735244E+02  0.00000000000E+00 0.  1.
         11    1    3    3    0    0 -0.47654974200E+00  0.61713369446E+01  0.38116363567E+00  0.62014341341E+01  0.51100000000E-03 0.  1.
        -11    1    3    3    0    0  0.29497787210E+02  0.13155480027E+02 -0.90952073971E+01  0.33554566051E+02  0.51100000000E-03 0. -1.
        -12    1    3    3    0    0  0.77686206667E+01  0.12567876933E+01 -0.16031931368E+01  0.80312645706E+01  0.00000000000E+00 0.  1.
</event>
<event>
 7    1  0.3062695E-010  0.4778727E+02  0.7816164E-02  0.1312668E+00
        -11   -1    0    0    0    0  0.00000000000E+00  0.00000000000E+00  0.45593999997E+02  0.45594000000E+02  0.51100000000E-03 0.  1.
         11   -1    0    0    0    0 -0.00000000000E+00 -0.00000000000E+00 -0.45593999997E+02  0.45594000000E+02  0.51100000000E-03 0. -1.
    9900012    2    1    2    0    0  0.95980501762E+01 -0.41099403339E+02 -0.10116308244E+02  0.47787271729E+02  0.20000003120E+02 0.  0.
        -12    1    1    2    0    0 -0.95980501762E+01  0.41099403339E+02  0.10116308244E+02  0.43400728271E+02  0.00000000000E+00 0.  1.
         11    1    3    3    0    0  0.13462763625E+02 -0.34296179778E+02 -0.10133309303E+02  0.38212012633E+02  0.51100000000E-03 0. -1.
        -11    1    3    3    0    0  0.47442092238E+00  0.82483343535E-01 -0.12489197336E+01  0.13385363184E+01  0.51100000000E-03 0.  1.
         12    1    3    3    0    0 -0.43391343707E+01 -0.68857069043E+01  0.12659207921E+01  0.82367227774E+01  0.00000000000E+00 0. -1.
</event>
<event>
 7    1  0.3062695E-010  0.4778727E+02  0.7816164E-02  0.1312668E+00
        -11   -1    0    0    0    0  0.00000000000E+00  0.00000000000E+00  0.45593999997E+02  0.45594000000E+02  0.51100000000E-03 0.  1.
         11   -1    0    0    0    0 -0.00000000000E+00 -0.00000000000E+00 -0.45593999997E+02  0.45594000000E+02  0.51100000000E-03 0. -1.
    9900012    2    1    2    0    0 -0.60983068027E+00  0.42864878690E+02 -0.67715242762E+01  0.47787271209E+02  0.20000000751E+02 0.  0.
        -12    1    1    2    0    0  0.60983068027E+00 -0.42864878690E+02  0.67715242762E+01  0.43400728791E+02  0.00000000000E+00 0.  1.
         11    1    3    3    0    0 -0.36597717348E+01  0.10310851131E+02 -0.31654138646E+01  0.11389794791E+02  0.51100000000E-03 0. -1.
        -11    1    3    3    0    0  0.15458885421E+00 -0.16441307166E+01  0.72735861859E+00  0.18044706559E+01  0.51100000000E-03 0.  1.
        -12    1    3    3    0    0  0.28953522003E+01  0.34198158276E+02 -0.43334690302E+01  0.34593005762E+02  0.00000000000E+00 0.  1.
</event>
<event>
 7    1  0.3062695E-010  0.4778727E+02  0.7816164E-02  0.1312668E+00
        -11   -1    0    0    0    0  0.00000000000E+00  0.00000000000E+00  0.45593999997E+02  0.45594000000E+02  0.51100000000E-03 0.  1.
         11   -1    0    0    0    0 -0.00000000000E+00 -0.00000000000E+00 -0.45593999997E+02  0.45594000000E+02  0.51100000000E-03 0. -1.
    9900012    2    1    2    0    0 -0.39434220084E+02 -0.16177578804E+02  0.81762976578E+01  0.47787267138E+02  0.19999982189E+02 0.  0.
        -12    1    1    2    0    0  0.39434220084E+02  0.16177578804E+02 -0.81762976578E+01  0.43400732862E+02  0.00000000000E+00 0.  1.
         11    1    3    3    0    0 -0.25534589029E+02 -0.50681165166E+01  0.95183690068E+00  0.26050087057E+02  0.51100000000E-03 0. -1.
        -11    1    3    3    0    0  0.13058939155E+01 -0.62374189706E-01 -0.52305640141E+00  0.14081327062E+01  0.51100000000E-03 0.  1.
         12    1    3    3    0    0 -0.15205524970E+02 -0.11047088098E+02  0.77475171586E+01  0.20329047375E+02  0.00000000000E+00 0. -1.
</event>
<event>
 7    1  0.3062695E-010  0.4778727E+02  0.7816164E-02  0.1312668E+00
        -11   -1    0    0    0    0  0.00000000000E+00  0.00000000000E+00  0.45593999997E+02  0.45594000000E+02  0.51100000000E-03 0.  1.
         11   -1    0    0    0    0 -0.00000000000E+00 -0.00000000000E+00 -0.45593999997E+02  0.45594000000E+02  0.51100000000E-03 0. -1.
    9900012    2    1    2    0    0  0.24327228619E+02  0.21053416117E+02 -0.29130106817E+02  0.47787268374E+02  0.19999987824E+02 0.  0.
        -12    1    1    2    0    0 -0.24327228619E+02 -0.21053416117E+02  0.29130106817E+02  0.43400731626E+02  0.00000000000E+00 0.  1.
         11    1    3    3    0    0  0.88713482887E+01  0.15068647621E+02 -0.75192356393E+01  0.19034281348E+02  0.51100000000E-03 0.  1.
        -11    1    3    3    0    0 -0.29390305077E+00 -0.14505526989E+01 -0.24242023948E+01  0.28402886557E+01  0.51100000000E-03 0. -1.
         12    1    3    3    0    0  0.15749783381E+02  0.74353211955E+01 -0.19186668783E+02  0.25912698370E+02  0.00000000000E+00 0. -1.
</event>
<event>
 7    1  0.3062695E-010  0.4778725E+02  0.7816164E-02  0.1312668E+00
        -11   -1    0    0    0    0  0.00000000000E+00  0.00000000000E+00  0.45593999997E+02  0.45594000000E+02  0.51100000000E-03 0.  1.
         11   -1    0    0    0    0 -0.00000000000E+00 -0.00000000000E+00 -0.45593999997E+02  0.45594000000E+02  0.51100000000E-03 0. -1.
    9900012    2    1    2    0    0  0.43329115042E+02  0.24659793888E+01  0.36297415615E+00  0.47787250987E+02  0.19999908551E+02 0.  0.
        -12    1    1    2    0    0 -0.43329115042E+02 -0.24659793888E+01 -0.36297415615E+00  0.43400749013E+02  0.00000000000E+00 0.  1.
         11    1    3    3    0    0  0.23754606025E+02 -0.45891119914E+01 -0.56212760970E+01  0.24838276943E+02  0.51100000000E-03 0. -1.
        -11    1    3    3    0    0  0.13321747893E+02  0.71466608015E+01  0.69195218787E+01  0.16625989018E+02  0.51100000000E-03 0.  1.
        -12    1    3    3    0    0  0.62527611242E+01 -0.91569421268E-01 -0.93527162559E+00  0.63229850268E+01  0.00000000000E+00 0.  1.
</event>
<event>
 7    1  0.3062695E-010  0.4778727E+02  0.7816164E-02  0.1312668E+00
        -11   -1    0    0    0    0  0.00000000000E+00  0.00000000000E+00  0.45593999997E+02  0.45594000000E+02  0.51100000000E-03 0. -1.
         11   -1    0    0    0    0 -0.00000000000E+00 -0.00000000000E+00 -0.45593999997E+02  0.45594000000E+02  0.51100000000E-03 0.  1.
    9900012    2    1    2    0    0 -0.20708824607E+02  0.20471577251E+02  0.32182020502E+02  0.47787270336E+02  0.19999996771E+02 0.  0.
        -12    1    1    2    0    0  0.20708824607E+02 -0.20471577251E+02 -0.32182020502E+02  0.43400729664E+02  0.00000000000E+00 0.  1.
         11    1    3    3    0    0 -0.68722764570E+01  0.67597364208E+01  0.88733243244E+01  0.13101835940E+02  0.51100000000E-03 0. -1.
        -11    1    3    3    0    0 -0.47430814444E+01  0.15541622134E+02  0.16665886218E+02  0.23276395851E+02  0.51100000000E-03 0.  1.
        -12    1    3    3    0    0 -0.90934667056E+01 -0.18297813041E+01  0.66428099604E+01  0.11409038545E+02  0.00000000000E+00 0.  1.
</event>
<event>
 7    1  0.3062695E-010  0.4778727E+02  0.7816164E-02  0.1312668E+00
        -11   -1    0    0    0    0  0.00000000000E+00  0.00000000000E+00  0.45593999997E+02  0.45594000000E+02  0.51100000000E-03 0.  1.
         11   -1    0    0    0    0 -0.00000000000E+00 -0.00000000000E+00 -0.45593999997E+02  0.45594000000E+02  0.51100000000E-03 0. -1.
    9900012    2    1    2    0    0  0.35393659090E+02  0.23783003428E+02  0.80796421548E+01  0.47787274508E+02  0.20000015793E+02 0.  0.
        -12    1    1    2    0    0 -0.35393659090E+02 -0.23783003428E+02 -0.80796421548E+01  0.43400725492E+02  0.00000000000E+00 0.  1.
         11    1    3    3    0    0  0.59469877482E+01  0.57417558739E+00  0.48510264647E+01  0.76960248768E+01  0.51100000000E-03 0. -1.
        -11    1    3    3    0    0 -0.14167112169E+01  0.12683098970E+01 -0.68749582198E+00  0.20219622730E+01  0.51100000000E-03 0.  1.
         12    1    3    3    0    0  0.30863382559E+02  0.21940517944E+02  0.39161115121E+01  0.38069287359E+02  0.00000000000E+00 0. -1.
</event>
<event>
 7    1  0.3062695E-010  0.4778727E+02  0.7816164E-02  0.1312668E+00
        -11   -1    0    0    0    0  0.00000000000E+00  0.00000000000E+00  0.45593999997E+02  0.45594000000E+02  0.51100000000E-03 0.  1.
         11   -1    0    0    0    0 -0.00000000000E+00 -0.00000000000E+00 -0.45593999997E+02  0.45594000000E+02  0.51100000000E-03 0. -1.
    9900012    2    1    2    0    0  0.19662423311E+02 -0.11343371710E+02 -0.36991085462E+02  0.47787269869E+02  0.19999994642E+02 0.  0.
        -12    1    1    2    0    0 -0.19662423311E+02  0.11343371710E+02  0.36991085462E+02  0.43400730131E+02  0.00000000000E+00 0.  1.
         11    1    3    3    0    0  0.12064367865E+02 -0.75510218391E+01 -0.21940662643E+02  0.26152620906E+02  0.51100000000E-03 0. -1.
        -11    1    3    3    0    0  0.54239739130E+01  0.27491873598E+01 -0.12495512479E+01  0.62079709029E+01  0.51100000000E-03 0.  1.
        -12    1    3    3    0    0  0.21740815336E+01 -0.65415372311E+01 -0.13800871571E+02  0.15426678060E+02  0.00000000000E+00 0.  1.
</event>
<event>
 7    1  0.3062695E-010  0.4778727E+02  0.7816164E-02  0.1312668E+00
        -11   -1    0    0    0    0  0.00000000000E+00  0.00000000000E+00  0.45593999997E+02  0.45594000000E+02  0.51100000000E-03 0.  1.
         11   -1    0    0    0    0 -0.00000000000E+00 -0.00000000000E+00 -0.45593999997E+02  0.45594000000E+02  0.51100000000E-03 0. -1.
    9900012    2    1    2    0    0  0.34992879949E+02  0.40505941944E+01 -0.25351813333E+02  0.47787269595E+02  0.19999993391E+02 0.  0.
        -12    1    1    2    0    0 -0.34992879949E+02 -0.40505941944E+01  0.25351813333E+02  0.43400730405E+02  0.00000000000E+00 0.  1.
         11    1    3    3    0    0  0.69138907907E+01  0.29801247896E-01 -0.48574518854E+01  0.84497108271E+01  0.51100000000E-03 0. -1.
        -11    1    3    3    0    0  0.30052093397E+02  0.13351737994E+01 -0.19540597542E+02  0.35871241395E+02  0.51100000000E-03 0.  1.
        -12    1    3    3    0    0 -0.19731042395E+01  0.26856191472E+01 -0.95376390579E+00  0.34663173732E+01  0.00000000000E+00 0.  1.
</event>
<event>
 7    1  0.3062695E-010  0.4778728E+02  0.7816164E-02  0.1312668E+00
        -11   -1    0    0    0    0  0.00000000000E+00  0.00000000000E+00  0.45593999997E+02  0.45594000000E+02  0.51100000000E-03 0.  1.
         11   -1    0    0    0    0 -0.00000000000E+00 -0.00000000000E+00 -0.45593999997E+02  0.45594000000E+02  0.51100000000E-03 0. -1.
    9900012    2    1    2    0    0  0.33992674948E+02  0.26562592429E+02  0.47486389537E+01  0.47787276059E+02  0.20000022863E+02 0.  0.
        -12    1    1    2    0    0 -0.33992674948E+02 -0.26562592429E+02 -0.47486389537E+01  0.43400723941E+02  0.00000000000E+00 0.  1.
         11    1    3    3    0    0  0.30376272247E+02  0.21351143554E+02  0.10401910736E+02  0.38558902913E+02  0.51100000000E-03 0. -1.
        -11    1    3    3    0    0  0.20467786647E+01  0.48736302576E+01 -0.54792680586E+01  0.76134061699E+01  0.51100000000E-03 0.  1.
        -12    1    3    3    0    0  0.15696240369E+01  0.33781861761E+00 -0.17400372368E+00  0.16149669754E+01  0.00000000000E+00 0.  1.
</event>
<event>
 7    1  0.3062695E-010  0.4778730E+02  0.7816164E-02  0.1312668E+00
        -11   -1    0    0    0    0  0.00000000000E+00  0.00000000000E+00  0.45593999997E+02  0.45594000000E+02  0.51100000000E-03 0.  1.
         11   -1    0    0    0    0 -0.00000000000E+00 -0.00000000000E+00 -0.45593999997E+02  0.45594000000E+02  0.51100000000E-03 0. -1.
    9900012    2    1    2    0    0 -0.44729921355E+01  0.45328927947E+01 -0.42930944929E+02  0.47787299450E+02  0.20000129510E+02 0.  0.
        -12    1    1    2    0    0  0.44729921355E+01 -0.45328927947E+01  0.42930944929E+02  0.43400700550E+02  0.00000000000E+00 0.  1.
         11    1    3    3    0    0 -0.18262580117E+01  0.48892574285E+01 -0.22235781130E+02  0.22840096743E+02  0.51100000000E-03 0. -1.
        -11    1    3    3    0    0  0.12585308818E+00 -0.67133240314E+01 -0.12680260565E+02  0.14348294910E+02  0.51100000000E-03 0.  1.
         12    1    3    3    0    0 -0.27725872119E+01  0.63569593975E+01 -0.80149032345E+01  0.10598907797E+02  0.00000000000E+00 0. -1.
</event>
<event>
 7    1  0.3062695E-010  0.4778727E+02  0.7816164E-02  0.1312668E+00
        -11   -1    0    0    0    0  0.00000000000E+00  0.00000000000E+00  0.45593999997E+02  0.45594000000E+02  0.51100000000E-03 0.  1.
         11   -1    0    0    0    0 -0.00000000000E+00 -0.00000000000E+00 -0.45593999997E+02  0.45594000000E+02  0.51100000000E-03 0. -1.
    9900012    2    1    2    0    0 -0.33986236831E+02 -0.12057391383E+02 -0.24149081756E+02  0.47787272695E+02  0.20000007527E+02 0.  0.
        -12    1    1    2    0    0  0.33986236831E+02  0.12057391383E+02  0.24149081756E+02  0.43400727305E+02  0.00000000000E+00 0.  1.
         11    1    3    3    0    0 -0.22695032282E+02 -0.15737929845E+02 -0.14265152700E+02  0.31084425488E+02  0.51100000000E-03 0. -1.
        -11    1    3    3    0    0 -0.44159659693E+01  0.32897128807E+01 -0.77235615847E+01  0.94855874933E+01  0.51100000000E-03 0.  1.
         12    1    3    3    0    0 -0.68752385798E+01  0.39082558207E+00 -0.21603674714E+01  0.72172597138E+01  0.00000000000E+00 0. -1.
</event>
<event>
 7    1  0.3062695E-010  0.4778727E+02  0.7816164E-02  0.1312668E+00
        -11   -1    0    0    0    0  0.00000000000E+00  0.00000000000E+00  0.45593999997E+02  0.45594000000E+02  0.51100000000E-03 0.  1.
         11   -1    0    0    0    0 -0.00000000000E+00 -0.00000000000E+00 -0.45593999997E+02  0.45594000000E+02  0.51100000000E-03 0. -1.
    9900012    2    1    2    0    0  0.49221692734E+01 -0.32563947476E+02 -0.28266314285E+02  0.47787274789E+02  0.20000017071E+02 0.  0.
        -12    1    1    2    0    0 -0.49221692734E+01  0.32563947476E+02  0.28266314285E+02  0.43400725211E+02  0.00000000000E+00 0.  1.
         11    1    3    3    0    0  0.66115161262E+01 -0.19037690603E+02 -0.75170333639E+01  0.21509337504E+02  0.51100000000E-03 0.  1.
        -11    1    3    3    0    0 -0.56059221965E+00 -0.13070670911E+02 -0.21255998146E+02  0.24959450297E+02  0.51100000000E-03 0. -1.
        -12    1    3    3    0    0 -0.11287546331E+01 -0.45558596193E+00  0.50671722456E+00  0.13184869875E+01  0.00000000000E+00 0.  1.
</event>
<event>
 7    1  0.3062695E-010  0.4778724E+02  0.7816164E-02  0.1312668E+00
        -11   -1    0    0    0    0  0.00000000000E+00  0.00000000000E+00  0.45593999997E+02  0.45594000000E+02  0.51100000000E-03 0. -1.
         11   -1    0    0    0    0 -0.00000000000E+00 -0.00000000000E+00 -0.45593999997E+02  0.45594000000E+02  0.51100000000E-03 0.  1.
    9900012    2    1    2    0    0 -0.33156380974E+02  0.26567713510E+02 -0.88564546620E+01  0.47787242062E+02  0.19999867856E+02 0.  0.
        -12    1    1    2    0    0  0.33156380974E+02 -0.26567713510E+02  0.88564546620E+01  0.43400757938E+02  0.00000000000E+00 0.  1.
         11    1    3    3    0    0 -0.22961026317E+02  0.17543032694E+02 -0.16215748320E+01  0.28941254825E+02  0.51100000000E-03 0. -1.
        -11    1    3    3    0    0  0.76813990457E+00 -0.19422524942E+00 -0.41088235871E+01  0.41845183583E+01  0.51100000000E-03 0.  1.
        -12    1    3    3    0    0 -0.10963494562E+02  0.92189060650E+01 -0.31260562429E+01  0.14661468878E+02  0.00000000000E+00 0.  1.
</event>
<event>
 7    1  0.3062695E-010  0.4778727E+02  0.7816164E-02  0.1312668E+00
        -11   -1    0    0    0    0  0.00000000000E+00  0.00000000000E+00  0.45593999997E+02  0.45594000000E+02  0.51100000000E-03 0.  1.
         11   -1    0    0    0    0 -0.00000000000E+00 -0.00000000000E+00 -0.45593999997E+02  0.45594000000E+02  0.51100000000E-03 0. -1.
    9900012    2    1    2    0    0 -0.23919522296E+02  0.35744032534E+02 -0.58175509996E+01  0.47787270648E+02  0.19999998194E+02 0.  0.
        -12    1    1    2    0    0  0.23919522296E+02 -0.35744032534E+02  0.58175509996E+01  0.43400729352E+02  0.00000000000E+00 0.  1.
         11    1    3    3    0    0 -0.15479722372E+02  0.15549272050E+02 -0.18678957975E+01  0.22020233899E+02  0.51100000000E-03 0.  1.
        -11    1    3    3    0    0 -0.10947556918E+02  0.16964329386E+02 -0.61723935427E+01  0.21112458793E+02  0.51100000000E-03 0. -1.
        -12    1    3    3    0    0  0.25077569942E+01  0.32304310981E+01  0.22227383407E+01  0.46545779565E+01  0.00000000000E+00 0.  1.
</event>
<event>
 7    1  0.3062695E-010  0.4778727E+02  0.7816164E-02  0.1312668E+00
        -11   -1    0    0    0    0  0.00000000000E+00  0.00000000000E+00  0.45593999997E+02  0.45594000000E+02  0.51100000000E-03 0.  1.
         11   -1    0    0    0    0 -0.00000000000E+00 -0.00000000000E+00 -0.45593999997E+02  0.45594000000E+02  0.51100000000E-03 0. -1.
    9900012    2    1    2    0    0 -0.19438110540E+02  0.28470219476E+02 -0.26367205532E+02  0.47787273440E+02  0.20000010923E+02 0.  0.
        -12    1    1    2    0    0  0.19438110540E+02 -0.28470219476E+02  0.26367205532E+02  0.43400726560E+02  0.00000000000E+00 0.  1.
         11    1    3    3    0    0 -0.25444981369E+01  0.13962524473E+02 -0.17041419146E+02  0.22177387745E+02  0.51100000000E-03 0. -1.
        -11    1    3    3    0    0  0.96116499851E+00  0.79206417318E+00 -0.10275121837E+01  0.16146161641E+01  0.51100000000E-03 0.  1.
         12    1    3    3    0    0 -0.17854777402E+02  0.13715630830E+02 -0.82982742020E+01  0.23995269531E+02  0.00000000000E+00 0. -1.
</event>
<event>
 7    1  0.3062695E-010  0.4778727E+02  0.7816164E-02  0.1312668E+00
        -11   -1    0    0    0    0  0.00000000000E+00  0.00000000000E+00  0.45593999997E+02  0.45594000000E+02  0.51100000000E-03 0.  1.
         11   -1    0    0    0    0 -0.00000000000E+00 -0.00000000000E+00 -0.45593999997E+02  0.45594000000E+02  0.51100000000E-03 0. -1.
    9900012    2    1    2    0    0  0.18640957975E+02  0.15969721269E+02 -0.35792542960E+02  0.47787269094E+02  0.19999991107E+02 0.  0.
        -12    1    1    2    0    0 -0.18640957975E+02 -0.15969721269E+02  0.35792542960E+02  0.43400730906E+02  0.00000000000E+00 0.  1.
         11    1    3    3    0    0  0.71460615576E+01  0.31198928831E+01 -0.13744812121E+02  0.15802524731E+02  0.51100000000E-03 0. -1.
        -11    1    3    3    0    0  0.71542211338E+01  0.81717372363E+01 -0.21276436424E+01  0.11067386196E+02  0.51100000000E-03 0.  1.
        -12    1    3    3    0    0  0.43406752831E+01  0.46780911492E+01 -0.19920087197E+02  0.20917358166E+02  0.00000000000E+00 0.  1.
</event>
<event>
 7    1  0.3062695E-010  0.4778728E+02  0.7816164E-02  0.1312668E+00
        -11   -1    0    0    0    0  0.00000000000E+00  0.00000000000E+00  0.45593999997E+02  0.45594000000E+02  0.51100000000E-03 0.  1.
         11   -1    0    0    0    0 -0.00000000000E+00 -0.00000000000E+00 -0.45593999997E+02  0.45594000000E+02  0.51100000000E-03 0. -1.
    9900012    2    1    2    0    0  0.35807656033E+02  0.99888569609E+01  0.22397708925E+02  0.47787275823E+02  0.20000021788E+02 0.  0.
        -12    1    1    2    0    0 -0.35807656033E+02 -0.99888569609E+01 -0.22397708925E+02  0.43400724177E+02  0.00000000000E+00 0.  1.
         11    1    3    3    0    0  0.14844325452E+02  0.61465608856E+01  0.15859226135E+02  0.22575412792E+02  0.51100000000E-03 0. -1.
        -11    1    3    3    0    0  0.10710075075E+02 -0.29965490485E+01 -0.28360523258E+00  0.11124991978E+02  0.51100000000E-03 0.  1.
         12    1    3    3    0    0  0.10253255506E+02  0.68388451238E+01  0.68220880225E+01  0.14086871053E+02  0.00000000000E+00 0. -1.
</event>
<event>
 7    1  0.3062695E-010  0.4778727E+02  0.7816164E-02  0.1312668E+00
        -11   -1    0    0    0    0  0.00000000000E+00  0.00000000000E+00  0.45593999997E+02  0.45594000000E+02  0.51100000000E-03 0.  1.
         11   -1    0    0    0    0 -0.00000000000E+00 -0.00000000000E+00 -0.45593999997E+02  0.45594000000E+02  0.51100000000E-03 0. -1.
    9900012    2    1    2    0    0 -0.12946689384E+01 -0.32978264523E+02 -0.28184772832E+02  0.47787268230E+02  0.19999987167E+02 0.  0.
        -12    1    1    2    0    0  0.12946689384E+01  0.32978264523E+02  0.28184772832E+02  0.43400731770E+02  0.00000000000E+00 0.  1.
         11    1    3    3    0    0 -0.49265128022E+01 -0.18770338021E+02 -0.13091262646E+02  0.23408914450E+02  0.51100000000E-03 0. -1.
        -11    1    3    3    0    0  0.71342549845E+01 -0.71335184760E+01 -0.12512506571E+02  0.16073191997E+02  0.51100000000E-03 0.  1.
        -12    1    3    3    0    0 -0.35024111207E+01 -0.70744080258E+01 -0.25810036156E+01  0.83051617827E+01  0.00000000000E+00 0.  1.
</event>
<event>
 7    1  0.3062695E-010  0.4778728E+02  0.7816164E-02  0.1312668E+00
        -11   -1    0    0    0    0  0.00000000000E+00  0.00000000000E+00  0.45593999997E+02  0.45594000000E+02  0.51100000000E-03 0.  1.
         11   -1    0    0    0    0 -0.00000000000E+00 -0.00000000000E+00 -0.45593999997E+02  0.45594000000E+02  0.51100000000E-03 0. -1.
    9900012    2    1    2    0    0 -0.27256823283E+02 -0.19795293934E+02 -0.27364846402E+02  0.47787275397E+02  0.20000019847E+02 0.  0.
        -12    1    1    2    0    0  0.27256823283E+02  0.19795293934E+02  0.27364846402E+02  0.43400724603E+02  0.00000000000E+00 0.  1.
         11    1    3    3    0    0 -0.10413279512E+02 -0.43347344246E+00 -0.37969793684E+01  0.11092400192E+02  0.51100000000E-03 0. -1.
        -11    1    3    3    0    0 -0.62595448081E+00 -0.58861340326E+01 -0.10001737026E+02  0.11622096913E+02  0.51100000000E-03 0.  1.
         12    1    3    3    0    0 -0.16217589290E+02 -0.13475686459E+02 -0.13566130007E+02  0.25072778292E+02  0.00000000000E+00 0. -1.
</event>
<event>
 7    1  0.3062695E-010  0.4778727E+02  0.7816164E-02  0.1312668E+00
        -11   -1    0    0    0    0  0.00000000000E+00  0.00000000000E+00  0.45593999997E+02  0.45594000000E+02  0.51100000000E-03 0.  1.
         11   -1    0    0    0    0 -0.00000000000E+00 -0.00000000000E+00 -0.45593999997E+02  0.45594000000E+02  0.51100000000E-03 0. -1.
    9900012    2    1    2    0    0  0.19848987460E+02  0.12512690218E+02 -0.36511278927E+02  0.47787271797E+02  0.20000003432E+02 0.  0.
        -12    1    1    2    0    0 -0.19848987460E+02 -0.12512690218E+02  0.36511278927E+02  0.43400728203E+02  0.00000000000E+00 0.  1.
         11    1    3    3    0    0  0.11672081538E+02  0.51386209530E+01 -0.32436552828E+02  0.34853591957E+02  0.51100000000E-03 0. -1.
        -11    1    3    3    0    0  0.43800829532E+01  0.13772046029E+01  0.29106433831E+00  0.46007105870E+01  0.51100000000E-03 0.  1.
        -12    1    3    3    0    0  0.37968229687E+01  0.59968646618E+01 -0.43657904376E+01  0.83329692531E+01  0.00000000000E+00 0.  1.
</event>
<event>
 7    1  0.3062695E-010  0.4778727E+02  0.7816164E-02  0.1312668E+00
        -11   -1    0    0    0    0  0.00000000000E+00  0.00000000000E+00  0.45593999997E+02  0.45594000000E+02  0.51100000000E-03 0.  1.
         11   -1    0    0    0    0 -0.00000000000E+00 -0.00000000000E+00 -0.45593999997E+02  0.45594000000E+02  0.51100000000E-03 0. -1.
    9900012    2    1    2    0    0  0.11666454053E+02  0.23619896109E+02 -0.34490835012E+02  0.47787270258E+02  0.19999996413E+02 0.  0.
        -12    1    1    2    0    0 -0.11666454053E+02 -0.23619896109E+02  0.34490835012E+02  0.43400729742E+02  0.00000000000E+00 0.  1.
         11    1    3    3    0    0  0.14566202490E+02  0.18158088382E+02 -0.28383037148E+02  0.36708135701E+02  0.51100000000E-03 0. -1.
        -11    1    3    3    0    0 -0.45670704686E+01  0.15165081782E+01 -0.22399796189E+01  0.53080541326E+01  0.51100000000E-03 0.  1.
         12    1    3    3    0    0  0.16673220324E+01  0.39452995481E+01 -0.38678182451E+01  0.57710804240E+01  0.00000000000E+00 0. -1.
</event>
<event>
 7    1  0.3062695E-010  0.4778727E+02  0.7816164E-02  0.1312668E+00
        -11   -1    0    0    0    0  0.00000000000E+00  0.00000000000E+00  0.45593999997E+02  0.45594000000E+02  0.51100000000E-03 0.  1.
         11   -1    0    0    0    0 -0.00000000000E+00 -0.00000000000E+00 -0.45593999997E+02  0.45594000000E+02  0.51100000000E-03 0. -1.
    9900012    2    1    2    0    0 -0.33298361947E+02  0.16976351135E+02 -0.22060055253E+02  0.47787269085E+02  0.19999991065E+02 0.  0.
        -12    1    1    2    0    0  0.33298361947E+02 -0.16976351135E+02  0.22060055253E+02  0.43400730915E+02  0.00000000000E+00 0.  1.
         11    1    3    3    0    0 -0.24022326322E+01  0.91622371877E+01 -0.38238117835E+01  0.10214638942E+02  0.51100000000E-03 0. -1.
        -11    1    3    3    0    0 -0.15710377105E+02  0.46769987785E+01 -0.48682122065E+01  0.17099408080E+02  0.51100000000E-03 0.  1.
         12    1    3    3    0    0 -0.15185752209E+02  0.31371151691E+01 -0.13368031263E+02  0.20473222062E+02  0.00000000000E+00 0. -1.
</event>
<event>
 7    1  0.3062695E-010  0.4778727E+02  0.7816164E-02  0.1312668E+00
        -11   -1    0    0    0    0  0.00000000000E+00  0.00000000000E+00  0.45593999997E+02  0.45594000000E+02  0.51100000000E-03 0. -1.
         11   -1    0    0    0    0 -0.00000000000E+00 -0.00000000000E+00 -0.45593999997E+02  0.45594000000E+02  0.51100000000E-03 0.  1.
    9900012    2    1    2    0    0  0.36187391387E+02  0.21639703895E+02 -0.10286866602E+02  0.47787266083E+02  0.19999977379E+02 0.  0.
        -12    1    1    2    0    0 -0.36187391387E+02 -0.21639703895E+02  0.10286866602E+02  0.43400733917E+02  0.00000000000E+00 0.  1.
         11    1    3    3    0    0  0.74935361235E+01  0.43594477903E+01 -0.33494687848E+01  0.92939125276E+01  0.51100000000E-03 0. -1.
        -11    1    3    3    0    0  0.29753385779E+02  0.18751525347E+02 -0.45007605763E+01  0.35456177377E+02  0.51100000000E-03 0.  1.
        -12    1    3    3    0    0 -0.10595305156E+01 -0.14712692425E+01 -0.24366372406E+01  0.30371761786E+01  0.00000000000E+00 0.  1.
</event>
<event>
 7    1  0.3062695E-010  0.4778727E+02  0.7816164E-02  0.1312668E+00
        -11   -1    0    0    0    0  0.00000000000E+00  0.00000000000E+00  0.45593999997E+02  0.45594000000E+02  0.51100000000E-03 0.  1.
         11   -1    0    0    0    0 -0.00000000000E+00 -0.00000000000E+00 -0.45593999997E+02  0.45594000000E+02  0.51100000000E-03 0. -1.
    9900012    2    1    2    0    0 -0.41696129289E+02  0.87182112430E+01 -0.83095631112E+01  0.47787271388E+02  0.20000001566E+02 0.  0.
        -12    1    1    2    0    0  0.41696129289E+02 -0.87182112430E+01  0.83095631112E+01  0.43400728612E+02  0.00000000000E+00 0.  1.
         11    1    3    3    0    0 -0.32591786143E+02  0.21320951743E+01 -0.68960761126E+01  0.33381525128E+02  0.51100000000E-03 0. -1.
        -11    1    3    3    0    0 -0.82599493620E+01  0.86862058760E+01 -0.17628058778E+01  0.12115462055E+02  0.51100000000E-03 0.  1.
         12    1    3    3    0    0 -0.84439378394E+00 -0.21000898073E+01  0.34931887921E+00  0.22902842052E+01  0.00000000000E+00 0. -1.
</event>
<event>
 7    1  0.3062695E-010  0.4778727E+02  0.7816164E-02  0.1312668E+00
        -11   -1    0    0    0    0  0.00000000000E+00  0.00000000000E+00  0.45593999997E+02  0.45594000000E+02  0.51100000000E-03 0.  1.
         11   -1    0    0    0    0 -0.00000000000E+00 -0.00000000000E+00 -0.45593999997E+02  0.45594000000E+02  0.51100000000E-03 0. -1.
    9900012    2    1    2    0    0 -0.10200423192E+02 -0.42136860852E+02 -0.20148914116E+01  0.47787268864E+02  0.19999990059E+02 0.  0.
        -12    1    1    2    0    0  0.10200423192E+02  0.42136860852E+02  0.20148914116E+01  0.43400731136E+02  0.00000000000E+00 0.  1.
         11    1    3    3    0    0 -0.30310409769E+01 -0.26157490153E+02 -0.32110720852E+01  0.26527579699E+02  0.51100000000E-03 0. -1.
        -11    1    3    3    0    0 -0.55762306509E+01 -0.14234658155E+01 -0.23126246452E+01  0.62023250649E+01  0.51100000000E-03 0.  1.
        -12    1    3    3    0    0 -0.15931515642E+01 -0.14555904884E+02  0.35088053188E+01  0.15057364100E+02  0.00000000000E+00 0.  1.
</event>
<event>
 7    1  0.3062695E-010  0.4778728E+02  0.7816164E-02  0.1312668E+00
        -11   -1    0    0    0    0  0.00000000000E+00  0.00000000000E+00  0.45593999997E+02  0.45594000000E+02  0.51100000000E-03 0.  1.
         11   -1    0    0    0    0 -0.00000000000E+00 -0.00000000000E+00 -0.45593999997E+02  0.45594000000E+02  0.51100000000E-03 0. -1.
    9900012    2    1    2    0    0  0.28252461955E+02  0.32885398669E+02  0.19929533531E+01  0.47787275177E+02  0.20000018841E+02 0.  0.
        -12    1    1    2    0    0 -0.28252461955E+02 -0.32885398669E+02 -0.19929533531E+01  0.43400724823E+02  0.00000000000E+00 0.  1.
         11    1    3    3    0    0  0.16351002366E+01 -0.26383384108E+01  0.97515794801E+00  0.32535082048E+01  0.51100000000E-03 0. -1.
        -11    1    3    3    0    0  0.14752295836E+02  0.22456647711E+02  0.35376903290E+00  0.26871107376E+02  0.51100000000E-03 0.  1.
         12    1    3    3    0    0  0.11865065883E+02  0.13067089369E+02  0.66402637215E+00  0.17662659596E+02  0.00000000000E+00 0. -1.
</event>
<event>
 7    1  0.3062695E-010  0.4778728E+02  0.7816164E-02  0.1312668E+00
        -11   -1    0    0    0    0  0.00000000000E+00  0.00000000000E+00  0.45593999997E+02  0.45594000000E+02  0.51100000000E-03 0. -1.
         11   -1    0    0    0    0 -0.00000000000E+00 -0.00000000000E+00 -0.45593999997E+02  0.45594000000E+02  0.51100000000E-03 0.  1.
    9900012    2    1    2    0    0 -0.41345643633E+02  0.70208873718E+01  0.11174426515E+02  0.47787275181E+02  0.20000018860E+02 0.  0.
        -12    1    1    2    0    0  0.41345643633E+02 -0.70208873718E+01 -0.11174426515E+02  0.43400724819E+02  0.00000000000E+00 0.  1.
         11    1    3    3    0    0 -0.59860639841E+01 -0.52072064002E+01  0.48028585420E+01  0.92744493611E+01  0.51100000000E-03 0. -1.
        -11    1    3    3    0    0 -0.30282101330E+02  0.90250017901E+01  0.33025872908E+01  0.31770480030E+02  0.51100000000E-03 0.  1.
        -12    1    3    3    0    0 -0.50774783189E+01  0.32030919819E+01  0.30689806822E+01  0.67423457900E+01  0.00000000000E+00 0.  1.
</event>
<event>
 7    1  0.3062695E-010  0.4778727E+02  0.7816164E-02  0.1312668E+00
        -11   -1    0    0    0    0  0.00000000000E+00  0.00000000000E+00  0.45593999997E+02  0.45594000000E+02  0.51100000000E-03 0. -1.
         11   -1    0    0    0    0 -0.00000000000E+00 -0.00000000000E+00 -0.45593999997E+02  0.45594000000E+02  0.51100000000E-03 0.  1.
    9900012    2    1    2    0    0  0.24811852119E+02 -0.35606343881E+02  0.42833758761E+00  0.47787271858E+02  0.20000003712E+02 0.  0.
        -12    1    1    2    0    0 -0.24811852119E+02  0.35606343881E+02 -0.42833758761E+00  0.43400728142E+02  0.00000000000E+00 0.  1.
         11    1    3    3    0    0  0.16703867102E+02 -0.14933893197E+02 -0.37973516907E+01  0.22725761204E+02  0.51100000000E-03 0. -1.
        -11    1    3    3    0    0  0.34253508231E+01 -0.19122592141E+02  0.16496184070E+01  0.19496866404E+02  0.51100000000E-03 0.  1.
        -12    1    3    3    0    0  0.46826341941E+01 -0.15498585434E+01  0.25760708713E+01  0.55646442505E+01  0.00000000000E+00 0.  1.
</event>
<event>
 7    1  0.3062695E-010  0.4778726E+02  0.7816164E-02  0.1312668E+00
        -11   -1    0    0    0    0  0.00000000000E+00  0.00000000000E+00  0.45593999997E+02  0.45594000000E+02  0.51100000000E-03 0.  1.
         11   -1    0    0    0    0 -0.00000000000E+00 -0.00000000000E+00 -0.45593999997E+02  0.45594000000E+02  0.51100000000E-03 0. -1.
    9900012    2    1    2    0    0  0.23628098139E+02  0.32931685417E+02 -0.15519065014E+02  0.47787259166E+02  0.19999945840E+02 0.  0.
        -12    1    1    2    0    0 -0.23628098139E+02 -0.32931685417E+02  0.15519065014E+02  0.43400740834E+02  0.00000000000E+00 0.  1.
         11    1    3    3    0    0 -0.22676586242E+01  0.51872200550E+01  0.58731422027E+00  0.56916136367E+01  0.51100000000E-03 0.  1.
        -11    1    3    3    0    0  0.18121038008E+02  0.16296968883E+02 -0.64151851196E+01  0.25201543874E+02  0.51100000000E-03 0. -1.
        -12    1    3    3    0    0  0.77747187550E+01  0.11447496479E+02 -0.96911941149E+01  0.16894101655E+02  0.00000000000E+00 0.  1.
</event>
<event>
 7    1  0.3062695E-010  0.4778727E+02  0.7816164E-02  0.1312668E+00
        -11   -1    0    0    0    0  0.00000000000E+00  0.00000000000E+00  0.45593999997E+02  0.45594000000E+02  0.51100000000E-03 0. -1.
         11   -1    0    0    0    0 -0.00000000000E+00 -0.00000000000E+00 -0.45593999997E+02  0.45594000000E+02  0.51100000000E-03 0.  1.
    9900012    2    1    2    0    0 -0.25738871055E+02  0.23522083974E+02  0.25842697581E+02  0.47787274938E+02  0.20000017750E+02 0.  0.
        -12    1    1    2    0    0  0.25738871055E+02 -0.23522083974E+02 -0.25842697581E+02  0.43400725062E+02  0.00000000000E+00 0.  1.
         11    1    3    3    0    0 -0.40248552218E+01 -0.82072727261E+00 -0.74862018895E+00  0.41753425322E+01  0.51100000000E-03 0.  1.
        -11    1    3    3    0    0 -0.10673039807E+02  0.10115893585E+02  0.19105582284E+02  0.24109507594E+02  0.51100000000E-03 0. -1.
        -12    1    3    3    0    0 -0.11040976027E+02  0.14226917662E+02  0.74857354861E+01  0.19502424812E+02  0.00000000000E+00 0.  1.
</event>
<event>
 7    1  0.3062695E-010  0.4778726E+02  0.7816164E-02  0.1312668E+00
        -11   -1    0    0    0    0  0.00000000000E+00  0.00000000000E+00  0.45593999997E+02  0.45594000000E+02  0.51100000000E-03 0.  1.
         11   -1    0    0    0    0 -0.00000000000E+00 -0.00000000000E+00 -0.45593999997E+02  0.45594000000E+02  0.51100000000E-03 0. -1.
    9900012    2    1    2    0    0  0.14206286441E+02  0.54270624679E+01 -0.40649136950E+02  0.47787263644E+02  0.19999966259E+02 0.  0.
        -12    1    1    2    0    0 -0.14206286441E+02 -0.54270624679E+01  0.40649136950E+02  0.43400736356E+02  0.00000000000E+00 0.  1.
         11    1    3    3    0    0  0.16364996573E+02  0.83354973875E+00 -0.25085779905E+02  0.29963382181E+02  0.51100000000E-03 0. -1.
        -11    1    3    3    0    0 -0.14635652936E+01  0.63501707978E+01 -0.13697230025E+02  0.15168414655E+02  0.51100000000E-03 0.  1.
         12    1    3    3    0    0 -0.69514483873E+00 -0.17566580687E+01 -0.18661270200E+01  0.26554668087E+01  0.00000000000E+00 0. -1.
</event>
<event>
 7    1  0.3062695E-010  0.4778727E+02  0.7816164E-02  0.1312668E+00
        -11   -1    0    0    0    0  0.00000000000E+00  0.00000000000E+00  0.45593999997E+02  0.45594000000E+02  0.51100000000E-03 0. -1.
         11   -1    0    0    0    0 -0.00000000000E+00 -0.00000000000E+00 -0.45593999997E+02  0.45594000000E+02  0.51100000000E-03 0.  1.
    9900012    2    1    2    0    0 -0.14303237158E+02 -0.38908773285E+02  0.12850995240E+02  0.47787270623E+02  0.19999998080E+02 0.  0.
        -12    1    1    2    0    0  0.14303237158E+02  0.38908773285E+02 -0.12850995240E+02  0.43400729377E+02  0.00000000000E+00 0.  1.
         11    1    3    3    0    0 -0.58204222189E+01 -0.54752632477E+01  0.41604046254E+01  0.90091503121E+01  0.51100000000E-03 0. -1.
        -11    1    3    3    0    0 -0.90690436062E+01 -0.32196301689E+02  0.11728607949E+02  0.35445869139E+02  0.51100000000E-03 0.  1.
        -12    1    3    3    0    0  0.58622866716E+00 -0.12372083489E+01 -0.30380173344E+01  0.33322511719E+01  0.00000000000E+00 0.  1.
</event>
<event>
 7    1  0.3062695E-010  0.4778727E+02  0.7816164E-02  0.1312668E+00
        -11   -1    0    0    0    0  0.00000000000E+00  0.00000000000E+00  0.45593999997E+02  0.45594000000E+02  0.51100000000E-03 0. -1.
         11   -1    0    0    0    0 -0.00000000000E+00 -0.00000000000E+00 -0.45593999997E+02  0.45594000000E+02  0.51100000000E-03 0.  1.
    9900012    2    1    2    0    0  0.18534365312E+02 -0.38720415976E+02 -0.63898303481E+01  0.47787271403E+02  0.20000001636E+02 0.  0.
        -12    1    1    2    0    0 -0.18534365312E+02  0.38720415976E+02  0.63898303481E+01  0.43400728597E+02  0.00000000000E+00 0.  1.
         11    1    3    3    0    0  0.77784056916E+01 -0.11390242216E+02 -0.67017414295E+01  0.15334749795E+02  0.51100000000E-03 0. -1.
        -11    1    3    3    0    0  0.30305732257E+01 -0.68334506673E+01  0.62652271679E+01  0.97536400295E+01  0.51100000000E-03 0.  1.
        -12    1    3    3    0    0  0.77253863952E+01 -0.20496723093E+02 -0.59533160865E+01  0.22698881579E+02  0.00000000000E+00 0.  1.
</event>
<event>
 7    1  0.3062695E-010  0.4778727E+02  0.7816164E-02  0.1312668E+00
        -11   -1    0    0    0    0  0.00000000000E+00  0.00000000000E+00  0.45593999997E+02  0.45594000000E+02  0.51100000000E-03 0.  1.
         11   -1    0    0    0    0 -0.00000000000E+00 -0.00000000000E+00 -0.45593999997E+02  0.45594000000E+02  0.51100000000E-03 0. -1.
    9900012    2    1    2    0    0  0.24505063319E+02  0.11207470251E+01 -0.35803201049E+02  0.47787269505E+02  0.19999992979E+02 0.  0.
        -12    1    1    2    0    0 -0.24505063319E+02 -0.11207470251E+01  0.35803201049E+02  0.43400730495E+02  0.00000000000E+00 0.  1.
         11    1    3    3    0    0  0.13373177852E+02  0.89893946439E+01 -0.19880122909E+02  0.25590435500E+02  0.51100000000E-03 0. -1.
        -11    1    3    3    0    0  0.11312791267E+02 -0.88895823181E+01 -0.14413534318E+02  0.20365507404E+02  0.51100000000E-03 0.  1.
        -12    1    3    3    0    0 -0.18090579883E+00  0.10209346993E+01 -0.15095438220E+01  0.18313266008E+01  0.00000000000E+00 0.  1.
</event>
<event>
 7    1  0.3062695E-010  0.4778727E+02  0.7816164E-02  0.1312668E+00
        -11   -1    0    0    0    0  0.00000000000E+00  0.00000000000E+00  0.45593999997E+02  0.45594000000E+02  0.51100000000E-03 0.  1.
         11   -1    0    0    0    0 -0.00000000000E+00 -0.00000000000E+00 -0.45593999997E+02  0.45594000000E+02  0.51100000000E-03 0. -1.
    9900012    2    1    2    0    0  0.13455549980E+02  0.27249667539E+02 -0.30984298699E+02  0.47787274521E+02  0.20000015849E+02 0.  0.
        -12    1    1    2    0    0 -0.13455549980E+02 -0.27249667539E+02  0.30984298699E+02  0.43400725479E+02  0.00000000000E+00 0.  1.
         11    1    3    3    0    0  0.16632071848E+02  0.21086095099E+02 -0.24781821095E+02  0.36542959343E+02  0.51100000000E-03 0. -1.
        -11    1    3    3    0    0 -0.33852065870E+01  0.40460084214E+01 -0.67125730992E+00  0.53179314042E+01  0.51100000000E-03 0.  1.
         12    1    3    3    0    0  0.20868471923E+00  0.21175640184E+01 -0.55312202947E+01  0.59263837736E+01  0.00000000000E+00 0. -1.
</event>
<event>
 7    1  0.3062695E-010  0.4778727E+02  0.7816164E-02  0.1312668E+00
        -11   -1    0    0    0    0  0.00000000000E+00  0.00000000000E+00  0.45593999997E+02  0.45594000000E+02  0.51100000000E-03 0.  1.
         11   -1    0    0    0    0 -0.00000000000E+00 -0.00000000000E+00 -0.45593999997E+02  0.45594000000E+02  0.51100000000E-03 0. -1.
    9900012    2    1    2    0    0  0.29590642385E+02 -0.12914999308E+02  0.29003795897E+02  0.47787268435E+02  0.19999988103E+02 0.  0.
        -12    1    1    2    0    0 -0.29590642385E+02  0.12914999308E+02 -0.29003795897E+02  0.43400731565E+02  0.00000000000E+00 0.  1.
         11    1    3    3    0    0  0.11050068063E+02 -0.68242730111E+01  0.19218881501E+02  0.23195691685E+02  0.51100000000E-03 0.  1.
        -11    1    3    3    0    0  0.14839341994E+02 -0.39515880805E+01  0.17054806088E+01  0.15450882937E+02  0.51100000000E-03 0. -1.
         12    1    3    3    0    0  0.37012323288E+01 -0.21391382167E+01  0.80794337877E+01  0.91406938135E+01  0.00000000000E+00 0. -1.
</event>
<event>
 7    1  0.3062695E-010  0.4778728E+02  0.7816164E-02  0.1312668E+00
        -11   -1    0    0    0    0  0.00000000000E+00  0.00000000000E+00  0.45593999997E+02  0.45594000000E+02  0.51100000000E-03 0.  1.
         11   -1    0    0    0    0 -0.00000000000E+00 -0.00000000000E+00 -0.45593999997E+02  0.45594000000E+02  0.51100000000E-03 0. -1.
    9900012    2    1    2    0    0 -0.33867588322E+02 -0.80342149795E+01 -0.25924130357E+02  0.47787277842E+02  0.20000030993E+02 0.  0.
        -12    1    1    2    0    0  0.33867588322E+02  0.80342149795E+01  0.25924130357E+02  0.43400722158E+02  0.00000000000E+00 0.  1.
         11    1    3    3    0    0 -0.56567563492E+01 -0.30913598653E+01 -0.15439095746E+02  0.16730842057E+02  0.51100000000E-03 0. -1.
        -11    1    3    3    0    0 -0.27417125145E+02 -0.57311633363E+01 -0.95331491343E+01  0.29587597353E+02  0.51100000000E-03 0.  1.
        -12    1    3    3    0    0 -0.79370682739E+00  0.78830822214E+00 -0.95188547628E+00  0.14688384325E+01  0.00000000000E+00 0.  1.
</event>
<event>
 7    1  0.3062695E-010  0.4778727E+02  0.7816164E-02  0.1312668E+00
        -11   -1    0    0    0    0  0.00000000000E+00  0.00000000000E+00  0.45593999997E+02  0.45594000000E+02  0.51100000000E-03 0.  1.
         11   -1    0    0    0    0 -0.00000000000E+00 -0.00000000000E+00 -0.45593999997E+02  0.45594000000E+02  0.51100000000E-03 0. -1.
    9900012    2    1    2    0    0  0.10737311056E+02 -0.28056699686E+02 -0.31323392541E+02  0.47787272284E+02  0.20000005652E+02 0.  0.
        -12    1    1    2    0    0 -0.10737311056E+02  0.28056699686E+02  0.31323392541E+02  0.43400727716E+02  0.00000000000E+00 0.  1.
         11    1    3    3    0    0 -0.34680140525E+01 -0.56297051887E+01 -0.10128257383E+02  0.12095548762E+02  0.51100000000E-03 0. -1.
        -11    1    3    3    0    0  0.10814406482E+02 -0.15193019828E+02 -0.80564390990E+01  0.20314660968E+02  0.51100000000E-03 0.  1.
         12    1    3    3    0    0  0.33909186267E+01 -0.72339746697E+01 -0.13138696059E+02  0.15377062554E+02  0.00000000000E+00 0. -1.
</event>
<event>
 7    1  0.3062695E-010  0.4778727E+02  0.7816164E-02  0.1312668E+00
        -11   -1    0    0    0    0  0.00000000000E+00  0.00000000000E+00  0.45593999997E+02  0.45594000000E+02  0.51100000000E-03 0. -1.
         11   -1    0    0    0    0 -0.00000000000E+00 -0.00000000000E+00 -0.45593999997E+02  0.45594000000E+02  0.51100000000E-03 0.  1.
    9900012    2    1    2    0    0 -0.24896718047E+02 -0.11366103146E+02  0.33683651109E+02  0.47787271639E+02  0.20000002709E+02 0.  0.
        -12    1    1    2    0    0  0.24896718047E+02  0.11366103146E+02 -0.33683651109E+02  0.43400728361E+02  0.00000000000E+00 0.  1.
         11    1    3    3    0    0 -0.14034544831E+02 -0.10964315378E+02  0.29432179270E+02  0.34401131335E+02  0.51100000000E-03 0. -1.
        -11    1    3    3    0    0 -0.83502977438E+01  0.16081411801E+01  0.52789063598E+01  0.10009018088E+02  0.51100000000E-03 0.  1.
         12    1    3    3    0    0 -0.25118754725E+01 -0.20099289480E+01 -0.10274345204E+01  0.33771222156E+01  0.00000000000E+00 0. -1.
</event>
<event>
 7    1  0.3314435E-010  0.4778727E+02  0.7816164E-02  0.1312668E+00
        -11   -1    0    0    0    0  0.00000000000E+00  0.00000000000E+00  0.45593999997E+02  0.45594000000E+02  0.51100000000E-03 0.  1.
         11   -1    0    0    0    0 -0.00000000000E+00 -0.00000000000E+00 -0.45593999997E+02  0.45594000000E+02  0.51100000000E-03 0. -1.
    9900012    2    1    2    0    0  0.33545180841E+02  0.43199858175E+01 -0.27197087578E+02  0.47787274109E+02  0.20000013973E+02 0.  0.
        -12    1    1    2    0    0 -0.33545180841E+02 -0.43199858175E+01  0.27197087578E+02  0.43400725891E+02  0.00000000000E+00 0.  1.
         11    1    3    3    0    0  0.22171796154E+02  0.31804439541E+01 -0.13136354707E+02  0.25966662930E+02  0.51100000000E-03 0. -1.
        -11    1    3    3    0    0  0.75654557670E+01 -0.14562083329E+01 -0.15228507577E+02  0.17066461465E+02  0.51100000000E-03 0.  1.
        -12    1    3    3    0    0  0.38079289199E+01  0.25957501964E+01  0.11677747058E+01  0.47541497141E+01  0.00000000000E+00 0.  1.
</event>
<event>
 7    1  0.3062695E-010  0.4778727E+02  0.7816164E-02  0.1312668E+00
        -11   -1    0    0    0    0  0.00000000000E+00  0.00000000000E+00  0.45593999997E+02  0.45594000000E+02  0.51100000000E-03 0.  1.
         11   -1    0    0    0    0 -0.00000000000E+00 -0.00000000000E+00 -0.45593999997E+02  0.45594000000E+02  0.51100000000E-03 0. -1.
    9900012    2    1    2    0    0  0.19157615451E+02 -0.32562127019E+02 -0.21361582127E+02  0.47787268017E+02  0.19999986195E+02 0.  0.
        -12    1    1    2    0    0 -0.19157615451E+02  0.32562127019E+02  0.21361582127E+02  0.43400731983E+02  0.00000000000E+00 0.  1.
         11    1    3    3    0    0  0.33058884625E+01 -0.67236144026E+01 -0.64836540408E+01  0.99082621657E+01  0.51100000000E-03 0. -1.
        -11    1    3    3    0    0  0.14189110880E+01 -0.16282160055E+02 -0.12127880517E+02  0.20352089103E+02  0.51100000000E-03 0.  1.
        -12    1    3    3    0    0  0.14432815900E+02 -0.95563525607E+01 -0.27500475685E+01  0.17526916748E+02  0.00000000000E+00 0.  1.
</event>
<event>
 7    1  0.3062695E-010  0.4778728E+02  0.7816164E-02  0.1312668E+00
        -11   -1    0    0    0    0  0.00000000000E+00  0.00000000000E+00  0.45593999997E+02  0.45594000000E+02  0.51100000000E-03 0. -1.
         11   -1    0    0    0    0 -0.00000000000E+00 -0.00000000000E+00 -0.45593999997E+02  0.45594000000E+02  0.51100000000E-03 0.  1.
    9900012    2    1    2    0    0  0.27687220440E+02  0.32292230819E+02  0.86169748804E+01  0.47787278773E+02  0.20000035236E+02 0.  0.
        -12    1    1    2    0    0 -0.27687220440E+02 -0.32292230819E+02 -0.86169748804E+01  0.43400721227E+02  0.00000000000E+00 0.  1.
         11    1    3    3    0    0  0.13134664656E+02  0.17026741076E+02  0.14324391606E+02  0.25838295657E+02  0.51100000000E-03 0.  1.
        -11    1    3    3    0    0  0.97114937675E+01  0.11065947966E+02 -0.31974510271E+01  0.15066253978E+02  0.51100000000E-03 0. -1.
        -12    1    3    3    0    0  0.48410620163E+01  0.41995417766E+01 -0.25099656987E+01  0.68827291380E+01  0.00000000000E+00 0.  1.
</event>
<event>
 7    1  0.3062695E-010  0.4778727E+02  0.7816164E-02  0.1312668E+00
        -11   -1    0    0    0    0  0.00000000000E+00  0.00000000000E+00  0.45593999997E+02  0.45594000000E+02  0.51100000000E-03 0.  1.
         11   -1    0    0    0    0 -0.00000000000E+00 -0.00000000000E+00 -0.45593999997E+02  0.45594000000E+02  0.51100000000E-03 0. -1.
    9900012    2    1    2    0    0  0.29824753998E+02  0.15060273613E+02 -0.27700096533E+02  0.47787272584E+02  0.20000007017E+02 0.  0.
        -12    1    1    2    0    0 -0.29824753998E+02 -0.15060273613E+02  0.27700096533E+02  0.43400727416E+02  0.00000000000E+00 0.  1.
         11    1    3    3    0    0  0.14595230705E+01  0.88026578228E+01 -0.49691839781E+01  0.10213216046E+02  0.51100000000E-03 0.  1.
        -11    1    3    3    0    0  0.25114647366E+02  0.46644964566E+01 -0.22336555434E+02  0.33932650183E+02  0.51100000000E-03 0. -1.
         12    1    3    3    0    0  0.32505835608E+01  0.15931193338E+01 -0.39435712121E+00  0.36414063542E+01  0.00000000000E+00 0. -1.
</event>
<event>
 7    1  0.3062695E-010  0.4778727E+02  0.7816164E-02  0.1312668E+00
        -11   -1    0    0    0    0  0.00000000000E+00  0.00000000000E+00  0.45593999997E+02  0.45594000000E+02  0.51100000000E-03 0. -1.
         11   -1    0    0    0    0 -0.00000000000E+00 -0.00000000000E+00 -0.45593999997E+02  0.45594000000E+02  0.51100000000E-03 0.  1.
    9900012    2    1    2    0    0 -0.19978531723E+02  0.26446756753E+02  0.28018752876E+02  0.47787272065E+02  0.20000004653E+02 0.  0.
        -12    1    1    2    0    0  0.19978531723E+02 -0.26446756753E+02 -0.28018752876E+02  0.43400727935E+02  0.00000000000E+00 0.  1.
         11    1    3    3    0    0 -0.14090931451E+02  0.17535317998E+02  0.13454752062E+02  0.26212059815E+02  0.51100000000E-03 0. -1.
        -11    1    3    3    0    0  0.34899700234E+01  0.36559418252E+01  0.34928008778E+01  0.61437333622E+01  0.51100000000E-03 0.  1.
        -12    1    3    3    0    0 -0.93775702948E+01  0.52554969302E+01  0.11071199937E+02  0.15431478888E+02  0.00000000000E+00 0.  1.
</event>
<event>
 7    1  0.3062695E-010  0.4778727E+02  0.7816164E-02  0.1312668E+00
        -11   -1    0    0    0    0  0.00000000000E+00  0.00000000000E+00  0.45593999997E+02  0.45594000000E+02  0.51100000000E-03 0. -1.
         11   -1    0    0    0    0 -0.00000000000E+00 -0.00000000000E+00 -0.45593999997E+02  0.45594000000E+02  0.51100000000E-03 0.  1.
    9900012    2    1    2    0    0 -0.25181382842E+02 -0.72410377558E+01  0.34598969431E+02  0.47787270107E+02  0.19999995724E+02 0.  0.
        -12    1    1    2    0    0  0.25181382842E+02  0.72410377558E+01 -0.34598969431E+02  0.43400729893E+02  0.00000000000E+00 0.  1.
         11    1    3    3    0    0 -0.16184135186E+01  0.44466989139E+01  0.14036248730E+01  0.49358440609E+01  0.51100000000E-03 0. -1.
        -11    1    3    3    0    0  0.29701201329E-01  0.14634571123E+00 -0.22205742283E+00  0.26759855887E+00  0.51100000000E-03 0.  1.
         12    1    3    3    0    0 -0.23592670525E+02 -0.11834082381E+02  0.33417401981E+02  0.42583827487E+02  0.00000000000E+00 0. -1.
</event>
<event>
 7    1  0.3062695E-010  0.4778727E+02  0.7816164E-02  0.1312668E+00
        -11   -1    0    0    0    0  0.00000000000E+00  0.00000000000E+00  0.45593999997E+02  0.45594000000E+02  0.51100000000E-03 0. -1.
         11   -1    0    0    0    0 -0.00000000000E+00 -0.00000000000E+00 -0.45593999997E+02  0.45594000000E+02  0.51100000000E-03 0.  1.
    9900012    2    1    2    0    0 -0.29087112402E+01  0.35726833244E+02 -0.24469500444E+02  0.47787266519E+02  0.19999979367E+02 0.  0.
        -12    1    1    2    0    0  0.29087112402E+01 -0.35726833244E+02  0.24469500444E+02  0.43400733481E+02  0.00000000000E+00 0.  1.
         11    1    3    3    0    0 -0.44199490023E+01  0.27690297041E+02 -0.17469922033E+02  0.33037655418E+02  0.51100000000E-03 0. -1.
        -11    1    3    3    0    0  0.69431024708E+00 -0.23844722961E+01 -0.18512862183E+01  0.30975854748E+01  0.51100000000E-03 0.  1.
        -12    1    3    3    0    0  0.81692751503E+00  0.10421008499E+02 -0.51482921925E+01  0.11652025627E+02  0.00000000000E+00 0.  1.
</event>
<event>
 7    1  0.3062695E-010  0.4778727E+02  0.7816164E-02  0.1312668E+00
        -11   -1    0    0    0    0  0.00000000000E+00  0.00000000000E+00  0.45593999997E+02  0.45594000000E+02  0.51100000000E-03 0.  1.
         11   -1    0    0    0    0 -0.00000000000E+00 -0.00000000000E+00 -0.45593999997E+02  0.45594000000E+02  0.51100000000E-03 0. -1.
    9900012    2    1    2    0    0 -0.24422832540E+02 -0.33845147787E+02 -0.11901866409E+02  0.47787271872E+02  0.20000003774E+02 0.  0.
        -12    1    1    2    0    0  0.24422832540E+02  0.33845147787E+02  0.11901866409E+02  0.43400728128E+02  0.00000000000E+00 0.  1.
         11    1    3    3    0    0 -0.82195918721E+01 -0.22303153580E+02 -0.10740780651E+02  0.26083648507E+02  0.51100000000E-03 0. -1.
        -11    1    3    3    0    0 -0.43718472910E+01 -0.43409913978E+01  0.35051071832E+01  0.70882319148E+01  0.51100000000E-03 0.  1.
        -12    1    3    3    0    0 -0.11831393376E+02 -0.72010028089E+01 -0.46661929416E+01  0.14615391451E+02  0.00000000000E+00 0.  1.
</event>
<event>
 7    1  0.3062695E-010  0.4778727E+02  0.7816164E-02  0.1312668E+00
        -11   -1    0    0    0    0  0.00000000000E+00  0.00000000000E+00  0.45593999997E+02  0.45594000000E+02  0.51100000000E-03 0.  1.
         11   -1    0    0    0    0 -0.00000000000E+00 -0.00000000000E+00 -0.45593999997E+02  0.45594000000E+02  0.51100000000E-03 0. -1.
    9900012    2    1    2    0    0 -0.41752600957E+02 -0.11577615867E+02  0.25104719464E+01  0.47787270222E+02  0.19999996251E+02 0.  0.
        -12    1    1    2    0    0  0.41752600957E+02  0.11577615867E+02 -0.25104719464E+01  0.43400729778E+02  0.00000000000E+00 0.  1.
         11    1    3    3    0    0 -0.32330109739E+02 -0.14974998243E+02 -0.10735256101E+01  0.35646023981E+02  0.51100000000E-03 0. -1.
        -11    1    3    3    0    0 -0.40550211603E+01  0.16385974322E+00  0.42054412860E+01  0.58442949358E+01  0.51100000000E-03 0.  1.
         12    1    3    3    0    0 -0.53674700576E+01  0.32335226329E+01 -0.62144372952E+00  0.62969513056E+01  0.00000000000E+00 0. -1.
</event>
<event>
 7    1  0.3062695E-010  0.4778727E+02  0.7816164E-02  0.1312668E+00
        -11   -1    0    0    0    0  0.00000000000E+00  0.00000000000E+00  0.45593999997E+02  0.45594000000E+02  0.51100000000E-03 0. -1.
         11   -1    0    0    0    0 -0.00000000000E+00 -0.00000000000E+00 -0.45593999997E+02  0.45594000000E+02  0.51100000000E-03 0.  1.
    9900012    2    1    2    0    0 -0.13942444559E+02 -0.10790013718E+02  0.39658635569E+02  0.47787268076E+02  0.19999986466E+02 0.  0.
        -12    1    1    2    0    0  0.13942444559E+02  0.10790013718E+02 -0.39658635569E+02  0.43400731924E+02  0.00000000000E+00 0.  1.
         11    1    3    3    0    0 -0.17075746749E+02 -0.78367988065E+01  0.21645218219E+02  0.28662030887E+02  0.51100000000E-03 0. -1.
        -11    1    3    3    0    0  0.30727072393E+01  0.33970278968E+00  0.98025389568E+01  0.10278457959E+02  0.51100000000E-03 0.  1.
         12    1    3    3    0    0  0.60594951041E-01 -0.32929177007E+01  0.82108783940E+01  0.88467792294E+01  0.00000000000E+00 0. -1.
</event>
<event>
 7    1  0.3062695E-010  0.4778727E+02  0.7816164E-02  0.1312668E+00
        -11   -1    0    0    0    0  0.00000000000E+00  0.00000000000E+00  0.45593999997E+02  0.45594000000E+02  0.51100000000E-03 0. -1.
         11   -1    0    0    0    0 -0.00000000000E+00 -0.00000000000E+00 -0.45593999997E+02  0.45594000000E+02  0.51100000000E-03 0.  1.
    9900012    2    1    2    0    0  0.17755782856E+02  0.39286884252E+02 -0.49896342112E+01  0.47787267879E+02  0.19999985567E+02 0.  0.
        -12    1    1    2    0    0 -0.17755782856E+02 -0.39286884252E+02  0.49896342112E+01  0.43400732121E+02  0.00000000000E+00 0.  1.
         11    1    3    3    0    0  0.32010329911E+01  0.75222239938E+01  0.12125319064E+01  0.82644237493E+01  0.51100000000E-03 0. -1.
        -11    1    3    3    0    0  0.24943977400E+01 -0.19691671547E+01 -0.82803531742E-01  0.31790715711E+01  0.51100000000E-03 0.  1.
        -12    1    3    3    0    0  0.12060352125E+02  0.33733827413E+02 -0.61193625858E+01  0.36343772558E+02  0.00000000000E+00 0.  1.
</event>
<event>
 7    1  0.3062695E-010  0.4778721E+02  0.7816164E-02  0.1312668E+00
        -11   -1    0    0    0    0  0.00000000000E+00  0.00000000000E+00  0.45593999997E+02  0.45594000000E+02  0.51100000000E-03 0.  1.
         11   -1    0    0    0    0 -0.00000000000E+00 -0.00000000000E+00 -0.45593999997E+02  0.45594000000E+02  0.51100000000E-03 0. -1.
    9900012    2    1    2    0    0 -0.37772712058E+02  0.20952402284E+02  0.42246944941E+01  0.47787205293E+02  0.19999700210E+02 0.  0.
        -12    1    1    2    0    0  0.37772712058E+02 -0.20952402284E+02 -0.42246944941E+01  0.43400794707E+02  0.00000000000E+00 0.  1.
         11    1    3    3    0    0 -0.20499019283E+02  0.20704721165E+01 -0.28742633328E+01  0.20802837218E+02  0.51100000000E-03 0. -1.
        -11    1    3    3    0    0 -0.45980554043E+01  0.23101814435E+01  0.18735270267E+01  0.54762355303E+01  0.51100000000E-03 0.  1.
         12    1    3    3    0    0 -0.12675637371E+02  0.16571748724E+02  0.52254308002E+01  0.21508132545E+02  0.00000000000E+00 0. -1.
</event>
<event>
 7    1  0.3062695E-010  0.4778727E+02  0.7816164E-02  0.1312668E+00
        -11   -1    0    0    0    0  0.00000000000E+00  0.00000000000E+00  0.45593999997E+02  0.45594000000E+02  0.51100000000E-03 0.  1.
         11   -1    0    0    0    0 -0.00000000000E+00 -0.00000000000E+00 -0.45593999997E+02  0.45594000000E+02  0.51100000000E-03 0. -1.
    9900012    2    1    2    0    0 -0.10781248461E+02 -0.39822804500E+02  0.13473387625E+02  0.47787271311E+02  0.20000001218E+02 0.  0.
        -12    1    1    2    0    0  0.10781248461E+02  0.39822804500E+02 -0.13473387625E+02  0.43400728689E+02  0.00000000000E+00 0.  1.
         11    1    3    3    0    0 -0.10785757711E+01 -0.89483778671E+01 -0.32340085267E+01  0.95757821381E+01  0.51100000000E-03 0. -1.
        -11    1    3    3    0    0 -0.11267167516E+02 -0.20152331564E+02  0.14146098656E+02  0.27077253162E+02  0.51100000000E-03 0.  1.
        -12    1    3    3    0    0  0.15644948255E+01 -0.10722095068E+02  0.25612974947E+01  0.11134236012E+02  0.00000000000E+00 0.  1.
</event>
<event>
 7    1  0.3062695E-010  0.4778728E+02  0.7816164E-02  0.1312668E+00
        -11   -1    0    0    0    0  0.00000000000E+00  0.00000000000E+00  0.45593999997E+02  0.45594000000E+02  0.51100000000E-03 0.  1.
         11   -1    0    0    0    0 -0.00000000000E+00 -0.00000000000E+00 -0.45593999997E+02  0.45594000000E+02  0.51100000000E-03 0. -1.
    9900012    2    1    2    0    0 -0.10872035759E+02 -0.17415401560E+02 -0.38237743232E+02  0.47787281336E+02  0.20000046923E+02 0.  0.
        -12    1    1    2    0    0  0.10872035759E+02  0.17415401560E+02  0.38237743232E+02  0.43400718664E+02  0.00000000000E+00 0.  1.
         11    1    3    3    0    0  0.23924147142E+01 -0.57021092276E+01 -0.22821027559E+02  0.23643963224E+02  0.51100000000E-03 0. -1.
        -11    1    3    3    0    0 -0.66848463266E+01 -0.45251870726E+01 -0.36330638332E+01  0.88523240750E+01  0.51100000000E-03 0.  1.
         12    1    3    3    0    0 -0.65796041467E+01 -0.71881052600E+01 -0.11783651840E+02  0.15290994037E+02  0.00000000000E+00 0. -1.
</event>
<event>
 7    1  0.3062695E-010  0.4778726E+02  0.7816164E-02  0.1312668E+00
        -11   -1    0    0    0    0  0.00000000000E+00  0.00000000000E+00  0.45593999997E+02  0.45594000000E+02  0.51100000000E-03 0. -1.
         11   -1    0    0    0    0 -0.00000000000E+00 -0.00000000000E+00 -0.45593999997E+02  0.45594000000E+02  0.51100000000E-03 0.  1.
    9900012    2    1    2    0    0  0.86803517989E+01 -0.42071462837E+02  0.61860689599E+01  0.47787263350E+02  0.19999964917E+02 0.  0.
        -12    1    1    2    0    0 -0.86803517989E+01  0.42071462837E+02 -0.61860689599E+01  0.43400736650E+02  0.00000000000E+00 0.  1.
         11    1    3    3    0    0  0.43948474937E+01 -0.35060822994E+02  0.35472529048E+01  0.35512800466E+02  0.51100000000E-03 0. -1.
        -11    1    3    3    0    0  0.10577429246E+01 -0.46439251621E+01  0.55587082812E+01  0.73201160525E+01  0.51100000000E-03 0.  1.
        -12    1    3    3    0    0  0.32277613806E+01 -0.23667146806E+01 -0.29198922261E+01  0.49543468310E+01  0.00000000000E+00 0.  1.
</event>
<event>
 7    1  0.3062695E-010  0.4778727E+02  0.7816164E-02  0.1312668E+00
        -11   -1    0    0    0    0  0.00000000000E+00  0.00000000000E+00  0.45593999997E+02  0.45594000000E+02  0.51100000000E-03 0.  1.
         11   -1    0    0    0    0 -0.00000000000E+00 -0.00000000000E+00 -0.45593999997E+02  0.45594000000E+02  0.51100000000E-03 0. -1.
    9900012    2    1    2    0    0  0.35131096954E+02 -0.14690682271E+02 -0.20823376522E+02  0.47787272719E+02  0.20000007635E+02 0.  0.
        -12    1    1    2    0    0 -0.35131096954E+02  0.14690682271E+02  0.20823376522E+02  0.43400727281E+02  0.00000000000E+00 0.  1.
         11    1    3    3    0    0  0.28702755099E+01 -0.65850432431E+01 -0.94729153991E+01  0.11888540804E+02  0.51100000000E-03 0. -1.
        -11    1    3    3    0    0  0.30748573741E+02 -0.66914097829E+01 -0.89243612030E+01  0.32709233790E+02  0.51100000000E-03 0.  1.
        -12    1    3    3    0    0  0.15122477030E+01 -0.14142292449E+01 -0.24260999195E+01  0.31894981253E+01  0.00000000000E+00 0.  1.
</event>
<event>
 7    1  0.3062695E-010  0.4778727E+02  0.7816164E-02  0.1312668E+00
        -11   -1    0    0    0    0  0.00000000000E+00  0.00000000000E+00  0.45593999997E+02  0.45594000000E+02  0.51100000000E-03 0.  1.
         11   -1    0    0    0    0 -0.00000000000E+00 -0.00000000000E+00 -0.45593999997E+02  0.45594000000E+02  0.51100000000E-03 0. -1.
    9900012    2    1    2    0    0 -0.31517183795E+02 -0.95090057173E+01 -0.28281959066E+02  0.47787271058E+02  0.20000000060E+02 0.  0.
        -12    1    1    2    0    0  0.31517183795E+02  0.95090057173E+01  0.28281959066E+02  0.43400728942E+02  0.00000000000E+00 0.  1.
         11    1    3    3    0    0 -0.22070221568E+01 -0.40756334202E+01 -0.44138569013E+01  0.64003021477E+01  0.51100000000E-03 0. -1.
        -11    1    3    3    0    0 -0.27953467989E+02 -0.23393738899E+01 -0.14812928910E+02  0.31722104375E+02  0.51100000000E-03 0.  1.
        -12    1    3    3    0    0 -0.13566936489E+01 -0.30939984072E+01 -0.90551732547E+01  0.96648645347E+01  0.00000000000E+00 0.  1.
</event>
<event>
 7    1  0.3062695E-010  0.4778727E+02  0.7816164E-02  0.1312668E+00
        -11   -1    0    0    0    0  0.00000000000E+00  0.00000000000E+00  0.45593999997E+02  0.45594000000E+02  0.51100000000E-03 0.  1.
         11   -1    0    0    0    0 -0.00000000000E+00 -0.00000000000E+00 -0.45593999997E+02  0.45594000000E+02  0.51100000000E-03 0. -1.
    9900012    2    1    2    0    0 -0.11247557875E+02 -0.13954150632E+02 -0.39527173366E+02  0.47787270601E+02  0.19999997979E+02 0.  0.
        -12    1    1    2    0    0  0.11247557875E+02  0.13954150632E+02  0.39527173366E+02  0.43400729399E+02  0.00000000000E+00 0.  1.
         11    1    3    3    0    0 -0.19237436123E+01  0.23055363603E+00 -0.18374335345E+02  0.18476204807E+02  0.51100000000E-03 0.  1.
        -11    1    3    3    0    0 -0.11561260646E+00 -0.54902408615E+01 -0.11101565039E+01  0.56025493051E+01  0.51100000000E-03 0. -1.
         12    1    3    3    0    0 -0.92082016559E+01 -0.86944634070E+01 -0.20042681518E+02  0.23708516489E+02  0.00000000000E+00 0. -1.
</event>
<event>
 7    1  0.3062695E-010  0.4778727E+02  0.7816164E-02  0.1312668E+00
        -11   -1    0    0    0    0  0.00000000000E+00  0.00000000000E+00  0.45593999997E+02  0.45594000000E+02  0.51100000000E-03 0.  1.
         11   -1    0    0    0    0 -0.00000000000E+00 -0.00000000000E+00 -0.45593999997E+02  0.45594000000E+02  0.51100000000E-03 0. -1.
    9900012    2    1    2    0    0  0.23020395895E+02 -0.11984484418E+02 -0.34785866945E+02  0.47787273819E+02  0.20000012651E+02 0.  0.
        -12    1    1    2    0    0 -0.23020395895E+02  0.11984484418E+02  0.34785866945E+02  0.43400726181E+02  0.00000000000E+00 0.  1.
         11    1    3    3    0    0  0.12603091731E+02 -0.37937747330E+01 -0.42010948312E+01  0.13815927256E+02  0.51100000000E-03 0. -1.
        -11    1    3    3    0    0  0.77277278114E+01 -0.32985742029E+01 -0.23463906709E+02  0.24922947001E+02  0.51100000000E-03 0.  1.
        -12    1    3    3    0    0  0.26895763529E+01 -0.48921354824E+01 -0.71208654042E+01  0.90483995624E+01  0.00000000000E+00 0.  1.
</event>
<event>
 7    1  0.3062695E-010  0.4778727E+02  0.7816164E-02  0.1312668E+00
        -11   -1    0    0    0    0  0.00000000000E+00  0.00000000000E+00  0.45593999997E+02  0.45594000000E+02  0.51100000000E-03 0. -1.
         11   -1    0    0    0    0 -0.00000000000E+00 -0.00000000000E+00 -0.45593999997E+02  0.45594000000E+02  0.51100000000E-03 0.  1.
    9900012    2    1    2    0    0  0.27919337147E+02 -0.17318988354E+02  0.28358190738E+02  0.47787265833E+02  0.19999976238E+02 0.  0.
        -12    1    1    2    0    0 -0.27919337147E+02  0.17318988354E+02 -0.28358190738E+02  0.43400734167E+02  0.00000000000E+00 0.  1.
         11    1    3    3    0    0  0.15204085124E+02 -0.71499424127E+01  0.40431621585E+01  0.17281002328E+02  0.51100000000E-03 0. -1.
        -11    1    3    3    0    0 -0.32623734462E+00  0.23721753744E+00 -0.47587858379E+00  0.62382982674E+00  0.51100000000E-03 0.  1.
         12    1    3    3    0    0  0.13041489367E+02 -0.10406263479E+02  0.24790907164E+02  0.29882433677E+02  0.00000000000E+00 0. -1.
</event>
<event>
 7    1  0.3062695E-010  0.4778727E+02  0.7816164E-02  0.1312668E+00
        -11   -1    0    0    0    0  0.00000000000E+00  0.00000000000E+00  0.45593999997E+02  0.45594000000E+02  0.51100000000E-03 0.  1.
         11   -1    0    0    0    0 -0.00000000000E+00 -0.00000000000E+00 -0.45593999997E+02  0.45594000000E+02  0.51100000000E-03 0. -1.
    9900012    2    1    2    0    0  0.19699406371E+02 -0.33757075373E+02 -0.18868400546E+02  0.47787270878E+02  0.19999999243E+02 0.  0.
        -12    1    1    2    0    0 -0.19699406371E+02  0.33757075373E+02  0.18868400546E+02  0.43400729122E+02  0.00000000000E+00 0.  1.
         11    1    3    3    0    0  0.13730589199E+02 -0.78378479919E+01 -0.48647571630E+01  0.16541668701E+02  0.51100000000E-03 0. -1.
        -11    1    3    3    0    0  0.43589183098E+00 -0.93676763272E+01 -0.92174815128E+01  0.13149347024E+02  0.51100000000E-03 0.  1.
         12    1    3    3    0    0  0.55329253406E+01 -0.16551551054E+02 -0.47861618703E+01  0.18096255153E+02  0.00000000000E+00 0. -1.
</event>
<event>
 7    1  0.3062695E-010  0.4778727E+02  0.7816164E-02  0.1312668E+00
        -11   -1    0    0    0    0  0.00000000000E+00  0.00000000000E+00  0.45593999997E+02  0.45594000000E+02  0.51100000000E-03 0. -1.
         11   -1    0    0    0    0 -0.00000000000E+00 -0.00000000000E+00 -0.45593999997E+02  0.45594000000E+02  0.51100000000E-03 0.  1.
    9900012    2    1    2    0    0  0.15587886644E+02 -0.16253346210E+02  0.37100806580E+02  0.47787270491E+02  0.19999997475E+02 0.  0.
        -12    1    1    2    0    0 -0.15587886644E+02  0.16253346210E+02 -0.37100806580E+02  0.43400729509E+02  0.00000000000E+00 0.  1.
         11    1    3    3    0    0  0.45035640863E+01 -0.15951849801E+02  0.14098465469E+02  0.21760292516E+02  0.51100000000E-03 0. -1.
        -11    1    3    3    0    0  0.47110675154E+01  0.20449801518E+01  0.12570749622E+02  0.13579390534E+02  0.51100000000E-03 0.  1.
         12    1    3    3    0    0  0.63732550427E+01 -0.23464765606E+01  0.10431591489E+02  0.12447587440E+02  0.00000000000E+00 0. -1.
</event>
<event>
 7    1  0.3062695E-010  0.4778727E+02  0.7816164E-02  0.1312668E+00
        -11   -1    0    0    0    0  0.00000000000E+00  0.00000000000E+00  0.45593999997E+02  0.45594000000E+02  0.51100000000E-03 0. -1.
         11   -1    0    0    0    0 -0.00000000000E+00 -0.00000000000E+00 -0.45593999997E+02  0.45594000000E+02  0.51100000000E-03 0.  1.
    9900012    2    1    2    0    0 -0.33887794268E+02 -0.17397978748E+02 -0.20797864555E+02  0.47787269189E+02  0.19999991541E+02 0.  0.
        -12    1    1    2    0    0  0.33887794268E+02  0.17397978748E+02  0.20797864555E+02  0.43400730811E+02  0.00000000000E+00 0.  1.
         11    1    3    3    0    0 -0.15246320039E+02  0.38085408054E+00 -0.49400588036E+01  0.16031204129E+02  0.51100000000E-03 0. -1.
        -11    1    3    3    0    0 -0.41398900658E-01 -0.40890334154E+01 -0.42877218072E+01  0.59250710290E+01  0.51100000000E-03 0.  1.
         12    1    3    3    0    0 -0.18600075328E+02 -0.13689799413E+02 -0.11570083944E+02  0.25830994031E+02  0.00000000000E+00 0. -1.
</event>
<event>
 7    1  0.3062695E-010  0.4778727E+02  0.7816164E-02  0.1312668E+00
        -11   -1    0    0    0    0  0.00000000000E+00  0.00000000000E+00  0.45593999997E+02  0.45594000000E+02  0.51100000000E-03 0.  1.
         11   -1    0    0    0    0 -0.00000000000E+00 -0.00000000000E+00 -0.45593999997E+02  0.45594000000E+02  0.51100000000E-03 0. -1.
    9900012    2    1    2    0    0  0.39186116219E+02 -0.80551584736E+01 -0.16828136392E+02  0.47787268937E+02  0.19999990391E+02 0.  0.
        -12    1    1    2    0    0 -0.39186116219E+02  0.80551584736E+01  0.16828136392E+02  0.43400731063E+02  0.00000000000E+00 0.  1.
         11    1    3    3    0    0  0.26044650433E+01 -0.61657776154E+01 -0.33708929588E+01  0.74941958451E+01  0.51100000000E-03 0. -1.
        -11    1    3    3    0    0  0.26350447770E+02 -0.10260668261E+01 -0.14287151023E+02  0.29992025531E+02  0.51100000000E-03 0.  1.
        -12    1    3    3    0    0  0.10231203406E+02 -0.86331403210E+00  0.82990758962E+00  0.10301047561E+02  0.00000000000E+00 0.  1.
</event>
<event>
 7    1  0.3062695E-010  0.4778724E+02  0.7816164E-02  0.1312668E+00
        -11   -1    0    0    0    0  0.00000000000E+00  0.00000000000E+00  0.45593999997E+02  0.45594000000E+02  0.51100000000E-03 0.  1.
         11   -1    0    0    0    0 -0.00000000000E+00 -0.00000000000E+00 -0.45593999997E+02  0.45594000000E+02  0.51100000000E-03 0. -1.
    9900012    2    1    2    0    0  0.26553676578E+02  0.13978128458E+02 -0.31355065358E+02  0.47787240346E+02  0.19999860031E+02 0.  0.
        -12    1    1    2    0    0 -0.26553676578E+02 -0.13978128458E+02  0.31355065358E+02  0.43400759654E+02  0.00000000000E+00 0.  1.
         11    1    3    3    0    0  0.74311564158E+01  0.70285676349E+01 -0.25323462166E+01  0.10537344366E+02  0.51100000000E-03 0. -1.
        -11    1    3    3    0    0  0.15705954672E+02  0.24418302174E+00 -0.22385077320E+02  0.27346449942E+02  0.51100000000E-03 0.  1.
        -12    1    3    3    0    0  0.34165654900E+01  0.67053778011E+01 -0.64376418210E+01  0.99034460375E+01  0.00000000000E+00 0.  1.
</event>
<event>
 7    1  0.3062695E-010  0.4778726E+02  0.7816164E-02  0.1312668E+00
        -11   -1    0    0    0    0  0.00000000000E+00  0.00000000000E+00  0.45593999997E+02  0.45594000000E+02  0.51100000000E-03 0.  1.
         11   -1    0    0    0    0 -0.00000000000E+00 -0.00000000000E+00 -0.45593999997E+02  0.45594000000E+02  0.51100000000E-03 0. -1.
    9900012    2    1    2    0    0 -0.32712137102E+02 -0.10798047487E+02 -0.26399661458E+02  0.47787264195E+02  0.19999968770E+02 0.  0.
        -12    1    1    2    0    0  0.32712137102E+02  0.10798047487E+02  0.26399661458E+02  0.43400735805E+02  0.00000000000E+00 0.  1.
         11    1    3    3    0    0 -0.22779790114E+02 -0.11292305376E+02 -0.22123318720E+02  0.33702762940E+02  0.51100000000E-03 0. -1.
        -11    1    3    3    0    0 -0.16537044238E+01 -0.17071513551E+01  0.22827358801E+01  0.32954495035E+01  0.51100000000E-03 0.  1.
         12    1    3    3    0    0 -0.82786425642E+01  0.22014092444E+01 -0.65590786184E+01  0.10789051751E+02  0.00000000000E+00 0. -1.
</event>
<event>
 7    1  0.3062695E-010  0.4778727E+02  0.7816164E-02  0.1312668E+00
        -11   -1    0    0    0    0  0.00000000000E+00  0.00000000000E+00  0.45593999997E+02  0.45594000000E+02  0.51100000000E-03 0.  1.
         11   -1    0    0    0    0 -0.00000000000E+00 -0.00000000000E+00 -0.45593999997E+02  0.45594000000E+02  0.51100000000E-03 0. -1.
    9900012    2    1    2    0    0  0.18493352599E+02  0.56869064372E+01 -0.38849435147E+02  0.47787267213E+02  0.19999982533E+02 0.  0.
        -12    1    1    2    0    0 -0.18493352599E+02 -0.56869064372E+01  0.38849435147E+02  0.43400732787E+02  0.00000000000E+00 0.  1.
         11    1    3    3    0    0  0.46650091982E+01  0.33098526240E+01 -0.14687030927E+01  0.59054656249E+01  0.51100000000E-03 0. -1.
        -11    1    3    3    0    0  0.13170718230E+02 -0.23441981116E+01 -0.32054086784E+02  0.34733666137E+02  0.51100000000E-03 0.  1.
        -12    1    3    3    0    0  0.65762517083E+00  0.47212519248E+01 -0.53266452703E+01  0.71481354519E+01  0.00000000000E+00 0.  1.
</event>
<event>
 7    1  0.3062695E-010  0.4778728E+02  0.7816164E-02  0.1312668E+00
        -11   -1    0    0    0    0  0.00000000000E+00  0.00000000000E+00  0.45593999997E+02  0.45594000000E+02  0.51100000000E-03 0. -1.
         11   -1    0    0    0    0 -0.00000000000E+00 -0.00000000000E+00 -0.45593999997E+02  0.45594000000E+02  0.51100000000E-03 0.  1.
    9900012    2    1    2    0    0 -0.11670885007E+02  0.30926815889E+02  0.28123751951E+02  0.47787275102E+02  0.20000018500E+02 0.  0.
        -12    1    1    2    0    0  0.11670885007E+02 -0.30926815889E+02 -0.28123751951E+02  0.43400724898E+02  0.00000000000E+00 0.  1.
         11    1    3    3    0    0 -0.24772736409E+01  0.13001335796E+02  0.58154969322E+01  0.14456542533E+02  0.51100000000E-03 0. -1.
        -11    1    3    3    0    0 -0.10870147784E+02  0.13711058311E+02  0.98649701914E+01  0.20086584329E+02  0.51100000000E-03 0.  1.
        -12    1    3    3    0    0  0.16765364181E+01  0.42144217814E+01  0.12443284828E+02  0.13244148240E+02  0.00000000000E+00 0.  1.
</event>
<event>
 7    1  0.3062695E-010  0.4778729E+02  0.7816164E-02  0.1312668E+00
        -11   -1    0    0    0    0  0.00000000000E+00  0.00000000000E+00  0.45593999997E+02  0.45594000000E+02  0.51100000000E-03 0.  1.
         11   -1    0    0    0    0 -0.00000000000E+00 -0.00000000000E+00 -0.45593999997E+02  0.45594000000E+02  0.51100000000E-03 0. -1.
    9900012    2    1    2    0    0  0.54577634384E+01 -0.36938020446E+02 -0.22122773295E+02  0.47787289931E+02  0.20000086113E+02 0.  0.
        -12    1    1    2    0    0 -0.54577634384E+01  0.36938020446E+02  0.22122773295E+02  0.43400710069E+02  0.00000000000E+00 0.  1.
         11    1    3    3    0    0  0.41044681579E+01 -0.17070731632E+02 -0.10589299532E+02  0.20503409525E+02  0.51100000000E-03 0. -1.
        -11    1    3    3    0    0  0.64923550926E+01 -0.34603411306E+01 -0.19968255561E+01  0.76231193059E+01  0.51100000000E-03 0.  1.
        -12    1    3    3    0    0 -0.51390598121E+01 -0.16406947683E+02 -0.95366482067E+01  0.19660761101E+02  0.00000000000E+00 0.  1.
</event>
<event>
 7    1  0.3062695E-010  0.4778727E+02  0.7816164E-02  0.1312668E+00
        -11   -1    0    0    0    0  0.00000000000E+00  0.00000000000E+00  0.45593999997E+02  0.45594000000E+02  0.51100000000E-03 0. -1.
         11   -1    0    0    0    0 -0.00000000000E+00 -0.00000000000E+00 -0.45593999997E+02  0.45594000000E+02  0.51100000000E-03 0.  1.
    9900012    2    1    2    0    0  0.13679020272E+02 -0.41013022760E+02 -0.37999859280E+01  0.47787268156E+02  0.19999986831E+02 0.  0.
        -12    1    1    2    0    0 -0.13679020272E+02  0.41013022760E+02  0.37999859280E+01  0.43400731844E+02  0.00000000000E+00 0.  1.
         11    1    3    3    0    0  0.14120487760E+02 -0.19599945741E+02  0.35883076786E+01  0.24421752597E+02  0.51100000000E-03 0. -1.
        -11    1    3    3    0    0 -0.19296523999E+01 -0.19688989609E+02 -0.72969730756E+01  0.21086149164E+02  0.51100000000E-03 0.  1.
        -12    1    3    3    0    0  0.14881849112E+01 -0.17240874100E+01 -0.91320530971E-01  0.22793663959E+01  0.00000000000E+00 0.  1.
</event>
<event>
 7    1  0.3062695E-010  0.4778727E+02  0.7816164E-02  0.1312668E+00
        -11   -1    0    0    0    0  0.00000000000E+00  0.00000000000E+00  0.45593999997E+02  0.45594000000E+02  0.51100000000E-03 0. -1.
         11   -1    0    0    0    0 -0.00000000000E+00 -0.00000000000E+00 -0.45593999997E+02  0.45594000000E+02  0.51100000000E-03 0.  1.
    9900012    2    1    2    0    0 -0.25796715626E+02 -0.31096498706E+02  0.15848050568E+02  0.47787268720E+02  0.19999989402E+02 0.  0.
        -12    1    1    2    0    0  0.25796715626E+02  0.31096498706E+02 -0.15848050568E+02  0.43400731280E+02  0.00000000000E+00 0.  1.
         11    1    3    3    0    0 -0.25609682511E+02 -0.29759502200E+02  0.10571511972E+02  0.40660062409E+02  0.51100000000E-03 0. -1.
        -11    1    3    3    0    0  0.64373179568E+00 -0.17321963741E+01  0.57871486261E+01  0.60750295789E+01  0.51100000000E-03 0.  1.
        -12    1    3    3    0    0 -0.83076491022E+00  0.39519986780E+00 -0.51061003021E+00  0.10521767316E+01  0.00000000000E+00 0.  1.
</event>
<event>
 7    1  0.3062695E-010  0.4778728E+02  0.7816164E-02  0.1312668E+00
        -11   -1    0    0    0    0  0.00000000000E+00  0.00000000000E+00  0.45593999997E+02  0.45594000000E+02  0.51100000000E-03 0.  1.
         11   -1    0    0    0    0 -0.00000000000E+00 -0.00000000000E+00 -0.45593999997E+02  0.45594000000E+02  0.51100000000E-03 0. -1.
    9900012    2    1    2    0    0  0.21204432242E+02  0.37641175288E+02 -0.41395860754E+01  0.47787283455E+02  0.20000056583E+02 0.  0.
        -12    1    1    2    0    0 -0.21204432242E+02 -0.37641175288E+02  0.41395860754E+01  0.43400716545E+02  0.00000000000E+00 0.  1.
         11    1    3    3    0    0  0.36863482121E+01  0.26027762219E+01 -0.43740175801E+01  0.62845554540E+01  0.51100000000E-03 0. -1.
        -11    1    3    3    0    0  0.13364026370E+02  0.24116360503E+02  0.63795625943E+01  0.28300085934E+02  0.51100000000E-03 0.  1.
         12    1    3    3    0    0  0.41540576593E+01  0.10922038564E+02 -0.61451310897E+01  0.13202642066E+02  0.00000000000E+00 0. -1.
</event>
<event>
 7    1  0.3062695E-010  0.4778728E+02  0.7816164E-02  0.1312668E+00
        -11   -1    0    0    0    0  0.00000000000E+00  0.00000000000E+00  0.45593999997E+02  0.45594000000E+02  0.51100000000E-03 0. -1.
         11   -1    0    0    0    0 -0.00000000000E+00 -0.00000000000E+00 -0.45593999997E+02  0.45594000000E+02  0.51100000000E-03 0.  1.
    9900012    2    1    2    0    0  0.55938973884E+00 -0.28207636021E+02  0.32979375871E+02  0.47787275586E+02  0.20000020708E+02 0.  0.
        -12    1    1    2    0    0 -0.55938973884E+00  0.28207636021E+02 -0.32979375871E+02  0.43400724414E+02  0.00000000000E+00 0.  1.
         11    1    3    3    0    0 -0.83759839005E+01 -0.13088856374E+02  0.16829099981E+02  0.22906197282E+02  0.51100000000E-03 0. -1.
        -11    1    3    3    0    0  0.47199566197E+01 -0.62158744880E+01  0.11718213249E+02  0.14079474712E+02  0.51100000000E-03 0.  1.
         12    1    3    3    0    0  0.42154170197E+01 -0.89029051587E+01  0.44320626410E+01  0.10801603592E+02  0.00000000000E+00 0. -1.
</event>
<event>
 7    1  0.3062695E-010  0.4778728E+02  0.7816164E-02  0.1312668E+00
        -11   -1    0    0    0    0  0.00000000000E+00  0.00000000000E+00  0.45593999997E+02  0.45594000000E+02  0.51100000000E-03 0.  1.
         11   -1    0    0    0    0 -0.00000000000E+00 -0.00000000000E+00 -0.45593999997E+02  0.45594000000E+02  0.51100000000E-03 0. -1.
    9900012    2    1    2    0    0  0.19833369494E+02 -0.23250498296E+01 -0.38533803296E+02  0.47787281128E+02  0.20000045975E+02 0.  0.
        -12    1    1    2    0    0 -0.19833369494E+02  0.23250498296E+01  0.38533803296E+02  0.43400718872E+02  0.00000000000E+00 0.  1.
         11    1    3    3    0    0  0.68231872253E+01 -0.73189480892E+01 -0.23568244182E+02  0.25604394528E+02  0.51100000000E-03 0. -1.
        -11    1    3    3    0    0  0.12034441329E+02  0.36038153624E+01 -0.77289175660E+01  0.14749624750E+02  0.51100000000E-03 0.  1.
        -12    1    3    3    0    0  0.97574093903E+00  0.13900828972E+01 -0.72366415471E+01  0.74332618494E+01  0.00000000000E+00 0.  1.
</event>
<event>
 7    1  0.3062695E-010  0.4778727E+02  0.7816164E-02  0.1312668E+00
        -11   -1    0    0    0    0  0.00000000000E+00  0.00000000000E+00  0.45593999997E+02  0.45594000000E+02  0.51100000000E-03 0.  1.
         11   -1    0    0    0    0 -0.00000000000E+00 -0.00000000000E+00 -0.45593999997E+02  0.45594000000E+02  0.51100000000E-03 0. -1.
    9900012    2    1    2    0    0  0.17495458966E+02 -0.35652873708E+02 -0.17504417541E+02  0.47787272800E+02  0.20000008004E+02 0.  0.
        -12    1    1    2    0    0 -0.17495458966E+02  0.35652873708E+02  0.17504417541E+02  0.43400727200E+02  0.00000000000E+00 0.  1.
         11    1    3    3    0    0  0.18124790109E+02 -0.23640981982E+02 -0.13953805661E+02  0.32895482034E+02  0.51100000000E-03 0. -1.
        -11    1    3    3    0    0 -0.26859381781E+01 -0.92011091812E+01 -0.53441574087E+01  0.10974274132E+02  0.51100000000E-03 0.  1.
         12    1    3    3    0    0  0.20566070349E+01 -0.28107825444E+01  0.17935455288E+01  0.39175166333E+01  0.00000000000E+00 0. -1.
</event>
<event>
 7    1  0.3062695E-010  0.4778727E+02  0.7816164E-02  0.1312668E+00
        -11   -1    0    0    0    0  0.00000000000E+00  0.00000000000E+00  0.45593999997E+02  0.45594000000E+02  0.51100000000E-03 0.  1.
         11   -1    0    0    0    0 -0.00000000000E+00 -0.00000000000E+00 -0.45593999997E+02  0.45594000000E+02  0.51100000000E-03 0. -1.
    9900012    2    1    2    0    0 -0.19302427108E+02 -0.10085565063E+02 -0.37540925303E+02  0.47787269736E+02  0.19999994033E+02 0.  0.
        -12    1    1    2    0    0  0.19302427108E+02  0.10085565063E+02  0.37540925303E+02  0.43400730264E+02  0.00000000000E+00 0.  1.
         11    1    3    3    0    0 -0.13237961641E+02 -0.11316764030E+02 -0.35840503100E+02  0.39847891277E+02  0.51100000000E-03 0. -1.
        -11    1    3    3    0    0 -0.11441337034E+01  0.21984256256E+01  0.38587162568E+00  0.25081894536E+01  0.51100000000E-03 0.  1.
        -12    1    3    3    0    0 -0.49203317630E+01 -0.96722665857E+00 -0.20862938287E+01  0.54311890049E+01  0.00000000000E+00 0.  1.
</event>
<event>
 7    1  0.3197420E-010  0.4778727E+02  0.7816164E-02  0.1312668E+00
        -11   -1    0    0    0    0  0.00000000000E+00  0.00000000000E+00  0.45593999997E+02  0.45594000000E+02  0.51100000000E-03 0. -1.
         11   -1    0    0    0    0 -0.00000000000E+00 -0.00000000000E+00 -0.45593999997E+02  0.45594000000E+02  0.51100000000E-03 0.  1.
    9900012    2    1    2    0    0 -0.33968941486E+02  0.18254198388E+02  0.19912770577E+02  0.47787272166E+02  0.20000005115E+02 0.  0.
        -12    1    1    2    0    0  0.33968941486E+02 -0.18254198388E+02 -0.19912770577E+02  0.43400727834E+02  0.00000000000E+00 0.  1.
         11    1    3    3    0    0 -0.19952196716E+02  0.96872562806E+01  0.49546348092E+01  0.22726229216E+02  0.51100000000E-03 0. -1.
        -11    1    3    3    0    0 -0.10111883008E+02  0.58761929994E+01  0.16365088330E+02  0.20114570302E+02  0.51100000000E-03 0.  1.
        -12    1    3    3    0    0 -0.39048617616E+01  0.26907491079E+01 -0.14069525626E+01  0.49464726475E+01  0.00000000000E+00 0.  1.
</event>
<event>
 7    1  0.3062695E-010  0.4778727E+02  0.7816164E-02  0.1312668E+00
        -11   -1    0    0    0    0  0.00000000000E+00  0.00000000000E+00  0.45593999997E+02  0.45594000000E+02  0.51100000000E-03 0.  1.
         11   -1    0    0    0    0 -0.00000000000E+00 -0.00000000000E+00 -0.45593999997E+02  0.45594000000E+02  0.51100000000E-03 0. -1.
    9900012    2    1    2    0    0 -0.54481483749E+01 -0.34034427467E+02 -0.26374199204E+02  0.47787274691E+02  0.20000016624E+02 0.  0.
        -12    1    1    2    0    0  0.54481483749E+01  0.34034427467E+02  0.26374199204E+02  0.43400725309E+02  0.00000000000E+00 0.  1.
         11    1    3    3    0    0 -0.60153683987E+01 -0.19000224452E+01 -0.70182824079E+01  0.94366853547E+01  0.51100000000E-03 0.  1.
        -11    1    3    3    0    0 -0.35553101801E+01 -0.19266240397E+02 -0.11172559432E+02  0.22553366357E+02  0.51100000000E-03 0. -1.
         12    1    3    3    0    0  0.41225302039E+01 -0.12868164625E+02 -0.81833573638E+01  0.15797222979E+02  0.00000000000E+00 0. -1.
</event>
<event>
 7    1  0.3062695E-010  0.4778727E+02  0.7816164E-02  0.1312668E+00
        -11   -1    0    0    0    0  0.00000000000E+00  0.00000000000E+00  0.45593999997E+02  0.45594000000E+02  0.51100000000E-03 0. -1.
         11   -1    0    0    0    0 -0.00000000000E+00 -0.00000000000E+00 -0.45593999997E+02  0.45594000000E+02  0.51100000000E-03 0.  1.
    9900012    2    1    2    0    0 -0.40400462920E+01  0.41787994315E+02 -0.11002952915E+02  0.47787269410E+02  0.19999992546E+02 0.  0.
        -12    1    1    2    0    0  0.40400462920E+01 -0.41787994315E+02  0.11002952915E+02  0.43400730590E+02  0.00000000000E+00 0.  1.
         11    1    3    3    0    0  0.15749334116E+01  0.12807050062E+02 -0.35537292439E+01  0.13383943303E+02  0.51100000000E-03 0. -1.
        -11    1    3    3    0    0 -0.54469337507E+01  0.28880821831E+02 -0.10602533980E+02  0.31243954358E+02  0.51100000000E-03 0.  1.
        -12    1    3    3    0    0 -0.16804595292E+00  0.10012242236E+00  0.31533103081E+01  0.31593717478E+01  0.00000000000E+00 0.  1.
</event>
<event>
 7    1  0.3062695E-010  0.4778728E+02  0.7816164E-02  0.1312668E+00
        -11   -1    0    0    0    0  0.00000000000E+00  0.00000000000E+00  0.45593999997E+02  0.45594000000E+02  0.51100000000E-03 0.  1.
         11   -1    0    0    0    0 -0.00000000000E+00 -0.00000000000E+00 -0.45593999997E+02  0.45594000000E+02  0.51100000000E-03 0. -1.
    9900012    2    1    2    0    0 -0.39627411421E+02  0.16040915698E+02  0.74819751803E+01  0.47787278059E+02  0.20000031983E+02 0.  0.
        -12    1    1    2    0    0  0.39627411421E+02 -0.16040915698E+02 -0.74819751803E+01  0.43400721941E+02  0.00000000000E+00 0.  1.
         11    1    3    3    0    0 -0.14681038965E+02  0.11368224063E+02  0.45381349816E+01  0.19114499544E+02  0.51100000000E-03 0. -1.
        -11    1    3    3    0    0 -0.25280370648E+02  0.56433723360E+01  0.49943227155E+01  0.26379690124E+02  0.51100000000E-03 0.  1.
        -12    1    3    3    0    0  0.33399819141E+00 -0.97068070150E+00 -0.20504825168E+01  0.22930883907E+01  0.00000000000E+00 0.  1.
</event>
<event>
 7    1  0.3062695E-010  0.4778727E+02  0.7816164E-02  0.1312668E+00
        -11   -1    0    0    0    0  0.00000000000E+00  0.00000000000E+00  0.45593999997E+02  0.45594000000E+02  0.51100000000E-03 0.  1.
         11   -1    0    0    0    0 -0.00000000000E+00 -0.00000000000E+00 -0.45593999997E+02  0.45594000000E+02  0.51100000000E-03 0. -1.
    9900012    2    1    2    0    0 -0.19939428400E+02 -0.21283705339E+02 -0.32141038432E+02  0.47787271096E+02  0.20000000237E+02 0.  0.
        -12    1    1    2    0    0  0.19939428400E+02  0.21283705339E+02  0.32141038432E+02  0.43400728904E+02  0.00000000000E+00 0.  1.
         11    1    3    3    0    0 -0.30749323457E+01 -0.26158175828E+01 -0.37361257959E+01  0.55005769498E+01  0.51100000000E-03 0. -1.
        -11    1    3    3    0    0 -0.15324756283E+02 -0.22226919784E+02 -0.22123131301E+02  0.34904398821E+02  0.51100000000E-03 0.  1.
        -12    1    3    3    0    0 -0.15397397712E+01  0.35590320275E+01 -0.62817813350E+01  0.73822953258E+01  0.00000000000E+00 0.  1.
</event>
<event>
 7    1  0.3062695E-010  0.4778727E+02  0.7816164E-02  0.1312668E+00
        -11   -1    0    0    0    0  0.00000000000E+00  0.00000000000E+00  0.45593999997E+02  0.45594000000E+02  0.51100000000E-03 0. -1.
         11   -1    0    0    0    0 -0.00000000000E+00 -0.00000000000E+00 -0.45593999997E+02  0.45594000000E+02  0.51100000000E-03 0.  1.
    9900012    2    1    2    0    0  0.38611701216E+02  0.19780062095E+02 -0.12283416113E+01  0.47787272467E+02  0.20000006486E+02 0.  0.
        -12    1    1    2    0    0 -0.38611701216E+02 -0.19780062095E+02  0.12283416113E+01  0.43400727533E+02  0.00000000000E+00 0.  1.
         11    1    3    3    0    0  0.25230093205E+02  0.98672525156E+01 -0.42562975010E+01  0.27423281059E+02  0.51100000000E-03 0. -1.
        -11    1    3    3    0    0  0.35776910036E+01  0.33679716201E+01  0.64324608636E+01  0.80944214602E+01  0.51100000000E-03 0.  1.
        -12    1    3    3    0    0  0.98039170072E+01  0.65448379591E+01 -0.34045049739E+01  0.12269569948E+02  0.00000000000E+00 0.  1.
</event>
<event>
 7    1  0.3062695E-010  0.4778727E+02  0.7816164E-02  0.1312668E+00
        -11   -1    0    0    0    0  0.00000000000E+00  0.00000000000E+00  0.45593999997E+02  0.45594000000E+02  0.51100000000E-03 0.  1.
         11   -1    0    0    0    0 -0.00000000000E+00 -0.00000000000E+00 -0.45593999997E+02  0.45594000000E+02  0.51100000000E-03 0. -1.
    9900012    2    1    2    0    0 -0.16249091422E+02 -0.12837892590E+02 -0.38141564352E+02  0.47787269713E+02  0.19999993932E+02 0.  0.
        -12    1    1    2    0    0  0.16249091422E+02  0.12837892590E+02  0.38141564352E+02  0.43400730287E+02  0.00000000000E+00 0.  1.
         11    1    3    3    0    0 -0.18223325883E+02 -0.10290791898E+02 -0.30279115212E+02  0.36807809258E+02  0.51100000000E-03 0. -1.
        -11    1    3    3    0    0  0.18972045709E+01 -0.32621669122E+01 -0.77107707051E+00  0.38517110817E+01  0.51100000000E-03 0.  1.
         12    1    3    3    0    0  0.77029890302E-01  0.71506621979E+00 -0.70913720696E+01  0.71277493735E+01  0.00000000000E+00 0. -1.
</event>
<event>
 7    1  0.3062695E-010  0.4778727E+02  0.7816164E-02  0.1312668E+00
        -11   -1    0    0    0    0  0.00000000000E+00  0.00000000000E+00  0.45593999997E+02  0.45594000000E+02  0.51100000000E-03 0.  1.
         11   -1    0    0    0    0 -0.00000000000E+00 -0.00000000000E+00 -0.45593999997E+02  0.45594000000E+02  0.51100000000E-03 0. -1.
    9900012    2    1    2    0    0 -0.91570465874E+01 -0.15896653353E+02 -0.39332786404E+02  0.47787272168E+02  0.20000005125E+02 0.  0.
        -12    1    1    2    0    0  0.91570465874E+01  0.15896653353E+02  0.39332786404E+02  0.43400727832E+02  0.00000000000E+00 0.  1.
         11    1    3    3    0    0  0.44925110517E+01 -0.33818943368E+01 -0.50439921494E+01  0.75539209633E+01  0.51100000000E-03 0. -1.
        -11    1    3    3    0    0 -0.73637538999E+01 -0.37007681502E+01 -0.23691773020E+02  0.25084271277E+02  0.51100000000E-03 0.  1.
         12    1    3    3    0    0 -0.62858037393E+01 -0.88139908659E+01 -0.10597021235E+02  0.15149079929E+02  0.00000000000E+00 0. -1.
</event>
<event>
 7    1  0.3062695E-010  0.4778727E+02  0.7816164E-02  0.1312668E+00
        -11   -1    0    0    0    0  0.00000000000E+00  0.00000000000E+00  0.45593999997E+02  0.45594000000E+02  0.51100000000E-03 0.  1.
         11   -1    0    0    0    0 -0.00000000000E+00 -0.00000000000E+00 -0.45593999997E+02  0.45594000000E+02  0.51100000000E-03 0. -1.
    9900012    2    1    2    0    0  0.17630461886E+02 -0.14170091239E+02 -0.37040504471E+02  0.47787266787E+02  0.19999980587E+02 0.  0.
        -12    1    1    2    0    0 -0.17630461886E+02  0.14170091239E+02  0.37040504471E+02  0.43400733213E+02  0.00000000000E+00 0.  1.
         11    1    3    3    0    0  0.59646520497E+00  0.15036344574E+01 -0.70390035794E+01  0.72224828815E+01  0.51100000000E-03 0.  1.
        -11    1    3    3    0    0  0.62015652784E+01  0.19476747807E+01 -0.88458813524E+01  0.10977361528E+02  0.51100000000E-03 0. -1.
        -12    1    3    3    0    0  0.10832431402E+02 -0.17621400477E+02 -0.21155619539E+02  0.29587422377E+02  0.00000000000E+00 0.  1.
</event>
<event>
 7    1  0.3062695E-010  0.4778727E+02  0.7816164E-02  0.1312668E+00
        -11   -1    0    0    0    0  0.00000000000E+00  0.00000000000E+00  0.45593999997E+02  0.45594000000E+02  0.51100000000E-03 0. -1.
         11   -1    0    0    0    0 -0.00000000000E+00 -0.00000000000E+00 -0.45593999997E+02  0.45594000000E+02  0.51100000000E-03 0.  1.
    9900012    2    1    2    0    0  0.30591947428E+02  0.17381800198E+02  0.25409231726E+02  0.47787270945E+02  0.19999999548E+02 0.  0.
        -12    1    1    2    0    0 -0.30591947428E+02 -0.17381800198E+02 -0.25409231726E+02  0.43400729055E+02  0.00000000000E+00 0.  1.
         11    1    3    3    0    0  0.24551184752E+02  0.82194804400E+01  0.24410535537E+02  0.35583630744E+02  0.51100000000E-03 0. -1.
        -11    1    3    3    0    0  0.65626674799E+00  0.32120456413E+01 -0.17560793164E+01  0.37191044719E+01  0.51100000000E-03 0.  1.
         12    1    3    3    0    0  0.53844959280E+01  0.59502741163E+01  0.27547755058E+01  0.84845357295E+01  0.00000000000E+00 0. -1.
</event>
<event>
 7    1  0.3062695E-010  0.4778728E+02  0.7816164E-02  0.1312668E+00
        -11   -1    0    0    0    0  0.00000000000E+00  0.00000000000E+00  0.45593999997E+02  0.45594000000E+02  0.51100000000E-03 0.  1.
         11   -1    0    0    0    0 -0.00000000000E+00 -0.00000000000E+00 -0.45593999997E+02  0.45594000000E+02  0.51100000000E-03 0. -1.
    9900012    2    1    2    0    0  0.14506070411E+02  0.85021242984E+01 -0.40011372392E+02  0.47787284372E+02  0.20000060764E+02 0.  0.
        -12    1    1    2    0    0 -0.14506070411E+02 -0.85021242984E+01  0.40011372392E+02  0.43400715628E+02  0.00000000000E+00 0.  1.
         11    1    3    3    0    0  0.32320301389E+01 -0.22495072869E+01 -0.23246673629E+02  0.23577831472E+02  0.51100000000E-03 0. -1.
        -11    1    3    3    0    0  0.33312499114E+01  0.44532061131E+01 -0.12880802951E+01  0.57085393723E+01  0.51100000000E-03 0.  1.
        -12    1    3    3    0    0  0.79427903604E+01  0.62984254723E+01 -0.15476618468E+02  0.18500913527E+02  0.00000000000E+00 0.  1.
</event>
<event>
 7    1  0.3062695E-010  0.4778728E+02  0.7816164E-02  0.1312668E+00
        -11   -1    0    0    0    0  0.00000000000E+00  0.00000000000E+00  0.45593999997E+02  0.45594000000E+02  0.51100000000E-03 0.  1.
         11   -1    0    0    0    0 -0.00000000000E+00 -0.00000000000E+00 -0.45593999997E+02  0.45594000000E+02  0.51100000000E-03 0. -1.
    9900012    2    1    2    0    0  0.11142593287E+02  0.28332158696E+02 -0.30931431636E+02  0.47787284976E+02  0.20000063521E+02 0.  0.
        -12    1    1    2    0    0 -0.11142593287E+02 -0.28332158696E+02  0.30931431636E+02  0.43400715024E+02  0.00000000000E+00 0.  1.
         11    1    3    3    0    0  0.30137550085E+00  0.10443530058E+02 -0.23095958379E+02  0.25349190144E+02  0.51100000000E-03 0. -1.
        -11    1    3    3    0    0  0.53867406955E+01  0.74473740063E+01 -0.26383653704E+01  0.95624958562E+01  0.51100000000E-03 0.  1.
         12    1    3    3    0    0  0.54544770907E+01  0.10441254631E+02 -0.51971078870E+01  0.12875598976E+02  0.00000000000E+00 0. -1.
</event>
<event>
 7    1  0.3062695E-010  0.4778727E+02  0.7816164E-02  0.1312668E+00
        -11   -1    0    0    0    0  0.00000000000E+00  0.00000000000E+00  0.45593999997E+02  0.45594000000E+02  0.51100000000E-03 0. -1.
         11   -1    0    0    0    0 -0.00000000000E+00 -0.00000000000E+00 -0.45593999997E+02  0.45594000000E+02  0.51100000000E-03 0.  1.
    9900012    2    1    2    0    0  0.80952712539E+01  0.45418327723E+01  0.42396480409E+02  0.47787271749E+02  0.20000003214E+02 0.  0.
        -12    1    1    2    0    0 -0.80952712539E+01 -0.45418327723E+01 -0.42396480409E+02  0.43400728251E+02  0.00000000000E+00 0.  1.
         11    1    3    3    0    0 -0.35033749623E+01 -0.37745142533E+01  0.59489711102E+01  0.78683449026E+01  0.51100000000E-03 0. -1.
        -11    1    3    3    0    0  0.37332000880E+00 -0.70264025003E+00  0.74316864788E-01  0.79912102178E+00  0.51100000000E-03 0.  1.
         12    1    3    3    0    0  0.11225326207E+02  0.90189872756E+01  0.36373192434E+02  0.39119805825E+02  0.00000000000E+00 0. -1.
</event>
<event>
 7    1  0.3062695E-010  0.4778728E+02  0.7816164E-02  0.1312668E+00
        -11   -1    0    0    0    0  0.00000000000E+00  0.00000000000E+00  0.45593999997E+02  0.45594000000E+02  0.51100000000E-03 0.  1.
         11   -1    0    0    0    0 -0.00000000000E+00 -0.00000000000E+00 -0.45593999997E+02  0.45594000000E+02  0.51100000000E-03 0. -1.
    9900012    2    1    2    0    0 -0.32805658474E+02 -0.20232942283E+02  0.19950929416E+02  0.47787276897E+02  0.20000026683E+02 0.  0.
        -12    1    1    2    0    0  0.32805658474E+02  0.20232942283E+02 -0.19950929416E+02  0.43400723103E+02  0.00000000000E+00 0.  1.
         11    1    3    3    0    0 -0.25604590460E+02 -0.14440989335E+02  0.79210730292E+01  0.30444714218E+02  0.51100000000E-03 0. -1.
        -11    1    3    3    0    0  0.53151366523E+00 -0.38457786862E+01  0.67257006327E+01  0.77657948557E+01  0.51100000000E-03 0.  1.
         12    1    3    3    0    0 -0.77325816794E+01 -0.19461742619E+01  0.53041557536E+01  0.95767678235E+01  0.00000000000E+00 0. -1.
</event>
<event>
 7    1  0.3062695E-010  0.4778727E+02  0.7816164E-02  0.1312668E+00
        -11   -1    0    0    0    0  0.00000000000E+00  0.00000000000E+00  0.45593999997E+02  0.45594000000E+02  0.51100000000E-03 0.  1.
         11   -1    0    0    0    0 -0.00000000000E+00 -0.00000000000E+00 -0.45593999997E+02  0.45594000000E+02  0.51100000000E-03 0. -1.
    9900012    2    1    2    0    0  0.26327132139E+02  0.17001936711E+02 -0.30023982869E+02  0.47787270905E+02  0.19999999366E+02 0.  0.
        -12    1    1    2    0    0 -0.26327132139E+02 -0.17001936711E+02  0.30023982869E+02  0.43400729095E+02  0.00000000000E+00 0.  1.
         11    1    3    3    0    0  0.19557814463E+02  0.33566664868E+01 -0.16412617202E+02  0.25751685773E+02  0.51100000000E-03 0. -1.
        -11    1    3    3    0    0  0.19859874206E+01  0.21380914946E+01  0.75823704267E+00  0.30150464255E+01  0.51100000000E-03 0.  1.
         12    1    3    3    0    0  0.47833302559E+01  0.11507178730E+02 -0.14369602710E+02  0.19020538707E+02  0.00000000000E+00 0. -1.
</event>
<event>
 7    1  0.3062695E-010  0.4778727E+02  0.7816164E-02  0.1312668E+00
        -11   -1    0    0    0    0  0.00000000000E+00  0.00000000000E+00  0.45593999997E+02  0.45594000000E+02  0.51100000000E-03 0.  1.
         11   -1    0    0    0    0 -0.00000000000E+00 -0.00000000000E+00 -0.45593999997E+02  0.45594000000E+02  0.51100000000E-03 0. -1.
    9900012    2    1    2    0    0  0.29866508614E+00 -0.35486759135E+02 -0.24984475245E+02  0.47787270997E+02  0.19999999785E+02 0.  0.
        -12    1    1    2    0    0 -0.29866508614E+00  0.35486759135E+02  0.24984475245E+02  0.43400729003E+02  0.00000000000E+00 0.  1.
         11    1    3    3    0    0 -0.17780695874E+01 -0.15581597020E+02 -0.53316142536E+01  0.16564232792E+02  0.51100000000E-03 0. -1.
        -11    1    3    3    0    0  0.50457096886E+01 -0.18672939511E+02 -0.20194193169E+02  0.27963248993E+02  0.51100000000E-03 0.  1.
        -12    1    3    3    0    0 -0.29689750150E+01 -0.12322226034E+01  0.54133217792E+00  0.32597892127E+01  0.00000000000E+00 0.  1.
</event>
<event>
 7    1  0.3062695E-010  0.4778727E+02  0.7816164E-02  0.1312668E+00
        -11   -1    0    0    0    0  0.00000000000E+00  0.00000000000E+00  0.45593999997E+02  0.45594000000E+02  0.51100000000E-03 0. -1.
         11   -1    0    0    0    0 -0.00000000000E+00 -0.00000000000E+00 -0.45593999997E+02  0.45594000000E+02  0.51100000000E-03 0.  1.
    9900012    2    1    2    0    0 -0.17579264808E+02 -0.38055407303E+02 -0.11241830489E+02  0.47787270410E+02  0.19999997109E+02 0.  0.
        -12    1    1    2    0    0  0.17579264808E+02  0.38055407303E+02  0.11241830489E+02  0.43400729590E+02  0.00000000000E+00 0.  1.
         11    1    3    3    0    0 -0.67825808774E+01 -0.26157229312E+02 -0.39195939512E+01  0.27305077653E+02  0.51100000000E-03 0. -1.
        -11    1    3    3    0    0  0.65640232479E+00  0.13553146779E+01 -0.12035721419E+01  0.19277780085E+01  0.51100000000E-03 0.  1.
         12    1    3    3    0    0 -0.11453086255E+02 -0.13253492669E+02 -0.61186643963E+01  0.18554414749E+02  0.00000000000E+00 0. -1.
</event>
<event>
 7    1  0.3062695E-010  0.4778726E+02  0.7816164E-02  0.1312668E+00
        -11   -1    0    0    0    0  0.00000000000E+00  0.00000000000E+00  0.45593999997E+02  0.45594000000E+02  0.51100000000E-03 0.  1.
         11   -1    0    0    0    0 -0.00000000000E+00 -0.00000000000E+00 -0.45593999997E+02  0.45594000000E+02  0.51100000000E-03 0. -1.
    9900012    2    1    2    0    0  0.16232573444E+02  0.19113647800E+02 -0.35423100097E+02  0.47787262756E+02  0.19999962209E+02 0.  0.
        -12    1    1    2    0    0 -0.16232573444E+02 -0.19113647800E+02  0.35423100097E+02  0.43400737244E+02  0.00000000000E+00 0.  1.
         11    1    3    3    0    0  0.41572956648E+01 -0.14386342338E+01 -0.66406027062E+00  0.44490169709E+01  0.51100000000E-03 0. -1.
        -11    1    3    3    0    0  0.64274013582E+01  0.78280308498E+01 -0.70874660626E+01  0.12362108665E+02  0.51100000000E-03 0.  1.
         12    1    3    3    0    0  0.56478764209E+01  0.12724251184E+02 -0.27671573764E+02  0.30976137119E+02  0.00000000000E+00 0. -1.
</event>
<event>
 7    1  0.3062695E-010  0.4778727E+02  0.7816164E-02  0.1312668E+00
        -11   -1    0    0    0    0  0.00000000000E+00  0.00000000000E+00  0.45593999997E+02  0.45594000000E+02  0.51100000000E-03 0.  1.
         11   -1    0    0    0    0 -0.00000000000E+00 -0.00000000000E+00 -0.45593999997E+02  0.45594000000E+02  0.51100000000E-03 0. -1.
    9900012    2    1    2    0    0  0.18945184712E+02  0.37773541962E+02 -0.98925557124E+01  0.47787272418E+02  0.20000006265E+02 0.  0.
        -12    1    1    2    0    0 -0.18945184712E+02 -0.37773541962E+02  0.98925557124E+01  0.43400727582E+02  0.00000000000E+00 0.  1.
         11    1    3    3    0    0  0.11291778182E+00 -0.17511858254E+01 -0.53950896715E+00  0.18358846389E+01  0.51100000000E-03 0. -1.
        -11    1    3    3    0    0  0.32572156855E+01  0.23634283682E+01  0.13779124727E+01  0.42536914224E+01  0.51100000000E-03 0.  1.
         12    1    3    3    0    0  0.15575051244E+02  0.37161299419E+02 -0.10730959218E+02  0.41697696357E+02  0.00000000000E+00 0. -1.
</event>
<event>
 7    1  0.3062695E-010  0.4778727E+02  0.7816164E-02  0.1312668E+00
        -11   -1    0    0    0    0  0.00000000000E+00  0.00000000000E+00  0.45593999997E+02  0.45594000000E+02  0.51100000000E-03 0.  1.
         11   -1    0    0    0    0 -0.00000000000E+00 -0.00000000000E+00 -0.45593999997E+02  0.45594000000E+02  0.51100000000E-03 0. -1.
    9900012    2    1    2    0    0  0.39406159609E+02  0.12876528695E+02 -0.12844176045E+02  0.47787271151E+02  0.20000000487E+02 0.  0.
        -12    1    1    2    0    0 -0.39406159609E+02 -0.12876528695E+02  0.12844176045E+02  0.43400728849E+02  0.00000000000E+00 0.  1.
         11    1    3    3    0    0  0.23629847649E+02  0.49406679438E+01 -0.16360235857E+02  0.29162256724E+02  0.51100000000E-03 0. -1.
        -11    1    3    3    0    0  0.52651461719E+01  0.28500924259E+00  0.13742399854E+01  0.54489935106E+01  0.51100000000E-03 0.  1.
         12    1    3    3    0    0  0.10511165787E+02  0.76508515089E+01  0.21418198274E+01  0.13176020917E+02  0.00000000000E+00 0. -1.
</event>
<event>
 7    1  0.3062695E-010  0.4778729E+02  0.7816164E-02  0.1312668E+00
        -11   -1    0    0    0    0  0.00000000000E+00  0.00000000000E+00  0.45593999997E+02  0.45594000000E+02  0.51100000000E-03 0. -1.
         11   -1    0    0    0    0 -0.00000000000E+00 -0.00000000000E+00 -0.45593999997E+02  0.45594000000E+02  0.51100000000E-03 0.  1.
    9900012    2    1    2    0    0 -0.30807110841E+02 -0.26905994072E+02  0.14512444737E+02  0.47787289780E+02  0.20000085424E+02 0.  0.
        -12    1    1    2    0    0  0.30807110841E+02  0.26905994072E+02 -0.14512444737E+02  0.43400710220E+02  0.00000000000E+00 0.  1.
         11    1    3    3    0    0 -0.17191376450E+02 -0.92701505290E+01  0.57643379713E+01  0.20364348936E+02  0.51100000000E-03 0. -1.
        -11    1    3    3    0    0  0.18072287516E+01 -0.68338772646E+01  0.34288367057E+01  0.78565180356E+01  0.51100000000E-03 0.  1.
        -12    1    3    3    0    0 -0.15422963142E+02 -0.10801966278E+02  0.53192700599E+01  0.19566422809E+02  0.00000000000E+00 0.  1.
</event>
<event>
 7    1  0.3062695E-010  0.4778732E+02  0.7816164E-02  0.1312668E+00
        -11   -1    0    0    0    0  0.00000000000E+00  0.00000000000E+00  0.45593999997E+02  0.45594000000E+02  0.51100000000E-03 0.  1.
         11   -1    0    0    0    0 -0.00000000000E+00 -0.00000000000E+00 -0.45593999997E+02  0.45594000000E+02  0.51100000000E-03 0. -1.
    9900012    2    1    2    0    0  0.53451840089E+01 -0.34287438355E+02 -0.26065683050E+02  0.47787317357E+02  0.20000211156E+02 0.  0.
        -12    1    1    2    0    0 -0.53451840089E+01  0.34287438355E+02  0.26065683050E+02  0.43400682643E+02  0.00000000000E+00 0.  1.
         11    1    3    3    0    0  0.11683933349E+02 -0.22645757511E+02 -0.15523418549E+02  0.29838249873E+02  0.51100000000E-03 0. -1.
        -11    1    3    3    0    0 -0.50167560459E+01 -0.47619595608E+01 -0.78018764601E+01  0.10426570704E+02  0.51100000000E-03 0.  1.
         12    1    3    3    0    0 -0.13219932939E+01 -0.68797212825E+01 -0.27403880411E+01  0.75224967803E+01  0.00000000000E+00 0. -1.
</event>
<event>
 7    1  0.3062695E-010  0.4778728E+02  0.7816164E-02  0.1312668E+00
        -11   -1    0    0    0    0  0.00000000000E+00  0.00000000000E+00  0.45593999997E+02  0.45594000000E+02  0.51100000000E-03 0.  1.
         11   -1    0    0    0    0 -0.00000000000E+00 -0.00000000000E+00 -0.45593999997E+02  0.45594000000E+02  0.51100000000E-03 0. -1.
    9900012    2    1    2    0    0 -0.40745125305E+01 -0.36593126178E+02 -0.22977470003E+02  0.47787278075E+02  0.20000032056E+02 0.  0.
        -12    1    1    2    0    0  0.40745125305E+01  0.36593126178E+02  0.22977470003E+02  0.43400721925E+02  0.00000000000E+00 0.  1.
         11    1    3    3    0    0 -0.66272296706E+01 -0.12686614390E+02 -0.25818264624E+01  0.14544283617E+02  0.51100000000E-03 0. -1.
        -11    1    3    3    0    0 -0.26799315803E+01 -0.47746413669E+01 -0.11272865099E+01  0.55901707124E+01  0.51100000000E-03 0.  1.
         12    1    3    3    0    0  0.52326487204E+01 -0.19131870421E+02 -0.19268357031E+02  0.27652823746E+02  0.00000000000E+00 0. -1.
</event>
<event>
 7    1  0.3062695E-010  0.4778727E+02  0.7816164E-02  0.1312668E+00
        -11   -1    0    0    0    0  0.00000000000E+00  0.00000000000E+00  0.45593999997E+02  0.45594000000E+02  0.51100000000E-03 0.  1.
         11   -1    0    0    0    0 -0.00000000000E+00 -0.00000000000E+00 -0.45593999997E+02  0.45594000000E+02  0.51100000000E-03 0. -1.
    9900012    2    1    2    0    0  0.42244565360E+01  0.15465894193E+02 -0.40330924865E+02  0.47787269399E+02  0.19999992499E+02 0.  0.
        -12    1    1    2    0    0 -0.42244565360E+01 -0.15465894193E+02  0.40330924865E+02  0.43400730601E+02  0.00000000000E+00 0.  1.
         11    1    3    3    0    0  0.26416345760E+01  0.79123197138E+01 -0.33728804333E+02  0.34745003647E+02  0.51100000000E-03 0. -1.
        -11    1    3    3    0    0  0.31927249817E+01 -0.32021502626E+00 -0.20049693901E+01  0.37836401769E+01  0.51100000000E-03 0.  1.
         12    1    3    3    0    0 -0.16099030217E+01  0.78737895053E+01 -0.45971511422E+01  0.92586255749E+01  0.00000000000E+00 0. -1.
</event>
<event>
 7    1  0.3062695E-010  0.4778727E+02  0.7816164E-02  0.1312668E+00
        -11   -1    0    0    0    0  0.00000000000E+00  0.00000000000E+00  0.45593999997E+02  0.45594000000E+02  0.51100000000E-03 0.  1.
         11   -1    0    0    0    0 -0.00000000000E+00 -0.00000000000E+00 -0.45593999997E+02  0.45594000000E+02  0.51100000000E-03 0. -1.
    9900012    2    1    2    0    0  0.21141559966E+02 -0.27514720279E+01 -0.37803268610E+02  0.47787271046E+02  0.20000000009E+02 0.  0.
        -12    1    1    2    0    0 -0.21141559966E+02  0.27514720279E+01  0.37803268610E+02  0.43400728954E+02  0.00000000000E+00 0.  1.
         11    1    3    3    0    0  0.15658245938E+01  0.34900798283E+01 -0.16750358513E+02  0.17181588240E+02  0.51100000000E-03 0. -1.
        -11    1    3    3    0    0  0.29183583756E+01 -0.33754542547E+01 -0.13833263297E+01  0.46716270216E+01  0.51100000000E-03 0.  1.
         12    1    3    3    0    0  0.16657376997E+02 -0.28660976015E+01 -0.19669583767E+02  0.25934055785E+02  0.00000000000E+00 0. -1.
</event>
<event>
 7    1  0.3062695E-010  0.4778727E+02  0.7816164E-02  0.1312668E+00
        -11   -1    0    0    0    0  0.00000000000E+00  0.00000000000E+00  0.45593999997E+02  0.45594000000E+02  0.51100000000E-03 0.  1.
         11   -1    0    0    0    0 -0.00000000000E+00 -0.00000000000E+00 -0.45593999997E+02  0.45594000000E+02  0.51100000000E-03 0. -1.
    9900012    2    1    2    0    0  0.30855881407E+01  0.21006948612E+02 -0.37852479329E+02  0.47787274943E+02  0.20000017774E+02 0.  0.
        -12    1    1    2    0    0 -0.30855881407E+01 -0.21006948612E+02  0.37852479329E+02  0.43400725057E+02  0.00000000000E+00 0.  1.
         11    1    3    3    0    0  0.62058718734E+01  0.13733692101E+02 -0.27245462703E+02  0.31135869710E+02  0.51100000000E-03 0. -1.
        -11    1    3    3    0    0 -0.11107657017E+01  0.24491468617E+01  0.17678743852E+01  0.32183071477E+01  0.51100000000E-03 0.  1.
        -12    1    3    3    0    0 -0.20095180310E+01  0.48241096486E+01 -0.12374891011E+02  0.13433098085E+02  0.00000000000E+00 0.  1.
</event>
<event>
 7    1  0.3062695E-010  0.4778727E+02  0.7816164E-02  0.1312668E+00
        -11   -1    0    0    0    0  0.00000000000E+00  0.00000000000E+00  0.45593999997E+02  0.45594000000E+02  0.51100000000E-03 0. -1.
         11   -1    0    0    0    0 -0.00000000000E+00 -0.00000000000E+00 -0.45593999997E+02  0.45594000000E+02  0.51100000000E-03 0.  1.
    9900012    2    1    2    0    0  0.37363792975E+02 -0.68155067566E+01  0.21002833895E+02  0.47787272017E+02  0.20000004433E+02 0.  0.
        -12    1    1    2    0    0 -0.37363792975E+02  0.68155067566E+01 -0.21002833895E+02  0.43400727983E+02  0.00000000000E+00 0.  1.
         11    1    3    3    0    0  0.80923774864E+01  0.39422700767E+01  0.88621060482E+01  0.12631903681E+02  0.51100000000E-03 0. -1.
        -11    1    3    3    0    0  0.29795727238E+02 -0.94863238585E+01  0.12589592190E+02  0.33708656659E+02  0.51100000000E-03 0.  1.
         12    1    3    3    0    0 -0.52431174853E+00 -0.12714529748E+01 -0.44886434341E+00  0.14467116767E+01  0.00000000000E+00 0. -1.
</event>
<event>
 7    1  0.3062695E-010  0.4778727E+02  0.7816164E-02  0.1312668E+00
        -11   -1    0    0    0    0  0.00000000000E+00  0.00000000000E+00  0.45593999997E+02  0.45594000000E+02  0.51100000000E-03 0. -1.
         11   -1    0    0    0    0 -0.00000000000E+00 -0.00000000000E+00 -0.45593999997E+02  0.45594000000E+02  0.51100000000E-03 0.  1.
    9900012    2    1    2    0    0  0.32833467116E+02  0.21552739731E+02  0.18467974137E+02  0.47787271648E+02  0.20000002753E+02 0.  0.
        -12    1    1    2    0    0 -0.32833467116E+02 -0.21552739731E+02 -0.18467974137E+02  0.43400728352E+02  0.00000000000E+00 0.  1.
         11    1    3    3    0    0  0.28343634462E+02  0.17271996029E+02  0.21140864210E+02  0.39352504382E+02  0.51100000000E-03 0. -1.
        -11    1    3    3    0    0  0.19662739974E+01 -0.64249534335E+00 -0.19724972911E+01  0.28582826178E+01  0.51100000000E-03 0.  1.
         12    1    3    3    0    0  0.25235586569E+01  0.49232390448E+01 -0.70039278182E+00  0.55764846486E+01  0.00000000000E+00 0. -1.
</event>
<event>
 7    1  0.3062695E-010  0.4778727E+02  0.7816164E-02  0.1312668E+00
        -11   -1    0    0    0    0  0.00000000000E+00  0.00000000000E+00  0.45593999997E+02  0.45594000000E+02  0.51100000000E-03 0.  1.
         11   -1    0    0    0    0 -0.00000000000E+00 -0.00000000000E+00 -0.45593999997E+02  0.45594000000E+02  0.51100000000E-03 0. -1.
    9900012    2    1    2    0    0  0.36080883761E+02  0.23142311411E+02  0.67989994643E+01  0.47787272539E+02  0.20000006813E+02 0.  0.
        -12    1    1    2    0    0 -0.36080883761E+02 -0.23142311411E+02 -0.67989994643E+01  0.43400727461E+02  0.00000000000E+00 0.  1.
         11    1    3    3    0    0  0.11035503734E+02  0.17547654856E+02  0.44668917793E+01  0.21205085617E+02  0.51100000000E-03 0. -1.
        -11    1    3    3    0    0  0.23431852980E+02  0.43021598542E+01  0.51396368102E+00  0.23829067804E+02  0.51100000000E-03 0.  1.
         12    1    3    3    0    0  0.16135270478E+01  0.12924967009E+01  0.18181440040E+01  0.27531191175E+01  0.00000000000E+00 0. -1.
</event>
<event>
 7    1  0.3845436E-010  0.4778728E+02  0.7816164E-02  0.1312668E+00
        -11   -1    0    0    0    0  0.00000000000E+00  0.00000000000E+00  0.45593999997E+02  0.45594000000E+02  0.51100000000E-03 0. -1.
         11   -1    0    0    0    0 -0.00000000000E+00 -0.00000000000E+00 -0.45593999997E+02  0.45594000000E+02  0.51100000000E-03 0.  1.
    9900012    2    1    2    0    0  0.39344004184E+02 -0.14272959301E+02  0.11487137242E+02  0.47787281636E+02  0.20000048292E+02 0.  0.
        -12    1    1    2    0    0 -0.39344004184E+02  0.14272959301E+02 -0.11487137242E+02  0.43400718364E+02  0.00000000000E+00 0.  1.
         11    1    3    3    0    0  0.11540985537E+02 -0.66995591232E+01  0.46059698375E+01  0.14117131367E+02  0.51100000000E-03 0. -1.
        -11    1    3    3    0    0  0.93498639439E+01 -0.93234098265E+00  0.10101186655E+02  0.13795767016E+02  0.51100000000E-03 0.  1.
        -12    1    3    3    0    0  0.18453154703E+02 -0.66410591947E+01 -0.32200192498E+01  0.19874383253E+02  0.00000000000E+00 0.  1.
</event>
<event>
 7    1  0.3062695E-010  0.4778727E+02  0.7816164E-02  0.1312668E+00
        -11   -1    0    0    0    0  0.00000000000E+00  0.00000000000E+00  0.45593999997E+02  0.45594000000E+02  0.51100000000E-03 0.  1.
         11   -1    0    0    0    0 -0.00000000000E+00 -0.00000000000E+00 -0.45593999997E+02  0.45594000000E+02  0.51100000000E-03 0. -1.
    9900012    2    1    2    0    0  0.24657145709E+02 -0.44132265233E+01 -0.35442522322E+02  0.47787265082E+02  0.19999972816E+02 0.  0.
        -12    1    1    2    0    0 -0.24657145709E+02  0.44132265233E+01  0.35442522322E+02  0.43400734918E+02  0.00000000000E+00 0.  1.
         11    1    3    3    0    0  0.76772074055E+01  0.11953281658E+01 -0.15267204745E+02  0.17130553522E+02  0.51100000000E-03 0. -1.
        -11    1    3    3    0    0  0.15658739221E+02 -0.11356345488E+01 -0.80040701949E+01  0.17622454987E+02  0.51100000000E-03 0.  1.
        -12    1    3    3    0    0  0.13211990827E+01 -0.44729201403E+01 -0.12171247382E+02  0.13034256573E+02  0.00000000000E+00 0.  1.
</event>
<event>
 7    1  0.3062695E-010  0.4778727E+02  0.7816164E-02  0.1312668E+00
        -11   -1    0    0    0    0  0.00000000000E+00  0.00000000000E+00  0.45593999997E+02  0.45594000000E+02  0.51100000000E-03 0.  1.
         11   -1    0    0    0    0 -0.00000000000E+00 -0.00000000000E+00 -0.45593999997E+02  0.45594000000E+02  0.51100000000E-03 0. -1.
    9900012    2    1    2    0    0  0.38667357883E+02  0.30897892977E+01 -0.19465672273E+02  0.47787265438E+02  0.19999974437E+02 0.  0.
        -12    1    1    2    0    0 -0.38667357883E+02 -0.30897892977E+01  0.19465672273E+02  0.43400734562E+02  0.00000000000E+00 0.  1.
         11    1    3    3    0    0  0.18504115861E+02 -0.15738523772E+00 -0.12572417067E+02  0.22371695177E+02  0.51100000000E-03 0. -1.
        -11    1    3    3    0    0  0.33042185941E+01  0.67624018206E+00  0.39595161959E+01  0.52012431272E+01  0.51100000000E-03 0.  1.
         12    1    3    3    0    0  0.16859023428E+02  0.25709343533E+01 -0.10852771401E+02  0.20214327134E+02  0.00000000000E+00 0. -1.
</event>
<event>
 7    1  0.3062695E-010  0.4778727E+02  0.7816164E-02  0.1312668E+00
        -11   -1    0    0    0    0  0.00000000000E+00  0.00000000000E+00  0.45593999997E+02  0.45594000000E+02  0.51100000000E-03 0.  1.
         11   -1    0    0    0    0 -0.00000000000E+00 -0.00000000000E+00 -0.45593999997E+02  0.45594000000E+02  0.51100000000E-03 0. -1.
    9900012    2    1    2    0    0 -0.12584319160E+02 -0.27750406834E+01 -0.41443423449E+02  0.47787270897E+02  0.19999999326E+02 0.  0.
        -12    1    1    2    0    0  0.12584319160E+02  0.27750406834E+01  0.41443423449E+02  0.43400729103E+02  0.00000000000E+00 0.  1.
         11    1    3    3    0    0 -0.11062342446E+02 -0.41429323580E+01 -0.42163252051E+02  0.43786746085E+02  0.51100000000E-03 0. -1.
        -11    1    3    3    0    0 -0.21299415488E+01  0.20371355039E+01  0.19194321156E+00  0.29535427066E+01  0.51100000000E-03 0.  1.
         12    1    3    3    0    0  0.60796483461E+00 -0.66924382934E+00  0.52788539018E+00  0.10469821051E+01  0.00000000000E+00 0. -1.
</event>
<event>
 7    1  0.3062695E-010  0.4778730E+02  0.7816164E-02  0.1312668E+00
        -11   -1    0    0    0    0  0.00000000000E+00  0.00000000000E+00  0.45593999997E+02  0.45594000000E+02  0.51100000000E-03 0.  1.
         11   -1    0    0    0    0 -0.00000000000E+00 -0.00000000000E+00 -0.45593999997E+02  0.45594000000E+02  0.51100000000E-03 0. -1.
    9900012    2    1    2    0    0 -0.34935387621E+02 -0.22419567612E+02 -0.12668959963E+02  0.47787298777E+02  0.20000126444E+02 0.  0.
        -12    1    1    2    0    0  0.34935387621E+02  0.22419567612E+02  0.12668959963E+02  0.43400701223E+02  0.00000000000E+00 0.  1.
         11    1    3    3    0    0 -0.23944750069E+02 -0.21679239928E+02 -0.10847773551E+02  0.34073665653E+02  0.51100000000E-03 0. -1.
        -11    1    3    3    0    0 -0.91167605289E+00  0.23840409231E+01  0.10776453680E+01  0.27705819152E+01  0.51100000000E-03 0.  1.
         12    1    3    3    0    0 -0.10078961498E+02 -0.31243686071E+01 -0.28988317798E+01  0.10943051209E+02  0.00000000000E+00 0. -1.
</event>
<event>
 7    1  0.3062695E-010  0.4778728E+02  0.7816164E-02  0.1312668E+00
        -11   -1    0    0    0    0  0.00000000000E+00  0.00000000000E+00  0.45593999997E+02  0.45594000000E+02  0.51100000000E-03 0.  1.
         11   -1    0    0    0    0 -0.00000000000E+00 -0.00000000000E+00 -0.45593999997E+02  0.45594000000E+02  0.51100000000E-03 0. -1.
    9900012    2    1    2    0    0 -0.23339342892E+01  0.79918337678E+01 -0.42594671674E+02  0.47787277526E+02  0.20000029551E+02 0.  0.
        -12    1    1    2    0    0  0.23339342892E+01 -0.79918337678E+01  0.42594671674E+02  0.43400722474E+02  0.00000000000E+00 0.  1.
         11    1    3    3    0    0 -0.11300377879E+01 -0.13083013482E+01 -0.27656305661E+02  0.27710284749E+02  0.51100000000E-03 0. -1.
        -11    1    3    3    0    0  0.16221205037E+01  0.10235030290E+02 -0.10677748268E+02  0.14879564117E+02  0.51100000000E-03 0.  1.
         12    1    3    3    0    0 -0.28260170050E+01 -0.93489517430E+00 -0.42606177458E+01  0.51974286600E+01  0.00000000000E+00 0. -1.
</event>
<event>
 7    1  0.3062695E-010  0.4778727E+02  0.7816164E-02  0.1312668E+00
        -11   -1    0    0    0    0  0.00000000000E+00  0.00000000000E+00  0.45593999997E+02  0.45594000000E+02  0.51100000000E-03 0.  1.
         11   -1    0    0    0    0 -0.00000000000E+00 -0.00000000000E+00 -0.45593999997E+02  0.45594000000E+02  0.51100000000E-03 0. -1.
    9900012    2    1    2    0    0  0.11343624693E+02  0.20132804332E+02 -0.36737115652E+02  0.47787270768E+02  0.19999998740E+02 0.  0.
        -12    1    1    2    0    0 -0.11343624693E+02 -0.20132804332E+02  0.36737115652E+02  0.43400729232E+02  0.00000000000E+00 0.  1.
         11    1    3    3    0    0 -0.20642684764E+01  0.11491825792E+00 -0.11119467857E+02  0.11310038737E+02  0.51100000000E-03 0. -1.
        -11    1    3    3    0    0  0.10528220379E+02  0.20492352969E+02 -0.22399808584E+02  0.32133026303E+02  0.51100000000E-03 0.  1.
        -12    1    3    3    0    0  0.28796727913E+01 -0.47446689477E+00 -0.32178392108E+01  0.43442057279E+01  0.00000000000E+00 0.  1.
</event>
<event>
 7    1  0.3062695E-010  0.4778727E+02  0.7816164E-02  0.1312668E+00
        -11   -1    0    0    0    0  0.00000000000E+00  0.00000000000E+00  0.45593999997E+02  0.45594000000E+02  0.51100000000E-03 0. -1.
         11   -1    0    0    0    0 -0.00000000000E+00 -0.00000000000E+00 -0.45593999997E+02  0.45594000000E+02  0.51100000000E-03 0.  1.
    9900012    2    1    2    0    0 -0.25487612158E+02  0.28017671705E+02  0.21189978411E+02  0.47787268596E+02  0.19999988839E+02 0.  0.
        -12    1    1    2    0    0  0.25487612158E+02 -0.28017671705E+02 -0.21189978411E+02  0.43400731404E+02  0.00000000000E+00 0.  1.
         11    1    3    3    0    0 -0.81449736749E+01  0.13109495393E+02  0.16749910463E+02  0.22776280785E+02  0.51100000000E-03 0. -1.
        -11    1    3    3    0    0 -0.75073287832E+01  0.10662790985E+02 -0.84083715021E+00  0.13067597500E+02  0.51100000000E-03 0.  1.
         12    1    3    3    0    0 -0.98353096999E+01  0.42453853278E+01  0.52809050977E+01  0.11943390311E+02  0.00000000000E+00 0. -1.
</event>
<event>
 7    1  0.3062695E-010  0.4778728E+02  0.7816164E-02  0.1312668E+00
        -11   -1    0    0    0    0  0.00000000000E+00  0.00000000000E+00  0.45593999997E+02  0.45594000000E+02  0.51100000000E-03 0.  1.
         11   -1    0    0    0    0 -0.00000000000E+00 -0.00000000000E+00 -0.45593999997E+02  0.45594000000E+02  0.51100000000E-03 0. -1.
    9900012    2    1    2    0    0 -0.18466588501E+02  0.25800231882E+02 -0.29613431242E+02  0.47787283808E+02  0.20000058195E+02 0.  0.
        -12    1    1    2    0    0  0.18466588501E+02 -0.25800231882E+02  0.29613431242E+02  0.43400716192E+02  0.00000000000E+00 0.  1.
         11    1    3    3    0    0 -0.10918178801E+02  0.12040491366E+01 -0.85267191919E+01  0.13905441492E+02  0.51100000000E-03 0. -1.
        -11    1    3    3    0    0  0.52752407996E+00  0.12206548287E+01  0.75998785028E-01  0.13319369138E+01  0.51100000000E-03 0.  1.
         12    1    3    3    0    0 -0.80759337806E+01  0.23375527916E+02 -0.21162710835E+02  0.32549905402E+02  0.00000000000E+00 0. -1.
</event>
<event>
 7    1  0.3062695E-010  0.4778728E+02  0.7816164E-02  0.1312668E+00
        -11   -1    0    0    0    0  0.00000000000E+00  0.00000000000E+00  0.45593999997E+02  0.45594000000E+02  0.51100000000E-03 0.  1.
         11   -1    0    0    0    0 -0.00000000000E+00 -0.00000000000E+00 -0.45593999997E+02  0.45594000000E+02  0.51100000000E-03 0. -1.
    9900012    2    1    2    0    0  0.29408251721E+02 -0.18451722146E+02 -0.26044409792E+02  0.47787278798E+02  0.20000035352E+02 0.  0.
        -12    1    1    2    0    0 -0.29408251721E+02  0.18451722146E+02  0.26044409792E+02  0.43400721202E+02  0.00000000000E+00 0.  1.
         11    1    3    3    0    0  0.19651293559E+02 -0.84304496609E+01 -0.22421396109E+02  0.30983299110E+02  0.51100000000E-03 0. -1.
        -11    1    3    3    0    0  0.35231348103E+01 -0.38836931565E+01 -0.57695004362E+01  0.77963252221E+01  0.51100000000E-03 0.  1.
         12    1    3    3    0    0  0.62338233519E+01 -0.61375793284E+01  0.21464867531E+01  0.90076544659E+01  0.00000000000E+00 0. -1.
</event>
<event>
 7    1  0.3062695E-010  0.4778729E+02  0.7816164E-02  0.1312668E+00
        -11   -1    0    0    0    0  0.00000000000E+00  0.00000000000E+00  0.45593999997E+02  0.45594000000E+02  0.51100000000E-03 0.  1.
         11   -1    0    0    0    0 -0.00000000000E+00 -0.00000000000E+00 -0.45593999997E+02  0.45594000000E+02  0.51100000000E-03 0. -1.
    9900012    2    1    2    0    0  0.40266518634E+02 -0.75226441779E+01 -0.14340127208E+02  0.47787286335E+02  0.20000069714E+02 0.  0.
        -12    1    1    2    0    0 -0.40266518634E+02  0.75226441779E+01  0.14340127208E+02  0.43400713665E+02  0.00000000000E+00 0.  1.
         11    1    3    3    0    0  0.26836928548E+02 -0.11800433954E+02 -0.15907456703E+02  0.33354432305E+02  0.51100000000E-03 0. -1.
        -11    1    3    3    0    0  0.99898207213E+01  0.19254308104E+01  0.13105305951E+01  0.10257743053E+02  0.51100000000E-03 0.  1.
         12    1    3    3    0    0  0.34397693644E+01  0.23523589663E+01  0.25679889919E+00  0.41751109759E+01  0.00000000000E+00 0. -1.
</event>
<event>
 7    1  0.3062695E-010  0.4778729E+02  0.7816164E-02  0.1312668E+00
        -11   -1    0    0    0    0  0.00000000000E+00  0.00000000000E+00  0.45593999997E+02  0.45594000000E+02  0.51100000000E-03 0. -1.
         11   -1    0    0    0    0 -0.00000000000E+00 -0.00000000000E+00 -0.45593999997E+02  0.45594000000E+02  0.51100000000E-03 0.  1.
    9900012    2    1    2    0    0 -0.31110448185E+02  0.17030264009E+02 -0.25014629280E+02  0.47787290830E+02  0.20000090209E+02 0.  0.
        -12    1    1    2    0    0  0.31110448185E+02 -0.17030264009E+02  0.25014629280E+02  0.43400709170E+02  0.00000000000E+00 0.  1.
         11    1    3    3    0    0 -0.12550576193E+02 -0.14553419970E+01 -0.57131129229E+01  0.13866313231E+02  0.51100000000E-03 0. -1.
        -11    1    3    3    0    0  0.74265755900E+00  0.55232082557E+00 -0.25161131419E+01  0.26809371773E+01  0.51100000000E-03 0.  1.
         12    1    3    3    0    0 -0.19302529551E+02  0.17933285180E+02 -0.16785403215E+02  0.31240040421E+02  0.00000000000E+00 0. -1.
</event>
<event>
 7    1  0.3062695E-010  0.4778727E+02  0.7816164E-02  0.1312668E+00
        -11   -1    0    0    0    0  0.00000000000E+00  0.00000000000E+00  0.45593999997E+02  0.45594000000E+02  0.51100000000E-03 0. -1.
         11   -1    0    0    0    0 -0.00000000000E+00 -0.00000000000E+00 -0.45593999997E+02  0.45594000000E+02  0.51100000000E-03 0.  1.
    9900012    2    1    2    0    0 -0.15793534018E+02 -0.37298179074E+02 -0.15589526517E+02  0.47787271711E+02  0.20000003037E+02 0.  0.
        -12    1    1    2    0    0  0.15793534018E+02  0.37298179074E+02  0.15589526517E+02  0.43400728289E+02  0.00000000000E+00 0.  1.
         11    1    3    3    0    0  0.24392721614E+01 -0.89003097354E+01 -0.27545597918E+01  0.96308443021E+01  0.51100000000E-03 0. -1.
        -11    1    3    3    0    0 -0.95874318096E+01 -0.64280405167E+01 -0.58436109978E+00  0.11557682802E+02  0.51100000000E-03 0.  1.
        -12    1    3    3    0    0 -0.86453743699E+01 -0.21969828822E+02 -0.12250605625E+02  0.26598744607E+02  0.00000000000E+00 0.  1.
</event>
<event>
 7    1  0.3062695E-010  0.4778727E+02  0.7816164E-02  0.1312668E+00
        -11   -1    0    0    0    0  0.00000000000E+00  0.00000000000E+00  0.45593999997E+02  0.45594000000E+02  0.51100000000E-03 0.  1.
         11   -1    0    0    0    0 -0.00000000000E+00 -0.00000000000E+00 -0.45593999997E+02  0.45594000000E+02  0.51100000000E-03 0. -1.
    9900012    2    1    2    0    0  0.18123647234E+02  0.44641489317E+01 -0.39181984215E+02  0.47787273028E+02  0.20000009042E+02 0.  0.
        -12    1    1    2    0    0 -0.18123647234E+02 -0.44641489317E+01  0.39181984215E+02  0.43400726972E+02  0.00000000000E+00 0.  1.
         11    1    3    3    0    0  0.98611813924E+01 -0.30287688754E+01 -0.27883105707E+02  0.29730185392E+02  0.51100000000E-03 0. -1.
        -11    1    3    3    0    0  0.27764163512E+01  0.79787086356E-01  0.75646347432E+00  0.28787307939E+01  0.51100000000E-03 0.  1.
        -12    1    3    3    0    0  0.54860494899E+01  0.74131307207E+01 -0.12055341982E+02  0.15178356841E+02  0.00000000000E+00 0.  1.
</event>
<event>
 7    1  0.3062695E-010  0.4778727E+02  0.7816164E-02  0.1312668E+00
        -11   -1    0    0    0    0  0.00000000000E+00  0.00000000000E+00  0.45593999997E+02  0.45594000000E+02  0.51100000000E-03 0.  1.
         11   -1    0    0    0    0 -0.00000000000E+00 -0.00000000000E+00 -0.45593999997E+02  0.45594000000E+02  0.51100000000E-03 0. -1.
    9900012    2    1    2    0    0 -0.71793077320E+01 -0.19089107256E+01 -0.42760230777E+02  0.47787265723E+02  0.19999975739E+02 0.  0.
        -12    1    1    2    0    0  0.71793077320E+01  0.19089107256E+01  0.42760230777E+02  0.43400734277E+02  0.00000000000E+00 0.  1.
         11    1    3    3    0    0 -0.91073806943E+01 -0.66717703907E+01 -0.19692992802E+02  0.22699578609E+02  0.51100000000E-03 0. -1.
        -11    1    3    3    0    0  0.71191837217E+00  0.59889465111E+01 -0.85217713084E+01  0.10440062001E+02  0.51100000000E-03 0.  1.
        -12    1    3    3    0    0  0.12161545901E+01 -0.12260868460E+01 -0.14545466666E+02  0.14647625114E+02  0.00000000000E+00 0.  1.
</event>
<event>
 7    1  0.3518384E-010  0.4778727E+02  0.7816164E-02  0.1312668E+00
        -11   -1    0    0    0    0  0.00000000000E+00  0.00000000000E+00  0.45593999997E+02  0.45594000000E+02  0.51100000000E-03 0.  1.
         11   -1    0    0    0    0 -0.00000000000E+00 -0.00000000000E+00 -0.45593999997E+02  0.45594000000E+02  0.51100000000E-03 0. -1.
    9900012    2    1    2    0    0 -0.26865668219E+02  0.34076748031E+02 -0.79643939241E+00  0.47787271885E+02  0.20000003832E+02 0.  0.
        -12    1    1    2    0    0  0.26865668219E+02 -0.34076748031E+02  0.79643939241E+00  0.43400728115E+02  0.00000000000E+00 0.  1.
         11    1    3    3    0    0 -0.21408695949E+02  0.21832325129E+02  0.41889050754E+00  0.30580355660E+02  0.51100000000E-03 0. -1.
        -11    1    3    3    0    0  0.16773824811E+01  0.77039558983E+01  0.20420666893E+01  0.81446046617E+01  0.51100000000E-03 0.  1.
        -12    1    3    3    0    0 -0.71343547510E+01  0.45404670038E+01 -0.32573965893E+01  0.90623115631E+01  0.00000000000E+00 0.  1.
</event>
<event>
 7    1  0.3062695E-010  0.4778725E+02  0.7816164E-02  0.1312668E+00
        -11   -1    0    0    0    0  0.00000000000E+00  0.00000000000E+00  0.45593999997E+02  0.45594000000E+02  0.51100000000E-03 0.  1.
         11   -1    0    0    0    0 -0.00000000000E+00 -0.00000000000E+00 -0.45593999997E+02  0.45594000000E+02  0.51100000000E-03 0. -1.
    9900012    2    1    2    0    0  0.10535444081E+02 -0.24129706381E+02 -0.34501983413E+02  0.47787249183E+02  0.19999900326E+02 0.  0.
        -12    1    1    2    0    0 -0.10535444081E+02  0.24129706381E+02  0.34501983413E+02  0.43400750817E+02  0.00000000000E+00 0.  1.
         11    1    3    3    0    0  0.33993139091E+01 -0.21348344232E+01 -0.34853909401E+01  0.53160891013E+01  0.51100000000E-03 0. -1.
        -11    1    3    3    0    0  0.11976897954E+02 -0.20838898155E+02 -0.25569696581E+02  0.35092950067E+02  0.51100000000E-03 0.  1.
        -12    1    3    3    0    0 -0.48407677828E+01 -0.11559738022E+01 -0.54468958926E+01  0.73782100148E+01  0.00000000000E+00 0.  1.
</event>
<event>
 7    1  0.3062695E-010  0.4778727E+02  0.7816164E-02  0.1312668E+00
        -11   -1    0    0    0    0  0.00000000000E+00  0.00000000000E+00  0.45593999997E+02  0.45594000000E+02  0.51100000000E-03 0. -1.
         11   -1    0    0    0    0 -0.00000000000E+00 -0.00000000000E+00 -0.45593999997E+02  0.45594000000E+02  0.51100000000E-03 0.  1.
    9900012    2    1    2    0    0  0.31960262350E+02  0.63147506304E+01  0.28675580806E+02  0.47787269827E+02  0.19999994450E+02 0.  0.
        -12    1    1    2    0    0 -0.31960262350E+02 -0.63147506304E+01 -0.28675580806E+02  0.43400730173E+02  0.00000000000E+00 0.  1.
         11    1    3    3    0    0  0.63639997413E+01  0.36309010321E+01  0.88020709732E-01  0.73274608779E+01  0.51100000000E-03 0.  1.
        -11    1    3    3    0    0  0.15552784181E+02  0.43280275708E+01  0.24818617362E+02  0.29607172888E+02  0.51100000000E-03 0. -1.
         12    1    3    3    0    0  0.10043478428E+02 -0.16441779725E+01  0.37689427341E+01  0.10852636061E+02  0.00000000000E+00 0. -1.
</event>
<event>
 7    1  0.3062695E-010  0.4778728E+02  0.7816164E-02  0.1312668E+00
        -11   -1    0    0    0    0  0.00000000000E+00  0.00000000000E+00  0.45593999997E+02  0.45594000000E+02  0.51100000000E-03 0.  1.
         11   -1    0    0    0    0 -0.00000000000E+00 -0.00000000000E+00 -0.45593999997E+02  0.45594000000E+02  0.51100000000E-03 0. -1.
    9900012    2    1    2    0    0  0.30058185051E+02  0.32825439436E+01 -0.31134437730E+02  0.47787276549E+02  0.20000025097E+02 0.  0.
        -12    1    1    2    0    0 -0.30058185051E+02 -0.32825439436E+01  0.31134437730E+02  0.43400723451E+02  0.00000000000E+00 0.  1.
         11    1    3    3    0    0  0.17056639949E+02  0.58246850666E+01 -0.12730474932E+02  0.22066284570E+02  0.51100000000E-03 0. -1.
        -11    1    3    3    0    0  0.75877716953E+01 -0.26978345391E+01 -0.18634394949E+02  0.20300080440E+02  0.51100000000E-03 0.  1.
         12    1    3    3    0    0  0.54137734063E+01  0.15569341619E+00  0.23043215007E+00  0.54209115387E+01  0.00000000000E+00 0. -1.
</event>
<event>
 7    1  0.3062695E-010  0.4778727E+02  0.7816164E-02  0.1312668E+00
        -11   -1    0    0    0    0  0.00000000000E+00  0.00000000000E+00  0.45593999997E+02  0.45594000000E+02  0.51100000000E-03 0.  1.
         11   -1    0    0    0    0 -0.00000000000E+00 -0.00000000000E+00 -0.45593999997E+02  0.45594000000E+02  0.51100000000E-03 0. -1.
    9900012    2    1    2    0    0  0.92746276075E+00 -0.33550027925E+02 -0.27516520701E+02  0.47787268758E+02  0.19999989573E+02 0.  0.
        -12    1    1    2    0    0 -0.92746276075E+00  0.33550027925E+02  0.27516520701E+02  0.43400731242E+02  0.00000000000E+00 0.  1.
         11    1    3    3    0    0 -0.28430051964E+01 -0.20350773012E+02 -0.82462845938E+01  0.22141315467E+02  0.51100000000E-03 0. -1.
        -11    1    3    3    0    0  0.56334086993E+01 -0.31490103798E+01 -0.53918976153E+01  0.84097633796E+01  0.51100000000E-03 0.  1.
         12    1    3    3    0    0 -0.18629407422E+01 -0.10050244533E+02 -0.13878338491E+02  0.17236189911E+02  0.00000000000E+00 0. -1.
</event>
<event>
 7    1  0.3062695E-010  0.4778727E+02  0.7816164E-02  0.1312668E+00
        -11   -1    0    0    0    0  0.00000000000E+00  0.00000000000E+00  0.45593999997E+02  0.45594000000E+02  0.51100000000E-03 0. -1.
         11   -1    0    0    0    0 -0.00000000000E+00 -0.00000000000E+00 -0.45593999997E+02  0.45594000000E+02  0.51100000000E-03 0.  1.
    9900012    2    1    2    0    0  0.23884393680E+02  0.26951004326E+02  0.24224003523E+02  0.47787271408E+02  0.20000001658E+02 0.  0.
        -12    1    1    2    0    0 -0.23884393680E+02 -0.26951004326E+02 -0.24224003523E+02  0.43400728592E+02  0.00000000000E+00 0.  1.
         11    1    3    3    0    0  0.89463131677E+01  0.85063163923E+01  0.15947736635E+01  0.12447378887E+02  0.51100000000E-03 0. -1.
        -11    1    3    3    0    0 -0.17298830735E+00  0.67953809143E+01  0.11191538385E+02  0.13094184144E+02  0.51100000000E-03 0.  1.
        -12    1    3    3    0    0  0.15111068820E+02  0.11649307019E+02  0.11437691474E+02  0.22245708376E+02  0.00000000000E+00 0.  1.
</event>
<event>
 7    1  0.3062695E-010  0.4778727E+02  0.7816164E-02  0.1312668E+00
        -11   -1    0    0    0    0  0.00000000000E+00  0.00000000000E+00  0.45593999997E+02  0.45594000000E+02  0.51100000000E-03 0. -1.
         11   -1    0    0    0    0 -0.00000000000E+00 -0.00000000000E+00 -0.45593999997E+02  0.45594000000E+02  0.51100000000E-03 0.  1.
    9900012    2    1    2    0    0  0.43039774426E+02 -0.36499940690E+00  0.55738703992E+01  0.47787269148E+02  0.19999991355E+02 0.  0.
        -12    1    1    2    0    0 -0.43039774426E+02  0.36499940690E+00 -0.55738703992E+01  0.43400730852E+02  0.00000000000E+00 0.  1.
         11    1    3    3    0    0  0.10749820725E+02  0.79638816298E+01  0.92736224100E+00  0.13410520394E+02  0.51100000000E-03 0.  1.
        -11    1    3    3    0    0  0.69320122180E+01  0.78213930944E+00  0.22290456064E+01  0.73234677487E+01  0.51100000000E-03 0. -1.
         12    1    3    3    0    0  0.25357941483E+02 -0.91110203462E+01  0.24174625518E+01  0.27053281006E+02  0.00000000000E+00 0. -1.
</event>
<event>
 7    1  0.3062695E-010  0.4778727E+02  0.7816164E-02  0.1312668E+00
        -11   -1    0    0    0    0  0.00000000000E+00  0.00000000000E+00  0.45593999997E+02  0.45594000000E+02  0.51100000000E-03 0.  1.
         11   -1    0    0    0    0 -0.00000000000E+00 -0.00000000000E+00 -0.45593999997E+02  0.45594000000E+02  0.51100000000E-03 0. -1.
    9900012    2    1    2    0    0  0.57475412928E+00 -0.41670190438E+02  0.12119741336E+02  0.47787271395E+02  0.20000001597E+02 0.  0.
        -12    1    1    2    0    0 -0.57475412928E+00  0.41670190438E+02 -0.12119741336E+02  0.43400728605E+02  0.00000000000E+00 0.  1.
         11    1    3    3    0    0  0.28672248153E+01 -0.27461479562E+02 -0.44763369281E+00  0.27614384188E+02  0.51100000000E-03 0. -1.
        -11    1    3    3    0    0 -0.42128296948E+00 -0.60837375428E+01  0.94999820721E+01  0.11288888407E+02  0.51100000000E-03 0.  1.
        -12    1    3    3    0    0 -0.18711877165E+01 -0.81249733327E+01  0.30673929572E+01  0.88839988002E+01  0.00000000000E+00 0.  1.
</event>
<event>
 7    1  0.3062695E-010  0.4778728E+02  0.7816164E-02  0.1312668E+00
        -11   -1    0    0    0    0  0.00000000000E+00  0.00000000000E+00  0.45593999997E+02  0.45594000000E+02  0.51100000000E-03 0.  1.
         11   -1    0    0    0    0 -0.00000000000E+00 -0.00000000000E+00 -0.45593999997E+02  0.45594000000E+02  0.51100000000E-03 0. -1.
    9900012    2    1    2    0    0 -0.87270762085E+01  0.27320425785E+02 -0.32573841131E+02  0.47787278229E+02  0.20000032756E+02 0.  0.
        -12    1    1    2    0    0  0.87270762085E+01 -0.27320425785E+02  0.32573841131E+02  0.43400721771E+02  0.00000000000E+00 0.  1.
         11    1    3    3    0    0  0.17252810536E+01  0.14432612773E+02 -0.54471139952E+01  0.15522498424E+02  0.51100000000E-03 0. -1.
        -11    1    3    3    0    0 -0.82770061402E+01  0.66689190798E+01 -0.19306808352E+02  0.22039422890E+02  0.51100000000E-03 0.  1.
         12    1    3    3    0    0 -0.21753511219E+01  0.62188939321E+01 -0.78199187843E+01  0.10225356915E+02  0.00000000000E+00 0. -1.
</event>
<event>
 7    1  0.3062695E-010  0.4778727E+02  0.7816164E-02  0.1312668E+00
        -11   -1    0    0    0    0  0.00000000000E+00  0.00000000000E+00  0.45593999997E+02  0.45594000000E+02  0.51100000000E-03 0.  1.
         11   -1    0    0    0    0 -0.00000000000E+00 -0.00000000000E+00 -0.45593999997E+02  0.45594000000E+02  0.51100000000E-03 0. -1.
    9900012    2    1    2    0    0 -0.38479264153E+01 -0.24837204353E+02 -0.35382618470E+02  0.47787274804E+02  0.20000017140E+02 0.  0.
        -12    1    1    2    0    0  0.38479264153E+01  0.24837204353E+02  0.35382618470E+02  0.43400725196E+02  0.00000000000E+00 0.  1.
         11    1    3    3    0    0  0.45633157720E+01 -0.19954336799E+01 -0.38574534860E+01  0.62996471380E+01  0.51100000000E-03 0. -1.
        -11    1    3    3    0    0 -0.73895772667E+01 -0.19973028605E+02 -0.18812936160E+02  0.28415740199E+02  0.51100000000E-03 0.  1.
         12    1    3    3    0    0 -0.10216649206E+01 -0.28687420680E+01 -0.12712228824E+02  0.13071887466E+02  0.00000000000E+00 0. -1.
</event>
<event>
 7    1  0.3062695E-010  0.4778727E+02  0.7816164E-02  0.1312668E+00
        -11   -1    0    0    0    0  0.00000000000E+00  0.00000000000E+00  0.45593999997E+02  0.45594000000E+02  0.51100000000E-03 0.  1.
         11   -1    0    0    0    0 -0.00000000000E+00 -0.00000000000E+00 -0.45593999997E+02  0.45594000000E+02  0.51100000000E-03 0. -1.
    9900012    2    1    2    0    0  0.57712469823E+01  0.20982791081E+02 -0.37550484299E+02  0.47787266315E+02  0.19999978436E+02 0.  0.
        -12    1    1    2    0    0 -0.57712469823E+01 -0.20982791081E+02  0.37550484299E+02  0.43400733685E+02  0.00000000000E+00 0.  1.
         11    1    3    3    0    0  0.82536783718E+01  0.71560243283E+01 -0.86025061522E+01  0.13904495791E+02  0.51100000000E-03 0. -1.
        -11    1    3    3    0    0 -0.59165475807E+01  0.71579470636E+01 -0.10787835139E+02  0.14234434611E+02  0.51100000000E-03 0.  1.
         12    1    3    3    0    0  0.34341161912E+01  0.66688196893E+01 -0.18160143008E+02  0.19648335913E+02  0.00000000000E+00 0. -1.
</event>
<event>
 7    1  0.3062695E-010  0.4778727E+02  0.7816164E-02  0.1312668E+00
        -11   -1    0    0    0    0  0.00000000000E+00  0.00000000000E+00  0.45593999997E+02  0.45594000000E+02  0.51100000000E-03 0. -1.
         11   -1    0    0    0    0 -0.00000000000E+00 -0.00000000000E+00 -0.45593999997E+02  0.45594000000E+02  0.51100000000E-03 0.  1.
    9900012    2    1    2    0    0 -0.47244971952E+01  0.25543492035E+02  0.34768266883E+02  0.47787271422E+02  0.20000001721E+02 0.  0.
        -12    1    1    2    0    0  0.47244971952E+01 -0.25543492035E+02 -0.34768266883E+02  0.43400728578E+02  0.00000000000E+00 0.  1.
         11    1    3    3    0    0 -0.86525448752E+01  0.93435265013E+01  0.11714914294E+02  0.17303388035E+02  0.51100000000E-03 0. -1.
        -11    1    3    3    0    0  0.47807809669E+01  0.14730548365E+02  0.12803374445E+02  0.20094061790E+02  0.51100000000E-03 0.  1.
        -12    1    3    3    0    0 -0.85273328688E+00  0.14694171686E+01  0.10249978144E+02  0.10389821597E+02  0.00000000000E+00 0.  1.
</event>
<event>
 7    1  0.3062695E-010  0.4778727E+02  0.7816164E-02  0.1312668E+00
        -11   -1    0    0    0    0  0.00000000000E+00  0.00000000000E+00  0.45593999997E+02  0.45594000000E+02  0.51100000000E-03 0.  1.
         11   -1    0    0    0    0 -0.00000000000E+00 -0.00000000000E+00 -0.45593999997E+02  0.45594000000E+02  0.51100000000E-03 0. -1.
    9900012    2    1    2    0    0 -0.16621223165E+02  0.17634163953E+02 -0.36005478833E+02  0.47787270700E+02  0.19999998428E+02 0.  0.
        -12    1    1    2    0    0  0.16621223165E+02 -0.17634163953E+02  0.36005478833E+02  0.43400729300E+02  0.00000000000E+00 0.  1.
         11    1    3    3    0    0 -0.95931341658E+01  0.74072032561E+00 -0.10714439074E+02  0.14400558831E+02  0.51100000000E-03 0. -1.
        -11    1    3    3    0    0 -0.62633489171E+01  0.20771147546E+01 -0.10744634032E+02  0.12609167542E+02  0.51100000000E-03 0.  1.
         12    1    3    3    0    0 -0.76474008213E+00  0.14816328873E+02 -0.14546405727E+02  0.20777544326E+02  0.00000000000E+00 0. -1.
</event>
<event>
 7    1  0.3062695E-010  0.4778727E+02  0.7816164E-02  0.1312668E+00
        -11   -1    0    0    0    0  0.00000000000E+00  0.00000000000E+00  0.45593999997E+02  0.45594000000E+02  0.51100000000E-03 0.  1.
         11   -1    0    0    0    0 -0.00000000000E+00 -0.00000000000E+00 -0.45593999997E+02  0.45594000000E+02  0.51100000000E-03 0. -1.
    9900012    2    1    2    0    0 -0.23266499641E+02  0.35381849143E+02  0.95088357206E+01  0.47787271768E+02  0.20000003298E+02 0.  0.
        -12    1    1    2    0    0  0.23266499641E+02 -0.35381849143E+02 -0.95088357206E+01  0.43400728232E+02  0.00000000000E+00 0.  1.
         11    1    3    3    0    0 -0.48515104655E+01  0.22731678823E+02  0.10506520434E+01  0.23267364395E+02  0.51100000000E-03 0. -1.
        -11    1    3    3    0    0 -0.72269475687E+01  0.33625753681E+01  0.60452786320E+00  0.79938187661E+01  0.51100000000E-03 0.  1.
         12    1    3    3    0    0 -0.11188041607E+02  0.92875949516E+01  0.78536558139E+01  0.16526088606E+02  0.00000000000E+00 0. -1.
</event>
<event>
 7    1  0.3062695E-010  0.4778727E+02  0.7816164E-02  0.1312668E+00
        -11   -1    0    0    0    0  0.00000000000E+00  0.00000000000E+00  0.45593999997E+02  0.45594000000E+02  0.51100000000E-03 0.  1.
         11   -1    0    0    0    0 -0.00000000000E+00 -0.00000000000E+00 -0.45593999997E+02  0.45594000000E+02  0.51100000000E-03 0. -1.
    9900012    2    1    2    0    0  0.34651620866E+02  0.25912022530E+02  0.33846179259E+01  0.47787269836E+02  0.19999994491E+02 0.  0.
        -12    1    1    2    0    0 -0.34651620866E+02 -0.25912022530E+02 -0.33846179259E+01  0.43400730164E+02  0.00000000000E+00 0.  1.
         11    1    3    3    0    0  0.12564781952E+02  0.11224091336E+02 -0.25203768310E+01  0.17035441628E+02  0.51100000000E-03 0. -1.
        -11    1    3    3    0    0  0.11359424213E+02 -0.28619883119E-01  0.52880663033E+01  0.12530003314E+02  0.51100000000E-03 0.  1.
        -12    1    3    3    0    0  0.10727414701E+02  0.14716551078E+02  0.61692845360E+00  0.18221824895E+02  0.00000000000E+00 0.  1.
</event>
<event>
 7    1  0.3062695E-010  0.4778727E+02  0.7816164E-02  0.1312668E+00
        -11   -1    0    0    0    0  0.00000000000E+00  0.00000000000E+00  0.45593999997E+02  0.45594000000E+02  0.51100000000E-03 0.  1.
         11   -1    0    0    0    0 -0.00000000000E+00 -0.00000000000E+00 -0.45593999997E+02  0.45594000000E+02  0.51100000000E-03 0. -1.
    9900012    2    1    2    0    0 -0.23562370823E+02 -0.35975309944E+02 -0.58493522334E+01  0.47787272289E+02  0.20000005673E+02 0.  0.
        -12    1    1    2    0    0  0.23562370823E+02  0.35975309944E+02  0.58493522334E+01  0.43400727711E+02  0.00000000000E+00 0.  1.
         11    1    3    3    0    0 -0.12924317887E+02 -0.21227718773E+02 -0.93955983761E+01  0.26569367818E+02  0.51100000000E-03 0. -1.
        -11    1    3    3    0    0 -0.10345777114E+02 -0.96920973602E+01  0.62320424895E+01  0.15485806701E+02  0.51100000000E-03 0.  1.
        -12    1    3    3    0    0 -0.29227582214E+00 -0.50554938107E+01 -0.26857963468E+01  0.57320977699E+01  0.00000000000E+00 0.  1.
</event>
<event>
 7    1  0.3062695E-010  0.4778726E+02  0.7816164E-02  0.1312668E+00
        -11   -1    0    0    0    0  0.00000000000E+00  0.00000000000E+00  0.45593999997E+02  0.45594000000E+02  0.51100000000E-03 0.  1.
         11   -1    0    0    0    0 -0.00000000000E+00 -0.00000000000E+00 -0.45593999997E+02  0.45594000000E+02  0.51100000000E-03 0. -1.
    9900012    2    1    2    0    0 -0.38530023888E+02 -0.19975694672E+02 -0.18212960779E+00  0.47787259342E+02  0.19999946643E+02 0.  0.
        -12    1    1    2    0    0  0.38530023888E+02  0.19975694672E+02  0.18212960779E+00  0.43400740658E+02  0.00000000000E+00 0.  1.
         11    1    3    3    0    0 -0.88334212973E+01 -0.99617271400E+01  0.26583506436E+01  0.13576898314E+02  0.51100000000E-03 0. -1.
        -11    1    3    3    0    0 -0.11167833099E+02  0.10494333237E+01 -0.54532509646E+01  0.12472359551E+02  0.51100000000E-03 0.  1.
        -12    1    3    3    0    0 -0.18528769492E+02 -0.11063400856E+02  0.26127707132E+01  0.21738001476E+02  0.00000000000E+00 0.  1.
</event>
<event>
 7    1  0.3062695E-010  0.4778727E+02  0.7816164E-02  0.1312668E+00
        -11   -1    0    0    0    0  0.00000000000E+00  0.00000000000E+00  0.45593999997E+02  0.45594000000E+02  0.51100000000E-03 0.  1.
         11   -1    0    0    0    0 -0.00000000000E+00 -0.00000000000E+00 -0.45593999997E+02  0.45594000000E+02  0.51100000000E-03 0. -1.
    9900012    2    1    2    0    0  0.32056988532E+02 -0.11438279512E+02 -0.26928394343E+02  0.47787272197E+02  0.20000005255E+02 0.  0.
        -12    1    1    2    0    0 -0.32056988532E+02  0.11438279512E+02  0.26928394343E+02  0.43400727803E+02  0.00000000000E+00 0.  1.
         11    1    3    3    0    0  0.20390769731E+02 -0.74467305788E+01 -0.22140474603E+02  0.31007062138E+02  0.51100000000E-03 0. -1.
        -11    1    3    3    0    0  0.39522141253E+01  0.34663391639E+01 -0.72339570548E+00  0.53064870959E+01  0.51100000000E-03 0.  1.
        -12    1    3    3    0    0  0.77140046759E+01 -0.74578880966E+01 -0.40645240348E+01  0.11473722963E+02  0.00000000000E+00 0.  1.
</event>
<event>
 7    1  0.3062695E-010  0.4778725E+02  0.7816164E-02  0.1312668E+00
        -11   -1    0    0    0    0  0.00000000000E+00  0.00000000000E+00  0.45593999997E+02  0.45594000000E+02  0.51100000000E-03 0.  1.
         11   -1    0    0    0    0 -0.00000000000E+00 -0.00000000000E+00 -0.45593999997E+02  0.45594000000E+02  0.51100000000E-03 0. -1.
    9900012    2    1    2    0    0 -0.14304660965E+02  0.32878391350E+01 -0.40843502209E+02  0.47787252492E+02  0.19999915414E+02 0.  0.
        -12    1    1    2    0    0  0.14304660965E+02 -0.32878391350E+01  0.40843502209E+02  0.43400747508E+02  0.00000000000E+00 0.  1.
         11    1    3    3    0    0 -0.11377028095E+01 -0.33648589580E+00 -0.15568203491E+02  0.15613345274E+02  0.51100000000E-03 0. -1.
        -11    1    3    3    0    0 -0.13732054006E+02 -0.67423319162E-01 -0.11531787958E+02  0.17931982236E+02  0.51100000000E-03 0.  1.
        -12    1    3    3    0    0  0.56509585066E+00  0.36917483499E+01 -0.13743510760E+02  0.14241924982E+02  0.00000000000E+00 0.  1.
</event>
<event>
 7    1  0.3062695E-010  0.4778730E+02  0.7816164E-02  0.1312668E+00
        -11   -1    0    0    0    0  0.00000000000E+00  0.00000000000E+00  0.45593999997E+02  0.45594000000E+02  0.51100000000E-03 0.  1.
         11   -1    0    0    0    0 -0.00000000000E+00 -0.00000000000E+00 -0.45593999997E+02  0.45594000000E+02  0.51100000000E-03 0. -1.
    9900012    2    1    2    0    0 -0.43094824939E+02 -0.48780978966E+01  0.16311967032E+01  0.47787302099E+02  0.20000141590E+02 0.  0.
        -12    1    1    2    0    0  0.43094824939E+02  0.48780978966E+01 -0.16311967032E+01  0.43400697901E+02  0.00000000000E+00 0.  1.
         11    1    3    3    0    0 -0.64611634297E+01 -0.75349750801E+01 -0.35039488503E+00  0.99320319754E+01  0.51100000000E-03 0. -1.
        -11    1    3    3    0    0 -0.11125584276E+01 -0.78576931432E+00 -0.14665973255E+01  0.20015313254E+01  0.51100000000E-03 0.  1.
         12    1    3    3    0    0 -0.35521103082E+02  0.34426464978E+01  0.34481889137E+01  0.35853738798E+02  0.00000000000E+00 0. -1.
</event>
<event>
 7    1  0.3062695E-010  0.4778727E+02  0.7816164E-02  0.1312668E+00
        -11   -1    0    0    0    0  0.00000000000E+00  0.00000000000E+00  0.45593999997E+02  0.45594000000E+02  0.51100000000E-03 0.  1.
         11   -1    0    0    0    0 -0.00000000000E+00 -0.00000000000E+00 -0.45593999997E+02  0.45594000000E+02  0.51100000000E-03 0. -1.
    9900012    2    1    2    0    0  0.10168959132E+02  0.41277461645E+02  0.87399408456E+01  0.47787272637E+02  0.20000007259E+02 0.  0.
        -12    1    1    2    0    0 -0.10168959132E+02 -0.41277461645E+02 -0.87399408456E+01  0.43400727363E+02  0.00000000000E+00 0.  1.
         11    1    3    3    0    0  0.36664798507E+01  0.34799511774E+02  0.46596874495E+01  0.35301016722E+02  0.51100000000E-03 0. -1.
        -11    1    3    3    0    0  0.53573377941E+01  0.53918582116E+01  0.62241179491E+01  0.98240952621E+01  0.51100000000E-03 0.  1.
         12    1    3    3    0    0  0.11451414871E+01  0.10860916593E+01 -0.21438645529E+01  0.26621606524E+01  0.00000000000E+00 0. -1.
</event>
<event>
 7    1  0.3062695E-010  0.4778727E+02  0.7816164E-02  0.1312668E+00
        -11   -1    0    0    0    0  0.00000000000E+00  0.00000000000E+00  0.45593999997E+02  0.45594000000E+02  0.51100000000E-03 0.  1.
         11   -1    0    0    0    0 -0.00000000000E+00 -0.00000000000E+00 -0.45593999997E+02  0.45594000000E+02  0.51100000000E-03 0. -1.
    9900012    2    1    2    0    0 -0.30106273196E+02  0.27495728728E+02 -0.14873478582E+02  0.47787272481E+02  0.20000006552E+02 0.  0.
        -12    1    1    2    0    0  0.30106273196E+02 -0.27495728728E+02  0.14873478582E+02  0.43400727519E+02  0.00000000000E+00 0.  1.
         11    1    3    3    0    0 -0.15179925451E+02  0.14204345461E+02 -0.56576434283E+01  0.21545359038E+02  0.51100000000E-03 0. -1.
        -11    1    3    3    0    0  0.19301887407E+01  0.58017818104E+01 -0.19647424916E+01  0.64223449043E+01  0.51100000000E-03 0.  1.
        -12    1    3    3    0    0 -0.16856536485E+02  0.74896014563E+01 -0.72510926624E+01  0.19819568539E+02  0.00000000000E+00 0.  1.
</event>
<event>
 7    1  0.3062695E-010  0.4778727E+02  0.7816164E-02  0.1312668E+00
        -11   -1    0    0    0    0  0.00000000000E+00  0.00000000000E+00  0.45593999997E+02  0.45594000000E+02  0.51100000000E-03 0.  1.
         11   -1    0    0    0    0 -0.00000000000E+00 -0.00000000000E+00 -0.45593999997E+02  0.45594000000E+02  0.51100000000E-03 0. -1.
    9900012    2    1    2    0    0  0.39985441031E+01  0.11216714087E+02 -0.41735118921E+02  0.47787272112E+02  0.20000004868E+02 0.  0.
        -12    1    1    2    0    0 -0.39985441031E+01 -0.11216714087E+02  0.41735118921E+02  0.43400727888E+02  0.00000000000E+00 0.  1.
         11    1    3    3    0    0  0.90994051324E+01  0.10561103948E+02 -0.33422050672E+02  0.36212836975E+02  0.51100000000E-03 0. -1.
        -11    1    3    3    0    0 -0.78241056691E+00 -0.12694170323E+01  0.50035486327E+00  0.15728767108E+01  0.51100000000E-03 0.  1.
         12    1    3    3    0    0 -0.43184504624E+01  0.19250271716E+01 -0.88134231122E+01  0.10001558427E+02  0.00000000000E+00 0. -1.
</event>
<event>
 7    1  0.3062695E-010  0.4778727E+02  0.7816164E-02  0.1312668E+00
        -11   -1    0    0    0    0  0.00000000000E+00  0.00000000000E+00  0.45593999997E+02  0.45594000000E+02  0.51100000000E-03 0. -1.
         11   -1    0    0    0    0 -0.00000000000E+00 -0.00000000000E+00 -0.45593999997E+02  0.45594000000E+02  0.51100000000E-03 0.  1.
    9900012    2    1    2    0    0  0.77552719752E+01 -0.29561337028E+02 -0.30815678696E+02  0.47787274847E+02  0.20000017338E+02 0.  0.
        -12    1    1    2    0    0 -0.77552719752E+01  0.29561337028E+02  0.30815678696E+02  0.43400725153E+02  0.00000000000E+00 0.  1.
         11    1    3    3    0    0  0.76022706621E+01 -0.16527166473E+02 -0.22781136938E+02  0.29153420919E+02  0.51100000000E-03 0. -1.
        -11    1    3    3    0    0 -0.41996214968E+01 -0.33614044917E+01 -0.87266099534E-01  0.53799141728E+01  0.51100000000E-03 0.  1.
        -12    1    3    3    0    0  0.43526228100E+01 -0.96727660629E+01 -0.79472756589E+01  0.13253939755E+02  0.00000000000E+00 0.  1.
</event>
<event>
 7    1  0.3062695E-010  0.4778731E+02  0.7816164E-02  0.1312668E+00
        -11   -1    0    0    0    0  0.00000000000E+00  0.00000000000E+00  0.45593999997E+02  0.45594000000E+02  0.51100000000E-03 0. -1.
         11   -1    0    0    0    0 -0.00000000000E+00 -0.00000000000E+00 -0.45593999997E+02  0.45594000000E+02  0.51100000000E-03 0.  1.
    9900012    2    1    2    0    0 -0.17585056647E+02 -0.39678279494E+02  0.13998005828E+00  0.47787312502E+02  0.20000189022E+02 0.  0.
        -12    1    1    2    0    0  0.17585056647E+02  0.39678279494E+02 -0.13998005828E+00  0.43400687498E+02  0.00000000000E+00 0.  1.
         11    1    3    3    0    0 -0.64777037134E+00 -0.19757123937E+02  0.14462339443E+01  0.19820573796E+02  0.51100000000E-03 0.  1.
        -11    1    3    3    0    0 -0.14549331715E+02 -0.16366134905E+02 -0.48255570800E+01  0.22423635443E+02  0.51100000000E-03 0. -1.
         12    1    3    3    0    0 -0.23879545614E+01 -0.35550206513E+01  0.35193031940E+01  0.55431032635E+01  0.00000000000E+00 0. -1.
</event>
<event>
 7    1  0.3062695E-010  0.4778727E+02  0.7816164E-02  0.1312668E+00
        -11   -1    0    0    0    0  0.00000000000E+00  0.00000000000E+00  0.45593999997E+02  0.45594000000E+02  0.51100000000E-03 0.  1.
         11   -1    0    0    0    0 -0.00000000000E+00 -0.00000000000E+00 -0.45593999997E+02  0.45594000000E+02  0.51100000000E-03 0. -1.
    9900012    2    1    2    0    0 -0.81112974125E+01  0.34527085503E+01 -0.42495987984E+02  0.47787270320E+02  0.19999996696E+02 0.  0.
        -12    1    1    2    0    0  0.81112974125E+01 -0.34527085503E+01  0.42495987984E+02  0.43400729680E+02  0.00000000000E+00 0.  1.
         11    1    3    3    0    0  0.48304931708E+01 -0.72875304953E+00 -0.41602176115E+01  0.64165532895E+01  0.51100000000E-03 0. -1.
        -11    1    3    3    0    0 -0.63884471615E+01  0.59833816504E+01 -0.22034362892E+02  0.23709202041E+02  0.51100000000E-03 0.  1.
         12    1    3    3    0    0 -0.65533434218E+01 -0.18019200505E+01 -0.16301407480E+02  0.17661514989E+02  0.00000000000E+00 0. -1.
</event>
<event>
 7    1  0.3062695E-010  0.4778727E+02  0.7816164E-02  0.1312668E+00
        -11   -1    0    0    0    0  0.00000000000E+00  0.00000000000E+00  0.45593999997E+02  0.45594000000E+02  0.51100000000E-03 0.  1.
         11   -1    0    0    0    0 -0.00000000000E+00 -0.00000000000E+00 -0.45593999997E+02  0.45594000000E+02  0.51100000000E-03 0. -1.
    9900012    2    1    2    0    0  0.85755782342E+01 -0.33764414148E+02  0.25885264395E+02  0.47787272844E+02  0.20000008207E+02 0.  0.
        -12    1    1    2    0    0 -0.85755782342E+01  0.33764414148E+02 -0.25885264395E+02  0.43400727156E+02  0.00000000000E+00 0.  1.
         11    1    3    3    0    0 -0.80715273651E+00 -0.23976934989E+02  0.13578597714E+02  0.27566704975E+02  0.51100000000E-03 0. -1.
        -11    1    3    3    0    0  0.56594243051E+00 -0.58114961869E+01  0.72426773873E+01  0.93032335649E+01  0.51100000000E-03 0.  1.
         12    1    3    3    0    0  0.88167885402E+01 -0.39759829720E+01  0.50639892939E+01  0.10917334305E+02  0.00000000000E+00 0. -1.
</event>
<event>
 7    1  0.3062695E-010  0.4778727E+02  0.7816164E-02  0.1312668E+00
        -11   -1    0    0    0    0  0.00000000000E+00  0.00000000000E+00  0.45593999997E+02  0.45594000000E+02  0.51100000000E-03 0.  1.
         11   -1    0    0    0    0 -0.00000000000E+00 -0.00000000000E+00 -0.45593999997E+02  0.45594000000E+02  0.51100000000E-03 0. -1.
    9900012    2    1    2    0    0  0.23437075426E+01 -0.12567718993E+02 -0.41475088174E+02  0.47787268845E+02  0.19999989972E+02 0.  0.
        -12    1    1    2    0    0 -0.23437075426E+01  0.12567718993E+02  0.41475088174E+02  0.43400731155E+02  0.00000000000E+00 0.  1.
         11    1    3    3    0    0  0.50738716123E+00 -0.22104181801E+01 -0.42702648754E+00  0.23077569509E+01  0.51100000000E-03 0.  1.
        -11    1    3    3    0    0 -0.42041980143E+01 -0.12484770758E+02 -0.28040110451E+02  0.30980519301E+02  0.51100000000E-03 0. -1.
        -12    1    3    3    0    0  0.60405183956E+01  0.21274699448E+01 -0.13007951236E+02  0.14498992593E+02  0.00000000000E+00 0.  1.
</event>
<event>
 7    1  0.3062695E-010  0.4778727E+02  0.7816164E-02  0.1312668E+00
        -11   -1    0    0    0    0  0.00000000000E+00  0.00000000000E+00  0.45593999997E+02  0.45594000000E+02  0.51100000000E-03 0.  1.
         11   -1    0    0    0    0 -0.00000000000E+00 -0.00000000000E+00 -0.45593999997E+02  0.45594000000E+02  0.51100000000E-03 0. -1.
    9900012    2    1    2    0    0  0.19226449442E+02  0.14269830218E+02 -0.36198602830E+02  0.47787271211E+02  0.20000000760E+02 0.  0.
        -12    1    1    2    0    0 -0.19226449442E+02 -0.14269830218E+02  0.36198602830E+02  0.43400728789E+02  0.00000000000E+00 0.  1.
         11    1    3    3    0    0  0.76099715224E+01 -0.16192007838E+01 -0.18059758327E+02  0.19664392918E+02  0.51100000000E-03 0. -1.
        -11    1    3    3    0    0  0.10441692816E+02  0.16764984501E+02 -0.15508565603E+02  0.25111934643E+02  0.51100000000E-03 0.  1.
        -12    1    3    3    0    0  0.11747851029E+01 -0.87595349979E+00 -0.26302789006E+01  0.30109436505E+01  0.00000000000E+00 0.  1.
</event>
<event>
 7    1  0.3062695E-010  0.4778727E+02  0.7816164E-02  0.1312668E+00
        -11   -1    0    0    0    0  0.00000000000E+00  0.00000000000E+00  0.45593999997E+02  0.45594000000E+02  0.51100000000E-03 0. -1.
         11   -1    0    0    0    0 -0.00000000000E+00 -0.00000000000E+00 -0.45593999997E+02  0.45594000000E+02  0.51100000000E-03 0.  1.
    9900012    2    1    2    0    0  0.16807959490E+02 -0.39193361632E+02 -0.80620201178E+01  0.47787271128E+02  0.20000000380E+02 0.  0.
        -12    1    1    2    0    0 -0.16807959490E+02  0.39193361632E+02  0.80620201178E+01  0.43400728872E+02  0.00000000000E+00 0.  1.
         11    1    3    3    0    0  0.22936723036E+01 -0.13748448603E+02 -0.10590320059E+02  0.17505303506E+02  0.51100000000E-03 0. -1.
        -11    1    3    3    0    0  0.12251671586E+02 -0.24883456517E+02  0.16309407796E+01  0.27783985189E+02  0.51100000000E-03 0.  1.
         12    1    3    3    0    0  0.22626156004E+01 -0.56145651210E+00  0.89735916129E+00  0.24979824328E+01  0.00000000000E+00 0. -1.
</event>
<event>
 7    1  0.3062695E-010  0.4778727E+02  0.7816164E-02  0.1312668E+00
        -11   -1    0    0    0    0  0.00000000000E+00  0.00000000000E+00  0.45593999997E+02  0.45594000000E+02  0.51100000000E-03 0.  1.
         11   -1    0    0    0    0 -0.00000000000E+00 -0.00000000000E+00 -0.45593999997E+02  0.45594000000E+02  0.51100000000E-03 0. -1.
    9900012    2    1    2    0    0 -0.17012188088E+01 -0.31171515348E+02 -0.30150713123E+02  0.47787274011E+02  0.20000013526E+02 0.  0.
        -12    1    1    2    0    0  0.17012188088E+01  0.31171515348E+02  0.30150713123E+02  0.43400725989E+02  0.00000000000E+00 0.  1.
         11    1    3    3    0    0  0.52817825763E+01 -0.88778505731E+01 -0.19539438931E+02  0.22102106958E+02  0.51100000000E-03 0. -1.
        -11    1    3    3    0    0 -0.48040414643E+01 -0.14619079696E+02 -0.64252906549E+01  0.16675750832E+02  0.51100000000E-03 0.  1.
         12    1    3    3    0    0 -0.21789599209E+01 -0.76745850795E+01 -0.41859835372E+01  0.90094162215E+01  0.00000000000E+00 0. -1.
</event>
<event>
 7    1  0.3062695E-010  0.4778727E+02  0.7816164E-02  0.1312668E+00
        -11   -1    0    0    0    0  0.00000000000E+00  0.00000000000E+00  0.45593999997E+02  0.45594000000E+02  0.51100000000E-03 0.  1.
         11   -1    0    0    0    0 -0.00000000000E+00 -0.00000000000E+00 -0.45593999997E+02  0.45594000000E+02  0.51100000000E-03 0. -1.
    9900012    2    1    2    0    0  0.77691409744E+01  0.25470400292E+02 -0.34271309508E+02  0.47787268464E+02  0.19999988233E+02 0.  0.
        -12    1    1    2    0    0 -0.77691409744E+01 -0.25470400292E+02  0.34271309508E+02  0.43400731536E+02  0.00000000000E+00 0.  1.
         11    1    3    3    0    0  0.32304497569E+01  0.93335378758E+01 -0.18278782176E+02  0.20776539968E+02  0.51100000000E-03 0. -1.
        -11    1    3    3    0    0 -0.20874690628E+01  0.11277505656E+02 -0.33783947958E+01  0.11956304302E+02  0.51100000000E-03 0.  1.
        -12    1    3    3    0    0  0.66261602804E+01  0.48593567598E+01 -0.12614132536E+02  0.15054424194E+02  0.00000000000E+00 0.  1.
</event>
<event>
 7    1  0.3062695E-010  0.4778727E+02  0.7816164E-02  0.1312668E+00
        -11   -1    0    0    0    0  0.00000000000E+00  0.00000000000E+00  0.45593999997E+02  0.45594000000E+02  0.51100000000E-03 0.  1.
         11   -1    0    0    0    0 -0.00000000000E+00 -0.00000000000E+00 -0.45593999997E+02  0.45594000000E+02  0.51100000000E-03 0. -1.
    9900012    2    1    2    0    0 -0.19933310015E+02 -0.37963876055E+02 -0.67104819114E+01  0.47787270735E+02  0.19999998589E+02 0.  0.
        -12    1    1    2    0    0  0.19933310015E+02  0.37963876055E+02  0.67104819114E+01  0.43400729265E+02  0.00000000000E+00 0.  1.
         11    1    3    3    0    0 -0.11282590244E+01  0.11287096316E+01 -0.19822073732E+01  0.25448183020E+01  0.51100000000E-03 0. -1.
        -11    1    3    3    0    0 -0.13235979479E+02 -0.28735180465E+02 -0.87318752409E+01  0.32819923744E+02  0.51100000000E-03 0.  1.
        -12    1    3    3    0    0 -0.55690715118E+01 -0.10357405222E+02  0.40036007027E+01  0.12422528689E+02  0.00000000000E+00 0.  1.
</event>
<event>
 7    1  0.3062695E-010  0.4778725E+02  0.7816164E-02  0.1312668E+00
        -11   -1    0    0    0    0  0.00000000000E+00  0.00000000000E+00  0.45593999997E+02  0.45594000000E+02  0.51100000000E-03 0.  1.
         11   -1    0    0    0    0 -0.00000000000E+00 -0.00000000000E+00 -0.45593999997E+02  0.45594000000E+02  0.51100000000E-03 0. -1.
    9900012    2    1    2    0    0 -0.33395345618E+01 -0.28484023807E+02 -0.32575039724E+02  0.47787247514E+02  0.19999892717E+02 0.  0.
        -12    1    1    2    0    0  0.33395345618E+01  0.28484023807E+02  0.32575039724E+02  0.43400752486E+02  0.00000000000E+00 0.  1.
         11    1    3    3    0    0  0.19238783748E+00 -0.20216924969E+02 -0.10226028450E+02  0.22656847230E+02  0.51100000000E-03 0. -1.
        -11    1    3    3    0    0  0.48966508142E+00 -0.78042446250E+00 -0.10546030136E+02  0.10586197907E+02  0.51100000000E-03 0.  1.
         12    1    3    3    0    0 -0.40215874807E+01 -0.74866743755E+01 -0.11802981138E+02  0.14544202378E+02  0.00000000000E+00 0. -1.
</event>
<event>
 7    1  0.3062695E-010  0.4778727E+02  0.7816164E-02  0.1312668E+00
        -11   -1    0    0    0    0  0.00000000000E+00  0.00000000000E+00  0.45593999997E+02  0.45594000000E+02  0.51100000000E-03 0. -1.
         11   -1    0    0    0    0 -0.00000000000E+00 -0.00000000000E+00 -0.45593999997E+02  0.45594000000E+02  0.51100000000E-03 0.  1.
    9900012    2    1    2    0    0  0.17277560030E+02 -0.14355672124E+02  0.37135209712E+02  0.47787271860E+02  0.20000003716E+02 0.  0.
        -12    1    1    2    0    0 -0.17277560030E+02  0.14355672124E+02 -0.37135209712E+02  0.43400728140E+02  0.00000000000E+00 0.  1.
         11    1    3    3    0    0  0.11297030783E+02 -0.14867011144E+02  0.25032366966E+02  0.31229318293E+02  0.51100000000E-03 0. -1.
        -11    1    3    3    0    0 -0.86379638612E+00 -0.13727310103E+01  0.83927020597E+01  0.85479812089E+01  0.51100000000E-03 0.  1.
         12    1    3    3    0    0  0.68443256333E+01  0.18840700305E+01  0.37101406872E+01  0.80099723579E+01  0.00000000000E+00 0. -1.
</event>
<event>
 7    1  0.3062695E-010  0.4778727E+02  0.7816164E-02  0.1312668E+00
        -11   -1    0    0    0    0  0.00000000000E+00  0.00000000000E+00  0.45593999997E+02  0.45594000000E+02  0.51100000000E-03 0. -1.
         11   -1    0    0    0    0 -0.00000000000E+00 -0.00000000000E+00 -0.45593999997E+02  0.45594000000E+02  0.51100000000E-03 0.  1.
    9900012    2    1    2    0    0 -0.25892460561E+02  0.30677878811E+02  0.16494585360E+02  0.47787272951E+02  0.20000008691E+02 0.  0.
        -12    1    1    2    0    0  0.25892460561E+02 -0.30677878811E+02 -0.16494585360E+02  0.43400727049E+02  0.00000000000E+00 0.  1.
         11    1    3    3    0    0 -0.66347122799E+01 -0.73056418521E+00 -0.86041409340E+00  0.67300403966E+01  0.51100000000E-03 0.  1.
        -11    1    3    3    0    0 -0.74902815099E+01  0.14030776354E+02  0.48539892882E+01  0.16629137515E+02  0.51100000000E-03 0. -1.
        -12    1    3    3    0    0 -0.11767466771E+02  0.17377666641E+02  0.12501010165E+02  0.24428095040E+02  0.00000000000E+00 0.  1.
</event>
<event>
 7    1  0.3062695E-010  0.4778727E+02  0.7816164E-02  0.1312668E+00
        -11   -1    0    0    0    0  0.00000000000E+00  0.00000000000E+00  0.45593999997E+02  0.45594000000E+02  0.51100000000E-03 0.  1.
         11   -1    0    0    0    0 -0.00000000000E+00 -0.00000000000E+00 -0.45593999997E+02  0.45594000000E+02  0.51100000000E-03 0. -1.
    9900012    2    1    2    0    0 -0.29410568135E+02 -0.10449689513E+02 -0.30157017862E+02  0.47787271259E+02  0.20000000978E+02 0.  0.
        -12    1    1    2    0    0  0.29410568135E+02  0.10449689513E+02  0.30157017862E+02  0.43400728741E+02  0.00000000000E+00 0.  1.
         11    1    3    3    0    0 -0.93241815563E+01 -0.89816688630E+01 -0.42442816158E+01  0.13624414261E+02  0.51100000000E-03 0. -1.
        -11    1    3    3    0    0 -0.38797223367E+01 -0.26605574790E+01 -0.16994349351E+01  0.50018887301E+01  0.51100000000E-03 0.  1.
         12    1    3    3    0    0 -0.16206664242E+02  0.11925368288E+01 -0.24213301311E+02  0.29160968268E+02  0.00000000000E+00 0. -1.
</event>
<event>
 7    1  0.3062695E-010  0.4778727E+02  0.7816164E-02  0.1312668E+00
        -11   -1    0    0    0    0  0.00000000000E+00  0.00000000000E+00  0.45593999997E+02  0.45594000000E+02  0.51100000000E-03 0.  1.
         11   -1    0    0    0    0 -0.00000000000E+00 -0.00000000000E+00 -0.45593999997E+02  0.45594000000E+02  0.51100000000E-03 0. -1.
    9900012    2    1    2    0    0  0.83261418760E+01  0.15448213778E+02 -0.39694480101E+02  0.47787266159E+02  0.19999977724E+02 0.  0.
        -12    1    1    2    0    0 -0.83261418760E+01 -0.15448213778E+02  0.39694480101E+02  0.43400733841E+02  0.00000000000E+00 0.  1.
         11    1    3    3    0    0  0.10254010642E+00  0.35393932198E+01 -0.23263049206E+02  0.23530985476E+02  0.51100000000E-03 0. -1.
        -11    1    3    3    0    0 -0.65597280706E+00  0.63876827051E+01 -0.26245499414E+01  0.69369340001E+01  0.51100000000E-03 0.  1.
         12    1    3    3    0    0  0.88795745767E+01  0.55211378529E+01 -0.13806880953E+02  0.17319346683E+02  0.00000000000E+00 0. -1.
</event>
<event>
 7    1  0.3062695E-010  0.4778727E+02  0.7816164E-02  0.1312668E+00
        -11   -1    0    0    0    0  0.00000000000E+00  0.00000000000E+00  0.45593999997E+02  0.45594000000E+02  0.51100000000E-03 0.  1.
         11   -1    0    0    0    0 -0.00000000000E+00 -0.00000000000E+00 -0.45593999997E+02  0.45594000000E+02  0.51100000000E-03 0. -1.
    9900012    2    1    2    0    0  0.12512260928E+02  0.25280330707E+02 -0.32984416401E+02  0.47787268215E+02  0.19999987099E+02 0.  0.
        -12    1    1    2    0    0 -0.12512260928E+02 -0.25280330707E+02  0.32984416401E+02  0.43400731785E+02  0.00000000000E+00 0.  1.
         11    1    3    3    0    0  0.90195503951E+01  0.26512217824E+02 -0.26080918745E+02  0.38268319876E+02  0.51100000000E-03 0. -1.
        -11    1    3    3    0    0  0.34397750905E+01 -0.31297007356E+01 -0.47358235083E+01  0.66374018961E+01  0.51100000000E-03 0.  1.
        -12    1    3    3    0    0  0.52935442286E-01  0.18978136186E+01 -0.21676741474E+01  0.28815464427E+01  0.00000000000E+00 0.  1.
</event>
<event>
 7    1  0.3062695E-010  0.4778727E+02  0.7816164E-02  0.1312668E+00
        -11   -1    0    0    0    0  0.00000000000E+00  0.00000000000E+00  0.45593999997E+02  0.45594000000E+02  0.51100000000E-03 0.  1.
         11   -1    0    0    0    0 -0.00000000000E+00 -0.00000000000E+00 -0.45593999997E+02  0.45594000000E+02  0.51100000000E-03 0. -1.
    9900012    2    1    2    0    0 -0.18270479755E+02 -0.33143777539E+02 -0.21243885344E+02  0.47787273226E+02  0.20000009946E+02 0.  0.
        -12    1    1    2    0    0  0.18270479755E+02  0.33143777539E+02  0.21243885344E+02  0.43400726774E+02  0.00000000000E+00 0.  1.
         11    1    3    3    0    0 -0.45769026868E+01 -0.12447562924E+02  0.15691885717E+01  0.13354857318E+02  0.51100000000E-03 0. -1.
        -11    1    3    3    0    0 -0.29831892262E+01 -0.58382784796E+01 -0.10443425679E+02  0.12330857786E+02  0.51100000000E-03 0.  1.
         12    1    3    3    0    0 -0.10710387842E+02 -0.14857936135E+02 -0.12369648237E+02  0.22101558123E+02  0.00000000000E+00 0. -1.
</event>
<event>
 7    1  0.3062695E-010  0.4778726E+02  0.7816164E-02  0.1312668E+00
        -11   -1    0    0    0    0  0.00000000000E+00  0.00000000000E+00  0.45593999997E+02  0.45594000000E+02  0.51100000000E-03 0.  1.
         11   -1    0    0    0    0 -0.00000000000E+00 -0.00000000000E+00 -0.45593999997E+02  0.45594000000E+02  0.51100000000E-03 0. -1.
    9900012    2    1    2    0    0 -0.39691266674E+01  0.73269555924E+00 -0.43212651248E+02  0.47787262251E+02  0.19999959906E+02 0.  0.
        -12    1    1    2    0    0  0.39691266674E+01 -0.73269555924E+00  0.43212651248E+02  0.43400737749E+02  0.00000000000E+00 0.  1.
         11    1    3    3    0    0  0.14927390976E+01 -0.73571134285E+01 -0.28003021514E+02  0.28991802328E+02  0.51100000000E-03 0. -1.
        -11    1    3    3    0    0 -0.55522464587E+01  0.53283548303E+01 -0.13520566633E+02  0.15557137535E+02  0.51100000000E-03 0.  1.
        -12    1    3    3    0    0  0.90380693769E-01  0.27614541575E+01 -0.16890631011E+01  0.32383223887E+01  0.00000000000E+00 0.  1.
</event>
<event>
 7    1  0.3062695E-010  0.4778727E+02  0.7816164E-02  0.1312668E+00
        -11   -1    0    0    0    0  0.00000000000E+00  0.00000000000E+00  0.45593999997E+02  0.45594000000E+02  0.51100000000E-03 0.  1.
         11   -1    0    0    0    0 -0.00000000000E+00 -0.00000000000E+00 -0.45593999997E+02  0.45594000000E+02  0.51100000000E-03 0. -1.
    9900012    2    1    2    0    0 -0.30746194133E+02  0.26633121063E+02 -0.15131808111E+02  0.47787271804E+02  0.20000003465E+02 0.  0.
        -12    1    1    2    0    0  0.30746194133E+02 -0.26633121063E+02  0.15131808111E+02  0.43400728196E+02  0.00000000000E+00 0.  1.
         11    1    3    3    0    0 -0.19190731538E+02  0.68726818857E+01 -0.12188645301E+02  0.23750389634E+02  0.51100000000E-03 0. -1.
        -11    1    3    3    0    0 -0.74173833019E+01  0.12474716391E+02  0.14332785049E+01  0.14583909339E+02  0.51100000000E-03 0.  1.
         12    1    3    3    0    0 -0.41380792930E+01  0.72857227866E+01 -0.43764413157E+01  0.94529728312E+01  0.00000000000E+00 0. -1.
</event>
<event>
 7    1  0.3062695E-010  0.4778727E+02  0.7816164E-02  0.1312668E+00
        -11   -1    0    0    0    0  0.00000000000E+00  0.00000000000E+00  0.45593999997E+02  0.45594000000E+02  0.51100000000E-03 0.  1.
         11   -1    0    0    0    0 -0.00000000000E+00 -0.00000000000E+00 -0.45593999997E+02  0.45594000000E+02  0.51100000000E-03 0. -1.
    9900012    2    1    2    0    0  0.41781479823E+02 -0.10464793629E+02  0.53309455702E+01  0.47787274861E+02  0.20000017400E+02 0.  0.
        -12    1    1    2    0    0 -0.41781479823E+02  0.10464793629E+02 -0.53309455702E+01  0.43400725139E+02  0.00000000000E+00 0.  1.
         11    1    3    3    0    0 -0.15572371785E+01  0.82973016887E+00  0.70734813579E+00  0.19009948526E+01  0.51100000000E-03 0. -1.
        -11    1    3    3    0    0  0.16298571907E+02 -0.41066363490E+01  0.60681639175E+01  0.17869821541E+02  0.51100000000E-03 0.  1.
         12    1    3    3    0    0  0.27040145095E+02 -0.71878874493E+01 -0.14445664832E+01  0.28016458467E+02  0.00000000000E+00 0. -1.
</event>
<event>
 7    1  0.3062695E-010  0.4778727E+02  0.7816164E-02  0.1312668E+00
        -11   -1    0    0    0    0  0.00000000000E+00  0.00000000000E+00  0.45593999997E+02  0.45594000000E+02  0.51100000000E-03 0.  1.
         11   -1    0    0    0    0 -0.00000000000E+00 -0.00000000000E+00 -0.45593999997E+02  0.45594000000E+02  0.51100000000E-03 0. -1.
    9900012    2    1    2    0    0  0.26143615243E+02  0.15399255219E+02 -0.31032202841E+02  0.47787270830E+02  0.19999999024E+02 0.  0.
        -12    1    1    2    0    0 -0.26143615243E+02 -0.15399255219E+02  0.31032202841E+02  0.43400729170E+02  0.00000000000E+00 0.  1.
         11    1    3    3    0    0  0.90991276153E+01  0.12079174455E+02 -0.67863429541E+01  0.16575736177E+02  0.51100000000E-03 0. -1.
        -11    1    3    3    0    0  0.77189137164E+01 -0.16353501573E+01 -0.15904613120E+02  0.17754230985E+02  0.51100000000E-03 0.  1.
        -12    1    3    3    0    0  0.93255739110E+01  0.49554309218E+01 -0.83412467671E+01  0.13457303668E+02  0.00000000000E+00 0.  1.
</event>
<event>
 7    1  0.3062695E-010  0.4778727E+02  0.7816164E-02  0.1312668E+00
        -11   -1    0    0    0    0  0.00000000000E+00  0.00000000000E+00  0.45593999997E+02  0.45594000000E+02  0.51100000000E-03 0.  1.
         11   -1    0    0    0    0 -0.00000000000E+00 -0.00000000000E+00 -0.45593999997E+02  0.45594000000E+02  0.51100000000E-03 0. -1.
    9900012    2    1    2    0    0 -0.67535303385E+01  0.28236013013E+02 -0.32260514729E+02  0.47787269436E+02  0.19999992666E+02 0.  0.
        -12    1    1    2    0    0  0.67535303385E+01 -0.28236013013E+02  0.32260514729E+02  0.43400730564E+02  0.00000000000E+00 0.  1.
         11    1    3    3    0    0 -0.90129717940E+01  0.55291359408E+01 -0.13493228364E+02  0.17142701559E+02  0.51100000000E-03 0. -1.
        -11    1    3    3    0    0  0.33615748323E+01  0.16466594067E+02 -0.91733942956E+01  0.19146803093E+02  0.51100000000E-03 0.  1.
         12    1    3    3    0    0 -0.11021333767E+01  0.62402830047E+01 -0.95938920701E+01  0.11497764783E+02  0.00000000000E+00 0. -1.
</event>
<event>
 7    1  0.3062695E-010  0.4778728E+02  0.7816164E-02  0.1312668E+00
        -11   -1    0    0    0    0  0.00000000000E+00  0.00000000000E+00  0.45593999997E+02  0.45594000000E+02  0.51100000000E-03 0. -1.
         11   -1    0    0    0    0 -0.00000000000E+00 -0.00000000000E+00 -0.45593999997E+02  0.45594000000E+02  0.51100000000E-03 0.  1.
    9900012    2    1    2    0    0  0.41057525331E+01  0.41293497417E+02  0.12712694799E+02  0.47787277174E+02  0.20000027947E+02 0.  0.
        -12    1    1    2    0    0 -0.41057525331E+01 -0.41293497417E+02 -0.12712694799E+02  0.43400722826E+02  0.00000000000E+00 0.  1.
         11    1    3    3    0    0  0.52647147838E+01  0.19761360528E+02  0.99446210904E+01  0.22740362367E+02  0.51100000000E-03 0. -1.
        -11    1    3    3    0    0 -0.20785713201E+01  0.20382343336E+02 -0.14893332959E+01  0.20542115093E+02  0.51100000000E-03 0.  1.
        -12    1    3    3    0    0  0.91960906927E+00  0.11497935527E+01  0.42574070049E+01  0.45047997136E+01  0.00000000000E+00 0.  1.
</event>
<event>
 7    1  0.3062695E-010  0.4778727E+02  0.7816164E-02  0.1312668E+00
        -11   -1    0    0    0    0  0.00000000000E+00  0.00000000000E+00  0.45593999997E+02  0.45594000000E+02  0.51100000000E-03 0. -1.
         11   -1    0    0    0    0 -0.00000000000E+00 -0.00000000000E+00 -0.45593999997E+02  0.45594000000E+02  0.51100000000E-03 0.  1.
    9900012    2    1    2    0    0  0.11496321279E+02  0.35060209794E+02  0.22852559613E+02  0.47787271957E+02  0.20000004162E+02 0.  0.
        -12    1    1    2    0    0 -0.11496321279E+02 -0.35060209794E+02 -0.22852559613E+02  0.43400728043E+02  0.00000000000E+00 0.  1.
         11    1    3    3    0    0  0.10756650315E+01  0.65618136521E+00  0.68673020652E+01  0.69819386391E+01  0.51100000000E-03 0. -1.
        -11    1    3    3    0    0  0.77596150731E+01  0.28064851949E+02  0.78565937101E+01  0.30159138018E+02  0.51100000000E-03 0.  1.
        -12    1    3    3    0    0  0.26610411740E+01  0.63391764800E+01  0.81286638380E+01  0.10646195300E+02  0.00000000000E+00 0.  1.
</event>
<event>
 7    1  0.3062695E-010  0.4778727E+02  0.7816164E-02  0.1312668E+00
        -11   -1    0    0    0    0  0.00000000000E+00  0.00000000000E+00  0.45593999997E+02  0.45594000000E+02  0.51100000000E-03 0.  1.
         11   -1    0    0    0    0 -0.00000000000E+00 -0.00000000000E+00 -0.45593999997E+02  0.45594000000E+02  0.51100000000E-03 0. -1.
    9900012    2    1    2    0    0  0.16290043688E+02 -0.40105209494E+02 -0.31352955130E+01  0.47787269248E+02  0.19999991807E+02 0.  0.
        -12    1    1    2    0    0 -0.16290043688E+02  0.40105209494E+02  0.31352955130E+01  0.43400730752E+02  0.00000000000E+00 0.  1.
         11    1    3    3    0    0  0.18481950563E+01 -0.25679926509E+02 -0.13219196459E+01  0.25780262262E+02  0.51100000000E-03 0. -1.
        -11    1    3    3    0    0 -0.74176003412E+00  0.73402633393E-02  0.55295096567E+00  0.92521179156E+00  0.51100000000E-03 0.  1.
         12    1    3    3    0    0  0.15183608666E+02 -0.14432623248E+02 -0.23663268327E+01  0.21081795194E+02  0.00000000000E+00 0. -1.
</event>
<event>
 7    1  0.3062695E-010  0.4778727E+02  0.7816164E-02  0.1312668E+00
        -11   -1    0    0    0    0  0.00000000000E+00  0.00000000000E+00  0.45593999997E+02  0.45594000000E+02  0.51100000000E-03 0. -1.
         11   -1    0    0    0    0 -0.00000000000E+00 -0.00000000000E+00 -0.45593999997E+02  0.45594000000E+02  0.51100000000E-03 0.  1.
    9900012    2    1    2    0    0  0.28355651986E+02 -0.27379807499E+02 -0.18163874356E+02  0.47787272013E+02  0.20000004414E+02 0.  0.
        -12    1    1    2    0    0 -0.28355651986E+02  0.27379807499E+02  0.18163874356E+02  0.43400727987E+02  0.00000000000E+00 0.  1.
         11    1    3    3    0    0  0.58930200811E+01 -0.19802316968E+01 -0.76707807832E+01  0.98736964372E+01  0.51100000000E-03 0. -1.
        -11    1    3    3    0    0  0.14691825858E+02 -0.17856078801E+02 -0.42607216476E+00  0.23127274697E+02  0.51100000000E-03 0.  1.
        -12    1    3    3    0    0  0.77708060473E+01 -0.75434970014E+01 -0.10067021408E+02  0.14786300878E+02  0.00000000000E+00 0.  1.
</event>
<event>
 7    1  0.3339947E-010  0.4778729E+02  0.7816164E-02  0.1312668E+00
        -11   -1    0    0    0    0  0.00000000000E+00  0.00000000000E+00  0.45593999997E+02  0.45594000000E+02  0.51100000000E-03 0. -1.
         11   -1    0    0    0    0 -0.00000000000E+00 -0.00000000000E+00 -0.45593999997E+02  0.45594000000E+02  0.51100000000E-03 0.  1.
    9900012    2    1    2    0    0  0.42106948966E+02 -0.79450569832E+01  0.68922400609E+01  0.47787285090E+02  0.20000064038E+02 0.  0.
        -12    1    1    2    0    0 -0.42106948966E+02  0.79450569832E+01 -0.68922400609E+01  0.43400714910E+02  0.00000000000E+00 0.  1.
         11    1    3    3    0    0  0.30417882543E+02 -0.64929883648E+01  0.47780850290E+01  0.31468024614E+02  0.51100000000E-03 0. -1.
        -11    1    3    3    0    0 -0.12184252783E+01  0.10126715054E+00  0.30490710100E+01  0.32850646081E+01  0.51100000000E-03 0.  1.
        -12    1    3    3    0    0  0.12907491701E+02 -0.15533357689E+01 -0.93491597812E+00  0.13034195867E+02  0.00000000000E+00 0.  1.
</event>
<event>
 7    1  0.3062695E-010  0.4778727E+02  0.7816164E-02  0.1312668E+00
        -11   -1    0    0    0    0  0.00000000000E+00  0.00000000000E+00  0.45593999997E+02  0.45594000000E+02  0.51100000000E-03 0.  1.
         11   -1    0    0    0    0 -0.00000000000E+00 -0.00000000000E+00 -0.45593999997E+02  0.45594000000E+02  0.51100000000E-03 0. -1.
    9900012    2    1    2    0    0  0.37784370385E+02  0.18581555469E+02 -0.10520965756E+02  0.47787267639E+02  0.19999984474E+02 0.  0.
        -12    1    1    2    0    0 -0.37784370385E+02 -0.18581555469E+02  0.10520965756E+02  0.43400732361E+02  0.00000000000E+00 0.  1.
         11    1    3    3    0    0  0.17771647471E+01 -0.55334972336E+00 -0.63854297302E+01  0.66511821171E+01  0.51100000000E-03 0. -1.
        -11    1    3    3    0    0  0.26960733802E+02  0.12911144354E+02 -0.20829011540E+01  0.29965268114E+02  0.51100000000E-03 0.  1.
         12    1    3    3    0    0  0.90464718357E+01  0.62237608376E+01 -0.20526348719E+01  0.11170817408E+02  0.00000000000E+00 0. -1.
</event>
<event>
 7    1  0.3984169E-010  0.4778730E+02  0.7816164E-02  0.1312668E+00
        -11   -1    0    0    0    0  0.00000000000E+00  0.00000000000E+00  0.45593999997E+02  0.45594000000E+02  0.51100000000E-03 0. -1.
         11   -1    0    0    0    0 -0.00000000000E+00 -0.00000000000E+00 -0.45593999997E+02  0.45594000000E+02  0.51100000000E-03 0.  1.
    9900012    2    1    2    0    0  0.39870138973E+02 -0.27811794096E+01  0.16919153540E+02  0.47787300730E+02  0.20000135346E+02 0.  0.
        -12    1    1    2    0    0 -0.39870138973E+02  0.27811794096E+01 -0.16919153540E+02  0.43400699270E+02  0.00000000000E+00 0.  1.
         11    1    3    3    0    0  0.18134259966E+02 -0.42204489965E+01  0.37793311600E+01  0.18998603068E+02  0.51100000000E-03 0. -1.
        -11    1    3    3    0    0  0.30584207767E+01  0.50476992236E+01  0.44458024658E+00  0.59186870973E+01  0.51100000000E-03 0.  1.
        -12    1    3    3    0    0  0.18677458231E+02 -0.36084296367E+01  0.12695242133E+02  0.22870010565E+02  0.00000000000E+00 0.  1.
</event>
<event>
 7    1  0.3062695E-010  0.4778727E+02  0.7816164E-02  0.1312668E+00
        -11   -1    0    0    0    0  0.00000000000E+00  0.00000000000E+00  0.45593999997E+02  0.45594000000E+02  0.51100000000E-03 0.  1.
         11   -1    0    0    0    0 -0.00000000000E+00 -0.00000000000E+00 -0.45593999997E+02  0.45594000000E+02  0.51100000000E-03 0. -1.
    9900012    2    1    2    0    0 -0.24866419674E+02 -0.18832735345E+02 -0.30176354501E+02  0.47787272829E+02  0.20000008138E+02 0.  0.
        -12    1    1    2    0    0  0.24866419674E+02  0.18832735345E+02  0.30176354501E+02  0.43400727171E+02  0.00000000000E+00 0.  1.
         11    1    3    3    0    0 -0.72808734817E+01 -0.53759602304E+01 -0.27600450691E+01  0.94620249471E+01  0.51100000000E-03 0. -1.
        -11    1    3    3    0    0 -0.13325242833E+02 -0.21206775102E+01 -0.87739989744E+01  0.16094795057E+02  0.51100000000E-03 0.  1.
        -12    1    3    3    0    0 -0.42603033592E+01 -0.11336097604E+02 -0.18642310458E+02  0.22230452825E+02  0.00000000000E+00 0.  1.
</event>
<event>
 7    1  0.3062695E-010  0.4778727E+02  0.7816164E-02  0.1312668E+00
        -11   -1    0    0    0    0  0.00000000000E+00  0.00000000000E+00  0.45593999997E+02  0.45594000000E+02  0.51100000000E-03 0. -1.
         11   -1    0    0    0    0 -0.00000000000E+00 -0.00000000000E+00 -0.45593999997E+02  0.45594000000E+02  0.51100000000E-03 0.  1.
    9900012    2    1    2    0    0  0.10091206985E+02 -0.21545029170E+02  0.36298799094E+02  0.47787267794E+02  0.19999985180E+02 0.  0.
        -12    1    1    2    0    0 -0.10091206985E+02  0.21545029170E+02 -0.36298799094E+02  0.43400732206E+02  0.00000000000E+00 0.  1.
         11    1    3    3    0    0 -0.31455419150E+00 -0.94615679746E+01  0.25567848249E+01  0.98059860178E+01  0.51100000000E-03 0. -1.
        -11    1    3    3    0    0  0.41044391655E+00  0.88713349312E+00  0.11687315147E+01  0.15236153248E+01  0.51100000000E-03 0.  1.
         12    1    3    3    0    0  0.99953172601E+01 -0.12970594688E+02  0.32573282754E+02  0.36457666452E+02  0.00000000000E+00 0. -1.
</event>
<event>
 7    1  0.3062695E-010  0.4778727E+02  0.7816164E-02  0.1312668E+00
        -11   -1    0    0    0    0  0.00000000000E+00  0.00000000000E+00  0.45593999997E+02  0.45594000000E+02  0.51100000000E-03 0.  1.
         11   -1    0    0    0    0 -0.00000000000E+00 -0.00000000000E+00 -0.45593999997E+02  0.45594000000E+02  0.51100000000E-03 0. -1.
    9900012    2    1    2    0    0  0.77079025868E+01 -0.94123433205E+01 -0.41660762531E+02  0.47787273004E+02  0.20000008936E+02 0.  0.
        -12    1    1    2    0    0 -0.77079025868E+01  0.94123433205E+01  0.41660762531E+02  0.43400726996E+02  0.00000000000E+00 0.  1.
         11    1    3    3    0    0  0.17181200834E+01 -0.27006296715E+01 -0.10841780201E+02  0.11304403364E+02  0.51100000000E-03 0. -1.
        -11    1    3    3    0    0  0.11554166686E+02 -0.13205626211E+01 -0.20639704420E+02  0.23690505530E+02  0.51100000000E-03 0.  1.
        -12    1    3    3    0    0 -0.55643841830E+01 -0.53911510279E+01 -0.10179277910E+02  0.12792364110E+02  0.00000000000E+00 0.  1.
</event>
<event>
 7    1  0.3062695E-010  0.4778727E+02  0.7816164E-02  0.1312668E+00
        -11   -1    0    0    0    0  0.00000000000E+00  0.00000000000E+00  0.45593999997E+02  0.45594000000E+02  0.51100000000E-03 0.  1.
         11   -1    0    0    0    0 -0.00000000000E+00 -0.00000000000E+00 -0.45593999997E+02  0.45594000000E+02  0.51100000000E-03 0. -1.
    9900012    2    1    2    0    0 -0.36206855301E+00 -0.27589418920E+02 -0.33500989959E+02  0.47787268921E+02  0.19999990317E+02 0.  0.
        -12    1    1    2    0    0  0.36206855301E+00  0.27589418920E+02  0.33500989959E+02  0.43400731079E+02  0.00000000000E+00 0.  1.
         11    1    3    3    0    0  0.39183262003E+01 -0.38015070348E+01 -0.42449626683E+01  0.69155219806E+01  0.51100000000E-03 0. -1.
        -11    1    3    3    0    0 -0.46752675955E+01 -0.18270201830E+02 -0.11080803496E+02  0.21873330985E+02  0.51100000000E-03 0.  1.
        -12    1    3    3    0    0  0.39487284215E+00 -0.55177100552E+01 -0.18175223795E+02  0.18998415955E+02  0.00000000000E+00 0.  1.
</event>
<event>
 7    1  0.3062695E-010  0.4778727E+02  0.7816164E-02  0.1312668E+00
        -11   -1    0    0    0    0  0.00000000000E+00  0.00000000000E+00  0.45593999997E+02  0.45594000000E+02  0.51100000000E-03 0. -1.
         11   -1    0    0    0    0 -0.00000000000E+00 -0.00000000000E+00 -0.45593999997E+02  0.45594000000E+02  0.51100000000E-03 0.  1.
    9900012    2    1    2    0    0 -0.37041697137E+02 -0.13742015736E+02  0.17963652744E+02  0.47787272550E+02  0.20000006867E+02 0.  0.
        -12    1    1    2    0    0  0.37041697137E+02  0.13742015736E+02 -0.17963652744E+02  0.43400727450E+02  0.00000000000E+00 0.  1.
         11    1    3    3    0    0 -0.81198358585E+01 -0.37115807965E+01  0.57602643571E+01  0.10624886451E+02  0.51100000000E-03 0. -1.
        -11    1    3    3    0    0 -0.30913968643E+02 -0.10816194381E+02  0.12380891089E+02  0.35013568549E+02  0.51100000000E-03 0.  1.
        -12    1    3    3    0    0  0.19921073650E+01  0.78575944147E+00 -0.17750270186E+00  0.21488175499E+01  0.00000000000E+00 0.  1.
</event>
<event>
 7    1  0.3062695E-010  0.4778728E+02  0.7816164E-02  0.1312668E+00
        -11   -1    0    0    0    0  0.00000000000E+00  0.00000000000E+00  0.45593999997E+02  0.45594000000E+02  0.51100000000E-03 0.  1.
         11   -1    0    0    0    0 -0.00000000000E+00 -0.00000000000E+00 -0.45593999997E+02  0.45594000000E+02  0.51100000000E-03 0. -1.
    9900012    2    1    2    0    0 -0.31113001271E+02 -0.24787181912E+02 -0.17355083191E+02  0.47787284017E+02  0.20000059149E+02 0.  0.
        -12    1    1    2    0    0  0.31113001271E+02  0.24787181912E+02  0.17355083191E+02  0.43400715983E+02  0.00000000000E+00 0.  1.
         11    1    3    3    0    0 -0.80650194157E+01 -0.57330713861E+01 -0.40223704620E+01  0.10681390831E+02  0.51100000000E-03 0. -1.
        -11    1    3    3    0    0 -0.23696088857E+02 -0.10383138514E+02 -0.10927231973E+02  0.28084134157E+02  0.51100000000E-03 0.  1.
        -12    1    3    3    0    0  0.64810700084E+00 -0.86709720117E+01 -0.24054807551E+01  0.90217590289E+01  0.00000000000E+00 0.  1.
</event>
<event>
 7    1  0.3062695E-010  0.4778727E+02  0.7816164E-02  0.1312668E+00
        -11   -1    0    0    0    0  0.00000000000E+00  0.00000000000E+00  0.45593999997E+02  0.45594000000E+02  0.51100000000E-03 0.  1.
         11   -1    0    0    0    0 -0.00000000000E+00 -0.00000000000E+00 -0.45593999997E+02  0.45594000000E+02  0.51100000000E-03 0. -1.
    9900012    2    1    2    0    0 -0.14744695764E+02  0.12360463014E+02 -0.38902907340E+02  0.47787270760E+02  0.19999998703E+02 0.  0.
        -12    1    1    2    0    0  0.14744695764E+02 -0.12360463014E+02  0.38902907340E+02  0.43400729240E+02  0.00000000000E+00 0.  1.
         11    1    3    3    0    0 -0.18503803868E+01  0.31884690939E+01 -0.28944045683E+01  0.46869841908E+01  0.51100000000E-03 0. -1.
        -11    1    3    3    0    0 -0.45608645076E+01  0.36372164860E+01 -0.11076216436E+00  0.58346462910E+01  0.51100000000E-03 0.  1.
        -12    1    3    3    0    0 -0.83334508692E+01  0.55347774342E+01 -0.35897740607E+02  0.37265640278E+02  0.00000000000E+00 0.  1.
</event>
<event>
 7    1  0.3062695E-010  0.4778727E+02  0.7816164E-02  0.1312668E+00
        -11   -1    0    0    0    0  0.00000000000E+00  0.00000000000E+00  0.45593999997E+02  0.45594000000E+02  0.51100000000E-03 0.  1.
         11   -1    0    0    0    0 -0.00000000000E+00 -0.00000000000E+00 -0.45593999997E+02  0.45594000000E+02  0.51100000000E-03 0. -1.
    9900012    2    1    2    0    0  0.30612916254E+02  0.11880651030E+02 -0.28378209677E+02  0.47787270802E+02  0.19999998894E+02 0.  0.
        -12    1    1    2    0    0 -0.30612916254E+02 -0.11880651030E+02  0.28378209677E+02  0.43400729198E+02  0.00000000000E+00 0.  1.
         11    1    3    3    0    0  0.13663722702E+02 -0.74472064871E+00 -0.20574409274E+02  0.24709476809E+02  0.51100000000E-03 0. -1.
        -11    1    3    3    0    0  0.75120710453E+01  0.57791494764E+01 -0.88158147138E+00  0.95187691543E+01  0.51100000000E-03 0.  1.
         12    1    3    3    0    0  0.94371225062E+01  0.68462222020E+01 -0.69222189314E+01  0.13559024838E+02  0.00000000000E+00 0. -1.
</event>
<event>
 7    1  0.3062695E-010  0.4778727E+02  0.7816164E-02  0.1312668E+00
        -11   -1    0    0    0    0  0.00000000000E+00  0.00000000000E+00  0.45593999997E+02  0.45594000000E+02  0.51100000000E-03 0. -1.
         11   -1    0    0    0    0 -0.00000000000E+00 -0.00000000000E+00 -0.45593999997E+02  0.45594000000E+02  0.51100000000E-03 0.  1.
    9900012    2    1    2    0    0 -0.12126708911E+02  0.53192576499E+01  0.41331242719E+02  0.47787271945E+02  0.20000004107E+02 0.  0.
        -12    1    1    2    0    0  0.12126708911E+02 -0.53192576499E+01 -0.41331242719E+02  0.43400728055E+02  0.00000000000E+00 0.  1.
         11    1    3    3    0    0 -0.40358027905E+01  0.94156156097E+01  0.17569380767E+02  0.20337764437E+02  0.51100000000E-03 0. -1.
        -11    1    3    3    0    0 -0.72613619190E+01 -0.34033942297E+01  0.69762687508E+01  0.10629148374E+02  0.51100000000E-03 0.  1.
         12    1    3    3    0    0 -0.82954420184E+00 -0.69296373011E+00  0.16785593201E+02  0.16820359135E+02  0.00000000000E+00 0. -1.
</event>
<event>
 7    1  0.3062695E-010  0.4778727E+02  0.7816164E-02  0.1312668E+00
        -11   -1    0    0    0    0  0.00000000000E+00  0.00000000000E+00  0.45593999997E+02  0.45594000000E+02  0.51100000000E-03 0. -1.
         11   -1    0    0    0    0 -0.00000000000E+00 -0.00000000000E+00 -0.45593999997E+02  0.45594000000E+02  0.51100000000E-03 0.  1.
    9900012    2    1    2    0    0 -0.17339516970E+02  0.29264040069E+02  0.26955151013E+02  0.47787273554E+02  0.20000011442E+02 0.  0.
        -12    1    1    2    0    0  0.17339516970E+02 -0.29264040069E+02 -0.26955151013E+02  0.43400726446E+02  0.00000000000E+00 0.  1.
         11    1    3    3    0    0 -0.10106678147E+02  0.17314711682E+02  0.21861231170E+02  0.29662393908E+02  0.51100000000E-03 0. -1.
        -11    1    3    3    0    0  0.24520978790E+01  0.29895725961E+01 -0.28441732235E+00  0.38770119667E+01  0.51100000000E-03 0.  1.
         12    1    3    3    0    0 -0.96849367021E+01  0.89597557906E+01  0.53783371655E+01  0.14247867680E+02  0.00000000000E+00 0. -1.
</event>
<event>
 7    1  0.3062695E-010  0.4778727E+02  0.7816164E-02  0.1312668E+00
        -11   -1    0    0    0    0  0.00000000000E+00  0.00000000000E+00  0.45593999997E+02  0.45594000000E+02  0.51100000000E-03 0.  1.
         11   -1    0    0    0    0 -0.00000000000E+00 -0.00000000000E+00 -0.45593999997E+02  0.45594000000E+02  0.51100000000E-03 0. -1.
    9900012    2    1    2    0    0  0.20675946185E+01 -0.42808033552E+02 -0.68425467487E+01  0.47787272701E+02  0.20000007551E+02 0.  0.
        -12    1    1    2    0    0 -0.20675946185E+01  0.42808033552E+02  0.68425467487E+01  0.43400727299E+02  0.00000000000E+00 0.  1.
         11    1    3    3    0    0  0.85524853173E+01 -0.11121892922E+02 -0.12424338310E+01  0.14084926317E+02  0.51100000000E-03 0.  1.
        -11    1    3    3    0    0 -0.44194655084E+01 -0.30204537000E+02 -0.42392360431E+01  0.30819098840E+02  0.51100000000E-03 0. -1.
        -12    1    3    3    0    0 -0.20654251904E+01 -0.14816036300E+01 -0.13608768746E+01  0.28832475443E+01  0.00000000000E+00 0.  1.
</event>
<event>
 7    1  0.3062695E-010  0.4778729E+02  0.7816164E-02  0.1312668E+00
        -11   -1    0    0    0    0  0.00000000000E+00  0.00000000000E+00  0.45593999997E+02  0.45594000000E+02  0.51100000000E-03 0. -1.
         11   -1    0    0    0    0 -0.00000000000E+00 -0.00000000000E+00 -0.45593999997E+02  0.45594000000E+02  0.51100000000E-03 0.  1.
    9900012    2    1    2    0    0 -0.23692921002E+01 -0.41794432779E+02  0.11455731328E+02  0.47787286451E+02  0.20000070242E+02 0.  0.
        -12    1    1    2    0    0  0.23692921002E+01  0.41794432779E+02 -0.11455731328E+02  0.43400713549E+02  0.00000000000E+00 0.  1.
         11    1    3    3    0    0 -0.13404747007E+01 -0.18103501460E+02  0.26881051543E+01  0.18351009431E+02  0.51100000000E-03 0. -1.
        -11    1    3    3    0    0 -0.16077927527E+01 -0.20087433207E+02  0.23189741781E+00  0.20153008387E+02  0.51100000000E-03 0.  1.
        -12    1    3    3    0    0  0.57897535320E+00 -0.36034981108E+01  0.85357287563E+01  0.92832686321E+01  0.00000000000E+00 0.  1.
</event>
<event>
 7    1  0.3062695E-010  0.4778728E+02  0.7816164E-02  0.1312668E+00
        -11   -1    0    0    0    0  0.00000000000E+00  0.00000000000E+00  0.45593999997E+02  0.45594000000E+02  0.51100000000E-03 0.  1.
         11   -1    0    0    0    0 -0.00000000000E+00 -0.00000000000E+00 -0.45593999997E+02  0.45594000000E+02  0.51100000000E-03 0. -1.
    9900012    2    1    2    0    0 -0.24017031634E+02 -0.34066642207E+02 -0.12094169541E+02  0.47787275851E+02  0.20000021916E+02 0.  0.
        -12    1    1    2    0    0  0.24017031634E+02  0.34066642207E+02  0.12094169541E+02  0.43400724149E+02  0.00000000000E+00 0.  1.
         11    1    3    3    0    0 -0.40488675122E+01 -0.14620008773E+02 -0.32795264626E+01  0.15520737055E+02  0.51100000000E-03 0. -1.
        -11    1    3    3    0    0 -0.14233875260E+02 -0.84847680774E+01 -0.10739341970E+02  0.19746593642E+02  0.51100000000E-03 0.  1.
        -12    1    3    3    0    0 -0.57342888620E+01 -0.10961865356E+02  0.19246988917E+01  0.12519945154E+02  0.00000000000E+00 0.  1.
</event>
<event>
 7    1  0.3062695E-010  0.4778727E+02  0.7816164E-02  0.1312668E+00
        -11   -1    0    0    0    0  0.00000000000E+00  0.00000000000E+00  0.45593999997E+02  0.45594000000E+02  0.51100000000E-03 0.  1.
         11   -1    0    0    0    0 -0.00000000000E+00 -0.00000000000E+00 -0.45593999997E+02  0.45594000000E+02  0.51100000000E-03 0. -1.
    9900012    2    1    2    0    0 -0.89616998144E+01  0.41944186312E+02 -0.66329773735E+01  0.47787271691E+02  0.20000002947E+02 0.  0.
        -12    1    1    2    0    0  0.89616998144E+01 -0.41944186312E+02  0.66329773735E+01  0.43400728309E+02  0.00000000000E+00 0.  1.
         11    1    3    3    0    0  0.18400205962E+01  0.13070422933E+02  0.16249395036E+01  0.13298949586E+02  0.51100000000E-03 0. -1.
        -11    1    3    3    0    0 -0.98328163833E+01  0.13737764191E+02 -0.93015712899E+01  0.19285478260E+02  0.51100000000E-03 0.  1.
        -12    1    3    3    0    0 -0.96890402723E+00  0.15135999188E+02  0.10436544128E+01  0.15202843844E+02  0.00000000000E+00 0.  1.
</event>
<event>
 7    1  0.3062695E-010  0.4778723E+02  0.7816164E-02  0.1312668E+00
        -11   -1    0    0    0    0  0.00000000000E+00  0.00000000000E+00  0.45593999997E+02  0.45594000000E+02  0.51100000000E-03 0.  1.
         11   -1    0    0    0    0 -0.00000000000E+00 -0.00000000000E+00 -0.45593999997E+02  0.45594000000E+02  0.51100000000E-03 0. -1.
    9900012    2    1    2    0    0  0.19619229752E+02  0.38080427747E+02  0.69708884774E+01  0.47787234574E+02  0.19999833715E+02 0.  0.
        -12    1    1    2    0    0 -0.19619229752E+02 -0.38080427747E+02 -0.69708884774E+01  0.43400765426E+02  0.00000000000E+00 0.  1.
         11    1    3    3    0    0  0.14001671614E+02  0.15107028238E+02  0.88438338824E+01  0.22416121613E+02  0.51100000000E-03 0. -1.
        -11    1    3    3    0    0  0.41007598769E+01  0.13362914684E+02  0.32853052709E+01  0.14358863166E+02  0.51100000000E-03 0.  1.
         12    1    3    3    0    0  0.15167982612E+01  0.96104848240E+01 -0.51582506758E+01  0.11012249795E+02  0.00000000000E+00 0. -1.
</event>
<event>
 7    1  0.3062695E-010  0.4778727E+02  0.7816164E-02  0.1312668E+00
        -11   -1    0    0    0    0  0.00000000000E+00  0.00000000000E+00  0.45593999997E+02  0.45594000000E+02  0.51100000000E-03 0.  1.
         11   -1    0    0    0    0 -0.00000000000E+00 -0.00000000000E+00 -0.45593999997E+02  0.45594000000E+02  0.51100000000E-03 0. -1.
    9900012    2    1    2    0    0  0.15701210421E+02 -0.28876224218E+02 -0.28341825854E+02  0.47787269286E+02  0.19999991982E+02 0.  0.
        -12    1    1    2    0    0 -0.15701210421E+02  0.28876224218E+02  0.28341825854E+02  0.43400730714E+02  0.00000000000E+00 0.  1.
         11    1    3    3    0    0 -0.25738131473E+01 -0.11926471571E+02 -0.41299657377E+01  0.12881065775E+02  0.51100000000E-03 0.  1.
        -11    1    3    3    0    0  0.14499994940E+02 -0.15078380946E+02 -0.20542811500E+02  0.29319183648E+02  0.51100000000E-03 0. -1.
        -12    1    3    3    0    0  0.37750286291E+01 -0.18713717002E+01 -0.36690486169E+01  0.55870198624E+01  0.00000000000E+00 0.  1.
</event>
<event>
 7    1  0.3062695E-010  0.4778727E+02  0.7816164E-02  0.1312668E+00
        -11   -1    0    0    0    0  0.00000000000E+00  0.00000000000E+00  0.45593999997E+02  0.45594000000E+02  0.51100000000E-03 0.  1.
         11   -1    0    0    0    0 -0.00000000000E+00 -0.00000000000E+00 -0.45593999997E+02  0.45594000000E+02  0.51100000000E-03 0. -1.
    9900012    2    1    2    0    0 -0.79619174090E+01 -0.33354915619E+02 -0.26602271573E+02  0.47787269849E+02  0.19999994551E+02 0.  0.
        -12    1    1    2    0    0  0.79619174090E+01  0.33354915619E+02  0.26602271573E+02  0.43400730151E+02  0.00000000000E+00 0.  1.
         11    1    3    3    0    0 -0.62353772378E+01 -0.31984027976E+02 -0.22913406600E+02  0.39835689741E+02  0.51100000000E-03 0. -1.
        -11    1    3    3    0    0 -0.38727736455E+01 -0.13349578851E+01 -0.40665005765E+01  0.57720806876E+01  0.51100000000E-03 0.  1.
         12    1    3    3    0    0  0.21462334744E+01 -0.35929757979E-01  0.37763560407E+00  0.21794994204E+01  0.00000000000E+00 0. -1.
</event>
<event>
 7    1  0.3062695E-010  0.4778727E+02  0.7816164E-02  0.1312668E+00
        -11   -1    0    0    0    0  0.00000000000E+00  0.00000000000E+00  0.45593999997E+02  0.45594000000E+02  0.51100000000E-03 0. -1.
         11   -1    0    0    0    0 -0.00000000000E+00 -0.00000000000E+00 -0.45593999997E+02  0.45594000000E+02  0.51100000000E-03 0.  1.
    9900012    2    1    2    0    0  0.21324325478E+02  0.31237519320E+02  0.21286467705E+02  0.47787272152E+02  0.20000005050E+02 0.  0.
        -12    1    1    2    0    0 -0.21324325478E+02 -0.31237519320E+02 -0.21286467705E+02  0.43400727848E+02  0.00000000000E+00 0.  1.
         11    1    3    3    0    0  0.24565426187E+02  0.29079752455E+02  0.19358700845E+02  0.42706574029E+02  0.51100000000E-03 0. -1.
        -11    1    3    3    0    0 -0.28516771173E+01  0.51647395575E+00  0.17476721668E+01  0.33842526490E+01  0.51100000000E-03 0.  1.
        -12    1    3    3    0    0 -0.38942359186E+00  0.16412929098E+01  0.18009469284E+00  0.16964454745E+01  0.00000000000E+00 0.  1.
</event>
<event>
 7    1  0.3062695E-010  0.4778727E+02  0.7816164E-02  0.1312668E+00
        -11   -1    0    0    0    0  0.00000000000E+00  0.00000000000E+00  0.45593999997E+02  0.45594000000E+02  0.51100000000E-03 0. -1.
         11   -1    0    0    0    0 -0.00000000000E+00 -0.00000000000E+00 -0.45593999997E+02  0.45594000000E+02  0.51100000000E-03 0.  1.
    9900012    2    1    2    0    0  0.11125797683E+02 -0.41883080039E+02  0.23764368951E+01  0.47787271665E+02  0.20000002831E+02 0.  0.
        -12    1    1    2    0    0 -0.11125797683E+02  0.41883080039E+02 -0.23764368951E+01  0.43400728335E+02  0.00000000000E+00 0.  1.
         11    1    3    3    0    0  0.33825207076E+01 -0.93091421945E+01 -0.11731381810E+01  0.99738572372E+01  0.51100000000E-03 0. -1.
        -11    1    3    3    0    0 -0.19287642904E+01 -0.24947693129E+02  0.46383192734E+01  0.25448409186E+02  0.51100000000E-03 0.  1.
        -12    1    3    3    0    0  0.96720412661E+01 -0.76262447153E+01 -0.10887441973E+01  0.12365005242E+02  0.00000000000E+00 0.  1.
</event>
<event>
 7    1  0.3062695E-010  0.4778727E+02  0.7816164E-02  0.1312668E+00
        -11   -1    0    0    0    0  0.00000000000E+00  0.00000000000E+00  0.45593999997E+02  0.45594000000E+02  0.51100000000E-03 0.  1.
         11   -1    0    0    0    0 -0.00000000000E+00 -0.00000000000E+00 -0.45593999997E+02  0.45594000000E+02  0.51100000000E-03 0. -1.
    9900012    2    1    2    0    0  0.22939906783E+02  0.15691653483E+02 -0.33334001308E+02  0.47787274713E+02  0.20000016727E+02 0.  0.
        -12    1    1    2    0    0 -0.22939906783E+02 -0.15691653483E+02  0.33334001308E+02  0.43400725287E+02  0.00000000000E+00 0.  1.
         11    1    3    3    0    0  0.23101985228E+02  0.19050338008E+02 -0.30289504684E+02  0.42591914654E+02  0.51100000000E-03 0. -1.
        -11    1    3    3    0    0 -0.12854285625E+01 -0.13275308526E+01 -0.17115800470E+01  0.25187638381E+01  0.51100000000E-03 0.  1.
         12    1    3    3    0    0  0.11233501180E+01 -0.20311536722E+01 -0.13329165765E+01  0.26765962205E+01  0.00000000000E+00 0. -1.
</event>
<event>
 7    1  0.3062695E-010  0.4778727E+02  0.7816164E-02  0.1312668E+00
        -11   -1    0    0    0    0  0.00000000000E+00  0.00000000000E+00  0.45593999997E+02  0.45594000000E+02  0.51100000000E-03 0. -1.
         11   -1    0    0    0    0 -0.00000000000E+00 -0.00000000000E+00 -0.45593999997E+02  0.45594000000E+02  0.51100000000E-03 0.  1.
    9900012    2    1    2    0    0 -0.37566139764E+02 -0.20795531417E+02  0.63209808620E+01  0.47787265182E+02  0.19999973271E+02 0.  0.
        -12    1    1    2    0    0  0.37566139764E+02  0.20795531417E+02 -0.63209808620E+01  0.43400734818E+02  0.00000000000E+00 0.  1.
         11    1    3    3    0    0 -0.31261870252E+02 -0.17003657162E+02  0.80014280774E+01  0.36475357984E+02  0.51100000000E-03 0. -1.
        -11    1    3    3    0    0 -0.49555011356E+00  0.13541045667E+01 -0.31035815044E+01  0.34221904547E+01  0.51100000000E-03 0.  1.
        -12    1    3    3    0    0 -0.58087193981E+01 -0.51459788224E+01  0.14231342890E+01  0.78897167434E+01  0.00000000000E+00 0.  1.
</event>
<event>
 7    1  0.3062695E-010  0.4778727E+02  0.7816164E-02  0.1312668E+00
        -11   -1    0    0    0    0  0.00000000000E+00  0.00000000000E+00  0.45593999997E+02  0.45594000000E+02  0.51100000000E-03 0.  1.
         11   -1    0    0    0    0 -0.00000000000E+00 -0.00000000000E+00 -0.45593999997E+02  0.45594000000E+02  0.51100000000E-03 0. -1.
    9900012    2    1    2    0    0  0.18252485236E+02  0.14679942864E+02 -0.36537232343E+02  0.47787270893E+02  0.19999999309E+02 0.  0.
        -12    1    1    2    0    0 -0.18252485236E+02 -0.14679942864E+02  0.36537232343E+02  0.43400729107E+02  0.00000000000E+00 0.  1.
         11    1    3    3    0    0  0.13665880103E+02  0.14912253077E+02 -0.30810713821E+02  0.36856907864E+02  0.51100000000E-03 0. -1.
        -11    1    3    3    0    0  0.47568759814E+01  0.73265917972E+00  0.30228169181E+00  0.48224509389E+01  0.51100000000E-03 0.  1.
        -12    1    3    3    0    0 -0.17027084903E+00 -0.96496939297E+00 -0.60288002132E+01  0.61079120903E+01  0.00000000000E+00 0.  1.
</event>
<event>
 7    1  0.3062695E-010  0.4778727E+02  0.7816164E-02  0.1312668E+00
        -11   -1    0    0    0    0  0.00000000000E+00  0.00000000000E+00  0.45593999997E+02  0.45594000000E+02  0.51100000000E-03 0. -1.
         11   -1    0    0    0    0 -0.00000000000E+00 -0.00000000000E+00 -0.45593999997E+02  0.45594000000E+02  0.51100000000E-03 0.  1.
    9900012    2    1    2    0    0 -0.38359387404E+02  0.33138075502E+00  0.20299525849E+02  0.47787272299E+02  0.20000005722E+02 0.  0.
        -12    1    1    2    0    0  0.38359387404E+02 -0.33138075502E+00 -0.20299525849E+02  0.43400727701E+02  0.00000000000E+00 0.  1.
         11    1    3    3    0    0 -0.43501944161E+01  0.29037202931E+01  0.34086569481E+01  0.62429740868E+01  0.51100000000E-03 0. -1.
        -11    1    3    3    0    0 -0.99177591472E+01 -0.51401830502E+00 -0.28478216748E+01  0.10331323723E+02  0.51100000000E-03 0.  1.
        -12    1    3    3    0    0 -0.24091433841E+02 -0.20583212331E+01  0.19738690576E+02  0.31212974489E+02  0.00000000000E+00 0.  1.
</event>
<event>
 7    1  0.3062695E-010  0.4778727E+02  0.7816164E-02  0.1312668E+00
        -11   -1    0    0    0    0  0.00000000000E+00  0.00000000000E+00  0.45593999997E+02  0.45594000000E+02  0.51100000000E-03 0. -1.
         11   -1    0    0    0    0 -0.00000000000E+00 -0.00000000000E+00 -0.45593999997E+02  0.45594000000E+02  0.51100000000E-03 0.  1.
    9900012    2    1    2    0    0 -0.36107537728E+02  0.10247419927E+02  0.21791269417E+02  0.47787270528E+02  0.19999997644E+02 0.  0.
        -12    1    1    2    0    0  0.36107537728E+02 -0.10247419927E+02 -0.21791269417E+02  0.43400729472E+02  0.00000000000E+00 0.  1.
         11    1    3    3    0    0 -0.24571450821E+02  0.13739069932E+01  0.16495819557E+02  0.29626945151E+02  0.51100000000E-03 0. -1.
        -11    1    3    3    0    0  0.16449619694E+00 -0.17638846528E+00 -0.17567291612E+01  0.17732088136E+01  0.51100000000E-03 0.  1.
         12    1    3    3    0    0 -0.11700583104E+02  0.90499013989E+01  0.70521790210E+01  0.16387116563E+02  0.00000000000E+00 0. -1.
</event>
<event>
 7    1  0.3062695E-010  0.4778727E+02  0.7816164E-02  0.1312668E+00
        -11   -1    0    0    0    0  0.00000000000E+00  0.00000000000E+00  0.45593999997E+02  0.45594000000E+02  0.51100000000E-03 0. -1.
         11   -1    0    0    0    0 -0.00000000000E+00 -0.00000000000E+00 -0.45593999997E+02  0.45594000000E+02  0.51100000000E-03 0.  1.
    9900012    2    1    2    0    0  0.15307120688E+02 -0.27110909395E+02 -0.30237628465E+02  0.47787268127E+02  0.19999986696E+02 0.  0.
        -12    1    1    2    0    0 -0.15307120688E+02  0.27110909395E+02  0.30237628465E+02  0.43400731873E+02  0.00000000000E+00 0.  1.
         11    1    3    3    0    0  0.49101743082E+01 -0.40441259880E+01 -0.52178341032E+01  0.82274272852E+01  0.51100000000E-03 0. -1.
        -11    1    3    3    0    0  0.15020775600E+02 -0.17602255878E+02 -0.16437126015E+02  0.28383837364E+02  0.51100000000E-03 0.  1.
        -12    1    3    3    0    0 -0.46238292203E+01 -0.54645275289E+01 -0.85826683470E+01  0.11176003477E+02  0.00000000000E+00 0.  1.
</event>
<event>
 7    1  0.3062695E-010  0.4778727E+02  0.7816164E-02  0.1312668E+00
        -11   -1    0    0    0    0  0.00000000000E+00  0.00000000000E+00  0.45593999997E+02  0.45594000000E+02  0.51100000000E-03 0. -1.
         11   -1    0    0    0    0 -0.00000000000E+00 -0.00000000000E+00 -0.45593999997E+02  0.45594000000E+02  0.51100000000E-03 0.  1.
    9900012    2    1    2    0    0 -0.20795907191E+02 -0.35984105929E+02 -0.12501908864E+02  0.47787270045E+02  0.19999995444E+02 0.  0.
        -12    1    1    2    0    0  0.20795907191E+02  0.35984105929E+02  0.12501908864E+02  0.43400729955E+02  0.00000000000E+00 0.  1.
         11    1    3    3    0    0 -0.13032136801E+01 -0.83270195147E+01 -0.92272468715E+01  0.12497187883E+02  0.51100000000E-03 0. -1.
        -11    1    3    3    0    0  0.87181085311E+00 -0.29313974743E+01 -0.80604727427E+00  0.31627294834E+01  0.51100000000E-03 0.  1.
         12    1    3    3    0    0 -0.20364504364E+02 -0.24725688940E+02 -0.24686147179E+01  0.32127352679E+02  0.00000000000E+00 0. -1.
</event>
<event>
 7    1  0.3062695E-010  0.4778727E+02  0.7816164E-02  0.1312668E+00
        -11   -1    0    0    0    0  0.00000000000E+00  0.00000000000E+00  0.45593999997E+02  0.45594000000E+02  0.51100000000E-03 0.  1.
         11   -1    0    0    0    0 -0.00000000000E+00 -0.00000000000E+00 -0.45593999997E+02  0.45594000000E+02  0.51100000000E-03 0. -1.
    9900012    2    1    2    0    0  0.42341996669E+02 -0.64310124231E+01 -0.70299927515E+01  0.47787269582E+02  0.19999993334E+02 0.  0.
        -12    1    1    2    0    0 -0.42341996669E+02  0.64310124231E+01  0.70299927515E+01  0.43400730418E+02  0.00000000000E+00 0.  1.
         11    1    3    3    0    0  0.32282884935E+02 -0.27243361078E+01 -0.68148166442E+01  0.33106621591E+02  0.51100000000E-03 0. -1.
        -11    1    3    3    0    0 -0.17668749989E+01 -0.18903351511E+01 -0.78043077725E+00  0.27026443911E+01  0.51100000000E-03 0.  1.
        -12    1    3    3    0    0  0.11825986732E+02 -0.18163411643E+01  0.56525466998E+00  0.11978003601E+02  0.00000000000E+00 0.  1.
</event>
<event>
 7    1  0.4193710E-010  0.4778727E+02  0.7816164E-02  0.1312668E+00
        -11   -1    0    0    0    0  0.00000000000E+00  0.00000000000E+00  0.45593999997E+02  0.45594000000E+02  0.51100000000E-03 0.  1.
         11   -1    0    0    0    0 -0.00000000000E+00 -0.00000000000E+00 -0.45593999997E+02  0.45594000000E+02  0.51100000000E-03 0. -1.
    9900012    2    1    2    0    0  0.37637429553E+02  0.17230413989E+01 -0.21542469156E+02  0.47787274749E+02  0.20000016888E+02 0.  0.
        -12    1    1    2    0    0 -0.37637429553E+02 -0.17230413989E+01  0.21542469156E+02  0.43400725251E+02  0.00000000000E+00 0.  1.
         11    1    3    3    0    0  0.13427388359E+02 -0.41075248054E+01 -0.92495392163E+01  0.16814294340E+02  0.51100000000E-03 0. -1.
        -11    1    3    3    0    0  0.17098382645E+02  0.63632635894E+01 -0.18643022915E+01  0.18339068566E+02  0.51100000000E-03 0.  1.
        -12    1    3    3    0    0  0.71116585490E+01 -0.53269738507E+00 -0.10428627648E+02  0.12633911842E+02  0.00000000000E+00 0.  1.
</event>
<event>
 7    1  0.3062695E-010  0.4778729E+02  0.7816164E-02  0.1312668E+00
        -11   -1    0    0    0    0  0.00000000000E+00  0.00000000000E+00  0.45593999997E+02  0.45594000000E+02  0.51100000000E-03 0. -1.
         11   -1    0    0    0    0 -0.00000000000E+00 -0.00000000000E+00 -0.45593999997E+02  0.45594000000E+02  0.51100000000E-03 0.  1.
    9900012    2    1    2    0    0  0.36847366090E+02 -0.22688873058E+02 -0.33329329882E+01  0.47787288131E+02  0.20000077904E+02 0.  0.
        -12    1    1    2    0    0 -0.36847366090E+02  0.22688873058E+02  0.33329329882E+01  0.43400711869E+02  0.00000000000E+00 0.  1.
         11    1    3    3    0    0  0.37954369059E+01 -0.53865514547E+01 -0.29561440389E+01  0.72221233526E+01  0.51100000000E-03 0. -1.
        -11    1    3    3    0    0  0.67936868078E+01 -0.11612752560E+02 -0.22135461638E+01  0.13634881347E+02  0.51100000000E-03 0.  1.
        -12    1    3    3    0    0  0.26258242377E+02 -0.56895690426E+01  0.18367572145E+01  0.26930283431E+02  0.00000000000E+00 0.  1.
</event>
<event>
 7    1  0.3062695E-010  0.4778729E+02  0.7816164E-02  0.1312668E+00
        -11   -1    0    0    0    0  0.00000000000E+00  0.00000000000E+00  0.45593999997E+02  0.45594000000E+02  0.51100000000E-03 0.  1.
         11   -1    0    0    0    0 -0.00000000000E+00 -0.00000000000E+00 -0.45593999997E+02  0.45594000000E+02  0.51100000000E-03 0. -1.
    9900012    2    1    2    0    0  0.25364408023E+02  0.34823375627E+02  0.52536414284E+01  0.47787292256E+02  0.20000096713E+02 0.  0.
        -12    1    1    2    0    0 -0.25364408023E+02 -0.34823375627E+02 -0.52536414284E+01  0.43400707744E+02  0.00000000000E+00 0.  1.
         11    1    3    3    0    0  0.14251527550E+01  0.12523054864E+02  0.70190000429E+01  0.14426514665E+02  0.51100000000E-03 0.  1.
        -11    1    3    3    0    0  0.39644954697E+01  0.44325461655E+01  0.20503299938E+01  0.62903531843E+01  0.51100000000E-03 0. -1.
         12    1    3    3    0    0  0.19974759798E+02  0.17867774597E+02 -0.38156886083E+01  0.27070424408E+02  0.00000000000E+00 0. -1.
</event>
<event>
 7    1  0.3062695E-010  0.4778727E+02  0.7816164E-02  0.1312668E+00
        -11   -1    0    0    0    0  0.00000000000E+00  0.00000000000E+00  0.45593999997E+02  0.45594000000E+02  0.51100000000E-03 0.  1.
         11   -1    0    0    0    0 -0.00000000000E+00 -0.00000000000E+00 -0.45593999997E+02  0.45594000000E+02  0.51100000000E-03 0. -1.
    9900012    2    1    2    0    0  0.12854016785E+02 -0.14925712805E+02 -0.38673256285E+02  0.47787269569E+02  0.19999993275E+02 0.  0.
        -12    1    1    2    0    0 -0.12854016785E+02  0.14925712805E+02  0.38673256285E+02  0.43400730431E+02  0.00000000000E+00 0.  1.
         11    1    3    3    0    0  0.62867106224E+01 -0.15016767452E+02 -0.32394885438E+02  0.36255408396E+02  0.51100000000E-03 0. -1.
        -11    1    3    3    0    0 -0.35274124217E+00  0.21239617300E+01 -0.32032557570E+00  0.21767518347E+01  0.51100000000E-03 0.  1.
        -12    1    3    3    0    0  0.69200474045E+01 -0.20329070833E+01 -0.59580452708E+01  0.93551093387E+01  0.00000000000E+00 0.  1.
</event>
<event>
 7    1  0.3062695E-010  0.4778727E+02  0.7816164E-02  0.1312668E+00
        -11   -1    0    0    0    0  0.00000000000E+00  0.00000000000E+00  0.45593999997E+02  0.45594000000E+02  0.51100000000E-03 0.  1.
         11   -1    0    0    0    0 -0.00000000000E+00 -0.00000000000E+00 -0.45593999997E+02  0.45594000000E+02  0.51100000000E-03 0. -1.
    9900012    2    1    2    0    0 -0.32305742648E+01  0.19437552125E+02 -0.38669997177E+02  0.47787265855E+02  0.19999976340E+02 0.  0.
        -12    1    1    2    0    0  0.32305742648E+01 -0.19437552125E+02  0.38669997177E+02  0.43400734145E+02  0.00000000000E+00 0.  1.
         11    1    3    3    0    0 -0.12027773918E+01  0.20854697325E+02 -0.20949909637E+02  0.29584857411E+02  0.51100000000E-03 0. -1.
        -11    1    3    3    0    0 -0.47225287568E+00 -0.20667043194E+01 -0.60386630270E+01  0.63999797607E+01  0.51100000000E-03 0.  1.
         12    1    3    3    0    0 -0.15555439974E+01  0.64955911876E+00 -0.11681424513E+02  0.11802428683E+02  0.00000000000E+00 0. -1.
</event>
<event>
 7    1  0.3062695E-010  0.4778727E+02  0.7816164E-02  0.1312668E+00
        -11   -1    0    0    0    0  0.00000000000E+00  0.00000000000E+00  0.45593999997E+02  0.45594000000E+02  0.51100000000E-03 0. -1.
         11   -1    0    0    0    0 -0.00000000000E+00 -0.00000000000E+00 -0.45593999997E+02  0.45594000000E+02  0.51100000000E-03 0.  1.
    9900012    2    1    2    0    0  0.38676049957E+02  0.19597517655E+02 -0.19297361477E+01  0.47787269360E+02  0.19999992318E+02 0.  0.
        -12    1    1    2    0    0 -0.38676049957E+02 -0.19597517655E+02  0.19297361477E+01  0.43400730640E+02  0.00000000000E+00 0.  1.
         11    1    3    3    0    0  0.18013465230E+02  0.10459291122E+02 -0.40395265356E+01  0.21217904591E+02  0.51100000000E-03 0. -1.
        -11    1    3    3    0    0  0.91743939694E+01 -0.31064311012E+01  0.43395978718E+00  0.96957588795E+01  0.51100000000E-03 0.  1.
        -12    1    3    3    0    0  0.11488190758E+02  0.12244657635E+02  0.16758306007E+01  0.16873605889E+02  0.00000000000E+00 0.  1.
</event>
<event>
 7    1  0.3062695E-010  0.4778728E+02  0.7816164E-02  0.1312668E+00
        -11   -1    0    0    0    0  0.00000000000E+00  0.00000000000E+00  0.45593999997E+02  0.45594000000E+02  0.51100000000E-03 0. -1.
         11   -1    0    0    0    0 -0.00000000000E+00 -0.00000000000E+00 -0.45593999997E+02  0.45594000000E+02  0.51100000000E-03 0.  1.
    9900012    2    1    2    0    0  0.26475307608E+02 -0.22178484593E+02  0.26282994516E+02  0.47787275438E+02  0.20000020031E+02 0.  0.
        -12    1    1    2    0    0 -0.26475307608E+02  0.22178484593E+02 -0.26282994516E+02  0.43400724562E+02  0.00000000000E+00 0.  1.
         11    1    3    3    0    0  0.80760139474E+01  0.15915302523E+01  0.26428770774E+01  0.86452165577E+01  0.51100000000E-03 0. -1.
        -11    1    3    3    0    0  0.27943773721E+01 -0.98711677711E+01  0.87336355799E+01  0.13473117262E+02  0.51100000000E-03 0.  1.
         12    1    3    3    0    0  0.15604916288E+02 -0.13898847074E+02  0.14906481859E+02  0.25668941618E+02  0.00000000000E+00 0. -1.
</event>
<event>
 7    1  0.3062695E-010  0.4778727E+02  0.7816164E-02  0.1312668E+00
        -11   -1    0    0    0    0  0.00000000000E+00  0.00000000000E+00  0.45593999997E+02  0.45594000000E+02  0.51100000000E-03 0.  1.
         11   -1    0    0    0    0 -0.00000000000E+00 -0.00000000000E+00 -0.45593999997E+02  0.45594000000E+02  0.51100000000E-03 0. -1.
    9900012    2    1    2    0    0 -0.29927109789E+02  0.31427353128E+02 -0.55947386748E+00  0.47787269177E+02  0.19999991486E+02 0.  0.
        -12    1    1    2    0    0  0.29927109789E+02 -0.31427353128E+02  0.55947386748E+00  0.43400730823E+02  0.00000000000E+00 0.  1.
         11    1    3    3    0    0 -0.13366117318E+02  0.22983087971E+02 -0.30403479408E+01  0.26760402477E+02  0.51100000000E-03 0. -1.
        -11    1    3    3    0    0 -0.95472434861E+00 -0.53914842508E+00  0.28103970655E+01  0.30167054104E+01  0.51100000000E-03 0.  1.
        -12    1    3    3    0    0 -0.15606268122E+02  0.89834135815E+01 -0.32952299217E+00  0.18010161290E+02  0.00000000000E+00 0.  1.
</event>
<event>
 7    1  0.3062695E-010  0.4778727E+02  0.7816164E-02  0.1312668E+00
        -11   -1    0    0    0    0  0.00000000000E+00  0.00000000000E+00  0.45593999997E+02  0.45594000000E+02  0.51100000000E-03 0.  1.
         11   -1    0    0    0    0 -0.00000000000E+00 -0.00000000000E+00 -0.45593999997E+02  0.45594000000E+02  0.51100000000E-03 0. -1.
    9900012    2    1    2    0    0  0.38104967758E+02  0.11588307269E+02 -0.17243718026E+02  0.47787271382E+02  0.20000001540E+02 0.  0.
        -12    1    1    2    0    0 -0.38104967758E+02 -0.11588307269E+02  0.17243718026E+02  0.43400728618E+02  0.00000000000E+00 0.  1.
         11    1    3    3    0    0  0.66104509723E+01  0.19891434488E+01 -0.10237111465E+02  0.12347194221E+02  0.51100000000E-03 0. -1.
        -11    1    3    3    0    0  0.17077390370E+02  0.10234777415E+02 -0.14018986959E+01  0.19958788811E+02  0.51100000000E-03 0.  1.
         12    1    3    3    0    0  0.14417126415E+02 -0.63561359485E+00 -0.56047078650E+01  0.15481288350E+02  0.00000000000E+00 0. -1.
</event>
<event>
 7    1  0.3062695E-010  0.4778727E+02  0.7816164E-02  0.1312668E+00
        -11   -1    0    0    0    0  0.00000000000E+00  0.00000000000E+00  0.45593999997E+02  0.45594000000E+02  0.51100000000E-03 0.  1.
         11   -1    0    0    0    0 -0.00000000000E+00 -0.00000000000E+00 -0.45593999997E+02  0.45594000000E+02  0.51100000000E-03 0. -1.
    9900012    2    1    2    0    0  0.21058482148E+02  0.20073036144E+02 -0.32206162172E+02  0.47787270371E+02  0.19999996930E+02 0.  0.
        -12    1    1    2    0    0 -0.21058482148E+02 -0.20073036144E+02  0.32206162172E+02  0.43400729629E+02  0.00000000000E+00 0.  1.
         11    1    3    3    0    0  0.19075509049E+02  0.11337719752E+02 -0.19869771568E+02  0.29786351859E+02  0.51100000000E-03 0. -1.
        -11    1    3    3    0    0  0.61694304174E-01  0.37687976027E+01  0.77608496369E+00  0.38483697444E+01  0.51100000000E-03 0.  1.
        -12    1    3    3    0    0  0.19212787951E+01  0.49665187893E+01 -0.13112475568E+02  0.14152548767E+02  0.00000000000E+00 0.  1.
</event>
<event>
 7    1  0.3062695E-010  0.4778727E+02  0.7816164E-02  0.1312668E+00
        -11   -1    0    0    0    0  0.00000000000E+00  0.00000000000E+00  0.45593999997E+02  0.45594000000E+02  0.51100000000E-03 0. -1.
         11   -1    0    0    0    0 -0.00000000000E+00 -0.00000000000E+00 -0.45593999997E+02  0.45594000000E+02  0.51100000000E-03 0.  1.
    9900012    2    1    2    0    0  0.32811152452E+02 -0.25607175945E+02  0.12301379095E+02  0.47787272901E+02  0.20000008466E+02 0.  0.
        -12    1    1    2    0    0 -0.32811152452E+02  0.25607175945E+02 -0.12301379095E+02  0.43400727099E+02  0.00000000000E+00 0.  1.
         11    1    3    3    0    0  0.16940578880E+02 -0.15773077126E+02  0.64522561100E+01  0.24029248511E+02  0.51100000000E-03 0. -1.
        -11    1    3    3    0    0  0.33767363143E+01  0.34086969549E+01  0.79717963392E+00  0.48638522486E+01  0.51100000000E-03 0.  1.
        -12    1    3    3    0    0  0.12493837257E+02 -0.13242795773E+02  0.50519433509E+01  0.18894172142E+02  0.00000000000E+00 0.  1.
</event>
<event>
 7    1  0.3066308E-010  0.4778727E+02  0.7816164E-02  0.1312668E+00
        -11   -1    0    0    0    0  0.00000000000E+00  0.00000000000E+00  0.45593999997E+02  0.45594000000E+02  0.51100000000E-03 0.  1.
         11   -1    0    0    0    0 -0.00000000000E+00 -0.00000000000E+00 -0.45593999997E+02  0.45594000000E+02  0.51100000000E-03 0. -1.
    9900012    2    1    2    0    0 -0.83617863849E+01 -0.37654087871E+02 -0.19896568627E+02  0.47787271341E+02  0.20000001354E+02 0.  0.
        -12    1    1    2    0    0  0.83617863849E+01  0.37654087871E+02  0.19896568627E+02  0.43400728659E+02  0.00000000000E+00 0.  1.
         11    1    3    3    0    0 -0.76184579814E+01 -0.22340213611E+02 -0.72724738106E+01  0.24698480151E+02  0.51100000000E-03 0. -1.
        -11    1    3    3    0    0  0.91991319884E-01 -0.24609642735E+01 -0.95290279068E+01  0.98421126121E+01  0.51100000000E-03 0.  1.
        -12    1    3    3    0    0 -0.83531972335E+00 -0.12852909987E+02 -0.30950669094E+01  0.13246678578E+02  0.00000000000E+00 0.  1.
</event>
<event>
 7    1  0.3062695E-010  0.4778727E+02  0.7816164E-02  0.1312668E+00
        -11   -1    0    0    0    0  0.00000000000E+00  0.00000000000E+00  0.45593999997E+02  0.45594000000E+02  0.51100000000E-03 0. -1.
         11   -1    0    0    0    0 -0.00000000000E+00 -0.00000000000E+00 -0.45593999997E+02  0.45594000000E+02  0.51100000000E-03 0.  1.
    9900012    2    1    2    0    0 -0.16115933368E+02  0.13879955098E+02  0.37831821898E+02  0.47787271780E+02  0.20000003356E+02 0.  0.
        -12    1    1    2    0    0  0.16115933368E+02 -0.13879955098E+02 -0.37831821898E+02  0.43400728220E+02  0.00000000000E+00 0.  1.
         11    1    3    3    0    0 -0.14751995886E+02  0.84481346609E+01  0.37717008710E+02  0.41371066075E+02  0.51100000000E-03 0. -1.
        -11    1    3    3    0    0 -0.20720850669E+01  0.45002541234E+01  0.86063184159E+00  0.50285694912E+01  0.51100000000E-03 0.  1.
         12    1    3    3    0    0  0.70814758525E+00  0.93156631396E+00 -0.74581865343E+00  0.13876362144E+01  0.00000000000E+00 0. -1.
</event>
<event>
 7    1  0.3062695E-010  0.4778727E+02  0.7816164E-02  0.1312668E+00
        -11   -1    0    0    0    0  0.00000000000E+00  0.00000000000E+00  0.45593999997E+02  0.45594000000E+02  0.51100000000E-03 0.  1.
         11   -1    0    0    0    0 -0.00000000000E+00 -0.00000000000E+00 -0.45593999997E+02  0.45594000000E+02  0.51100000000E-03 0. -1.
    9900012    2    1    2    0    0  0.25746385895E+02  0.34877409171E+02  0.20768762419E+01  0.47787268761E+02  0.19999989589E+02 0.  0.
        -12    1    1    2    0    0 -0.25746385895E+02 -0.34877409171E+02 -0.20768762419E+01  0.43400731239E+02  0.00000000000E+00 0.  1.
         11    1    3    3    0    0  0.76599903773E+01  0.19683729595E+02 -0.53813753877E+01  0.21796418621E+02  0.51100000000E-03 0. -1.
        -11    1    3    3    0    0  0.16389521776E+02  0.13400458975E+02  0.90815955790E+01  0.23036147753E+02  0.51100000000E-03 0.  1.
         12    1    3    3    0    0  0.16968737414E+01  0.17932206014E+01 -0.16233439494E+01  0.29547023873E+01  0.00000000000E+00 0. -1.
</event>
<event>
 7    1  0.3062695E-010  0.4778726E+02  0.7816164E-02  0.1312668E+00
        -11   -1    0    0    0    0  0.00000000000E+00  0.00000000000E+00  0.45593999997E+02  0.45594000000E+02  0.51100000000E-03 0.  1.
         11   -1    0    0    0    0 -0.00000000000E+00 -0.00000000000E+00 -0.45593999997E+02  0.45594000000E+02  0.51100000000E-03 0. -1.
    9900012    2    1    2    0    0  0.21095409077E+02  0.24917272519E+02 -0.28596106021E+02  0.47787262294E+02  0.19999960102E+02 0.  0.
        -12    1    1    2    0    0 -0.21095409077E+02 -0.24917272519E+02  0.28596106021E+02  0.43400737706E+02  0.00000000000E+00 0.  1.
         11    1    3    3    0    0  0.49474988816E+01  0.70438953377E+01 -0.69622349242E+01  0.11070994631E+02  0.51100000000E-03 0. -1.
        -11    1    3    3    0    0  0.18461785365E+02  0.91201783396E+01 -0.14395329245E+02  0.25124503500E+02  0.51100000000E-03 0.  1.
        -12    1    3    3    0    0 -0.23138751700E+01  0.87531988417E+01 -0.72385418517E+01  0.11591764163E+02  0.00000000000E+00 0.  1.
</event>
<event>
 7    1  0.3062695E-010  0.4778723E+02  0.7816164E-02  0.1312668E+00
        -11   -1    0    0    0    0  0.00000000000E+00  0.00000000000E+00  0.45593999997E+02  0.45594000000E+02  0.51100000000E-03 0. -1.
         11   -1    0    0    0    0 -0.00000000000E+00 -0.00000000000E+00 -0.45593999997E+02  0.45594000000E+02  0.51100000000E-03 0.  1.
    9900012    2    1    2    0    0 -0.47911263664E+01 -0.26036626385E+02  0.34391370843E+02  0.47787225884E+02  0.19999794096E+02 0.  0.
        -12    1    1    2    0    0  0.47911263664E+01  0.26036626385E+02 -0.34391370843E+02  0.43400774116E+02  0.00000000000E+00 0.  1.
         11    1    3    3    0    0 -0.12745823128E+01 -0.22180502170E+02  0.28091899176E+02  0.35815555784E+02  0.51100000000E-03 0. -1.
        -11    1    3    3    0    0 -0.64735738041E+00  0.17069147353E+01 -0.12141194660E+01  0.21924223659E+01  0.51100000000E-03 0.  1.
        -12    1    3    3    0    0 -0.28691866732E+01 -0.55630389502E+01  0.75135911337E+01  0.97792477345E+01  0.00000000000E+00 0.  1.
</event>
<event>
 7    1  0.3062695E-010  0.4778729E+02  0.7816164E-02  0.1312668E+00
        -11   -1    0    0    0    0  0.00000000000E+00  0.00000000000E+00  0.45593999997E+02  0.45594000000E+02  0.51100000000E-03 0.  1.
         11   -1    0    0    0    0 -0.00000000000E+00 -0.00000000000E+00 -0.45593999997E+02  0.45594000000E+02  0.51100000000E-03 0. -1.
    9900012    2    1    2    0    0  0.95121076177E+01  0.42343082298E+02  0.45231093886E+00  0.47787292690E+02  0.20000098692E+02 0.  0.
        -12    1    1    2    0    0 -0.95121076177E+01 -0.42343082298E+02 -0.45231093886E+00  0.43400707310E+02  0.00000000000E+00 0.  1.
         11    1    3    3    0    0  0.12555099313E+02  0.16948016403E+02  0.10757979094E+01  0.21119259460E+02  0.51100000000E-03 0. -1.
        -11    1    3    3    0    0 -0.26551977054E+01  0.22921313713E+02 -0.29346985159E+01  0.23260463298E+02  0.51100000000E-03 0.  1.
         12    1    3    3    0    0 -0.38779398965E+00  0.24737521817E+01  0.23112115454E+01  0.34075699322E+01  0.00000000000E+00 0. -1.
</event>
<event>
 7    1  0.3062695E-010  0.4778727E+02  0.7816164E-02  0.1312668E+00
        -11   -1    0    0    0    0  0.00000000000E+00  0.00000000000E+00  0.45593999997E+02  0.45594000000E+02  0.51100000000E-03 0.  1.
         11   -1    0    0    0    0 -0.00000000000E+00 -0.00000000000E+00 -0.45593999997E+02  0.45594000000E+02  0.51100000000E-03 0. -1.
    9900012    2    1    2    0    0  0.11361484020E+02 -0.41831868508E+02 -0.21528403623E+01  0.47787271163E+02  0.20000000539E+02 0.  0.
        -12    1    1    2    0    0 -0.11361484020E+02  0.41831868508E+02  0.21528403623E+01  0.43400728837E+02  0.00000000000E+00 0.  1.
         11    1    3    3    0    0  0.79888188027E+01 -0.30349614737E+02  0.19604927108E+01  0.31444615954E+02  0.51100000000E-03 0. -1.
        -11    1    3    3    0    0  0.23958075366E+01  0.14127348951E+01 -0.14603614481E+01  0.31413960999E+01  0.51100000000E-03 0.  1.
         12    1    3    3    0    0  0.97685768107E+00 -0.12894988666E+02 -0.26529716250E+01  0.13201259109E+02  0.00000000000E+00 0. -1.
</event>
<event>
 7    1  0.3062695E-010  0.4778729E+02  0.7816164E-02  0.1312668E+00
        -11   -1    0    0    0    0  0.00000000000E+00  0.00000000000E+00  0.45593999997E+02  0.45594000000E+02  0.51100000000E-03 0.  1.
         11   -1    0    0    0    0 -0.00000000000E+00 -0.00000000000E+00 -0.45593999997E+02  0.45594000000E+02  0.51100000000E-03 0. -1.
    9900012    2    1    2    0    0 -0.10016252699E+01 -0.17802497022E+02 -0.39568799586E+02  0.47787285097E+02  0.20000064073E+02 0.  0.
        -12    1    1    2    0    0  0.10016252699E+01  0.17802497022E+02  0.39568799586E+02  0.43400714903E+02  0.00000000000E+00 0.  1.
         11    1    3    3    0    0 -0.10829733399E+01 -0.20355735238E+02 -0.26521387862E+02  0.33450154001E+02  0.51100000000E-03 0. -1.
        -11    1    3    3    0    0 -0.16897711427E+01  0.35035053652E+01 -0.93912894142E+01  0.10164949261E+02  0.51100000000E-03 0.  1.
         12    1    3    3    0    0  0.17711192127E+01 -0.95026714888E+00 -0.36561223099E+01  0.41721818351E+01  0.00000000000E+00 0. -1.
</event>
<event>
 7    1  0.3062695E-010  0.4778727E+02  0.7816164E-02  0.1312668E+00
        -11   -1    0    0    0    0  0.00000000000E+00  0.00000000000E+00  0.45593999997E+02  0.45594000000E+02  0.51100000000E-03 0.  1.
         11   -1    0    0    0    0 -0.00000000000E+00 -0.00000000000E+00 -0.45593999997E+02  0.45594000000E+02  0.51100000000E-03 0. -1.
    9900012    2    1    2    0    0  0.12040840860E+01 -0.39500959678E+02 -0.17940124347E+02  0.47787266186E+02  0.19999977849E+02 0.  0.
        -12    1    1    2    0    0 -0.12040840860E+01  0.39500959678E+02  0.17940124347E+02  0.43400733814E+02  0.00000000000E+00 0.  1.
         11    1    3    3    0    0 -0.67543264663E+01 -0.47084160143E+01 -0.33794351015E+01  0.89000387214E+01  0.51100000000E-03 0. -1.
        -11    1    3    3    0    0  0.72757763397E+01 -0.21701183733E+02 -0.81652200296E+01  0.24301216331E+02  0.51100000000E-03 0.  1.
        -12    1    3    3    0    0  0.68263421263E+00 -0.13091359931E+02 -0.63954692158E+01  0.14586011134E+02  0.00000000000E+00 0.  1.
</event>
<event>
 7    1  0.3062695E-010  0.4778727E+02  0.7816164E-02  0.1312668E+00
        -11   -1    0    0    0    0  0.00000000000E+00  0.00000000000E+00  0.45593999997E+02  0.45594000000E+02  0.51100000000E-03 0.  1.
         11   -1    0    0    0    0 -0.00000000000E+00 -0.00000000000E+00 -0.45593999997E+02  0.45594000000E+02  0.51100000000E-03 0. -1.
    9900012    2    1    2    0    0 -0.40862685258E+02  0.46833897260E+01 -0.13853893601E+02  0.47787267821E+02  0.19999985302E+02 0.  0.
        -12    1    1    2    0    0  0.40862685258E+02 -0.46833897260E+01  0.13853893601E+02  0.43400732179E+02  0.00000000000E+00 0.  1.
         11    1    3    3    0    0 -0.16449700173E+02 -0.60404700994E+01 -0.11099436428E+02  0.20743129081E+02  0.51100000000E-03 0. -1.
        -11    1    3    3    0    0 -0.13719010041E+02  0.62479715319E+01 -0.33255186880E+01  0.15437210226E+02  0.51100000000E-03 0.  1.
         12    1    3    3    0    0 -0.10693975044E+02  0.44758882935E+01  0.57106151547E+00  0.11606928513E+02  0.00000000000E+00 0. -1.
</event>
<event>
 7    1  0.3062695E-010  0.4778727E+02  0.7816164E-02  0.1312668E+00
        -11   -1    0    0    0    0  0.00000000000E+00  0.00000000000E+00  0.45593999997E+02  0.45594000000E+02  0.51100000000E-03 0. -1.
         11   -1    0    0    0    0 -0.00000000000E+00 -0.00000000000E+00 -0.45593999997E+02  0.45594000000E+02  0.51100000000E-03 0.  1.
    9900012    2    1    2    0    0 -0.35624274337E+02  0.11527647605E+02  0.21946473678E+02  0.47787270879E+02  0.19999999245E+02 0.  0.
        -12    1    1    2    0    0  0.35624274337E+02 -0.11527647605E+02 -0.21946473678E+02  0.43400729121E+02  0.00000000000E+00 0.  1.
         11    1    3    3    0    0 -0.54855687140E+01  0.23023281783E+01  0.58256047299E+01  0.83264548210E+01  0.51100000000E-03 0. -1.
        -11    1    3    3    0    0 -0.23516445231E+02  0.12016618203E+02  0.18088741424E+02  0.32009762197E+02  0.51100000000E-03 0.  1.
        -12    1    3    3    0    0 -0.66222603916E+01 -0.27912987768E+01 -0.19678724755E+01  0.74510538608E+01  0.00000000000E+00 0.  1.
</event>
<event>
 7    1  0.3062695E-010  0.4778727E+02  0.7816164E-02  0.1312668E+00
        -11   -1    0    0    0    0  0.00000000000E+00  0.00000000000E+00  0.45593999997E+02  0.45594000000E+02  0.51100000000E-03 0.  1.
         11   -1    0    0    0    0 -0.00000000000E+00 -0.00000000000E+00 -0.45593999997E+02  0.45594000000E+02  0.51100000000E-03 0. -1.
    9900012    2    1    2    0    0 -0.24851237302E+02 -0.68646573322E+01 -0.34912975103E+02  0.47787270211E+02  0.19999996198E+02 0.  0.
        -12    1    1    2    0    0  0.24851237302E+02  0.68646573322E+01  0.34912975103E+02  0.43400729789E+02  0.00000000000E+00 0.  1.
         11    1    3    3    0    0 -0.20042975460E+02 -0.10384957726E+02 -0.35100222463E+02  0.41732407425E+02  0.51100000000E-03 0. -1.
        -11    1    3    3    0    0 -0.38428249704E+00  0.16111459204E-01  0.14499040183E+00  0.41104147527E+00  0.51100000000E-03 0.  1.
         12    1    3    3    0    0 -0.44239793450E+01  0.35041889345E+01  0.42256958390E-01  0.56438213104E+01  0.00000000000E+00 0. -1.
</event>
<event>
 7    1  0.3062695E-010  0.4778726E+02  0.7816164E-02  0.1312668E+00
        -11   -1    0    0    0    0  0.00000000000E+00  0.00000000000E+00  0.45593999997E+02  0.45594000000E+02  0.51100000000E-03 0. -1.
         11   -1    0    0    0    0 -0.00000000000E+00 -0.00000000000E+00 -0.45593999997E+02  0.45594000000E+02  0.51100000000E-03 0.  1.
    9900012    2    1    2    0    0  0.29863156096E+02  0.24792468429E+02  0.19420331738E+02  0.47787264204E+02  0.19999968813E+02 0.  0.
        -12    1    1    2    0    0 -0.29863156096E+02 -0.24792468429E+02 -0.19420331738E+02  0.43400735796E+02  0.00000000000E+00 0.  1.
         11    1    3    3    0    0  0.10739864131E+01  0.36100640006E+01 -0.91989403484E+00  0.38771399511E+01  0.51100000000E-03 0. -1.
        -11    1    3    3    0    0  0.24144142902E+02  0.90112008801E+01  0.15095002104E+02  0.29866376857E+02  0.51100000000E-03 0.  1.
        -12    1    3    3    0    0  0.46450267812E+01  0.12171203548E+02  0.52452236686E+01  0.14043747397E+02  0.00000000000E+00 0.  1.
</event>
<event>
 7    1  0.3062695E-010  0.4778728E+02  0.7816164E-02  0.1312668E+00
        -11   -1    0    0    0    0  0.00000000000E+00  0.00000000000E+00  0.45593999997E+02  0.45594000000E+02  0.51100000000E-03 0.  1.
         11   -1    0    0    0    0 -0.00000000000E+00 -0.00000000000E+00 -0.45593999997E+02  0.45594000000E+02  0.51100000000E-03 0. -1.
    9900012    2    1    2    0    0 -0.23285698894E+02 -0.70977586502E+01 -0.35930780168E+02  0.47787275187E+02  0.20000018886E+02 0.  0.
        -12    1    1    2    0    0  0.23285698894E+02  0.70977586502E+01  0.35930780168E+02  0.43400724813E+02  0.00000000000E+00 0.  1.
         11    1    3    3    0    0 -0.16978352359E+02  0.10981289471E+01 -0.30053741113E+02  0.34535455566E+02  0.51100000000E-03 0. -1.
        -11    1    3    3    0    0 -0.18688148315E+01 -0.59011273577E+01 -0.10012482092E+01  0.62704283110E+01  0.51100000000E-03 0.  1.
         12    1    3    3    0    0 -0.44385317037E+01 -0.22947602396E+01 -0.48757908456E+01  0.69813913092E+01  0.00000000000E+00 0. -1.
</event>
<event>
 7    1  0.3556677E-010  0.4778731E+02  0.7816164E-02  0.1312668E+00
        -11   -1    0    0    0    0  0.00000000000E+00  0.00000000000E+00  0.45593999997E+02  0.45594000000E+02  0.51100000000E-03 0. -1.
         11   -1    0    0    0    0 -0.00000000000E+00 -0.00000000000E+00 -0.45593999997E+02  0.45594000000E+02  0.51100000000E-03 0.  1.
    9900012    2    1    2    0    0 -0.21116672915E+02  0.17340671065E+02  0.33719539895E+02  0.47787307394E+02  0.20000165731E+02 0.  0.
        -12    1    1    2    0    0  0.21116672915E+02 -0.17340671065E+02 -0.33719539895E+02  0.43400692606E+02  0.00000000000E+00 0.  1.
         11    1    3    3    0    0 -0.17422514151E+02  0.78073329879E+01  0.29374641355E+02  0.35033812278E+02  0.51100000000E-03 0. -1.
        -11    1    3    3    0    0 -0.58460904109E+00  0.75828353518E+01  0.48912042016E+01  0.90424022530E+01  0.51100000000E-03 0.  1.
        -12    1    3    3    0    0 -0.31095497228E+01  0.19505027254E+01 -0.54630566212E+00  0.37110928628E+01  0.00000000000E+00 0.  1.
</event>
<event>
 7    1  0.3062695E-010  0.4778727E+02  0.7816164E-02  0.1312668E+00
        -11   -1    0    0    0    0  0.00000000000E+00  0.00000000000E+00  0.45593999997E+02  0.45594000000E+02  0.51100000000E-03 0.  1.
         11   -1    0    0    0    0 -0.00000000000E+00 -0.00000000000E+00 -0.45593999997E+02  0.45594000000E+02  0.51100000000E-03 0. -1.
    9900012    2    1    2    0    0  0.35211303688E+02  0.49004973554E+01 -0.24895225640E+02  0.47787273722E+02  0.20000012209E+02 0.  0.
        -12    1    1    2    0    0 -0.35211303688E+02 -0.49004973554E+01  0.24895225640E+02  0.43400726278E+02  0.00000000000E+00 0.  1.
         11    1    3    3    0    0  0.46596208646E+01 -0.33128789198E+01 -0.75223057682E+01  0.94484029164E+01  0.51100000000E-03 0. -1.
        -11    1    3    3    0    0  0.29062358438E+01 -0.29358267529E+01 -0.71882157355E+00  0.41930883866E+01  0.51100000000E-03 0.  1.
         12    1    3    3    0    0  0.27645446980E+02  0.11149203028E+02 -0.16654098299E+02  0.34145782419E+02  0.00000000000E+00 0. -1.
</event>
<event>
 7    1  0.3062695E-010  0.4778727E+02  0.7816164E-02  0.1312668E+00
        -11   -1    0    0    0    0  0.00000000000E+00  0.00000000000E+00  0.45593999997E+02  0.45594000000E+02  0.51100000000E-03 0.  1.
         11   -1    0    0    0    0 -0.00000000000E+00 -0.00000000000E+00 -0.45593999997E+02  0.45594000000E+02  0.51100000000E-03 0. -1.
    9900012    2    1    2    0    0 -0.95639891966E+01  0.29864199034E+02 -0.30004723350E+02  0.47787266174E+02  0.19999977795E+02 0.  0.
        -12    1    1    2    0    0  0.95639891966E+01 -0.29864199034E+02  0.30004723350E+02  0.43400733826E+02  0.00000000000E+00 0.  1.
         11    1    3    3    0    0 -0.23191557958E+01  0.12527254958E+02 -0.22770472431E+02  0.26092240520E+02  0.51100000000E-03 0. -1.
        -11    1    3    3    0    0 -0.47489346555E+01  0.24424771779E+01 -0.15793397528E+01  0.55688768565E+01  0.51100000000E-03 0.  1.
         12    1    3    3    0    0 -0.24958987453E+01  0.14894466899E+02 -0.56549111663E+01  0.16126148798E+02  0.00000000000E+00 0. -1.
</event>
<event>
 7    1  0.3071178E-010  0.4778727E+02  0.7816164E-02  0.1312668E+00
        -11   -1    0    0    0    0  0.00000000000E+00  0.00000000000E+00  0.45593999997E+02  0.45594000000E+02  0.51100000000E-03 0.  1.
         11   -1    0    0    0    0 -0.00000000000E+00 -0.00000000000E+00 -0.45593999997E+02  0.45594000000E+02  0.51100000000E-03 0. -1.
    9900012    2    1    2    0    0  0.18713495980E+02 -0.18257006121E+02 -0.34642603274E+02  0.47787272288E+02  0.20000005670E+02 0.  0.
        -12    1    1    2    0    0 -0.18713495980E+02  0.18257006121E+02  0.34642603274E+02  0.43400727712E+02  0.00000000000E+00 0.  1.
         11    1    3    3    0    0  0.26959860718E+01 -0.13057856373E+02 -0.16011602860E+02  0.20836203598E+02  0.51100000000E-03 0. -1.
        -11    1    3    3    0    0  0.11970043716E+02 -0.55962164275E+01 -0.77124985967E+01  0.15299745741E+02  0.51100000000E-03 0.  1.
        -12    1    3    3    0    0  0.40474661923E+01  0.39706667943E+00 -0.10918501818E+02  0.11651322949E+02  0.00000000000E+00 0.  1.
</event>
<event>
 7    1  0.3062695E-010  0.4778727E+02  0.7816164E-02  0.1312668E+00
        -11   -1    0    0    0    0  0.00000000000E+00  0.00000000000E+00  0.45593999997E+02  0.45594000000E+02  0.51100000000E-03 0. -1.
         11   -1    0    0    0    0 -0.00000000000E+00 -0.00000000000E+00 -0.45593999997E+02  0.45594000000E+02  0.51100000000E-03 0.  1.
    9900012    2    1    2    0    0  0.23139399794E+02 -0.22884454225E+01  0.36646344363E+02  0.47787270047E+02  0.19999995453E+02 0.  0.
        -12    1    1    2    0    0 -0.23139399794E+02  0.22884454225E+01 -0.36646344363E+02  0.43400729953E+02  0.00000000000E+00 0.  1.
         11    1    3    3    0    0  0.30648363028E+01 -0.16186124865E+01  0.23365384702E+02  0.23621056930E+02  0.51100000000E-03 0. -1.
        -11    1    3    3    0    0  0.11543601133E+02 -0.54878881371E+00  0.64357670100E+01  0.13227811367E+02  0.51100000000E-03 0.  1.
         12    1    3    3    0    0  0.85309623582E+01 -0.12104412236E+00  0.68451926504E+01  0.10938401751E+02  0.00000000000E+00 0. -1.
</event>
<event>
 7    1  0.3062695E-010  0.4778727E+02  0.7816164E-02  0.1312668E+00
        -11   -1    0    0    0    0  0.00000000000E+00  0.00000000000E+00  0.45593999997E+02  0.45594000000E+02  0.51100000000E-03 0.  1.
         11   -1    0    0    0    0 -0.00000000000E+00 -0.00000000000E+00 -0.45593999997E+02  0.45594000000E+02  0.51100000000E-03 0. -1.
    9900012    2    1    2    0    0 -0.40461492945E+02  0.13492407369E+02 -0.80277937309E+01  0.47787274889E+02  0.20000017528E+02 0.  0.
        -12    1    1    2    0    0  0.40461492945E+02 -0.13492407369E+02  0.80277937309E+01  0.43400725111E+02  0.00000000000E+00 0.  1.
         11    1    3    3    0    0 -0.17927219821E+02  0.32549961214E+01 -0.10707874752E+02  0.21133830515E+02  0.51100000000E-03 0. -1.
        -11    1    3    3    0    0 -0.46252171617E+01  0.64703113397E+01  0.25492215285E+01  0.83520113319E+01  0.51100000000E-03 0.  1.
         12    1    3    3    0    0 -0.17909055962E+02  0.37670999084E+01  0.13085949270E+00  0.18301433042E+02  0.00000000000E+00 0. -1.
</event>
<event>
 7    1  0.3062695E-010  0.4778727E+02  0.7816164E-02  0.1312668E+00
        -11   -1    0    0    0    0  0.00000000000E+00  0.00000000000E+00  0.45593999997E+02  0.45594000000E+02  0.51100000000E-03 0. -1.
         11   -1    0    0    0    0 -0.00000000000E+00 -0.00000000000E+00 -0.45593999997E+02  0.45594000000E+02  0.51100000000E-03 0.  1.
    9900012    2    1    2    0    0  0.22673522082E+02  0.35424905414E+02  0.10705627989E+02  0.47787274225E+02  0.20000014499E+02 0.  0.
        -12    1    1    2    0    0 -0.22673522082E+02 -0.35424905414E+02 -0.10705627989E+02  0.43400725775E+02  0.00000000000E+00 0.  1.
         11    1    3    3    0    0  0.23514369836E+02  0.23675147890E+02  0.82685362054E+01  0.34377418571E+02  0.51100000000E-03 0. -1.
        -11    1    3    3    0    0 -0.17717371459E+01  0.97176914257E+01 -0.29210176618E+00  0.98822013167E+01  0.51100000000E-03 0.  1.
         12    1    3    3    0    0  0.93088939159E+00  0.20320660990E+01  0.27291935493E+01  0.35276543367E+01  0.00000000000E+00 0. -1.
</event>
<event>
 7    1  0.3062695E-010  0.4778727E+02  0.7816164E-02  0.1312668E+00
        -11   -1    0    0    0    0  0.00000000000E+00  0.00000000000E+00  0.45593999997E+02  0.45594000000E+02  0.51100000000E-03 0. -1.
         11   -1    0    0    0    0 -0.00000000000E+00 -0.00000000000E+00 -0.45593999997E+02  0.45594000000E+02  0.51100000000E-03 0.  1.
    9900012    2    1    2    0    0 -0.19985943795E+02  0.37302267944E+02 -0.96294434725E+01  0.47787270459E+02  0.19999997329E+02 0.  0.
        -12    1    1    2    0    0  0.19985943795E+02 -0.37302267944E+02  0.96294434725E+01  0.43400729541E+02  0.00000000000E+00 0.  1.
         11    1    3    3    0    0 -0.12114522844E+01  0.10342996295E+01 -0.62365742948E+01  0.64367889166E+01  0.51100000000E-03 0. -1.
        -11    1    3    3    0    0 -0.30423156834E+01  0.24447418651E+01 -0.12933806747E+00  0.39050193471E+01  0.51100000000E-03 0.  1.
         12    1    3    3    0    0 -0.15732175828E+02  0.33823226449E+02 -0.32635311102E+01  0.37445462195E+02  0.00000000000E+00 0. -1.
</event>
<event>
 7    1  0.3062695E-010  0.4778727E+02  0.7816164E-02  0.1312668E+00
        -11   -1    0    0    0    0  0.00000000000E+00  0.00000000000E+00  0.45593999997E+02  0.45594000000E+02  0.51100000000E-03 0.  1.
         11   -1    0    0    0    0 -0.00000000000E+00 -0.00000000000E+00 -0.45593999997E+02  0.45594000000E+02  0.51100000000E-03 0. -1.
    9900012    2    1    2    0    0 -0.42678885234E+02  0.51032792472E+01 -0.60076980392E+01  0.47787272591E+02  0.20000007053E+02 0.  0.
        -12    1    1    2    0    0  0.42678885234E+02 -0.51032792472E+01  0.60076980392E+01  0.43400727409E+02  0.00000000000E+00 0.  1.
         11    1    3    3    0    0  0.36918532350E+00  0.94485174488E+00 -0.34984178786E+01  0.36425225514E+01  0.51100000000E-03 0.  1.
        -11    1    3    3    0    0 -0.41142045736E+02  0.54181591195E+01 -0.35203335808E+01  0.41646333865E+02  0.51100000000E-03 0. -1.
         12    1    3    3    0    0 -0.19060248214E+01 -0.12597316172E+01  0.10110534202E+01  0.24984161754E+01  0.00000000000E+00 0. -1.
</event>
<event>
 7    1  0.3062695E-010  0.4778728E+02  0.7816164E-02  0.1312668E+00
        -11   -1    0    0    0    0  0.00000000000E+00  0.00000000000E+00  0.45593999997E+02  0.45594000000E+02  0.51100000000E-03 0.  1.
         11   -1    0    0    0    0 -0.00000000000E+00 -0.00000000000E+00 -0.45593999997E+02  0.45594000000E+02  0.51100000000E-03 0. -1.
    9900012    2    1    2    0    0  0.19773092284E+02 -0.29576952294E+02 -0.24856617582E+02  0.47787277390E+02  0.20000028932E+02 0.  0.
        -12    1    1    2    0    0 -0.19773092284E+02  0.29576952294E+02  0.24856617582E+02  0.43400722610E+02  0.00000000000E+00 0.  1.
         11    1    3    3    0    0  0.13316899449E+02 -0.28959194288E+02 -0.15818540416E+02  0.35583717707E+02  0.51100000000E-03 0. -1.
        -11    1    3    3    0    0  0.14772746452E+01 -0.12923482556E+01 -0.60439518837E+01  0.63546722201E+01  0.51100000000E-03 0.  1.
         12    1    3    3    0    0  0.49789181896E+01  0.67459024961E+00 -0.29941252823E+01  0.58488874626E+01  0.00000000000E+00 0. -1.
</event>
<event>
 7    1  0.3062695E-010  0.4778727E+02  0.7816164E-02  0.1312668E+00
        -11   -1    0    0    0    0  0.00000000000E+00  0.00000000000E+00  0.45593999997E+02  0.45594000000E+02  0.51100000000E-03 0.  1.
         11   -1    0    0    0    0 -0.00000000000E+00 -0.00000000000E+00 -0.45593999997E+02  0.45594000000E+02  0.51100000000E-03 0. -1.
    9900012    2    1    2    0    0  0.43260158368E+02 -0.33596010793E+01  0.94618977078E+00  0.47787268480E+02  0.19999988307E+02 0.  0.
        -12    1    1    2    0    0 -0.43260158368E+02  0.33596010793E+01 -0.94618977078E+00  0.43400731520E+02  0.00000000000E+00 0.  1.
         11    1    3    3    0    0  0.17781361118E+02 -0.10306124053E+02 -0.28550091734E+01  0.20749555991E+02  0.51100000000E-03 0. -1.
        -11    1    3    3    0    0  0.17032503437E+02  0.52514996291E+01  0.55702124309E+00  0.17832405744E+02  0.51100000000E-03 0.  1.
        -12    1    3    3    0    0  0.84462938126E+01  0.16950233442E+01  0.32441777011E+01  0.92053067446E+01  0.00000000000E+00 0.  1.
</event>
<event>
 7    1  0.3062695E-010  0.4778727E+02  0.7816164E-02  0.1312668E+00
        -11   -1    0    0    0    0  0.00000000000E+00  0.00000000000E+00  0.45593999997E+02  0.45594000000E+02  0.51100000000E-03 0. -1.
         11   -1    0    0    0    0 -0.00000000000E+00 -0.00000000000E+00 -0.45593999997E+02  0.45594000000E+02  0.51100000000E-03 0.  1.
    9900012    2    1    2    0    0  0.29487601140E+02 -0.24112625974E+02  0.20801104691E+02  0.47787270643E+02  0.19999998168E+02 0.  0.
        -12    1    1    2    0    0 -0.29487601140E+02  0.24112625974E+02 -0.20801104691E+02  0.43400729357E+02  0.00000000000E+00 0.  1.
         11    1    3    3    0    0  0.23963566291E+02 -0.18976534607E+02  0.23402318905E+02  0.38497141523E+02  0.51100000000E-03 0. -1.
        -11    1    3    3    0    0 -0.36133795409E+00 -0.22983870927E+01 -0.11579789937E+01  0.25988582024E+01  0.51100000000E-03 0.  1.
         12    1    3    3    0    0  0.58853728036E+01 -0.28377042748E+01 -0.14432352199E+01  0.66912709173E+01  0.00000000000E+00 0. -1.
</event>
<event>
 7    1  0.3062695E-010  0.4778727E+02  0.7816164E-02  0.1312668E+00
        -11   -1    0    0    0    0  0.00000000000E+00  0.00000000000E+00  0.45593999997E+02  0.45594000000E+02  0.51100000000E-03 0. -1.
         11   -1    0    0    0    0 -0.00000000000E+00 -0.00000000000E+00 -0.45593999997E+02  0.45594000000E+02  0.51100000000E-03 0.  1.
    9900012    2    1    2    0    0 -0.25549149617E+02 -0.34691410890E+02 -0.52316561992E+01  0.47787271179E+02  0.20000000611E+02 0.  0.
        -12    1    1    2    0    0  0.25549149617E+02  0.34691410890E+02  0.52316561992E+01  0.43400728821E+02  0.00000000000E+00 0.  1.
         11    1    3    3    0    0 -0.16314444548E+02 -0.12921581115E+02 -0.19900936839E+00  0.20812687583E+02  0.51100000000E-03 0. -1.
        -11    1    3    3    0    0 -0.57022824605E+01 -0.22219904010E+02 -0.43384342398E+01  0.23346566586E+02  0.51100000000E-03 0.  1.
        -12    1    3    3    0    0 -0.35324226080E+01  0.45007423517E+00 -0.69421259099E+00  0.36280170093E+01  0.00000000000E+00 0.  1.
</event>
<event>
 7    1  0.3062695E-010  0.4778727E+02  0.7816164E-02  0.1312668E+00
        -11   -1    0    0    0    0  0.00000000000E+00  0.00000000000E+00  0.45593999997E+02  0.45594000000E+02  0.51100000000E-03 0. -1.
         11   -1    0    0    0    0 -0.00000000000E+00 -0.00000000000E+00 -0.45593999997E+02  0.45594000000E+02  0.51100000000E-03 0.  1.
    9900012    2    1    2    0    0  0.33674693291E+02  0.13066144848E+02  0.24060645713E+02  0.47787265196E+02  0.19999973333E+02 0.  0.
        -12    1    1    2    0    0 -0.33674693291E+02 -0.13066144848E+02 -0.24060645713E+02  0.43400734804E+02  0.00000000000E+00 0.  1.
         11    1    3    3    0    0  0.33056005417E+01  0.10366843338E+01 -0.27051309633E+01  0.43953888496E+01  0.51100000000E-03 0. -1.
        -11    1    3    3    0    0  0.45863491068E+01 -0.11701557580E+01  0.15271150808E+01  0.49735242392E+01  0.51100000000E-03 0.  1.
         12    1    3    3    0    0  0.25782743643E+02  0.13199616272E+02  0.25238661595E+02  0.38418352107E+02  0.00000000000E+00 0. -1.
</event>
<event>
 7    1  0.3062695E-010  0.4778728E+02  0.7816164E-02  0.1312668E+00
        -11   -1    0    0    0    0  0.00000000000E+00  0.00000000000E+00  0.45593999997E+02  0.45594000000E+02  0.51100000000E-03 0. -1.
         11   -1    0    0    0    0 -0.00000000000E+00 -0.00000000000E+00 -0.45593999997E+02  0.45594000000E+02  0.51100000000E-03 0.  1.
    9900012    2    1    2    0    0  0.34564952849E+02 -0.21226606732E+01  0.26160681497E+02  0.47787275234E+02  0.20000019102E+02 0.  0.
        -12    1    1    2    0    0 -0.34564952849E+02  0.21226606732E+01 -0.26160681497E+02  0.43400724766E+02  0.00000000000E+00 0.  1.
         11    1    3    3    0    0  0.17729327549E+02  0.34204016646E+01  0.62185719339E+01  0.19097089831E+02  0.51100000000E-03 0. -1.
        -11    1    3    3    0    0  0.50936092899E+01 -0.70835387704E+01  0.95379034076E+01  0.12926444940E+02  0.51100000000E-03 0.  1.
        -12    1    3    3    0    0  0.11742016011E+02  0.15404764326E+01  0.10404206156E+02  0.15763740463E+02  0.00000000000E+00 0.  1.
</event>
<event>
 7    1  0.3062695E-010  0.4778727E+02  0.7816164E-02  0.1312668E+00
        -11   -1    0    0    0    0  0.00000000000E+00  0.00000000000E+00  0.45593999997E+02  0.45594000000E+02  0.51100000000E-03 0.  1.
         11   -1    0    0    0    0 -0.00000000000E+00 -0.00000000000E+00 -0.45593999997E+02  0.45594000000E+02  0.51100000000E-03 0. -1.
    9900012    2    1    2    0    0 -0.22587985023E+02  0.28182606742E+02 -0.24065467189E+02  0.47787273034E+02  0.20000009070E+02 0.  0.
        -12    1    1    2    0    0  0.22587985023E+02 -0.28182606742E+02  0.24065467189E+02  0.43400726966E+02  0.00000000000E+00 0.  1.
         11    1    3    3    0    0 -0.23919055745E+02  0.17470631959E+02 -0.21441086873E+02  0.36565891420E+02  0.51100000000E-03 0. -1.
        -11    1    3    3    0    0  0.61184334408E+00  0.37443494680E+01 -0.16524331447E+00  0.37976059340E+01  0.51100000000E-03 0.  1.
         12    1    3    3    0    0  0.71922737805E+00  0.69676253143E+01 -0.24591370021E+01  0.74237756794E+01  0.00000000000E+00 0. -1.
</event>
<event>
 7    1  0.3062695E-010  0.4778727E+02  0.7816164E-02  0.1312668E+00
        -11   -1    0    0    0    0  0.00000000000E+00  0.00000000000E+00  0.45593999997E+02  0.45594000000E+02  0.51100000000E-03 0.  1.
         11   -1    0    0    0    0 -0.00000000000E+00 -0.00000000000E+00 -0.45593999997E+02  0.45594000000E+02  0.51100000000E-03 0. -1.
    9900012    2    1    2    0    0  0.59522533040E+01  0.72369347016E+01 -0.42377123515E+02  0.47787272579E+02  0.20000006995E+02 0.  0.
        -12    1    1    2    0    0 -0.59522533040E+01 -0.72369347016E+01  0.42377123515E+02  0.43400727421E+02  0.00000000000E+00 0.  1.
         11    1    3    3    0    0  0.25507381142E+01  0.94543445749E+01 -0.39847423647E+02  0.41033011927E+02  0.51100000000E-03 0. -1.
        -11    1    3    3    0    0  0.41045127561E+01 -0.26969819989E+01 -0.30264460330E+01  0.57688918103E+01  0.51100000000E-03 0.  1.
         12    1    3    3    0    0 -0.70299756632E+00  0.47957212551E+00  0.49674616435E+00  0.98536884141E+00  0.00000000000E+00 0. -1.
</event>
<event>
 7    1  0.3062695E-010  0.4778727E+02  0.7816164E-02  0.1312668E+00
        -11   -1    0    0    0    0  0.00000000000E+00  0.00000000000E+00  0.45593999997E+02  0.45594000000E+02  0.51100000000E-03 0. -1.
         11   -1    0    0    0    0 -0.00000000000E+00 -0.00000000000E+00 -0.45593999997E+02  0.45594000000E+02  0.51100000000E-03 0.  1.
    9900012    2    1    2    0    0 -0.58506847289E+01 -0.33291288894E+02  0.27222840262E+02  0.47787268901E+02  0.19999990227E+02 0.  0.
        -12    1    1    2    0    0  0.58506847289E+01  0.33291288894E+02 -0.27222840262E+02  0.43400731099E+02  0.00000000000E+00 0.  1.
         11    1    3    3    0    0  0.29010790124E+00 -0.12488637895E+02  0.78883219170E+01  0.14774161973E+02  0.51100000000E-03 0. -1.
        -11    1    3    3    0    0  0.45198272118E+01 -0.37446521960E+01  0.80062946531E+01  0.99273366230E+01  0.51100000000E-03 0.  1.
        -12    1    3    3    0    0 -0.10660619842E+02 -0.17057998802E+02  0.11328223692E+02  0.23085770305E+02  0.00000000000E+00 0.  1.
</event>
<event>
 7    1  0.3880091E-010  0.4778727E+02  0.7816164E-02  0.1312668E+00
        -11   -1    0    0    0    0  0.00000000000E+00  0.00000000000E+00  0.45593999997E+02  0.45594000000E+02  0.51100000000E-03 0.  1.
         11   -1    0    0    0    0 -0.00000000000E+00 -0.00000000000E+00 -0.45593999997E+02  0.45594000000E+02  0.51100000000E-03 0. -1.
    9900012    2    1    2    0    0 -0.32006885821E+02  0.26821050409E+02  0.11824289033E+02  0.47787270788E+02  0.19999998830E+02 0.  0.
        -12    1    1    2    0    0  0.32006885821E+02 -0.26821050409E+02 -0.11824289033E+02  0.43400729212E+02  0.00000000000E+00 0.  1.
         11    1    3    3    0    0 -0.25758526244E+02  0.22776894039E+02  0.87303457364E+01  0.35475449444E+02  0.51100000000E-03 0. -1.
        -11    1    3    3    0    0  0.11880943792E+01  0.32463315992E+01  0.33697995929E+01  0.48276067221E+01  0.51100000000E-03 0.  1.
        -12    1    3    3    0    0 -0.74364539558E+01  0.79782477071E+00 -0.27585629609E+00  0.74842146213E+01  0.00000000000E+00 0.  1.
</event>
<event>
 7    1  0.3116850E-010  0.4778727E+02  0.7816164E-02  0.1312668E+00
        -11   -1    0    0    0    0  0.00000000000E+00  0.00000000000E+00  0.45593999997E+02  0.45594000000E+02  0.51100000000E-03 0.  1.
         11   -1    0    0    0    0 -0.00000000000E+00 -0.00000000000E+00 -0.45593999997E+02  0.45594000000E+02  0.51100000000E-03 0. -1.
    9900012    2    1    2    0    0 -0.42444229968E+01  0.40289546019E+02  0.15567949733E+02  0.47787266091E+02  0.19999977414E+02 0.  0.
        -12    1    1    2    0    0  0.42444229968E+01 -0.40289546019E+02 -0.15567949733E+02  0.43400733909E+02  0.00000000000E+00 0.  1.
         11    1    3    3    0    0 -0.45774281419E+01  0.32205649823E+02  0.11499850455E+02  0.34502221518E+02  0.51100000000E-03 0. -1.
        -11    1    3    3    0    0  0.31903864932E+01  0.40966914833E+01 -0.19273219462E+01  0.55385934343E+01  0.51100000000E-03 0.  1.
        -12    1    3    3    0    0 -0.28573813481E+01  0.39872047125E+01  0.59954212247E+01  0.77464511390E+01  0.00000000000E+00 0.  1.
</event>
<event>
 7    1  0.3062695E-010  0.4778727E+02  0.7816164E-02  0.1312668E+00
        -11   -1    0    0    0    0  0.00000000000E+00  0.00000000000E+00  0.45593999997E+02  0.45594000000E+02  0.51100000000E-03 0.  1.
         11   -1    0    0    0    0 -0.00000000000E+00 -0.00000000000E+00 -0.45593999997E+02  0.45594000000E+02  0.51100000000E-03 0. -1.
    9900012    2    1    2    0    0 -0.22107222944E+02  0.36507779566E+02 -0.78788396701E+01  0.47787269711E+02  0.19999993919E+02 0.  0.
        -12    1    1    2    0    0  0.22107222944E+02 -0.36507779566E+02  0.78788396701E+01  0.43400730289E+02  0.00000000000E+00 0.  1.
         11    1    3    3    0    0  0.11265976279E+01 -0.11756211160E+01 -0.27528358359E+00  0.16513898801E+01  0.51100000000E-03 0. -1.
        -11    1    3    3    0    0 -0.12083111627E+01  0.35643945845E+01 -0.37985166611E+01  0.53473034050E+01  0.51100000000E-03 0.  1.
         12    1    3    3    0    0 -0.22025509409E+02  0.34119006097E+02 -0.38050394255E+01  0.40788576425E+02  0.00000000000E+00 0. -1.
</event>
<event>
 7    1  0.3062695E-010  0.4778727E+02  0.7816164E-02  0.1312668E+00
        -11   -1    0    0    0    0  0.00000000000E+00  0.00000000000E+00  0.45593999997E+02  0.45594000000E+02  0.51100000000E-03 0. -1.
         11   -1    0    0    0    0 -0.00000000000E+00 -0.00000000000E+00 -0.45593999997E+02  0.45594000000E+02  0.51100000000E-03 0.  1.
    9900012    2    1    2    0    0 -0.33940482424E+01 -0.10485212871E+02  0.41978136717E+02  0.47787271727E+02  0.20000003111E+02 0.  0.
        -12    1    1    2    0    0  0.33940482424E+01  0.10485212871E+02 -0.41978136717E+02  0.43400728273E+02  0.00000000000E+00 0.  1.
         11    1    3    3    0    0  0.35810259856E+01 -0.10345099273E+02  0.13386752886E+02  0.17293061591E+02  0.51100000000E-03 0. -1.
        -11    1    3    3    0    0 -0.45160674456E+00 -0.15915758279E+01  0.17258323083E+02  0.17337438628E+02  0.51100000000E-03 0.  1.
         12    1    3    3    0    0 -0.65234674834E+01  0.14514622300E+01  0.11333060747E+02  0.13156771508E+02  0.00000000000E+00 0. -1.
</event>
<event>
 7    1  0.3062695E-010  0.4778727E+02  0.7816164E-02  0.1312668E+00
        -11   -1    0    0    0    0  0.00000000000E+00  0.00000000000E+00  0.45593999997E+02  0.45594000000E+02  0.51100000000E-03 0.  1.
         11   -1    0    0    0    0 -0.00000000000E+00 -0.00000000000E+00 -0.45593999997E+02  0.45594000000E+02  0.51100000000E-03 0. -1.
    9900012    2    1    2    0    0  0.12364078903E+02  0.14625409436E+02 -0.38946761652E+02  0.47787270842E+02  0.19999999076E+02 0.  0.
        -12    1    1    2    0    0 -0.12364078903E+02 -0.14625409436E+02  0.38946761652E+02  0.43400729158E+02  0.00000000000E+00 0.  1.
         11    1    3    3    0    0  0.76236661709E+01  0.73194109807E+01 -0.29265164356E+02  0.31115010976E+02  0.51100000000E-03 0. -1.
        -11    1    3    3    0    0 -0.20830431463E+01  0.57887092038E+01 -0.24714544966E+01  0.66299555493E+01  0.51100000000E-03 0.  1.
        -12    1    3    3    0    0  0.68234558787E+01  0.15172892514E+01 -0.72101427990E+01  0.10042304316E+02  0.00000000000E+00 0.  1.
</event>
<event>
 7    1  0.3062695E-010  0.4778727E+02  0.7816164E-02  0.1312668E+00
        -11   -1    0    0    0    0  0.00000000000E+00  0.00000000000E+00  0.45593999997E+02  0.45594000000E+02  0.51100000000E-03 0. -1.
         11   -1    0    0    0    0 -0.00000000000E+00 -0.00000000000E+00 -0.45593999997E+02  0.45594000000E+02  0.51100000000E-03 0.  1.
    9900012    2    1    2    0    0 -0.13325312973E+02  0.40129451181E+02  0.97819401337E+01  0.47787272233E+02  0.20000005421E+02 0.  0.
        -12    1    1    2    0    0  0.13325312973E+02 -0.40129451181E+02 -0.97819401337E+01  0.43400727767E+02  0.00000000000E+00 0.  1.
         11    1    3    3    0    0  0.46377924034E+01  0.77805675675E+01  0.28989473979E+01  0.95105334406E+01  0.51100000000E-03 0. -1.
        -11    1    3    3    0    0 -0.76588271127E+01  0.14555589733E+02 -0.43048268875E+00  0.16453210654E+02  0.51100000000E-03 0.  1.
         12    1    3    3    0    0 -0.10304278263E+02  0.17793293880E+02  0.73134754245E+01  0.21823528139E+02  0.00000000000E+00 0. -1.
</event>
<event>
 7    1  0.3062695E-010  0.4778727E+02  0.7816164E-02  0.1312668E+00
        -11   -1    0    0    0    0  0.00000000000E+00  0.00000000000E+00  0.45593999997E+02  0.45594000000E+02  0.51100000000E-03 0.  1.
         11   -1    0    0    0    0 -0.00000000000E+00 -0.00000000000E+00 -0.45593999997E+02  0.45594000000E+02  0.51100000000E-03 0. -1.
    9900012    2    1    2    0    0  0.42932218656E+02  0.26080244464E+01 -0.58005199056E+01  0.47787271649E+02  0.20000002758E+02 0.  0.
        -12    1    1    2    0    0 -0.42932218656E+02 -0.26080244464E+01  0.58005199056E+01  0.43400728351E+02  0.00000000000E+00 0.  1.
         11    1    3    3    0    0  0.34136634942E+02 -0.27059223368E+01 -0.11060565590E+02  0.35985663427E+02  0.51100000000E-03 0. -1.
        -11    1    3    3    0    0  0.39184503072E+01  0.29550207929E+01  0.12590824619E+01  0.50667237544E+01  0.51100000000E-03 0.  1.
         12    1    3    3    0    0  0.48771334066E+01  0.23589259903E+01  0.40009632221E+01  0.67348844681E+01  0.00000000000E+00 0. -1.
</event>
<event>
 7    1  0.3062695E-010  0.4778727E+02  0.7816164E-02  0.1312668E+00
        -11   -1    0    0    0    0  0.00000000000E+00  0.00000000000E+00  0.45593999997E+02  0.45594000000E+02  0.51100000000E-03 0.  1.
         11   -1    0    0    0    0 -0.00000000000E+00 -0.00000000000E+00 -0.45593999997E+02  0.45594000000E+02  0.51100000000E-03 0. -1.
    9900012    2    1    2    0    0 -0.11222233325E+02  0.41653965072E+02  0.47573108013E+01  0.47787270362E+02  0.19999996891E+02 0.  0.
        -12    1    1    2    0    0  0.11222233325E+02 -0.41653965072E+02 -0.47573108013E+01  0.43400729638E+02  0.00000000000E+00 0.  1.
         11    1    3    3    0    0 -0.36798822108E+01  0.11326573510E+02  0.56038310699E+01  0.13161904250E+02  0.51100000000E-03 0. -1.
        -11    1    3    3    0    0  0.12154612055E+01  0.11677649566E+02 -0.62834354720E+01  0.13316396169E+02  0.51100000000E-03 0.  1.
        -12    1    3    3    0    0 -0.87578123197E+01  0.18649741996E+02  0.54369152034E+01  0.21308969944E+02  0.00000000000E+00 0.  1.
</event>
<event>
 7    1  0.3943969E-010  0.4778727E+02  0.7816164E-02  0.1312668E+00
        -11   -1    0    0    0    0  0.00000000000E+00  0.00000000000E+00  0.45593999997E+02  0.45594000000E+02  0.51100000000E-03 0.  1.
         11   -1    0    0    0    0 -0.00000000000E+00 -0.00000000000E+00 -0.45593999997E+02  0.45594000000E+02  0.51100000000E-03 0. -1.
    9900012    2    1    2    0    0  0.35484837891E+02  0.79855142029E+01 -0.23678709410E+02  0.47787269170E+02  0.19999991456E+02 0.  0.
        -12    1    1    2    0    0 -0.35484837891E+02 -0.79855142029E+01  0.23678709410E+02  0.43400730830E+02  0.00000000000E+00 0.  1.
         11    1    3    3    0    0  0.29750740366E+02  0.95845367974E+01 -0.19501008684E+02  0.36840999415E+02  0.51100000000E-03 0. -1.
        -11    1    3    3    0    0 -0.90634391713E+00 -0.11003251716E-01 -0.40156357986E+01  0.41166626648E+01  0.51100000000E-03 0.  1.
        -12    1    3    3    0    0  0.66404414416E+01 -0.15880193428E+01 -0.16206492793E+00  0.68296070907E+01  0.00000000000E+00 0.  1.
</event>
<event>
 7    1  0.3062695E-010  0.4778727E+02  0.7816164E-02  0.1312668E+00
        -11   -1    0    0    0    0  0.00000000000E+00  0.00000000000E+00  0.45593999997E+02  0.45594000000E+02  0.51100000000E-03 0.  1.
         11   -1    0    0    0    0 -0.00000000000E+00 -0.00000000000E+00 -0.45593999997E+02  0.45594000000E+02  0.51100000000E-03 0. -1.
    9900012    2    1    2    0    0 -0.33935303291E+02  0.26030573843E+02 -0.73775020013E+01  0.47787272820E+02  0.20000008094E+02 0.  0.
        -12    1    1    2    0    0  0.33935303291E+02 -0.26030573843E+02  0.73775020013E+01  0.43400727180E+02  0.00000000000E+00 0.  1.
         11    1    3    3    0    0 -0.30584444947E+02  0.15899787548E+02 -0.10583502507E+01  0.34486687610E+02  0.51100000000E-03 0. -1.
        -11    1    3    3    0    0 -0.18812456378E+01  0.63352785917E+01 -0.64415241800E+01  0.92286550486E+01  0.51100000000E-03 0.  1.
        -12    1    3    3    0    0 -0.14696127063E+01  0.37955077028E+01  0.12237242932E+00  0.40719301615E+01  0.00000000000E+00 0.  1.
</event>
<event>
 7    1  0.3062695E-010  0.4778726E+02  0.7816164E-02  0.1312668E+00
        -11   -1    0    0    0    0  0.00000000000E+00  0.00000000000E+00  0.45593999997E+02  0.45594000000E+02  0.51100000000E-03 0.  1.
         11   -1    0    0    0    0 -0.00000000000E+00 -0.00000000000E+00 -0.45593999997E+02  0.45594000000E+02  0.51100000000E-03 0. -1.
    9900012    2    1    2    0    0  0.35668424210E+02 -0.22533338501E+02 -0.10180203594E+02  0.47787258361E+02  0.19999942170E+02 0.  0.
        -12    1    1    2    0    0 -0.35668424210E+02  0.22533338501E+02  0.10180203594E+02  0.43400741639E+02  0.00000000000E+00 0.  1.
         11    1    3    3    0    0  0.23310758714E+02 -0.12820337304E+02  0.86934898904E+00  0.26617819000E+02  0.51100000000E-03 0. -1.
        -11    1    3    3    0    0 -0.11960755440E+01 -0.85528406986E+00  0.15597072235E+00  0.14786597561E+01  0.51100000000E-03 0.  1.
         12    1    3    3    0    0  0.13553741040E+02 -0.88577171275E+01 -0.11205523305E+02  0.19690779605E+02  0.00000000000E+00 0. -1.
</event>
<event>
 7    1  0.3062695E-010  0.4778727E+02  0.7816164E-02  0.1312668E+00
        -11   -1    0    0    0    0  0.00000000000E+00  0.00000000000E+00  0.45593999997E+02  0.45594000000E+02  0.51100000000E-03 0.  1.
         11   -1    0    0    0    0 -0.00000000000E+00 -0.00000000000E+00 -0.45593999997E+02  0.45594000000E+02  0.51100000000E-03 0. -1.
    9900012    2    1    2    0    0 -0.24563379028E+02  0.35760240488E+02 -0.12119598452E+01  0.47787271484E+02  0.20000002005E+02 0.  0.
        -12    1    1    2    0    0  0.24563379028E+02 -0.35760240488E+02  0.12119598452E+01  0.43400728516E+02  0.00000000000E+00 0.  1.
         11    1    3    3    0    0 -0.12511614952E+02  0.16883905566E+02 -0.85336910802E+01  0.22681063898E+02  0.51100000000E-03 0. -1.
        -11    1    3    3    0    0 -0.12148316851E+02  0.14766724203E+02  0.83554686431E+01  0.20867477147E+02  0.51100000000E-03 0.  1.
        -12    1    3    3    0    0  0.96552774138E-01  0.41096107192E+01 -0.10337374081E+01  0.42387304385E+01  0.00000000000E+00 0.  1.
</event>
<event>
 7    1  0.3062695E-010  0.4778727E+02  0.7816164E-02  0.1312668E+00
        -11   -1    0    0    0    0  0.00000000000E+00  0.00000000000E+00  0.45593999997E+02  0.45594000000E+02  0.51100000000E-03 0.  1.
         11   -1    0    0    0    0 -0.00000000000E+00 -0.00000000000E+00 -0.45593999997E+02  0.45594000000E+02  0.51100000000E-03 0. -1.
    9900012    2    1    2    0    0 -0.33838951549E+02  0.45415796694E+01 -0.26794077592E+02  0.47787272104E+02  0.20000004833E+02 0.  0.
        -12    1    1    2    0    0  0.33838951549E+02 -0.45415796694E+01  0.26794077592E+02  0.43400727896E+02  0.00000000000E+00 0.  1.
         11    1    3    3    0    0 -0.23544184799E+02  0.91726164589E+00 -0.19426740519E+02  0.30537980520E+02  0.51100000000E-03 0. -1.
        -11    1    3    3    0    0 -0.25683956769E+01  0.67312384077E+01 -0.42014009966E+01  0.83401437308E+01  0.51100000000E-03 0.  1.
         12    1    3    3    0    0 -0.77263710730E+01 -0.31069203842E+01 -0.31659360767E+01  0.89091478534E+01  0.00000000000E+00 0. -1.
</event>
<event>
 7    1  0.3062695E-010  0.4778727E+02  0.7816164E-02  0.1312668E+00
        -11   -1    0    0    0    0  0.00000000000E+00  0.00000000000E+00  0.45593999997E+02  0.45594000000E+02  0.51100000000E-03 0.  1.
         11   -1    0    0    0    0 -0.00000000000E+00 -0.00000000000E+00 -0.45593999997E+02  0.45594000000E+02  0.51100000000E-03 0. -1.
    9900012    2    1    2    0    0  0.38303438972E+02 -0.10878223391E+02  0.17266564717E+02  0.47787269149E+02  0.19999991359E+02 0.  0.
        -12    1    1    2    0    0 -0.38303438972E+02  0.10878223391E+02 -0.17266564717E+02  0.43400730851E+02  0.00000000000E+00 0.  1.
         11    1    3    3    0    0  0.25107194581E+00 -0.65195701346E+00 -0.17448988206E+01  0.18795630408E+01  0.51100000000E-03 0. -1.
        -11    1    3    3    0    0  0.27590994675E+02 -0.12558645829E+01  0.15561321072E+02  0.31701654480E+02  0.51100000000E-03 0.  1.
        -12    1    3    3    0    0  0.10461372351E+02 -0.89704017947E+01  0.34501424663E+01  0.14206051628E+02  0.00000000000E+00 0.  1.
</event>
<event>
 7    1  0.3062695E-010  0.4778727E+02  0.7816164E-02  0.1312668E+00
        -11   -1    0    0    0    0  0.00000000000E+00  0.00000000000E+00  0.45593999997E+02  0.45594000000E+02  0.51100000000E-03 0. -1.
         11   -1    0    0    0    0 -0.00000000000E+00 -0.00000000000E+00 -0.45593999997E+02  0.45594000000E+02  0.51100000000E-03 0.  1.
    9900012    2    1    2    0    0 -0.80506017510E+01  0.12449071788E+02  0.40790093952E+02  0.47787270265E+02  0.19999996445E+02 0.  0.
        -12    1    1    2    0    0  0.80506017510E+01 -0.12449071788E+02 -0.40790093952E+02  0.43400729735E+02  0.00000000000E+00 0.  1.
         11    1    3    3    0    0 -0.34908787366E+01 -0.18223009027E+01  0.50663874129E+01  0.64167980030E+01  0.51100000000E-03 0. -1.
        -11    1    3    3    0    0 -0.42611014866E+01  0.11911497464E+02  0.36684888894E+02  0.38804920193E+02  0.51100000000E-03 0.  1.
        -12    1    3    3    0    0 -0.29862152793E+00  0.23598752259E+01 -0.96118235498E+00  0.25655520689E+01  0.00000000000E+00 0.  1.
</event>
<event>
 7    1  0.3062695E-010  0.4778727E+02  0.7816164E-02  0.1312668E+00
        -11   -1    0    0    0    0  0.00000000000E+00  0.00000000000E+00  0.45593999997E+02  0.45594000000E+02  0.51100000000E-03 0.  1.
         11   -1    0    0    0    0 -0.00000000000E+00 -0.00000000000E+00 -0.45593999997E+02  0.45594000000E+02  0.51100000000E-03 0. -1.
    9900012    2    1    2    0    0 -0.28463182624E+02 -0.70109612822E+01 -0.32004953105E+02  0.47787269978E+02  0.19999995137E+02 0.  0.
        -12    1    1    2    0    0  0.28463182624E+02  0.70109612822E+01  0.32004953105E+02  0.43400730022E+02  0.00000000000E+00 0.  1.
         11    1    3    3    0    0 -0.49763133105E+00 -0.45793881168E+01 -0.32799662702E+01  0.56547865973E+01  0.51100000000E-03 0. -1.
        -11    1    3    3    0    0 -0.19964139205E+02 -0.19946293510E+01 -0.11477770643E+02  0.23114597545E+02  0.51100000000E-03 0.  1.
        -12    1    3    3    0    0 -0.80014120878E+01 -0.43694381433E+00 -0.17247216191E+02  0.19017885835E+02  0.00000000000E+00 0.  1.
</event>
<event>
 7    1  0.3062695E-010  0.4778726E+02  0.7816164E-02  0.1312668E+00
        -11   -1    0    0    0    0  0.00000000000E+00  0.00000000000E+00  0.45593999997E+02  0.45594000000E+02  0.51100000000E-03 0.  1.
         11   -1    0    0    0    0 -0.00000000000E+00 -0.00000000000E+00 -0.45593999997E+02  0.45594000000E+02  0.51100000000E-03 0. -1.
    9900012    2    1    2    0    0 -0.48634111961E+01  0.80982928646E+00 -0.43119778018E+02  0.47787264427E+02  0.19999969828E+02 0.  0.
        -12    1    1    2    0    0  0.48634111961E+01 -0.80982928646E+00  0.43119778018E+02  0.43400735573E+02  0.00000000000E+00 0.  1.
         11    1    3    3    0    0  0.28436922438E+01  0.47762521106E+00 -0.11622635360E+02  0.11974989119E+02  0.51100000000E-03 0. -1.
        -11    1    3    3    0    0  0.34726243062E+01 -0.33937394190E+01 -0.59618197418E+01  0.76889454225E+01  0.51100000000E-03 0.  1.
        -12    1    3    3    0    0 -0.11179727746E+02  0.37259434944E+01 -0.25535322917E+02  0.28123329886E+02  0.00000000000E+00 0.  1.
</event>
<event>
 7    1  0.3062695E-010  0.4778727E+02  0.7816164E-02  0.1312668E+00
        -11   -1    0    0    0    0  0.00000000000E+00  0.00000000000E+00  0.45593999997E+02  0.45594000000E+02  0.51100000000E-03 0. -1.
         11   -1    0    0    0    0 -0.00000000000E+00 -0.00000000000E+00 -0.45593999997E+02  0.45594000000E+02  0.51100000000E-03 0.  1.
    9900012    2    1    2    0    0 -0.33024152380E+02 -0.23948785593E+02 -0.14815016615E+02  0.47787266261E+02  0.19999978190E+02 0.  0.
        -12    1    1    2    0    0  0.33024152380E+02  0.23948785593E+02  0.14815016615E+02  0.43400733739E+02  0.00000000000E+00 0.  1.
         11    1    3    3    0    0 -0.24440460566E+02 -0.18151418189E+02 -0.10144177245E+02  0.32089163703E+02  0.51100000000E-03 0. -1.
        -11    1    3    3    0    0 -0.11647942365E+01 -0.64800752396E+00  0.33588996050E+01  0.36137053259E+01  0.51100000000E-03 0.  1.
        -12    1    3    3    0    0 -0.74188975777E+01 -0.51493598797E+01 -0.80297389753E+01  0.12084397232E+02  0.00000000000E+00 0.  1.
</event>
<event>
 7    1  0.3062695E-010  0.4778726E+02  0.7816164E-02  0.1312668E+00
        -11   -1    0    0    0    0  0.00000000000E+00  0.00000000000E+00  0.45593999997E+02  0.45594000000E+02  0.51100000000E-03 0.  1.
         11   -1    0    0    0    0 -0.00000000000E+00 -0.00000000000E+00 -0.45593999997E+02  0.45594000000E+02  0.51100000000E-03 0. -1.
    9900012    2    1    2    0    0 -0.15879832307E+02  0.33034796931E+01 -0.40255962201E+02  0.47787256401E+02  0.19999933235E+02 0.  0.
        -12    1    1    2    0    0  0.15879832307E+02 -0.33034796931E+01  0.40255962201E+02  0.43400743599E+02  0.00000000000E+00 0.  1.
         11    1    3    3    0    0  0.60338219892E+00  0.14381491782E+01 -0.54581184474E+01  0.56765658970E+01  0.51100000000E-03 0. -1.
        -11    1    3    3    0    0 -0.48650449197E+01 -0.46559374700E+00 -0.28053702866E+02  0.28476230164E+02  0.51100000000E-03 0.  1.
        -12    1    3    3    0    0 -0.11618169586E+02  0.23309242620E+01 -0.67441408882E+01  0.13634460340E+02  0.00000000000E+00 0.  1.
</event>
<event>
 7    1  0.3192861E-010  0.4778733E+02  0.7816164E-02  0.1312668E+00
        -11   -1    0    0    0    0  0.00000000000E+00  0.00000000000E+00  0.45593999997E+02  0.45594000000E+02  0.51100000000E-03 0. -1.
         11   -1    0    0    0    0 -0.00000000000E+00 -0.00000000000E+00 -0.45593999997E+02  0.45594000000E+02  0.51100000000E-03 0.  1.
    9900012    2    1    2    0    0 -0.25867858272E+02  0.12421727390E+02  0.32560297020E+02  0.47787327828E+02  0.20000258897E+02 0.  0.
        -12    1    1    2    0    0  0.25867858272E+02 -0.12421727390E+02 -0.32560297020E+02  0.43400672172E+02  0.00000000000E+00 0.  1.
         11    1    3    3    0    0 -0.22105244014E+02  0.82211933227E+01  0.23192435434E+02  0.33077468074E+02  0.51100000000E-03 0. -1.
        -11    1    3    3    0    0  0.12780515894E+01 -0.10646502505E+01 -0.10707285147E+01  0.19782203705E+01  0.51100000000E-03 0.  1.
        -12    1    3    3    0    0 -0.50406658475E+01  0.52651843181E+01  0.10438590101E+02  0.12731639383E+02  0.00000000000E+00 0.  1.
</event>
<event>
 7    1  0.3062695E-010  0.4778728E+02  0.7816164E-02  0.1312668E+00
        -11   -1    0    0    0    0  0.00000000000E+00  0.00000000000E+00  0.45593999997E+02  0.45594000000E+02  0.51100000000E-03 0. -1.
         11   -1    0    0    0    0 -0.00000000000E+00 -0.00000000000E+00 -0.45593999997E+02  0.45594000000E+02  0.51100000000E-03 0.  1.
    9900012    2    1    2    0    0 -0.17967139595E+02 -0.37694276330E+02 -0.11829874124E+02  0.47787280017E+02  0.20000040909E+02 0.  0.
        -12    1    1    2    0    0  0.17967139595E+02  0.37694276330E+02  0.11829874124E+02  0.43400719983E+02  0.00000000000E+00 0.  1.
         11    1    3    3    0    0 -0.10751056461E+02 -0.19510641207E+02 -0.10077485289E+02  0.24450072501E+02  0.51100000000E-03 0. -1.
        -11    1    3    3    0    0  0.35343511868E+01 -0.42709337242E+01  0.68875089215E+00  0.55863128484E+01  0.51100000000E-03 0.  1.
         12    1    3    3    0    0 -0.10750434321E+02 -0.13912701399E+02 -0.24411397276E+01  0.17750894667E+02  0.00000000000E+00 0. -1.
</event>
<event>
 7    1  0.3062695E-010  0.4778727E+02  0.7816164E-02  0.1312668E+00
        -11   -1    0    0    0    0  0.00000000000E+00  0.00000000000E+00  0.45593999997E+02  0.45594000000E+02  0.51100000000E-03 0.  1.
         11   -1    0    0    0    0 -0.00000000000E+00 -0.00000000000E+00 -0.45593999997E+02  0.45594000000E+02  0.51100000000E-03 0. -1.
    9900012    2    1    2    0    0 -0.39291713218E+02 -0.17373476291E+02 -0.61600770235E+01  0.47787274718E+02  0.20000016749E+02 0.  0.
        -12    1    1    2    0    0  0.39291713218E+02  0.17373476291E+02  0.61600770235E+01  0.43400725282E+02  0.00000000000E+00 0.  1.
         11    1    3    3    0    0 -0.22480896332E+02 -0.33633750380E+01 -0.38717601878E+01  0.23058480409E+02  0.51100000000E-03 0. -1.
        -11    1    3    3    0    0 -0.11483129389E+02 -0.88504632073E+01  0.39620457027E+01  0.15029662869E+02  0.51100000000E-03 0.  1.
         12    1    3    3    0    0 -0.53276874968E+01 -0.51596380461E+01 -0.62503625384E+01  0.96991314401E+01  0.00000000000E+00 0. -1.
</event>
<event>
 7    1  0.3062695E-010  0.4778727E+02  0.7816164E-02  0.1312668E+00
        -11   -1    0    0    0    0  0.00000000000E+00  0.00000000000E+00  0.45593999997E+02  0.45594000000E+02  0.51100000000E-03 0.  1.
         11   -1    0    0    0    0 -0.00000000000E+00 -0.00000000000E+00 -0.45593999997E+02  0.45594000000E+02  0.51100000000E-03 0. -1.
    9900012    2    1    2    0    0  0.18263030111E+02  0.37232767147E+02 -0.12798673574E+02  0.47787271164E+02  0.20000000544E+02 0.  0.
        -12    1    1    2    0    0 -0.18263030111E+02 -0.37232767147E+02  0.12798673574E+02  0.43400728836E+02  0.00000000000E+00 0.  1.
         11    1    3    3    0    0 -0.21998196854E+01  0.57430300527E+01 -0.55333861089E+01  0.82728449113E+01  0.51100000000E-03 0.  1.
        -11    1    3    3    0    0  0.14836537127E+02  0.29154556157E+02 -0.67440360328E+01  0.33400494022E+02  0.51100000000E-03 0. -1.
        -12    1    3    3    0    0  0.56263126691E+01  0.23351809370E+01 -0.52125143230E+00  0.61139322302E+01  0.00000000000E+00 0.  1.
</event>
<event>
 7    1  0.3062695E-010  0.4778727E+02  0.7816164E-02  0.1312668E+00
        -11   -1    0    0    0    0  0.00000000000E+00  0.00000000000E+00  0.45593999997E+02  0.45594000000E+02  0.51100000000E-03 0. -1.
         11   -1    0    0    0    0 -0.00000000000E+00 -0.00000000000E+00 -0.45593999997E+02  0.45594000000E+02  0.51100000000E-03 0.  1.
    9900012    2    1    2    0    0 -0.29299889537E+02  0.18911220887E+02 -0.25836128361E+02  0.47787270386E+02  0.19999996999E+02 0.  0.
        -12    1    1    2    0    0  0.29299889537E+02 -0.18911220887E+02  0.25836128361E+02  0.43400729614E+02  0.00000000000E+00 0.  1.
         11    1    3    3    0    0 -0.15681186078E+02  0.20179857036E+02 -0.17848305242E+02  0.31171914075E+02  0.51100000000E-03 0. -1.
        -11    1    3    3    0    0 -0.11490428610E+02  0.58812856484E-01 -0.81721616666E+01  0.14100270748E+02  0.51100000000E-03 0.  1.
         12    1    3    3    0    0 -0.21282748484E+01 -0.13274490049E+01  0.18433854799E+00  0.25150855634E+01  0.00000000000E+00 0. -1.
</event>
<event>
 7    1  0.3062695E-010  0.4778727E+02  0.7816164E-02  0.1312668E+00
        -11   -1    0    0    0    0  0.00000000000E+00  0.00000000000E+00  0.45593999997E+02  0.45594000000E+02  0.51100000000E-03 0. -1.
         11   -1    0    0    0    0 -0.00000000000E+00 -0.00000000000E+00 -0.45593999997E+02  0.45594000000E+02  0.51100000000E-03 0.  1.
    9900012    2    1    2    0    0 -0.21819674623E+02  0.31647083070E+01  0.37383282446E+02  0.47787269756E+02  0.19999994124E+02 0.  0.
        -12    1    1    2    0    0  0.21819674623E+02 -0.31647083070E+01 -0.37383282446E+02  0.43400730244E+02  0.00000000000E+00 0.  1.
         11    1    3    3    0    0 -0.19811572792E+02  0.80617352655E+01  0.34361533537E+02  0.40474744956E+02  0.51100000000E-03 0. -1.
        -11    1    3    3    0    0  0.30375809692E+00 -0.42460882627E+01  0.19645690309E+01  0.46883969813E+01  0.51100000000E-03 0.  1.
        -12    1    3    3    0    0 -0.23118599281E+01 -0.65093869584E+00  0.10571798777E+01  0.26241278183E+01  0.00000000000E+00 0.  1.
</event>
<event>
 7    1  0.3062695E-010  0.4778728E+02  0.7816164E-02  0.1312668E+00
        -11   -1    0    0    0    0  0.00000000000E+00  0.00000000000E+00  0.45593999997E+02  0.45594000000E+02  0.51100000000E-03 0. -1.
         11   -1    0    0    0    0 -0.00000000000E+00 -0.00000000000E+00 -0.45593999997E+02  0.45594000000E+02  0.51100000000E-03 0.  1.
    9900012    2    1    2    0    0 -0.36352082720E+02  0.18105323438E+02  0.15308349031E+02  0.47787283359E+02  0.20000056148E+02 0.  0.
        -12    1    1    2    0    0  0.36352082720E+02 -0.18105323438E+02 -0.15308349031E+02  0.43400716641E+02  0.00000000000E+00 0.  1.
         11    1    3    3    0    0 -0.24770430860E+00  0.23220117928E+01  0.58663738372E+01  0.63140667125E+01  0.51100000000E-03 0.  1.
        -11    1    3    3    0    0 -0.24506650917E+02  0.60477802011E+01  0.59017791838E+01  0.25922626841E+02  0.51100000000E-03 0. -1.
        -12    1    3    3    0    0 -0.11597727495E+02  0.97355314436E+01  0.35401960096E+01  0.15550589806E+02  0.00000000000E+00 0.  1.
</event>
<event>
 7    1  0.3062695E-010  0.4778727E+02  0.7816164E-02  0.1312668E+00
        -11   -1    0    0    0    0  0.00000000000E+00  0.00000000000E+00  0.45593999997E+02  0.45594000000E+02  0.51100000000E-03 0. -1.
         11   -1    0    0    0    0 -0.00000000000E+00 -0.00000000000E+00 -0.45593999997E+02  0.45594000000E+02  0.51100000000E-03 0.  1.
    9900012    2    1    2    0    0 -0.41637949162E+02 -0.56369392041E+01  0.10868729598E+02  0.47787272160E+02  0.20000005085E+02 0.  0.
        -12    1    1    2    0    0  0.41637949162E+02  0.56369392041E+01 -0.10868729598E+02  0.43400727840E+02  0.00000000000E+00 0.  1.
         11    1    3    3    0    0 -0.30949421615E+02 -0.56878092810E+00  0.46385311046E+01  0.31300258484E+02  0.51100000000E-03 0. -1.
        -11    1    3    3    0    0 -0.10921795711E+02 -0.29665143207E+01  0.16433078747E+01  0.11436183359E+02  0.51100000000E-03 0.  1.
         12    1    3    3    0    0  0.23326816496E+00 -0.21016439553E+01  0.45868906184E+01  0.50508303175E+01  0.00000000000E+00 0. -1.
</event>
<event>
 7    1  0.3062695E-010  0.4778727E+02  0.7816164E-02  0.1312668E+00
        -11   -1    0    0    0    0  0.00000000000E+00  0.00000000000E+00  0.45593999997E+02  0.45594000000E+02  0.51100000000E-03 0. -1.
         11   -1    0    0    0    0 -0.00000000000E+00 -0.00000000000E+00 -0.45593999997E+02  0.45594000000E+02  0.51100000000E-03 0.  1.
    9900012    2    1    2    0    0 -0.20503922651E+02 -0.37691051608E+02 -0.65266708040E+01  0.47787266744E+02  0.19999980390E+02 0.  0.
        -12    1    1    2    0    0  0.20503922651E+02  0.37691051608E+02  0.65266708040E+01  0.43400733256E+02  0.00000000000E+00 0.  1.
         11    1    3    3    0    0 -0.20122027291E+02 -0.26846376313E+02 -0.52433865821E+01  0.33957576571E+02  0.51100000000E-03 0. -1.
        -11    1    3    3    0    0  0.34933645039E+00 -0.50169617541E+01 -0.48263782087E+01  0.69703563806E+01  0.51100000000E-03 0.  1.
         12    1    3    3    0    0 -0.73123181095E+00 -0.58277135406E+01  0.35430939868E+01  0.68593337921E+01  0.00000000000E+00 0. -1.
</event>
<event>
 7    1  0.3062695E-010  0.4778727E+02  0.7816164E-02  0.1312668E+00
        -11   -1    0    0    0    0  0.00000000000E+00  0.00000000000E+00  0.45593999997E+02  0.45594000000E+02  0.51100000000E-03 0.  1.
         11   -1    0    0    0    0 -0.00000000000E+00 -0.00000000000E+00 -0.45593999997E+02  0.45594000000E+02  0.51100000000E-03 0. -1.
    9900012    2    1    2    0    0  0.90865583213E+01 -0.35250802122E+02 -0.23631311073E+02  0.47787268954E+02  0.19999990468E+02 0.  0.
        -12    1    1    2    0    0 -0.90865583213E+01  0.35250802122E+02  0.23631311073E+02  0.43400731046E+02  0.00000000000E+00 0.  1.
         11    1    3    3    0    0  0.77040156001E+01 -0.15577044942E+02 -0.13985240390E+02  0.22306571555E+02  0.51100000000E-03 0. -1.
        -11    1    3    3    0    0 -0.85936769744E+00 -0.67639261125E+01  0.28354151222E+01  0.73843610740E+01  0.51100000000E-03 0.  1.
        -12    1    3    3    0    0  0.22419104186E+01 -0.12909831067E+02 -0.12481485804E+02  0.18096336325E+02  0.00000000000E+00 0.  1.
</event>
<event>
 7    1  0.3062695E-010  0.4778728E+02  0.7816164E-02  0.1312668E+00
        -11   -1    0    0    0    0  0.00000000000E+00  0.00000000000E+00  0.45593999997E+02  0.45594000000E+02  0.51100000000E-03 0.  1.
         11   -1    0    0    0    0 -0.00000000000E+00 -0.00000000000E+00 -0.45593999997E+02  0.45594000000E+02  0.51100000000E-03 0. -1.
    9900012    2    1    2    0    0 -0.25550917061E+02 -0.26946286047E+02 -0.22464878205E+02  0.47787280568E+02  0.20000043423E+02 0.  0.
        -12    1    1    2    0    0  0.25550917061E+02  0.26946286047E+02  0.22464878205E+02  0.43400719432E+02  0.00000000000E+00 0.  1.
         11    1    3    3    0    0 -0.41167680190E+01 -0.41773753191E+01  0.13514394385E+01  0.60186902475E+01  0.51100000000E-03 0.  1.
        -11    1    3    3    0    0 -0.41972052516E+01 -0.61769715929E+01 -0.14080839750E+02  0.15938681197E+02  0.51100000000E-03 0. -1.
        -12    1    3    3    0    0 -0.17236943791E+02 -0.16591939135E+02 -0.97354778936E+01  0.25829909123E+02  0.00000000000E+00 0.  1.
</event>
<event>
 7    1  0.3062695E-010  0.4778728E+02  0.7816164E-02  0.1312668E+00
        -11   -1    0    0    0    0  0.00000000000E+00  0.00000000000E+00  0.45593999997E+02  0.45594000000E+02  0.51100000000E-03 0. -1.
         11   -1    0    0    0    0 -0.00000000000E+00 -0.00000000000E+00 -0.45593999997E+02  0.45594000000E+02  0.51100000000E-03 0.  1.
    9900012    2    1    2    0    0  0.73969054078E+01  0.53340917480E+01  0.42431782481E+02  0.47787275249E+02  0.20000019170E+02 0.  0.
        -12    1    1    2    0    0 -0.73969054078E+01 -0.53340917480E+01 -0.42431782481E+02  0.43400724751E+02  0.00000000000E+00 0.  1.
         11    1    3    3    0    0 -0.44512686695E+01  0.83012574984E+00  0.62860274502E+01  0.77470667284E+01  0.51100000000E-03 0. -1.
        -11    1    3    3    0    0  0.10125086671E+02 -0.19698529510E+01  0.18766248844E+02  0.21414242846E+02  0.51100000000E-03 0.  1.
         12    1    3    3    0    0  0.17230874065E+01  0.64738189492E+01  0.17379506187E+02  0.18625965674E+02  0.00000000000E+00 0. -1.
</event>
<event>
 7    1  0.3062695E-010  0.4778727E+02  0.7816164E-02  0.1312668E+00
        -11   -1    0    0    0    0  0.00000000000E+00  0.00000000000E+00  0.45593999997E+02  0.45594000000E+02  0.51100000000E-03 0.  1.
         11   -1    0    0    0    0 -0.00000000000E+00 -0.00000000000E+00 -0.45593999997E+02  0.45594000000E+02  0.51100000000E-03 0. -1.
    9900012    2    1    2    0    0  0.97086358020E+01  0.33440675170E+01 -0.42168505806E+02  0.47787270990E+02  0.19999999752E+02 0.  0.
        -12    1    1    2    0    0 -0.97086358020E+01 -0.33440675170E+01  0.42168505806E+02  0.43400729010E+02  0.00000000000E+00 0.  1.
         11    1    3    3    0    0  0.11095066790E+02 -0.48495573767E+01 -0.20340680953E+02  0.23671966875E+02  0.51100000000E-03 0. -1.
        -11    1    3    3    0    0 -0.17101350529E+01  0.81564838122E+01 -0.22144608726E+02  0.23660864016E+02  0.51100000000E-03 0.  1.
         12    1    3    3    0    0  0.32370406442E+00  0.37141081528E-01  0.31678387347E+00  0.45444009919E+00  0.00000000000E+00 0. -1.
</event>
<event>
 7    1  0.3062695E-010  0.4778727E+02  0.7816164E-02  0.1312668E+00
        -11   -1    0    0    0    0  0.00000000000E+00  0.00000000000E+00  0.45593999997E+02  0.45594000000E+02  0.51100000000E-03 0. -1.
         11   -1    0    0    0    0 -0.00000000000E+00 -0.00000000000E+00 -0.45593999997E+02  0.45594000000E+02  0.51100000000E-03 0.  1.
    9900012    2    1    2    0    0 -0.87790499958E+01 -0.25938407438E+02  0.33671211948E+02  0.47787271743E+02  0.20000003183E+02 0.  0.
        -12    1    1    2    0    0  0.87790499958E+01  0.25938407438E+02 -0.33671211948E+02  0.43400728257E+02  0.00000000000E+00 0.  1.
         11    1    3    3    0    0 -0.46890412369E+01 -0.22333841026E+02  0.21675660587E+02  0.31474145339E+02  0.51100000000E-03 0. -1.
        -11    1    3    3    0    0 -0.18011505105E+01  0.17765950057E+01 -0.44314024561E+00  0.25684249092E+01  0.51100000000E-03 0.  1.
        -12    1    3    3    0    0 -0.22888582484E+01 -0.53811614174E+01  0.12438691606E+02  0.13744701494E+02  0.00000000000E+00 0.  1.
</event>
<event>
 7    1  0.3062695E-010  0.4778727E+02  0.7816164E-02  0.1312668E+00
        -11   -1    0    0    0    0  0.00000000000E+00  0.00000000000E+00  0.45593999997E+02  0.45594000000E+02  0.51100000000E-03 0.  1.
         11   -1    0    0    0    0 -0.00000000000E+00 -0.00000000000E+00 -0.45593999997E+02  0.45594000000E+02  0.51100000000E-03 0. -1.
    9900012    2    1    2    0    0 -0.37736645843E+02 -0.74645821984E+00  0.21424568895E+02  0.47787265079E+02  0.19999972799E+02 0.  0.
        -12    1    1    2    0    0  0.37736645843E+02  0.74645821984E+00 -0.21424568895E+02  0.43400734921E+02  0.00000000000E+00 0.  1.
         11    1    3    3    0    0 -0.41354672900E+01 -0.66743606010E+01  0.54344419398E+01  0.95489443708E+01  0.51100000000E-03 0. -1.
        -11    1    3    3    0    0 -0.31867420270E+01 -0.98646628524E-01  0.37036708017E+01  0.48869452189E+01  0.51100000000E-03 0.  1.
         12    1    3    3    0    0 -0.30414436526E+02  0.60265490097E+01  0.12286456153E+02  0.33351375489E+02  0.00000000000E+00 0. -1.
</event>
<event>
 7    1  0.3062695E-010  0.4778727E+02  0.7816164E-02  0.1312668E+00
        -11   -1    0    0    0    0  0.00000000000E+00  0.00000000000E+00  0.45593999997E+02  0.45594000000E+02  0.51100000000E-03 0.  1.
         11   -1    0    0    0    0 -0.00000000000E+00 -0.00000000000E+00 -0.45593999997E+02  0.45594000000E+02  0.51100000000E-03 0. -1.
    9900012    2    1    2    0    0 -0.19768086087E+02 -0.28090778239E+02 -0.26528373763E+02  0.47787266549E+02  0.19999979503E+02 0.  0.
        -12    1    1    2    0    0  0.19768086087E+02  0.28090778239E+02  0.26528373763E+02  0.43400733451E+02  0.00000000000E+00 0.  1.
         11    1    3    3    0    0 -0.52130124311E+01 -0.28285269816E+00 -0.11491885469E+00  0.52219451223E+01  0.51100000000E-03 0. -1.
        -11    1    3    3    0    0 -0.12025503799E+02 -0.16017828774E+02 -0.21930201054E+02  0.29700459572E+02  0.51100000000E-03 0.  1.
        -12    1    3    3    0    0 -0.25295698565E+01 -0.11790096767E+02 -0.44832538546E+01  0.12864861855E+02  0.00000000000E+00 0.  1.
</event>
<event>
 7    1  0.3062695E-010  0.4778727E+02  0.7816164E-02  0.1312668E+00
        -11   -1    0    0    0    0  0.00000000000E+00  0.00000000000E+00  0.45593999997E+02  0.45594000000E+02  0.51100000000E-03 0.  1.
         11   -1    0    0    0    0 -0.00000000000E+00 -0.00000000000E+00 -0.45593999997E+02  0.45594000000E+02  0.51100000000E-03 0. -1.
    9900012    2    1    2    0    0 -0.15255949225E+02 -0.96284882995E+01 -0.39473682290E+02  0.47787269969E+02  0.19999995096E+02 0.  0.
        -12    1    1    2    0    0  0.15255949225E+02  0.96284882995E+01  0.39473682290E+02  0.43400730031E+02  0.00000000000E+00 0.  1.
         11    1    3    3    0    0 -0.97466062493E+01 -0.72540148594E+01 -0.26136618445E+02  0.28822558682E+02  0.51100000000E-03 0.  1.
        -11    1    3    3    0    0 -0.10181611599E+01  0.47319298434E+01 -0.66382754220E+01  0.82155044294E+01  0.51100000000E-03 0. -1.
        -12    1    3    3    0    0 -0.44911818156E+01 -0.71064032835E+01 -0.66987884235E+01  0.10749206858E+02  0.00000000000E+00 0.  1.
</event>
<event>
 7    1  0.3062695E-010  0.4778727E+02  0.7816164E-02  0.1312668E+00
        -11   -1    0    0    0    0  0.00000000000E+00  0.00000000000E+00  0.45593999997E+02  0.45594000000E+02  0.51100000000E-03 0.  1.
         11   -1    0    0    0    0 -0.00000000000E+00 -0.00000000000E+00 -0.45593999997E+02  0.45594000000E+02  0.51100000000E-03 0. -1.
    9900012    2    1    2    0    0 -0.34713301260E+02  0.83359183857E+01 -0.24680404969E+02  0.47787271790E+02  0.20000003400E+02 0.  0.
        -12    1    1    2    0    0  0.34713301260E+02 -0.83359183857E+01  0.24680404969E+02  0.43400728210E+02  0.00000000000E+00 0.  1.
         11    1    3    3    0    0 -0.16956146123E+02 -0.24271011064E+01 -0.19025992486E+02  0.25600587912E+02  0.51100000000E-03 0. -1.
        -11    1    3    3    0    0 -0.14614854231E+02  0.61577843830E+01 -0.45990745138E+01  0.16512533402E+02  0.51100000000E-03 0.  1.
         12    1    3    3    0    0 -0.31423009067E+01  0.46052351091E+01 -0.10553379695E+01  0.56741504764E+01  0.00000000000E+00 0. -1.
</event>
<event>
 7    1  0.3062695E-010  0.4778727E+02  0.7816164E-02  0.1312668E+00
        -11   -1    0    0    0    0  0.00000000000E+00  0.00000000000E+00  0.45593999997E+02  0.45594000000E+02  0.51100000000E-03 0. -1.
         11   -1    0    0    0    0 -0.00000000000E+00 -0.00000000000E+00 -0.45593999997E+02  0.45594000000E+02  0.51100000000E-03 0.  1.
    9900012    2    1    2    0    0 -0.11819520958E+02  0.40330942281E+02 -0.10832240413E+02  0.47787269438E+02  0.19999992675E+02 0.  0.
        -12    1    1    2    0    0  0.11819520958E+02 -0.40330942281E+02  0.10832240413E+02  0.43400730562E+02  0.00000000000E+00 0.  1.
         11    1    3    3    0    0 -0.13073017536E+02  0.35923432869E+02 -0.90309727493E+01  0.39280469519E+02  0.51100000000E-03 0. -1.
        -11    1    3    3    0    0  0.29868214702E+01  0.26718214665E+01  0.15984905725E+01  0.43144993702E+01  0.51100000000E-03 0.  1.
         12    1    3    3    0    0 -0.17333248921E+01  0.17356879460E+01 -0.33997582361E+01  0.41923005488E+01  0.00000000000E+00 0. -1.
</event>
<event>
 7    1  0.3062695E-010  0.4778727E+02  0.7816164E-02  0.1312668E+00
        -11   -1    0    0    0    0  0.00000000000E+00  0.00000000000E+00  0.45593999997E+02  0.45594000000E+02  0.51100000000E-03 0. -1.
         11   -1    0    0    0    0 -0.00000000000E+00 -0.00000000000E+00 -0.45593999997E+02  0.45594000000E+02  0.51100000000E-03 0.  1.
    9900012    2    1    2    0    0 -0.60119872487E+01 -0.38306823790E+02  0.19495293302E+02  0.47787271889E+02  0.20000003853E+02 0.  0.
        -12    1    1    2    0    0  0.60119872487E+01  0.38306823790E+02 -0.19495293302E+02  0.43400728111E+02  0.00000000000E+00 0.  1.
         11    1    3    3    0    0 -0.21728001037E+01 -0.55613108292E+01 -0.39445311969E+01  0.71560160043E+01  0.51100000000E-03 0. -1.
        -11    1    3    3    0    0 -0.25400438169E+01 -0.18297581507E+02  0.15372955531E+02  0.24032916461E+02  0.51100000000E-03 0.  1.
         12    1    3    3    0    0 -0.12991433281E+01 -0.14447931454E+02  0.80668689684E+01  0.16598339424E+02  0.00000000000E+00 0. -1.
</event>
<event>
 7    1  0.3062695E-010  0.4778726E+02  0.7816164E-02  0.1312668E+00
        -11   -1    0    0    0    0  0.00000000000E+00  0.00000000000E+00  0.45593999997E+02  0.45594000000E+02  0.51100000000E-03 0.  1.
         11   -1    0    0    0    0 -0.00000000000E+00 -0.00000000000E+00 -0.45593999997E+02  0.45594000000E+02  0.51100000000E-03 0. -1.
    9900012    2    1    2    0    0  0.43716454514E+01 -0.43145447266E+02 -0.17272237252E+01  0.47787260312E+02  0.19999951065E+02 0.  0.
        -12    1    1    2    0    0 -0.43716454514E+01  0.43145447266E+02  0.17272237252E+01  0.43400739688E+02  0.00000000000E+00 0.  1.
         11    1    3    3    0    0  0.24340655005E+01 -0.14748454479E+01  0.36986001656E+01  0.46668498371E+01  0.51100000000E-03 0. -1.
        -11    1    3    3    0    0 -0.64374672105E+00 -0.50142263735E+01  0.23255514024E+01  0.55646262725E+01  0.51100000000E-03 0.  1.
         12    1    3    3    0    0  0.25813266720E+01 -0.36656375444E+02 -0.77513752933E+01  0.37555784202E+02  0.00000000000E+00 0. -1.
</event>
<event>
 7    1  0.3062695E-010  0.4778727E+02  0.7816164E-02  0.1312668E+00
        -11   -1    0    0    0    0  0.00000000000E+00  0.00000000000E+00  0.45593999997E+02  0.45594000000E+02  0.51100000000E-03 0.  1.
         11   -1    0    0    0    0 -0.00000000000E+00 -0.00000000000E+00 -0.45593999997E+02  0.45594000000E+02  0.51100000000E-03 0. -1.
    9900012    2    1    2    0    0  0.34676122496E+02  0.15145934092E+02 -0.21255365392E+02  0.47787270182E+02  0.19999996066E+02 0.  0.
        -12    1    1    2    0    0 -0.34676122496E+02 -0.15145934092E+02  0.21255365392E+02  0.43400729818E+02  0.00000000000E+00 0.  1.
         11    1    3    3    0    0  0.18624756850E+02  0.13882023173E+02 -0.62134388877E+01  0.24045767988E+02  0.51100000000E-03 0.  1.
        -11    1    3    3    0    0  0.15774979132E+02  0.75404808763E+00 -0.16088747555E+02  0.22544763323E+02  0.51100000000E-03 0. -1.
        -12    1    3    3    0    0  0.27638651445E+00  0.50986283134E+00  0.10468210510E+01  0.11967388709E+01  0.00000000000E+00 0.  1.
</event>
<event>
 7    1  0.3062695E-010  0.4778727E+02  0.7816164E-02  0.1312668E+00
        -11   -1    0    0    0    0  0.00000000000E+00  0.00000000000E+00  0.45593999997E+02  0.45594000000E+02  0.51100000000E-03 0. -1.
         11   -1    0    0    0    0 -0.00000000000E+00 -0.00000000000E+00 -0.45593999997E+02  0.45594000000E+02  0.51100000000E-03 0.  1.
    9900012    2    1    2    0    0 -0.17368823707E+02  0.64011638726E+01  0.39255218228E+02  0.47787273117E+02  0.20000009448E+02 0.  0.
        -12    1    1    2    0    0  0.17368823707E+02 -0.64011638726E+01 -0.39255218228E+02  0.43400726883E+02  0.00000000000E+00 0.  1.
         11    1    3    3    0    0 -0.12553047386E+02 -0.20055176503E+01  0.20264458586E+02  0.23921734506E+02  0.51100000000E-03 0. -1.
        -11    1    3    3    0    0  0.77507368037E+00  0.79618755659E+01  0.14941003254E+02  0.16947736729E+02  0.51100000000E-03 0.  1.
        -12    1    3    3    0    0 -0.55908500015E+01  0.44480595700E+00  0.40497563879E+01  0.69178018821E+01  0.00000000000E+00 0.  1.
</event>
<event>
 7    1  0.3062695E-010  0.4778727E+02  0.7816164E-02  0.1312668E+00
        -11   -1    0    0    0    0  0.00000000000E+00  0.00000000000E+00  0.45593999997E+02  0.45594000000E+02  0.51100000000E-03 0.  1.
         11   -1    0    0    0    0 -0.00000000000E+00 -0.00000000000E+00 -0.45593999997E+02  0.45594000000E+02  0.51100000000E-03 0. -1.
    9900012    2    1    2    0    0  0.53974780586E+01  0.28064097538E+02 -0.32663388546E+02  0.47787270844E+02  0.19999999084E+02 0.  0.
        -12    1    1    2    0    0 -0.53974780586E+01 -0.28064097538E+02  0.32663388546E+02  0.43400729156E+02  0.00000000000E+00 0.  1.
         11    1    3    3    0    0  0.67657226563E+01  0.21190168563E+02 -0.22793263388E+02  0.31848565163E+02  0.51100000000E-03 0. -1.
        -11    1    3    3    0    0  0.22670650274E+01 -0.15091719185E+01 -0.47213481920E+01  0.54505332518E+01  0.51100000000E-03 0.  1.
        -12    1    3    3    0    0 -0.36353096251E+01  0.83831008928E+01 -0.51487769667E+01  0.10488172429E+02  0.00000000000E+00 0.  1.
</event>
<event>
 7    1  0.3062695E-010  0.4778729E+02  0.7816164E-02  0.1312668E+00
        -11   -1    0    0    0    0  0.00000000000E+00  0.00000000000E+00  0.45593999997E+02  0.45594000000E+02  0.51100000000E-03 0.  1.
         11   -1    0    0    0    0 -0.00000000000E+00 -0.00000000000E+00 -0.45593999997E+02  0.45594000000E+02  0.51100000000E-03 0. -1.
    9900012    2    1    2    0    0  0.11248616985E+02 -0.41795019389E+02  0.32041578571E+01  0.47787289667E+02  0.20000084908E+02 0.  0.
        -12    1    1    2    0    0 -0.11248616985E+02  0.41795019389E+02 -0.32041578571E+01  0.43400710333E+02  0.00000000000E+00 0.  1.
         11    1    3    3    0    0 -0.64427812878E-01 -0.32437357955E+02  0.38101911362E+01  0.32660433230E+02  0.51100000000E-03 0. -1.
        -11    1    3    3    0    0  0.66789136584E+01 -0.38431503921E+01  0.93050650102E+00  0.77616709027E+01  0.51100000000E-03 0.  1.
         12    1    3    3    0    0  0.46341311398E+01 -0.55145110426E+01 -0.15365397802E+01  0.73651855344E+01  0.00000000000E+00 0. -1.
</event>
<event>
 7    1  0.3062695E-010  0.4778727E+02  0.7816164E-02  0.1312668E+00
        -11   -1    0    0    0    0  0.00000000000E+00  0.00000000000E+00  0.45593999997E+02  0.45594000000E+02  0.51100000000E-03 0.  1.
         11   -1    0    0    0    0 -0.00000000000E+00 -0.00000000000E+00 -0.45593999997E+02  0.45594000000E+02  0.51100000000E-03 0. -1.
    9900012    2    1    2    0    0 -0.30048373349E+02  0.30312163987E+02  0.78671018832E+01  0.47787270530E+02  0.19999997653E+02 0.  0.
        -12    1    1    2    0    0  0.30048373349E+02 -0.30312163987E+02 -0.78671018832E+01  0.43400729470E+02  0.00000000000E+00 0.  1.
         11    1    3    3    0    0 -0.22776768984E+02  0.21998243796E+02  0.63835421209E+01  0.32302531569E+02  0.51100000000E-03 0. -1.
        -11    1    3    3    0    0 -0.11490429498E+01  0.36106255727E+01 -0.43789036411E+01  0.57906574830E+01  0.51100000000E-03 0.  1.
        -12    1    3    3    0    0 -0.61225614153E+01  0.47032946182E+01  0.58624634033E+01  0.96940814781E+01  0.00000000000E+00 0.  1.
</event>
<event>
 7    1  0.3062695E-010  0.4778728E+02  0.7816164E-02  0.1312668E+00
        -11   -1    0    0    0    0  0.00000000000E+00  0.00000000000E+00  0.45593999997E+02  0.45594000000E+02  0.51100000000E-03 0.  1.
         11   -1    0    0    0    0 -0.00000000000E+00 -0.00000000000E+00 -0.45593999997E+02  0.45594000000E+02  0.51100000000E-03 0. -1.
    9900012    2    1    2    0    0 -0.28455230187E+02  0.24798265103E+02  0.21423549934E+02  0.47787279166E+02  0.20000037028E+02 0.  0.
        -12    1    1    2    0    0  0.28455230187E+02 -0.24798265103E+02 -0.21423549934E+02  0.43400720834E+02  0.00000000000E+00 0.  1.
         11    1    3    3    0    0 -0.23431526510E+02  0.19282318261E+02  0.66151480908E+01  0.31058081342E+02  0.51100000000E-03 0. -1.
        -11    1    3    3    0    0 -0.30709805839E+01  0.44734287056E+01  0.89478967301E+01  0.10464575590E+02  0.51100000000E-03 0.  1.
         12    1    3    3    0    0 -0.19527230932E+01  0.10425181367E+01  0.58605051136E+01  0.62646222337E+01  0.00000000000E+00 0. -1.
</event>
<event>
 7    1  0.3062695E-010  0.4778728E+02  0.7816164E-02  0.1312668E+00
        -11   -1    0    0    0    0  0.00000000000E+00  0.00000000000E+00  0.45593999997E+02  0.45594000000E+02  0.51100000000E-03 0.  1.
         11   -1    0    0    0    0 -0.00000000000E+00 -0.00000000000E+00 -0.45593999997E+02  0.45594000000E+02  0.51100000000E-03 0. -1.
    9900012    2    1    2    0    0 -0.33044561213E+02  0.15041284161E+02 -0.23778960527E+02  0.47787283201E+02  0.20000055425E+02 0.  0.
        -12    1    1    2    0    0  0.33044561213E+02 -0.15041284161E+02  0.23778960527E+02  0.43400716799E+02  0.00000000000E+00 0.  1.
         11    1    3    3    0    0 -0.57234702985E+01 -0.32372339729E+01 -0.27587866448E+01  0.71308274460E+01  0.51100000000E-03 0.  1.
        -11    1    3    3    0    0 -0.12406152249E+02  0.12262868171E+02 -0.54593137878E+01  0.18278256391E+02  0.51100000000E-03 0. -1.
         12    1    3    3    0    0 -0.14914938666E+02  0.60156499626E+01 -0.15560860094E+02  0.22378199363E+02  0.00000000000E+00 0. -1.
</event>
<event>
 7    1  0.3062695E-010  0.4778728E+02  0.7816164E-02  0.1312668E+00
        -11   -1    0    0    0    0  0.00000000000E+00  0.00000000000E+00  0.45593999997E+02  0.45594000000E+02  0.51100000000E-03 0.  1.
         11   -1    0    0    0    0 -0.00000000000E+00 -0.00000000000E+00 -0.45593999997E+02  0.45594000000E+02  0.51100000000E-03 0. -1.
    9900012    2    1    2    0    0 -0.25713331067E+02  0.13509679939E+02 -0.32248033894E+02  0.47787279538E+02  0.20000038724E+02 0.  0.
        -12    1    1    2    0    0  0.25713331067E+02 -0.13509679939E+02  0.32248033894E+02  0.43400720462E+02  0.00000000000E+00 0.  1.
         11    1    3    3    0    0 -0.77281037348E+01  0.70450142193E+00 -0.66515678470E+01  0.10220727209E+02  0.51100000000E-03 0. -1.
        -11    1    3    3    0    0 -0.10831409571E+02 -0.13360914241E+01 -0.63181009494E+01  0.12610431137E+02  0.51100000000E-03 0.  1.
        -12    1    3    3    0    0 -0.71538177606E+01  0.14141269941E+02 -0.19278365098E+02  0.24956121192E+02  0.00000000000E+00 0.  1.
</event>
<event>
 7    1  0.3062695E-010  0.4778727E+02  0.7816164E-02  0.1312668E+00
        -11   -1    0    0    0    0  0.00000000000E+00  0.00000000000E+00  0.45593999997E+02  0.45594000000E+02  0.51100000000E-03 0.  1.
         11   -1    0    0    0    0 -0.00000000000E+00 -0.00000000000E+00 -0.45593999997E+02  0.45594000000E+02  0.51100000000E-03 0. -1.
    9900012    2    1    2    0    0  0.87365951154E+01 -0.51518747516E+01 -0.42198974628E+02  0.47787269968E+02  0.19999995090E+02 0.  0.
        -12    1    1    2    0    0 -0.87365951154E+01  0.51518747516E+01  0.42198974628E+02  0.43400730032E+02  0.00000000000E+00 0.  1.
         11    1    3    3    0    0 -0.58793563454E+01  0.13174347131E+01 -0.10941761282E+02  0.12490980965E+02  0.51100000000E-03 0. -1.
        -11    1    3    3    0    0  0.11347644617E+02 -0.42196767944E+01 -0.26251991639E+02  0.28909198810E+02  0.51100000000E-03 0.  1.
         12    1    3    3    0    0  0.32683068438E+01 -0.22496326703E+01 -0.50052217080E+01  0.63870901922E+01  0.00000000000E+00 0. -1.
</event>
<event>
 7    1  0.3062695E-010  0.4778727E+02  0.7816164E-02  0.1312668E+00
        -11   -1    0    0    0    0  0.00000000000E+00  0.00000000000E+00  0.45593999997E+02  0.45594000000E+02  0.51100000000E-03 0.  1.
         11   -1    0    0    0    0 -0.00000000000E+00 -0.00000000000E+00 -0.45593999997E+02  0.45594000000E+02  0.51100000000E-03 0. -1.
    9900012    2    1    2    0    0 -0.25040659140E+02  0.26051750091E+02 -0.24039449214E+02  0.47787269459E+02  0.19999992771E+02 0.  0.
        -12    1    1    2    0    0  0.25040659140E+02 -0.26051750091E+02  0.24039449214E+02  0.43400730541E+02  0.00000000000E+00 0.  1.
         11    1    3    3    0    0 -0.60344394887E+01  0.16816167786E+02 -0.46064231766E+01  0.18450395489E+02  0.51100000000E-03 0. -1.
        -11    1    3    3    0    0 -0.90993395531E+01  0.18142313133E+01 -0.10837875258E+02  0.14267058419E+02  0.51100000000E-03 0.  1.
        -12    1    3    3    0    0 -0.99068800985E+01  0.74213509916E+01 -0.85951507795E+01  0.15069815551E+02  0.00000000000E+00 0.  1.
</event>
<event>
 7    1  0.3062695E-010  0.4778724E+02  0.7816164E-02  0.1312668E+00
        -11   -1    0    0    0    0  0.00000000000E+00  0.00000000000E+00  0.45593999997E+02  0.45594000000E+02  0.51100000000E-03 0.  1.
         11   -1    0    0    0    0 -0.00000000000E+00 -0.00000000000E+00 -0.45593999997E+02  0.45594000000E+02  0.51100000000E-03 0. -1.
    9900012    2    1    2    0    0  0.57613031319E+01  0.35858044212E+02 -0.23762028218E+02  0.47787240404E+02  0.19999860299E+02 0.  0.
        -12    1    1    2    0    0 -0.57613031319E+01 -0.35858044212E+02  0.23762028218E+02  0.43400759596E+02  0.00000000000E+00 0.  1.
         11    1    3    3    0    0  0.44105115467E+01  0.43481312291E+01 -0.56539614403E+01  0.83860680607E+01  0.51100000000E-03 0. -1.
        -11    1    3    3    0    0  0.45874422052E-01  0.57569808513E+00  0.22652473723E+01  0.23377079943E+01  0.51100000000E-03 0.  1.
        -12    1    3    3    0    0  0.13049171632E+01  0.30934214897E+02 -0.20373314150E+02  0.37063464349E+02  0.00000000000E+00 0.  1.
</event>
<event>
 7    1  0.3062695E-010  0.4778727E+02  0.7816164E-02  0.1312668E+00
        -11   -1    0    0    0    0  0.00000000000E+00  0.00000000000E+00  0.45593999997E+02  0.45594000000E+02  0.51100000000E-03 0.  1.
         11   -1    0    0    0    0 -0.00000000000E+00 -0.00000000000E+00 -0.45593999997E+02  0.45594000000E+02  0.51100000000E-03 0. -1.
    9900012    2    1    2    0    0 -0.36188639030E+01  0.74619344279E+01 -0.42601019911E+02  0.47787267992E+02  0.19999986083E+02 0.  0.
        -12    1    1    2    0    0  0.36188639030E+01 -0.74619344279E+01  0.42601019911E+02  0.43400732008E+02  0.00000000000E+00 0.  1.
         11    1    3    3    0    0 -0.76256555082E+01  0.96367125345E+01 -0.29911555240E+02  0.32337563105E+02  0.51100000000E-03 0. -1.
        -11    1    3    3    0    0  0.35617888550E+01  0.46763476689E+00 -0.14146887358E+01  0.38608764035E+01  0.51100000000E-03 0.  1.
        -12    1    3    3    0    0  0.44500275022E+00 -0.26424128735E+01 -0.11274775935E+02  0.11588828484E+02  0.00000000000E+00 0.  1.
</event>
<event>
 7    1  0.3062695E-010  0.4778727E+02  0.7816164E-02  0.1312668E+00
        -11   -1    0    0    0    0  0.00000000000E+00  0.00000000000E+00  0.45593999997E+02  0.45594000000E+02  0.51100000000E-03 0.  1.
         11   -1    0    0    0    0 -0.00000000000E+00 -0.00000000000E+00 -0.45593999997E+02  0.45594000000E+02  0.51100000000E-03 0. -1.
    9900012    2    1    2    0    0 -0.29853460818E+02  0.99575391670E+00 -0.31486548827E+02  0.47787269526E+02  0.19999993077E+02 0.  0.
        -12    1    1    2    0    0  0.29853460818E+02 -0.99575391670E+00  0.31486548827E+02  0.43400730474E+02  0.00000000000E+00 0.  1.
         11    1    3    3    0    0 -0.12048878299E+02  0.37448811973E+01 -0.15207831157E+02  0.19760509411E+02  0.51100000000E-03 0. -1.
        -11    1    3    3    0    0 -0.10768614399E+00 -0.42623094006E+01 -0.64366197213E+01  0.77206833525E+01  0.51100000000E-03 0.  1.
        -12    1    3    3    0    0 -0.17696896375E+02  0.15131821199E+01 -0.98420979486E+01  0.20306076762E+02  0.00000000000E+00 0.  1.
</event>
<event>
 7    1  0.3062695E-010  0.4778727E+02  0.7816164E-02  0.1312668E+00
        -11   -1    0    0    0    0  0.00000000000E+00  0.00000000000E+00  0.45593999997E+02  0.45594000000E+02  0.51100000000E-03 0. -1.
         11   -1    0    0    0    0 -0.00000000000E+00 -0.00000000000E+00 -0.45593999997E+02  0.45594000000E+02  0.51100000000E-03 0.  1.
    9900012    2    1    2    0    0 -0.95352486719E+01 -0.75209433074E+00  0.42333631990E+02  0.47787274077E+02  0.20000013828E+02 0.  0.
        -12    1    1    2    0    0  0.95352486719E+01  0.75209433074E+00 -0.42333631990E+02  0.43400725923E+02  0.00000000000E+00 0.  1.
         11    1    3    3    0    0 -0.69238820453E+01 -0.68747121472E+01  0.26646939459E+02  0.28377124458E+02  0.51100000000E-03 0. -1.
        -11    1    3    3    0    0 -0.35965829193E+01  0.68251274424E+01  0.16314737977E+02  0.18046840411E+02  0.51100000000E-03 0.  1.
         12    1    3    3    0    0  0.98521629268E+00 -0.70250962588E+00 -0.62804544531E+00  0.13633092089E+01  0.00000000000E+00 0. -1.
</event>
<event>
 7    1  0.3062695E-010  0.4778727E+02  0.7816164E-02  0.1312668E+00
        -11   -1    0    0    0    0  0.00000000000E+00  0.00000000000E+00  0.45593999997E+02  0.45594000000E+02  0.51100000000E-03 0. -1.
         11   -1    0    0    0    0 -0.00000000000E+00 -0.00000000000E+00 -0.45593999997E+02  0.45594000000E+02  0.51100000000E-03 0.  1.
    9900012    2    1    2    0    0 -0.43120856657E+02 -0.42775173774E+01 -0.24326936914E+01  0.47787269219E+02  0.19999991677E+02 0.  0.
        -12    1    1    2    0    0  0.43120856657E+02  0.42775173774E+01  0.24326936914E+01  0.43400730781E+02  0.00000000000E+00 0.  1.
         11    1    3    3    0    0 -0.23176438796E+02 -0.24974461725E+01 -0.52930648950E+01  0.23903997341E+02  0.51100000000E-03 0. -1.
        -11    1    3    3    0    0 -0.82636327181E+01 -0.70231175155E+01  0.21789293061E+01  0.11061624588E+02  0.51100000000E-03 0.  1.
        -12    1    3    3    0    0 -0.11680785143E+02  0.52430463107E+01  0.68144189746E+00  0.12821647290E+02  0.00000000000E+00 0.  1.
</event>
<event>
 7    1  0.3062695E-010  0.4778727E+02  0.7816164E-02  0.1312668E+00
        -11   -1    0    0    0    0  0.00000000000E+00  0.00000000000E+00  0.45593999997E+02  0.45594000000E+02  0.51100000000E-03 0.  1.
         11   -1    0    0    0    0 -0.00000000000E+00 -0.00000000000E+00 -0.45593999997E+02  0.45594000000E+02  0.51100000000E-03 0. -1.
    9900012    2    1    2    0    0 -0.52311059969E+01 -0.12792168576E+02 -0.41141453139E+02  0.47787271743E+02  0.20000003184E+02 0.  0.
        -12    1    1    2    0    0  0.52311059969E+01  0.12792168576E+02  0.41141453139E+02  0.43400728257E+02  0.00000000000E+00 0.  1.
         11    1    3    3    0    0  0.96407351197E+00 -0.71194896259E+01 -0.10847764208E+02  0.13011170541E+02  0.51100000000E-03 0. -1.
        -11    1    3    3    0    0 -0.10705997131E+02 -0.64201543383E+01 -0.21362370680E+02  0.24742425864E+02  0.51100000000E-03 0.  1.
        -12    1    3    3    0    0  0.45108176225E+01  0.74747538793E+00 -0.89313182510E+01  0.10033675338E+02  0.00000000000E+00 0.  1.
</event>
<event>
 7    1  0.3062695E-010  0.4778729E+02  0.7816164E-02  0.1312668E+00
        -11   -1    0    0    0    0  0.00000000000E+00  0.00000000000E+00  0.45593999997E+02  0.45594000000E+02  0.51100000000E-03 0. -1.
         11   -1    0    0    0    0 -0.00000000000E+00 -0.00000000000E+00 -0.45593999997E+02  0.45594000000E+02  0.51100000000E-03 0.  1.
    9900012    2    1    2    0    0  0.12572993357E+01 -0.19117691269E+02  0.38942971223E+02  0.47787286542E+02  0.20000070658E+02 0.  0.
        -12    1    1    2    0    0 -0.12572993357E+01  0.19117691269E+02 -0.38942971223E+02  0.43400713458E+02  0.00000000000E+00 0.  1.
         11    1    3    3    0    0  0.18081305393E+01  0.29028766645E+01  0.50339782155E+01  0.60858003509E+01  0.51100000000E-03 0.  1.
        -11    1    3    3    0    0 -0.33632793016E+01 -0.20581683010E+02  0.27101009279E+02  0.34196228263E+02  0.51100000000E-03 0. -1.
         12    1    3    3    0    0  0.28124480981E+01 -0.14388849229E+01  0.68079837280E+01  0.75052579280E+01  0.00000000000E+00 0. -1.
</event>
<event>
 7    1  0.3062695E-010  0.4778728E+02  0.7816164E-02  0.1312668E+00
        -11   -1    0    0    0    0  0.00000000000E+00  0.00000000000E+00  0.45593999997E+02  0.45594000000E+02  0.51100000000E-03 0.  1.
         11   -1    0    0    0    0 -0.00000000000E+00 -0.00000000000E+00 -0.45593999997E+02  0.45594000000E+02  0.51100000000E-03 0. -1.
    9900012    2    1    2    0    0 -0.31746583943E+02 -0.84657406916E+01 -0.28356806623E+02  0.47787276050E+02  0.20000022823E+02 0.  0.
        -12    1    1    2    0    0  0.31746583943E+02  0.84657406916E+01  0.28356806623E+02  0.43400723950E+02  0.00000000000E+00 0.  1.
         11    1    3    3    0    0 -0.20219035626E+02 -0.19853180781E+01 -0.16264682381E+02  0.26024810907E+02  0.51100000000E-03 0. -1.
        -11    1    3    3    0    0 -0.15168628466E+01  0.90360765813E-01  0.24756883972E+01  0.29048358412E+01  0.51100000000E-03 0.  1.
        -12    1    3    3    0    0 -0.10010685470E+02 -0.65707833793E+01 -0.14567812639E+02  0.18857629302E+02  0.00000000000E+00 0.  1.
</event>
<event>
 7    1  0.3062695E-010  0.4778727E+02  0.7816164E-02  0.1312668E+00
        -11   -1    0    0    0    0  0.00000000000E+00  0.00000000000E+00  0.45593999997E+02  0.45594000000E+02  0.51100000000E-03 0. -1.
         11   -1    0    0    0    0 -0.00000000000E+00 -0.00000000000E+00 -0.45593999997E+02  0.45594000000E+02  0.51100000000E-03 0.  1.
    9900012    2    1    2    0    0 -0.26145050883E+01 -0.95409017824E+01  0.42258237156E+02  0.47787273610E+02  0.20000011697E+02 0.  0.
        -12    1    1    2    0    0  0.26145050883E+01  0.95409017824E+01 -0.42258237156E+02  0.43400726390E+02  0.00000000000E+00 0.  1.
         11    1    3    3    0    0  0.12453935297E+01 -0.31721414787E+01  0.37623748644E+02  0.37777770566E+02  0.51100000000E-03 0. -1.
        -11    1    3    3    0    0 -0.21783469195E+01 -0.12199075465E+01 -0.49991884806E+00  0.25462303194E+01  0.51100000000E-03 0.  1.
         12    1    3    3    0    0 -0.16815516986E+01 -0.51488527571E+01  0.51344073594E+01  0.74632727246E+01  0.00000000000E+00 0. -1.
</event>
<event>
 7    1  0.3778434E-010  0.4778727E+02  0.7816164E-02  0.1312668E+00
        -11   -1    0    0    0    0  0.00000000000E+00  0.00000000000E+00  0.45593999997E+02  0.45594000000E+02  0.51100000000E-03 0.  1.
         11   -1    0    0    0    0 -0.00000000000E+00 -0.00000000000E+00 -0.45593999997E+02  0.45594000000E+02  0.51100000000E-03 0. -1.
    9900012    2    1    2    0    0 -0.36297613428E+02  0.23629545698E+02  0.27840943522E+01  0.47787270146E+02  0.19999995904E+02 0.  0.
        -12    1    1    2    0    0  0.36297613428E+02 -0.23629545698E+02 -0.27840943522E+01  0.43400729854E+02  0.00000000000E+00 0.  1.
         11    1    3    3    0    0 -0.26508227561E+02  0.16802627690E+02 -0.25098320786E+01  0.31485134318E+02  0.51100000000E-03 0. -1.
        -11    1    3    3    0    0 -0.95587094348E+00  0.64897581216E+01  0.26550493122E+01  0.70767179433E+01  0.51100000000E-03 0.  1.
        -12    1    3    3    0    0 -0.88335149239E+01  0.33715988685E+00  0.26388771187E+01  0.92254178847E+01  0.00000000000E+00 0.  1.
</event>
<event>
 7    1  0.3062695E-010  0.4778728E+02  0.7816164E-02  0.1312668E+00
        -11   -1    0    0    0    0  0.00000000000E+00  0.00000000000E+00  0.45593999997E+02  0.45594000000E+02  0.51100000000E-03 0.  1.
         11   -1    0    0    0    0 -0.00000000000E+00 -0.00000000000E+00 -0.45593999997E+02  0.45594000000E+02  0.51100000000E-03 0. -1.
    9900012    2    1    2    0    0  0.52239884331E+01  0.42194868540E+02 -0.87135476346E+01  0.47787275368E+02  0.20000019711E+02 0.  0.
        -12    1    1    2    0    0 -0.52239884331E+01 -0.42194868540E+02  0.87135476346E+01  0.43400724632E+02  0.00000000000E+00 0.  1.
         11    1    3    3    0    0 -0.14973037835E+01  0.64808759222E+00  0.34276986300E+01  0.37961894455E+01  0.51100000000E-03 0.  1.
        -11    1    3    3    0    0  0.32281215023E+01  0.21600694681E+02 -0.83914653161E+01  0.23397167981E+02  0.51100000000E-03 0. -1.
        -12    1    3    3    0    0  0.34931707143E+01  0.19946086267E+02 -0.37497809485E+01  0.20593917941E+02  0.00000000000E+00 0.  1.
</event>
<event>
 7    1  0.3062695E-010  0.4778728E+02  0.7816164E-02  0.1312668E+00
        -11   -1    0    0    0    0  0.00000000000E+00  0.00000000000E+00  0.45593999997E+02  0.45594000000E+02  0.51100000000E-03 0.  1.
         11   -1    0    0    0    0 -0.00000000000E+00 -0.00000000000E+00 -0.45593999997E+02  0.45594000000E+02  0.51100000000E-03 0. -1.
    9900012    2    1    2    0    0  0.37672034411E+02 -0.20875831033E+02  0.53516740563E+01  0.47787275200E+02  0.20000018945E+02 0.  0.
        -12    1    1    2    0    0 -0.37672034411E+02  0.20875831033E+02 -0.53516740563E+01  0.43400724800E+02  0.00000000000E+00 0.  1.
         11    1    3    3    0    0  0.14116875818E+02 -0.17772858793E+02 -0.17392779062E+01  0.22763694349E+02  0.51100000000E-03 0. -1.
        -11    1    3    3    0    0  0.13710617888E+02 -0.14282036928E+01  0.24058751179E+01  0.13993178481E+02  0.51100000000E-03 0.  1.
         12    1    3    3    0    0  0.98445407056E+01 -0.16747685475E+01  0.46850768447E+01  0.11030402369E+02  0.00000000000E+00 0. -1.
</event>
<event>
 7    1  0.3062695E-010  0.4778726E+02  0.7816164E-02  0.1312668E+00
        -11   -1    0    0    0    0  0.00000000000E+00  0.00000000000E+00  0.45593999997E+02  0.45594000000E+02  0.51100000000E-03 0.  1.
         11   -1    0    0    0    0 -0.00000000000E+00 -0.00000000000E+00 -0.45593999997E+02  0.45594000000E+02  0.51100000000E-03 0. -1.
    9900012    2    1    2    0    0 -0.11811171743E+02 -0.16056013093E+02 -0.38552880489E+02  0.47787263504E+02  0.19999965620E+02 0.  0.
        -12    1    1    2    0    0  0.11811171743E+02  0.16056013093E+02  0.38552880489E+02  0.43400736496E+02  0.00000000000E+00 0.  1.
         11    1    3    3    0    0 -0.87910175352E+01 -0.60611980432E+01 -0.58292003593E+01  0.12165512242E+02  0.51100000000E-03 0. -1.
        -11    1    3    3    0    0 -0.78694198388E+00 -0.10506009472E+02 -0.19156083561E+02  0.21862091628E+02  0.51100000000E-03 0.  1.
        -12    1    3    3    0    0 -0.22332122239E+01  0.51119442189E+00 -0.13567596569E+02  0.13759659633E+02  0.00000000000E+00 0.  1.
</event>
<event>
 7    1  0.3062695E-010  0.4778726E+02  0.7816164E-02  0.1312668E+00
        -11   -1    0    0    0    0  0.00000000000E+00  0.00000000000E+00  0.45593999997E+02  0.45594000000E+02  0.51100000000E-03 0.  1.
         11   -1    0    0    0    0 -0.00000000000E+00 -0.00000000000E+00 -0.45593999997E+02  0.45594000000E+02  0.51100000000E-03 0. -1.
    9900012    2    1    2    0    0  0.79531581777E+01 -0.10297739605E+02 -0.41404445632E+02  0.47787259406E+02  0.19999946937E+02 0.  0.
        -12    1    1    2    0    0 -0.79531581777E+01  0.10297739605E+02  0.41404445632E+02  0.43400740594E+02  0.00000000000E+00 0.  1.
         11    1    3    3    0    0  0.40389206339E+01 -0.12411292260E+01 -0.18748461132E+02  0.19218690817E+02  0.51100000000E-03 0.  1.
        -11    1    3    3    0    0  0.32427840989E+01 -0.60618163409E+01 -0.24182543842E+02  0.25140737718E+02  0.51100000000E-03 0. -1.
        -12    1    3    3    0    0  0.67145344483E+00 -0.29947940385E+01  0.15265593417E+01  0.34278308717E+01  0.00000000000E+00 0.  1.
</event>
<event>
 7    1  0.3062695E-010  0.4778727E+02  0.7816164E-02  0.1312668E+00
        -11   -1    0    0    0    0  0.00000000000E+00  0.00000000000E+00  0.45593999997E+02  0.45594000000E+02  0.51100000000E-03 0. -1.
         11   -1    0    0    0    0 -0.00000000000E+00 -0.00000000000E+00 -0.45593999997E+02  0.45594000000E+02  0.51100000000E-03 0.  1.
    9900012    2    1    2    0    0  0.38736072793E+02  0.19306365729E+02  0.32255234915E+01  0.47787273106E+02  0.20000009401E+02 0.  0.
        -12    1    1    2    0    0 -0.38736072793E+02 -0.19306365729E+02 -0.32255234915E+01  0.43400726894E+02  0.00000000000E+00 0.  1.
         11    1    3    3    0    0  0.22666724044E+02  0.63341987764E+01  0.95127512198E+01  0.25384934293E+02  0.51100000000E-03 0. -1.
        -11    1    3    3    0    0  0.97511284912E+01  0.11304107180E+02 -0.37514331936E+01  0.15392874886E+02  0.51100000000E-03 0.  1.
         12    1    3    3    0    0  0.63182202572E+01  0.16680597734E+01 -0.25357945347E+01  0.70094639273E+01  0.00000000000E+00 0. -1.
</event>
<event>
 7    1  0.3062695E-010  0.4778727E+02  0.7816164E-02  0.1312668E+00
        -11   -1    0    0    0    0  0.00000000000E+00  0.00000000000E+00  0.45593999997E+02  0.45594000000E+02  0.51100000000E-03 0. -1.
         11   -1    0    0    0    0 -0.00000000000E+00 -0.00000000000E+00 -0.45593999997E+02  0.45594000000E+02  0.51100000000E-03 0.  1.
    9900012    2    1    2    0    0 -0.80421905050E+01  0.41421344454E+02  0.10159659186E+02  0.47787270982E+02  0.19999999716E+02 0.  0.
        -12    1    1    2    0    0  0.80421905050E+01 -0.41421344454E+02 -0.10159659186E+02  0.43400729018E+02  0.00000000000E+00 0.  1.
         11    1    3    3    0    0 -0.48521209527E+01  0.45755451036E+01 -0.38078193834E+01  0.76797252198E+01  0.51100000000E-03 0. -1.
        -11    1    3    3    0    0  0.75736587015E-01  0.29875124292E+02  0.10523681029E+02  0.31674542619E+02  0.51100000000E-03 0.  1.
         12    1    3    3    0    0 -0.32658061393E+01  0.69706750590E+01  0.34437975399E+01  0.84330031432E+01  0.00000000000E+00 0. -1.
</event>
<event>
 7    1  0.3062695E-010  0.4778727E+02  0.7816164E-02  0.1312668E+00
        -11   -1    0    0    0    0  0.00000000000E+00  0.00000000000E+00  0.45593999997E+02  0.45594000000E+02  0.51100000000E-03 0.  1.
         11   -1    0    0    0    0 -0.00000000000E+00 -0.00000000000E+00 -0.45593999997E+02  0.45594000000E+02  0.51100000000E-03 0. -1.
    9900012    2    1    2    0    0 -0.32468013015E+02  0.99085532562E+01 -0.27042040080E+02  0.47787271568E+02  0.20000002386E+02 0.  0.
        -12    1    1    2    0    0  0.32468013015E+02 -0.99085532562E+01  0.27042040080E+02  0.43400728432E+02  0.00000000000E+00 0.  1.
         11    1    3    3    0    0 -0.48608019323E+01 -0.12882703817E+01 -0.43229946843E+01  0.66313889422E+01  0.51100000000E-03 0.  1.
        -11    1    3    3    0    0 -0.24859842353E+02  0.35024092236E+01 -0.21170903573E+02  0.32840307407E+02  0.51100000000E-03 0. -1.
        -12    1    3    3    0    0 -0.27473687291E+01  0.76944144143E+01 -0.15481418224E+01  0.83155752185E+01  0.00000000000E+00 0.  1.
</event>
<event>
 7    1  0.3062695E-010  0.4778727E+02  0.7816164E-02  0.1312668E+00
        -11   -1    0    0    0    0  0.00000000000E+00  0.00000000000E+00  0.45593999997E+02  0.45594000000E+02  0.51100000000E-03 0.  1.
         11   -1    0    0    0    0 -0.00000000000E+00 -0.00000000000E+00 -0.45593999997E+02  0.45594000000E+02  0.51100000000E-03 0. -1.
    9900012    2    1    2    0    0 -0.17248745244E+02 -0.19493371298E+02 -0.34729132200E+02  0.47787270047E+02  0.19999995451E+02 0.  0.
        -12    1    1    2    0    0  0.17248745244E+02  0.19493371298E+02  0.34729132200E+02  0.43400729953E+02  0.00000000000E+00 0.  1.
         11    1    3    3    0    0 -0.45859740161E+01 -0.16792708227E+02 -0.11253956791E+02  0.20728669783E+02  0.51100000000E-03 0. -1.
        -11    1    3    3    0    0 -0.33629758825E+01  0.83372455061E+00 -0.51510260665E+01  0.62078799289E+01  0.51100000000E-03 0.  1.
         12    1    3    3    0    0 -0.92997953457E+01 -0.35343876221E+01 -0.18324149343E+02  0.20850720335E+02  0.00000000000E+00 0. -1.
</event>
<event>
 7    1  0.3062695E-010  0.4778727E+02  0.7816164E-02  0.1312668E+00
        -11   -1    0    0    0    0  0.00000000000E+00  0.00000000000E+00  0.45593999997E+02  0.45594000000E+02  0.51100000000E-03 0.  1.
         11   -1    0    0    0    0 -0.00000000000E+00 -0.00000000000E+00 -0.45593999997E+02  0.45594000000E+02  0.51100000000E-03 0. -1.
    9900012    2    1    2    0    0 -0.11799401932E+02  0.33308585273E+02 -0.25197926955E+02  0.47787271185E+02  0.20000000640E+02 0.  0.
        -12    1    1    2    0    0  0.11799401932E+02 -0.33308585273E+02  0.25197926955E+02  0.43400728815E+02  0.00000000000E+00 0.  1.
         11    1    3    3    0    0 -0.11766104250E+02  0.32199030838E+02 -0.23057561320E+02  0.41314282403E+02  0.51100000000E-03 0. -1.
        -11    1    3    3    0    0  0.23596859902E+01  0.18055863973E+01  0.29829036952E+00  0.29861744115E+01  0.51100000000E-03 0.  1.
         12    1    3    3    0    0 -0.23929836727E+01 -0.69603196215E+00 -0.24386560040E+01  0.34868143707E+01  0.00000000000E+00 0. -1.
</event>
<event>
 7    1  0.3062695E-010  0.4778727E+02  0.7816164E-02  0.1312668E+00
        -11   -1    0    0    0    0  0.00000000000E+00  0.00000000000E+00  0.45593999997E+02  0.45594000000E+02  0.51100000000E-03 0. -1.
         11   -1    0    0    0    0 -0.00000000000E+00 -0.00000000000E+00 -0.45593999997E+02  0.45594000000E+02  0.51100000000E-03 0.  1.
    9900012    2    1    2    0    0  0.14480599992E+02  0.23595014295E+02  0.33424705610E+02  0.47787269351E+02  0.19999992280E+02 0.  0.
        -12    1    1    2    0    0 -0.14480599992E+02 -0.23595014295E+02 -0.33424705610E+02  0.43400730649E+02  0.00000000000E+00 0.  1.
         11    1    3    3    0    0  0.40421972864E+01  0.11574060910E+02  0.74767929530E+01  0.14359689341E+02  0.51100000000E-03 0.  1.
        -11    1    3    3    0    0  0.54107490064E+01  0.36624931434E+01  0.96065924147E+00  0.66040084248E+01  0.51100000000E-03 0. -1.
        -12    1    3    3    0    0  0.50276536989E+01  0.83584602418E+01  0.24987253416E+02  0.26823571586E+02  0.00000000000E+00 0.  1.
</event>
<event>
 7    1  0.3062695E-010  0.4778727E+02  0.7816164E-02  0.1312668E+00
        -11   -1    0    0    0    0  0.00000000000E+00  0.00000000000E+00  0.45593999997E+02  0.45594000000E+02  0.51100000000E-03 0. -1.
         11   -1    0    0    0    0 -0.00000000000E+00 -0.00000000000E+00 -0.45593999997E+02  0.45594000000E+02  0.51100000000E-03 0.  1.
    9900012    2    1    2    0    0 -0.36110051704E+02 -0.49910799184E+01  0.23553700964E+02  0.47787267956E+02  0.19999985920E+02 0.  0.
        -12    1    1    2    0    0  0.36110051704E+02  0.49910799184E+01 -0.23553700964E+02  0.43400732044E+02  0.00000000000E+00 0.  1.
         11    1    3    3    0    0 -0.33929054405E+00 -0.44000757245E+01  0.49220283389E+01  0.66107599930E+01  0.51100000000E-03 0.  1.
        -11    1    3    3    0    0 -0.30209294191E+02 -0.17964628483E+01  0.12309241059E+02  0.32670264003E+02  0.51100000000E-03 0. -1.
         12    1    3    3    0    0 -0.55614669688E+01  0.12054586544E+01  0.63224315660E+01  0.85062439607E+01  0.00000000000E+00 0. -1.
</event>
<event>
 7    1  0.3062695E-010  0.4778727E+02  0.7816164E-02  0.1312668E+00
        -11   -1    0    0    0    0  0.00000000000E+00  0.00000000000E+00  0.45593999997E+02  0.45594000000E+02  0.51100000000E-03 0.  1.
         11   -1    0    0    0    0 -0.00000000000E+00 -0.00000000000E+00 -0.45593999997E+02  0.45594000000E+02  0.51100000000E-03 0. -1.
    9900012    2    1    2    0    0 -0.22491395234E+02 -0.13293849094E+02 -0.34655937170E+02  0.47787271153E+02  0.20000000495E+02 0.  0.
        -12    1    1    2    0    0  0.22491395234E+02  0.13293849094E+02  0.34655937170E+02  0.43400728847E+02  0.00000000000E+00 0.  1.
         11    1    3    3    0    0 -0.72788810495E+01  0.25144308737E+01 -0.18305074890E+02  0.19859009012E+02  0.51100000000E-03 0. -1.
        -11    1    3    3    0    0 -0.14579783709E+02 -0.15092975446E+02 -0.16791939066E+02  0.26876331942E+02  0.51100000000E-03 0.  1.
         12    1    3    3    0    0 -0.63273047589E+00 -0.71530452111E+00  0.44107678531E+00  0.10519301990E+01  0.00000000000E+00 0. -1.
</event>
<event>
 7    1  0.3062695E-010  0.4778727E+02  0.7816164E-02  0.1312668E+00
        -11   -1    0    0    0    0  0.00000000000E+00  0.00000000000E+00  0.45593999997E+02  0.45594000000E+02  0.51100000000E-03 0.  1.
         11   -1    0    0    0    0 -0.00000000000E+00 -0.00000000000E+00 -0.45593999997E+02  0.45594000000E+02  0.51100000000E-03 0. -1.
    9900012    2    1    2    0    0 -0.22676852183E+02  0.14199986196E+01 -0.36977934566E+02  0.47787266529E+02  0.19999979412E+02 0.  0.
        -12    1    1    2    0    0  0.22676852183E+02 -0.14199986196E+01  0.36977934566E+02  0.43400733471E+02  0.00000000000E+00 0.  1.
         11    1    3    3    0    0 -0.60251061155E+01 -0.11674980114E+01 -0.11264188348E+02  0.12827583354E+02  0.51100000000E-03 0. -1.
        -11    1    3    3    0    0 -0.19472452233E+00 -0.53418818703E+01 -0.70046138822E+01  0.88112561793E+01  0.51100000000E-03 0.  1.
        -12    1    3    3    0    0 -0.16457021546E+02  0.79293785012E+01 -0.18709132337E+02  0.26148426996E+02  0.00000000000E+00 0.  1.
</event>
<event>
 7    1  0.3062695E-010  0.4778726E+02  0.7816164E-02  0.1312668E+00
        -11   -1    0    0    0    0  0.00000000000E+00  0.00000000000E+00  0.45593999997E+02  0.45594000000E+02  0.51100000000E-03 0.  1.
         11   -1    0    0    0    0 -0.00000000000E+00 -0.00000000000E+00 -0.45593999997E+02  0.45594000000E+02  0.51100000000E-03 0. -1.
    9900012    2    1    2    0    0 -0.30533811216E+02 -0.17829042810E+02 -0.25168143750E+02  0.47787264353E+02  0.19999969489E+02 0.  0.
        -12    1    1    2    0    0  0.30533811216E+02  0.17829042810E+02  0.25168143750E+02  0.43400735647E+02  0.00000000000E+00 0.  1.
         11    1    3    3    0    0 -0.24685827462E+02 -0.19600789677E+02 -0.19475585087E+02  0.37052387888E+02  0.51100000000E-03 0. -1.
        -11    1    3    3    0    0  0.67645114651E+00  0.15681445067E+01  0.45579942459E+00  0.17676019700E+01  0.51100000000E-03 0.  1.
         12    1    3    3    0    0 -0.65244349005E+01  0.20360236011E+00 -0.61483580872E+01  0.89672744945E+01  0.00000000000E+00 0. -1.
</event>
<event>
 7    1  0.3062695E-010  0.4778728E+02  0.7816164E-02  0.1312668E+00
        -11   -1    0    0    0    0  0.00000000000E+00  0.00000000000E+00  0.45593999997E+02  0.45594000000E+02  0.51100000000E-03 0.  1.
         11   -1    0    0    0    0 -0.00000000000E+00 -0.00000000000E+00 -0.45593999997E+02  0.45594000000E+02  0.51100000000E-03 0. -1.
    9900012    2    1    2    0    0  0.26963716828E+02  0.31602123528E+02 -0.12565295029E+02  0.47787275631E+02  0.20000020910E+02 0.  0.
        -12    1    1    2    0    0 -0.26963716828E+02 -0.31602123528E+02  0.12565295029E+02  0.43400724369E+02  0.00000000000E+00 0.  1.
         11    1    3    3    0    0  0.36679016146E+01  0.10518881629E+02 -0.29788133418E+01  0.11531422383E+02  0.51100000000E-03 0. -1.
        -11    1    3    3    0    0  0.22860680251E+02  0.11945740318E+02 -0.76642846939E+01  0.26908226872E+02  0.51100000000E-03 0.  1.
        -12    1    3    3    0    0  0.43513496187E+00  0.91375015808E+01 -0.19221969936E+01  0.93476263755E+01  0.00000000000E+00 0.  1.
</event>
<event>
 7    1  0.3062695E-010  0.4778727E+02  0.7816164E-02  0.1312668E+00
        -11   -1    0    0    0    0  0.00000000000E+00  0.00000000000E+00  0.45593999997E+02  0.45594000000E+02  0.51100000000E-03 0. -1.
         11   -1    0    0    0    0 -0.00000000000E+00 -0.00000000000E+00 -0.45593999997E+02  0.45594000000E+02  0.51100000000E-03 0.  1.
    9900012    2    1    2    0    0 -0.26648899587E+02 -0.34105278641E+02 -0.32076798084E+01  0.47787273161E+02  0.20000009649E+02 0.  0.
        -12    1    1    2    0    0  0.26648899587E+02  0.34105278641E+02  0.32076798084E+01  0.43400726839E+02  0.00000000000E+00 0.  1.
         11    1    3    3    0    0 -0.21858741399E+02 -0.17099224331E+02 -0.71132317691E+00  0.27761376572E+02  0.51100000000E-03 0. -1.
        -11    1    3    3    0    0  0.21445823510E+01 -0.31896622090E+01 -0.24662357895E+01  0.45667819850E+01  0.51100000000E-03 0.  1.
         12    1    3    3    0    0 -0.69347405391E+01 -0.13816392102E+02 -0.30120841929E-01  0.15459114603E+02  0.00000000000E+00 0. -1.
</event>
<event>
 7    1  0.3062695E-010  0.4778732E+02  0.7816164E-02  0.1312668E+00
        -11   -1    0    0    0    0  0.00000000000E+00  0.00000000000E+00  0.45593999997E+02  0.45594000000E+02  0.51100000000E-03 0.  1.
         11   -1    0    0    0    0 -0.00000000000E+00 -0.00000000000E+00 -0.45593999997E+02  0.45594000000E+02  0.51100000000E-03 0. -1.
    9900012    2    1    2    0    0  0.79636437519E+01 -0.16951267262E+02 -0.39151680342E+02  0.47787318471E+02  0.20000216236E+02 0.  0.
        -12    1    1    2    0    0 -0.79636437519E+01  0.16951267262E+02  0.39151680342E+02  0.43400681529E+02  0.00000000000E+00 0.  1.
         11    1    3    3    0    0 -0.45927736860E+01 -0.36290396461E+01 -0.17464344870E+02  0.18419197618E+02  0.51100000000E-03 0. -1.
        -11    1    3    3    0    0  0.99796863213E+01 -0.13534056332E+02 -0.16431644725E+02  0.23510928704E+02  0.51100000000E-03 0.  1.
         12    1    3    3    0    0  0.25767311165E+01  0.21182871660E+00 -0.52556907469E+01  0.58571921497E+01  0.00000000000E+00 0. -1.
</event>
<event>
 7    1  0.3062695E-010  0.4778728E+02  0.7816164E-02  0.1312668E+00
        -11   -1    0    0    0    0  0.00000000000E+00  0.00000000000E+00  0.45593999997E+02  0.45594000000E+02  0.51100000000E-03 0.  1.
         11   -1    0    0    0    0 -0.00000000000E+00 -0.00000000000E+00 -0.45593999997E+02  0.45594000000E+02  0.51100000000E-03 0. -1.
    9900012    2    1    2    0    0 -0.32466373406E+02  0.16296777371E+02 -0.23748105804E+02  0.47787275535E+02  0.20000020474E+02 0.  0.
        -12    1    1    2    0    0  0.32466373406E+02 -0.16296777371E+02  0.23748105804E+02  0.43400724465E+02  0.00000000000E+00 0.  1.
         11    1    3    3    0    0 -0.36521001464E+01  0.49130040615E+01 -0.30705462515E+01  0.68486275217E+01  0.51100000000E-03 0. -1.
        -11    1    3    3    0    0 -0.30627709607E+02  0.12558858297E+02 -0.19994010498E+02  0.38672237763E+02  0.51100000000E-03 0.  1.
        -12    1    3    3    0    0  0.18134363478E+01 -0.11750849869E+01 -0.68354905400E+00  0.22664102504E+01  0.00000000000E+00 0.  1.
</event>
<event>
 7    1  0.3062695E-010  0.4778727E+02  0.7816164E-02  0.1312668E+00
        -11   -1    0    0    0    0  0.00000000000E+00  0.00000000000E+00  0.45593999997E+02  0.45594000000E+02  0.51100000000E-03 0. -1.
         11   -1    0    0    0    0 -0.00000000000E+00 -0.00000000000E+00 -0.45593999997E+02  0.45594000000E+02  0.51100000000E-03 0.  1.
    9900012    2    1    2    0    0  0.21548521417E+02  0.31589367676E+02 -0.20527947706E+02  0.47787267720E+02  0.19999984842E+02 0.  0.
        -12    1    1    2    0    0 -0.21548521417E+02 -0.31589367676E+02  0.20527947706E+02  0.43400732280E+02  0.00000000000E+00 0.  1.
         11    1    3    3    0    0  0.92734239667E+01  0.93791143799E+01 -0.14309238266E+02  0.19460690600E+02  0.51100000000E-03 0. -1.
        -11    1    3    3    0    0  0.33987046051E+01  0.75005538607E-01 -0.24302455370E+01  0.41788649721E+01  0.51100000000E-03 0.  1.
         12    1    3    3    0    0  0.88763928448E+01  0.22135247758E+02 -0.37884639034E+01  0.24147712148E+02  0.00000000000E+00 0. -1.
</event>
<event>
 7    1  0.3062695E-010  0.4778726E+02  0.7816164E-02  0.1312668E+00
        -11   -1    0    0    0    0  0.00000000000E+00  0.00000000000E+00  0.45593999997E+02  0.45594000000E+02  0.51100000000E-03 0. -1.
         11   -1    0    0    0    0 -0.00000000000E+00 -0.00000000000E+00 -0.45593999997E+02  0.45594000000E+02  0.51100000000E-03 0.  1.
    9900012    2    1    2    0    0 -0.38903157179E+02  0.16511783039E+02 -0.98757086385E+01  0.47787259929E+02  0.19999949319E+02 0.  0.
        -12    1    1    2    0    0  0.38903157179E+02 -0.16511783039E+02  0.98757086385E+01  0.43400740071E+02  0.00000000000E+00 0.  1.
         11    1    3    3    0    0 -0.71979291038E+01  0.40829880541E+01  0.46638232019E+01  0.94990642672E+01  0.51100000000E-03 0. -1.
        -11    1    3    3    0    0 -0.23680862915E+02  0.13345657872E+02 -0.96377849957E+01  0.28840540084E+02  0.51100000000E-03 0.  1.
        -12    1    3    3    0    0 -0.80243651603E+01 -0.91686288773E+00 -0.49017468447E+01  0.94476555775E+01  0.00000000000E+00 0.  1.
</event>
<event>
 7    1  0.3062695E-010  0.4778727E+02  0.7816164E-02  0.1312668E+00
        -11   -1    0    0    0    0  0.00000000000E+00  0.00000000000E+00  0.45593999997E+02  0.45594000000E+02  0.51100000000E-03 0. -1.
         11   -1    0    0    0    0 -0.00000000000E+00 -0.00000000000E+00 -0.45593999997E+02  0.45594000000E+02  0.51100000000E-03 0.  1.
    9900012    2    1    2    0    0 -0.24390347206E+02  0.69180658078E+01  0.35226047660E+02  0.47787272989E+02  0.20000008864E+02 0.  0.
        -12    1    1    2    0    0  0.24390347206E+02 -0.69180658078E+01 -0.35226047660E+02  0.43400727011E+02  0.00000000000E+00 0.  1.
         11    1    3    3    0    0 -0.15590486498E+02 -0.36116741406E+01  0.17498849088E+02  0.23713227933E+02  0.51100000000E-03 0. -1.
        -11    1    3    3    0    0  0.62535298640E+00  0.38955157549E+01  0.82769472694E+01  0.91691856626E+01  0.51100000000E-03 0.  1.
         12    1    3    3    0    0 -0.94252136948E+01  0.66342241935E+01  0.94502513030E+01  0.14904859393E+02  0.00000000000E+00 0. -1.
</event>
<event>
 7    1  0.3062695E-010  0.4778725E+02  0.7816164E-02  0.1312668E+00
        -11   -1    0    0    0    0  0.00000000000E+00  0.00000000000E+00  0.45593999997E+02  0.45594000000E+02  0.51100000000E-03 0. -1.
         11   -1    0    0    0    0 -0.00000000000E+00 -0.00000000000E+00 -0.45593999997E+02  0.45594000000E+02  0.51100000000E-03 0.  1.
    9900012    2    1    2    0    0  0.16684868208E+02  0.37713808995E+02 -0.13524395328E+02  0.47787245571E+02  0.19999883855E+02 0.  0.
        -12    1    1    2    0    0 -0.16684868208E+02 -0.37713808995E+02  0.13524395328E+02  0.43400754429E+02  0.00000000000E+00 0.  1.
         11    1    3    3    0    0  0.43983253873E+01  0.14308952559E+02  0.42772876654E+01  0.15568769366E+02  0.51100000000E-03 0. -1.
        -11    1    3    3    0    0  0.95958977201E+01  0.13545086040E+02 -0.10227258089E+02  0.19497369494E+02  0.51100000000E-03 0.  1.
         12    1    3    3    0    0  0.26906451005E+01  0.98597703959E+01 -0.75744249047E+01  0.12721106711E+02  0.00000000000E+00 0. -1.
</event>
<event>
 7    1  0.3062695E-010  0.4778727E+02  0.7816164E-02  0.1312668E+00
        -11   -1    0    0    0    0  0.00000000000E+00  0.00000000000E+00  0.45593999997E+02  0.45594000000E+02  0.51100000000E-03 0.  1.
         11   -1    0    0    0    0 -0.00000000000E+00 -0.00000000000E+00 -0.45593999997E+02  0.45594000000E+02  0.51100000000E-03 0. -1.
    9900012    2    1    2    0    0 -0.10448321594E+02  0.23185302509E+02 -0.35169555631E+02  0.47787270515E+02  0.19999997588E+02 0.  0.
        -12    1    1    2    0    0  0.10448321594E+02 -0.23185302509E+02  0.35169555631E+02  0.43400729485E+02  0.00000000000E+00 0.  1.
         11    1    3    3    0    0 -0.81283621750E+01  0.17273749355E+02 -0.33111145495E+02  0.38220421828E+02  0.51100000000E-03 0. -1.
        -11    1    3    3    0    0 -0.29863653216E+01 -0.36405966508E+00 -0.98288164097E+00  0.31649603244E+01  0.51100000000E-03 0.  1.
         12    1    3    3    0    0  0.66640590244E+00  0.62756128182E+01 -0.10755284944E+01  0.64018883631E+01  0.00000000000E+00 0. -1.
</event>
<event>
 7    1  0.3062695E-010  0.4778727E+02  0.7816164E-02  0.1312668E+00
        -11   -1    0    0    0    0  0.00000000000E+00  0.00000000000E+00  0.45593999997E+02  0.45594000000E+02  0.51100000000E-03 0.  1.
         11   -1    0    0    0    0 -0.00000000000E+00 -0.00000000000E+00 -0.45593999997E+02  0.45594000000E+02  0.51100000000E-03 0. -1.
    9900012    2    1    2    0    0 -0.27652695962E+01  0.31886471696E+02 -0.29312616459E+02  0.47787271011E+02  0.19999999846E+02 0.  0.
        -12    1    1    2    0    0  0.27652695962E+01 -0.31886471696E+02  0.29312616459E+02  0.43400728989E+02  0.00000000000E+00 0.  1.
         11    1    3    3    0    0  0.63735442026E+01  0.70912981674E+01 -0.23785666999E+01  0.98268079868E+01  0.51100000000E-03 0. -1.
        -11    1    3    3    0    0 -0.55554069917E+01  0.13661033609E+02 -0.17828644746E+02  0.23137565988E+02  0.51100000000E-03 0.  1.
         12    1    3    3    0    0 -0.35834068071E+01  0.11134139919E+02 -0.91054050126E+01  0.14822897035E+02  0.00000000000E+00 0. -1.
</event>
<event>
 7    1  0.3062695E-010  0.4778727E+02  0.7816164E-02  0.1312668E+00
        -11   -1    0    0    0    0  0.00000000000E+00  0.00000000000E+00  0.45593999997E+02  0.45594000000E+02  0.51100000000E-03 0.  1.
         11   -1    0    0    0    0 -0.00000000000E+00 -0.00000000000E+00 -0.45593999997E+02  0.45594000000E+02  0.51100000000E-03 0. -1.
    9900012    2    1    2    0    0  0.51988595881E+00 -0.43362873554E+02  0.17361369080E+01  0.47787271255E+02  0.20000000960E+02 0.  0.
        -12    1    1    2    0    0 -0.51988595881E+00  0.43362873554E+02 -0.17361369080E+01  0.43400728745E+02  0.00000000000E+00 0.  1.
         11    1    3    3    0    0  0.41468300992E+00 -0.35425401293E+02  0.19174693663E+01  0.35479680210E+02  0.51100000000E-03 0. -1.
        -11    1    3    3    0    0  0.73537231319E+00  0.16910798237E+01  0.16636954779E+01  0.24836276519E+01  0.51100000000E-03 0.  1.
        -12    1    3    3    0    0 -0.63016936429E+00 -0.96285520837E+01 -0.18450279361E+01  0.98239633927E+01  0.00000000000E+00 0.  1.
</event>
<event>
 7    1  0.3062695E-010  0.4778727E+02  0.7816164E-02  0.1312668E+00
        -11   -1    0    0    0    0  0.00000000000E+00  0.00000000000E+00  0.45593999997E+02  0.45594000000E+02  0.51100000000E-03 0.  1.
         11   -1    0    0    0    0 -0.00000000000E+00 -0.00000000000E+00 -0.45593999997E+02  0.45594000000E+02  0.51100000000E-03 0. -1.
    9900012    2    1    2    0    0  0.60054979891E+01  0.33568562630E-01 -0.42983204840E+02  0.47787273839E+02  0.20000012743E+02 0.  0.
        -12    1    1    2    0    0 -0.60054979891E+01 -0.33568562630E-01  0.42983204840E+02  0.43400726161E+02  0.00000000000E+00 0.  1.
         11    1    3    3    0    0 -0.35554635027E+01  0.56060829544E+01 -0.95840140340E+01  0.11658593915E+02  0.51100000000E-03 0. -1.
        -11    1    3    3    0    0  0.76154109485E+01 -0.42310195776E+01 -0.13352584846E+02  0.15943259795E+02  0.51100000000E-03 0.  1.
         12    1    3    3    0    0  0.19455505434E+01 -0.13414948142E+01 -0.20046605960E+02  0.20185420129E+02  0.00000000000E+00 0. -1.
</event>
<event>
 7    1  0.3062695E-010  0.4778727E+02  0.7816164E-02  0.1312668E+00
        -11   -1    0    0    0    0  0.00000000000E+00  0.00000000000E+00  0.45593999997E+02  0.45594000000E+02  0.51100000000E-03 0.  1.
         11   -1    0    0    0    0 -0.00000000000E+00 -0.00000000000E+00 -0.45593999997E+02  0.45594000000E+02  0.51100000000E-03 0. -1.
    9900012    2    1    2    0    0 -0.11180668977E+02 -0.15436007070E+02 -0.38991611697E+02  0.47787268949E+02  0.19999990447E+02 0.  0.
        -12    1    1    2    0    0  0.11180668977E+02  0.15436007070E+02  0.38991611697E+02  0.43400731051E+02  0.00000000000E+00 0.  1.
         11    1    3    3    0    0  0.61958642808E+00 -0.39299049721E+01 -0.48093449497E+01  0.62416215471E+01  0.51100000000E-03 0. -1.
        -11    1    3    3    0    0 -0.50845184588E+01 -0.15130316110E+02 -0.23930795279E+02  0.28765634993E+02  0.51100000000E-03 0.  1.
        -12    1    3    3    0    0 -0.67157369458E+01  0.36242140127E+01 -0.10251471468E+02  0.12780012410E+02  0.00000000000E+00 0.  1.
</event>
<event>
 7    1  0.3062695E-010  0.4778727E+02  0.7816164E-02  0.1312668E+00
        -11   -1    0    0    0    0  0.00000000000E+00  0.00000000000E+00  0.45593999997E+02  0.45594000000E+02  0.51100000000E-03 0. -1.
         11   -1    0    0    0    0 -0.00000000000E+00 -0.00000000000E+00 -0.45593999997E+02  0.45594000000E+02  0.51100000000E-03 0.  1.
    9900012    2    1    2    0    0 -0.34557852641E+02 -0.24295205162E+02  0.99559593588E+01  0.47787270746E+02  0.19999998639E+02 0.  0.
        -12    1    1    2    0    0  0.34557852641E+02  0.24295205162E+02 -0.99559593588E+01  0.43400729254E+02  0.00000000000E+00 0.  1.
         11    1    3    3    0    0 -0.16653323464E+02 -0.20640775030E+02  0.40861357143E+00  0.26524361284E+02  0.51100000000E-03 0. -1.
        -11    1    3    3    0    0 -0.12042403282E+02 -0.79530239308E+00  0.82335516106E+01  0.14609700719E+02  0.51100000000E-03 0.  1.
         12    1    3    3    0    0 -0.58621258943E+01 -0.28591277393E+01  0.13137941768E+01  0.66532087424E+01  0.00000000000E+00 0. -1.
</event>
<event>
 7    1  0.3062695E-010  0.4778727E+02  0.7816164E-02  0.1312668E+00
        -11   -1    0    0    0    0  0.00000000000E+00  0.00000000000E+00  0.45593999997E+02  0.45594000000E+02  0.51100000000E-03 0.  1.
         11   -1    0    0    0    0 -0.00000000000E+00 -0.00000000000E+00 -0.45593999997E+02  0.45594000000E+02  0.51100000000E-03 0. -1.
    9900012    2    1    2    0    0 -0.42544855766E+02 -0.41860936760E+00 -0.85664056097E+01  0.47787270847E+02  0.19999999099E+02 0.  0.
        -12    1    1    2    0    0  0.42544855766E+02  0.41860936760E+00  0.85664056097E+01  0.43400729153E+02  0.00000000000E+00 0.  1.
         11    1    3    3    0    0 -0.11799369164E+02 -0.80690073602E+01 -0.62051920105E+01  0.15583273103E+02  0.51100000000E-03 0. -1.
        -11    1    3    3    0    0 -0.28017598325E+02  0.57842639316E+01 -0.98958256849E+00  0.28625561987E+02  0.51100000000E-03 0.  1.
         12    1    3    3    0    0 -0.27278882773E+01  0.18661340610E+01 -0.13716310307E+01  0.35784357577E+01  0.00000000000E+00 0. -1.
</event>
<event>
 7    1  0.3062695E-010  0.4778727E+02  0.7816164E-02  0.1312668E+00
        -11   -1    0    0    0    0  0.00000000000E+00  0.00000000000E+00  0.45593999997E+02  0.45594000000E+02  0.51100000000E-03 0. -1.
         11   -1    0    0    0    0 -0.00000000000E+00 -0.00000000000E+00 -0.45593999997E+02  0.45594000000E+02  0.51100000000E-03 0.  1.
    9900012    2    1    2    0    0  0.91944552902E+01  0.42099714112E+02  0.51671808528E+01  0.47787266200E+02  0.19999977912E+02 0.  0.
        -12    1    1    2    0    0 -0.91944552902E+01 -0.42099714112E+02 -0.51671808528E+01  0.43400733800E+02  0.00000000000E+00 0.  1.
         11    1    3    3    0    0  0.64253509755E+01  0.11876460582E+02  0.93436923239E+01  0.16420719766E+02  0.51100000000E-03 0. -1.
        -11    1    3    3    0    0  0.48773431914E+01  0.24236733764E+02 -0.28946726277E+01  0.24891501964E+02  0.51100000000E-03 0.  1.
         12    1    3    3    0    0 -0.21082388766E+01  0.59865197658E+01 -0.12818388434E+01  0.64750444699E+01  0.00000000000E+00 0. -1.
</event>
<event>
 7    1  0.3062695E-010  0.4778730E+02  0.7816164E-02  0.1312668E+00
        -11   -1    0    0    0    0  0.00000000000E+00  0.00000000000E+00  0.45593999997E+02  0.45594000000E+02  0.51100000000E-03 0. -1.
         11   -1    0    0    0    0 -0.00000000000E+00 -0.00000000000E+00 -0.45593999997E+02  0.45594000000E+02  0.51100000000E-03 0.  1.
    9900012    2    1    2    0    0  0.16093003312E+01  0.43338466268E+02  0.16759004354E+01  0.47787295532E+02  0.20000111649E+02 0.  0.
        -12    1    1    2    0    0 -0.16093003312E+01 -0.43338466268E+02 -0.16759004354E+01  0.43400704468E+02  0.00000000000E+00 0.  1.
         11    1    3    3    0    0 -0.66740197557E+01  0.11324105984E+02  0.38141197258E+01  0.13686687897E+02  0.51100000000E-03 0. -1.
        -11    1    3    3    0    0 -0.10644784493E+01  0.50355190793E+01 -0.20717741774E+01  0.55481361979E+01  0.51100000000E-03 0.  1.
         12    1    3    3    0    0  0.93477985362E+01  0.26978841205E+02 -0.66445112996E-01  0.28552471437E+02  0.00000000000E+00 0. -1.
</event>
<event>
 7    1  0.3062695E-010  0.4778727E+02  0.7816164E-02  0.1312668E+00
        -11   -1    0    0    0    0  0.00000000000E+00  0.00000000000E+00  0.45593999997E+02  0.45594000000E+02  0.51100000000E-03 0. -1.
         11   -1    0    0    0    0 -0.00000000000E+00 -0.00000000000E+00 -0.45593999997E+02  0.45594000000E+02  0.51100000000E-03 0.  1.
    9900012    2    1    2    0    0  0.24248016388E+02  0.35995157217E+02 -0.74697820671E-01  0.47787271647E+02  0.20000002748E+02 0.  0.
        -12    1    1    2    0    0 -0.24248016388E+02 -0.35995157217E+02  0.74697820671E-01  0.43400728353E+02  0.00000000000E+00 0.  1.
         11    1    3    3    0    0  0.40308222976E+01  0.11455534336E+02  0.58625839417E-02  0.12144003868E+02  0.51100000000E-03 0. -1.
        -11    1    3    3    0    0  0.12131298768E+02  0.36865195353E+01  0.30994928564E+01  0.13052420937E+02  0.51100000000E-03 0.  1.
        -12    1    3    3    0    0  0.80858953221E+01  0.20853103345E+02 -0.31800532610E+01  0.22590846841E+02  0.00000000000E+00 0.  1.
</event>
<event>
 7    1  0.3062695E-010  0.4778728E+02  0.7816164E-02  0.1312668E+00
        -11   -1    0    0    0    0  0.00000000000E+00  0.00000000000E+00  0.45593999997E+02  0.45594000000E+02  0.51100000000E-03 0.  1.
         11   -1    0    0    0    0 -0.00000000000E+00 -0.00000000000E+00 -0.45593999997E+02  0.45594000000E+02  0.51100000000E-03 0. -1.
    9900012    2    1    2    0    0 -0.27324089288E+02  0.91271115414E+01 -0.32460939123E+02  0.47787278932E+02  0.20000035962E+02 0.  0.
        -12    1    1    2    0    0  0.27324089288E+02 -0.91271115414E+01  0.32460939123E+02  0.43400721068E+02  0.00000000000E+00 0.  1.
         11    1    3    3    0    0 -0.42317541553E+01  0.41711871003E+01 -0.12063267969E+02  0.13447266615E+02  0.51100000000E-03 0. -1.
        -11    1    3    3    0    0 -0.46673270116E+01  0.45639404299E+01  0.41453086339E+00  0.65410495930E+01  0.51100000000E-03 0.  1.
        -12    1    3    3    0    0 -0.18425008121E+02  0.39198401110E+00 -0.20812202017E+02  0.27798962724E+02  0.00000000000E+00 0.  1.
</event>
<event>
 7    1  0.3062695E-010  0.4778728E+02  0.7816164E-02  0.1312668E+00
        -11   -1    0    0    0    0  0.00000000000E+00  0.00000000000E+00  0.45593999997E+02  0.45594000000E+02  0.51100000000E-03 0.  1.
         11   -1    0    0    0    0 -0.00000000000E+00 -0.00000000000E+00 -0.45593999997E+02  0.45594000000E+02  0.51100000000E-03 0. -1.
    9900012    2    1    2    0    0 -0.32244108096E+02  0.57964394186E+01 -0.28466501198E+02  0.47787275267E+02  0.20000019254E+02 0.  0.
        -12    1    1    2    0    0  0.32244108096E+02 -0.57964394186E+01  0.28466501198E+02  0.43400724733E+02  0.00000000000E+00 0.  1.
         11    1    3    3    0    0 -0.30064476251E+01  0.56540198618E+01 -0.66728901973E+01  0.92484664548E+01  0.51100000000E-03 0. -1.
        -11    1    3    3    0    0 -0.22214063095E+02 -0.15549685050E+00 -0.22317963609E+02  0.31489367703E+02  0.51100000000E-03 0.  1.
        -12    1    3    3    0    0 -0.70235973765E+01  0.29791640726E+00  0.52435260824E+00  0.70494411091E+01  0.00000000000E+00 0.  1.
</event>
<event>
 7    1  0.3062695E-010  0.4778727E+02  0.7816164E-02  0.1312668E+00
        -11   -1    0    0    0    0  0.00000000000E+00  0.00000000000E+00  0.45593999997E+02  0.45594000000E+02  0.51100000000E-03 0.  1.
         11   -1    0    0    0    0 -0.00000000000E+00 -0.00000000000E+00 -0.45593999997E+02  0.45594000000E+02  0.51100000000E-03 0. -1.
    9900012    2    1    2    0    0 -0.40134400976E+02  0.90511635838E+01 -0.13817723889E+02  0.47787271925E+02  0.20000004017E+02 0.  0.
        -12    1    1    2    0    0  0.40134400976E+02 -0.90511635838E+01  0.13817723889E+02  0.43400728075E+02  0.00000000000E+00 0.  1.
         11    1    3    3    0    0 -0.26656249510E+02 -0.11319797290E+00 -0.11035704652E+02  0.28850567224E+02  0.51100000000E-03 0. -1.
        -11    1    3    3    0    0 -0.98648469815E+00  0.40667535283E+01  0.19796624740E+01  0.46293304150E+01  0.51100000000E-03 0.  1.
        -12    1    3    3    0    0 -0.12491666768E+02  0.50976080285E+01 -0.47616817108E+01  0.14307374287E+02  0.00000000000E+00 0.  1.
</event>
<event>
 7    1  0.3062695E-010  0.4778729E+02  0.7816164E-02  0.1312668E+00
        -11   -1    0    0    0    0  0.00000000000E+00  0.00000000000E+00  0.45593999997E+02  0.45594000000E+02  0.51100000000E-03 0.  1.
         11   -1    0    0    0    0 -0.00000000000E+00 -0.00000000000E+00 -0.45593999997E+02  0.45594000000E+02  0.51100000000E-03 0. -1.
    9900012    2    1    2    0    0 -0.83198638331E+01 -0.40878980791E+02  0.11971227787E+02  0.47787291487E+02  0.20000093207E+02 0.  0.
        -12    1    1    2    0    0  0.83198638331E+01  0.40878980791E+02 -0.11971227787E+02  0.43400708513E+02  0.00000000000E+00 0.  1.
         11    1    3    3    0    0 -0.28613440247E+00 -0.67861128705E+01 -0.11217057032E+01  0.68841429919E+01  0.51100000000E-03 0. -1.
        -11    1    3    3    0    0 -0.66615706681E+00 -0.25831454842E+02  0.31637170985E+01  0.26032996959E+02  0.51100000000E-03 0.  1.
        -12    1    3    3    0    0 -0.73675723638E+01 -0.82614130777E+01  0.99292163912E+01  0.14870151537E+02  0.00000000000E+00 0.  1.
</event>
<event>
 7    1  0.3062695E-010  0.4778728E+02  0.7816164E-02  0.1312668E+00
        -11   -1    0    0    0    0  0.00000000000E+00  0.00000000000E+00  0.45593999997E+02  0.45594000000E+02  0.51100000000E-03 0. -1.
         11   -1    0    0    0    0 -0.00000000000E+00 -0.00000000000E+00 -0.45593999997E+02  0.45594000000E+02  0.51100000000E-03 0.  1.
    9900012    2    1    2    0    0  0.12628155343E+02  0.10594274029E+02  0.40148646950E+02  0.47787276487E+02  0.20000024816E+02 0.  0.
        -12    1    1    2    0    0 -0.12628155343E+02 -0.10594274029E+02 -0.40148646950E+02  0.43400723513E+02  0.00000000000E+00 0.  1.
         11    1    3    3    0    0  0.10421716423E+02 -0.61910815309E+00  0.92217304331E+01  0.13929672665E+02  0.51100000000E-03 0.  1.
        -11    1    3    3    0    0  0.54263549663E+00  0.85450946759E+01  0.28838498766E+02  0.30082754322E+02  0.51100000000E-03 0. -1.
         12    1    3    3    0    0  0.16638034227E+01  0.26682875059E+01  0.20884177508E+01  0.37748494997E+01  0.00000000000E+00 0. -1.
</event>
<event>
 7    1  0.3062695E-010  0.4778727E+02  0.7816164E-02  0.1312668E+00
        -11   -1    0    0    0    0  0.00000000000E+00  0.00000000000E+00  0.45593999997E+02  0.45594000000E+02  0.51100000000E-03 0.  1.
         11   -1    0    0    0    0 -0.00000000000E+00 -0.00000000000E+00 -0.45593999997E+02  0.45594000000E+02  0.51100000000E-03 0. -1.
    9900012    2    1    2    0    0  0.95914835575E+00 -0.42212695247E+02  0.10039531140E+02  0.47787265085E+02  0.19999972830E+02 0.  0.
        -12    1    1    2    0    0 -0.95914835575E+00  0.42212695247E+02 -0.10039531140E+02  0.43400734915E+02  0.00000000000E+00 0.  1.
         11    1    3    3    0    0 -0.62848515878E+01 -0.93411143960E+01 -0.11126932330E+01  0.11313437326E+02  0.51100000000E-03 0. -1.
        -11    1    3    3    0    0  0.78559883593E+01 -0.25957392384E+02  0.58619980970E+01  0.27746455529E+02  0.51100000000E-03 0.  1.
        -12    1    3    3    0    0 -0.61198841573E+00 -0.69141884671E+01  0.52902262764E+01  0.87273722297E+01  0.00000000000E+00 0.  1.
</event>
<event>
 7    1  0.3062695E-010  0.4778727E+02  0.7816164E-02  0.1312668E+00
        -11   -1    0    0    0    0  0.00000000000E+00  0.00000000000E+00  0.45593999997E+02  0.45594000000E+02  0.51100000000E-03 0.  1.
         11   -1    0    0    0    0 -0.00000000000E+00 -0.00000000000E+00 -0.45593999997E+02  0.45594000000E+02  0.51100000000E-03 0. -1.
    9900012    2    1    2    0    0 -0.42024516875E+02  0.22461770671E+01 -0.10607434930E+02  0.47787274133E+02  0.20000014080E+02 0.  0.
        -12    1    1    2    0    0  0.42024516875E+02 -0.22461770671E+01  0.10607434930E+02  0.43400725867E+02  0.00000000000E+00 0.  1.
         11    1    3    3    0    0  0.15207846722E-01  0.20158246790E+01 -0.19065446230E+01  0.27746518836E+01  0.51100000000E-03 0.  1.
        -11    1    3    3    0    0 -0.35655966705E+02  0.41650108116E+01 -0.10296416981E+02  0.37345836176E+02  0.51100000000E-03 0. -1.
        -12    1    3    3    0    0 -0.63837580168E+01 -0.39346584234E+01  0.15955266740E+01  0.76667860733E+01  0.00000000000E+00 0.  1.
</event>
<event>
 7    1  0.3062695E-010  0.4778727E+02  0.7816164E-02  0.1312668E+00
        -11   -1    0    0    0    0  0.00000000000E+00  0.00000000000E+00  0.45593999997E+02  0.45594000000E+02  0.51100000000E-03 0.  1.
         11   -1    0    0    0    0 -0.00000000000E+00 -0.00000000000E+00 -0.45593999997E+02  0.45594000000E+02  0.51100000000E-03 0. -1.
    9900012    2    1    2    0    0  0.24016479488E+02  0.35150055296E+02 -0.84442684532E+01  0.47787270236E+02  0.19999996314E+02 0.  0.
        -12    1    1    2    0    0 -0.24016479488E+02 -0.35150055296E+02  0.84442684532E+01  0.43400729764E+02  0.00000000000E+00 0.  1.
         11    1    3    3    0    0  0.20707649145E+02  0.26176985572E+02  0.18975561673E+01  0.33431153531E+02  0.51100000000E-03 0. -1.
        -11    1    3    3    0    0 -0.24362555527E+00  0.28407402061E+01 -0.33763796899E+01  0.44191739501E+01  0.51100000000E-03 0.  1.
         12    1    3    3    0    0  0.35524558985E+01  0.61323295187E+01 -0.69654449305E+01  0.99369427550E+01  0.00000000000E+00 0. -1.
</event>
<event>
 7    1  0.3062695E-010  0.4778727E+02  0.7816164E-02  0.1312668E+00
        -11   -1    0    0    0    0  0.00000000000E+00  0.00000000000E+00  0.45593999997E+02  0.45594000000E+02  0.51100000000E-03 0.  1.
         11   -1    0    0    0    0 -0.00000000000E+00 -0.00000000000E+00 -0.45593999997E+02  0.45594000000E+02  0.51100000000E-03 0. -1.
    9900012    2    1    2    0    0  0.55448508430E+01 -0.15545366138E+02 -0.40139996161E+02  0.47787273381E+02  0.20000010654E+02 0.  0.
        -12    1    1    2    0    0 -0.55448508430E+01  0.15545366138E+02  0.40139996161E+02  0.43400726619E+02  0.00000000000E+00 0.  1.
         11    1    3    3    0    0  0.10585216703E+02 -0.23599380376E+01 -0.14370999796E+02  0.18003937224E+02  0.51100000000E-03 0. -1.
        -11    1    3    3    0    0 -0.36475422566E+01 -0.11661795843E+02 -0.18077760787E+02  0.21819887309E+02  0.51100000000E-03 0.  1.
         12    1    3    3    0    0 -0.13928236032E+01 -0.15236322565E+01 -0.76912355780E+01  0.79634488483E+01  0.00000000000E+00 0. -1.
</event>
<event>
 7    1  0.3062695E-010  0.4778727E+02  0.7816164E-02  0.1312668E+00
        -11   -1    0    0    0    0  0.00000000000E+00  0.00000000000E+00  0.45593999997E+02  0.45594000000E+02  0.51100000000E-03 0.  1.
         11   -1    0    0    0    0 -0.00000000000E+00 -0.00000000000E+00 -0.45593999997E+02  0.45594000000E+02  0.51100000000E-03 0. -1.
    9900012    2    1    2    0    0  0.12502067599E+02 -0.32877279132E+02 -0.25424520969E+02  0.47787269086E+02  0.19999991072E+02 0.  0.
        -12    1    1    2    0    0 -0.12502067599E+02  0.32877279132E+02  0.25424520969E+02  0.43400730914E+02  0.00000000000E+00 0.  1.
         11    1    3    3    0    0  0.11886534417E+02 -0.25675113489E+02 -0.10569162960E+02  0.30202787273E+02  0.51100000000E-03 0. -1.
        -11    1    3    3    0    0  0.18416197644E+01 -0.13843285054E+01 -0.88061332697E+01  0.91025222984E+01  0.51100000000E-03 0.  1.
         12    1    3    3    0    0 -0.12260865830E+01 -0.58178371368E+01 -0.60492247392E+01  0.84819595145E+01  0.00000000000E+00 0. -1.
</event>
<event>
 7    1  0.3122799E-010  0.4778727E+02  0.7816164E-02  0.1312668E+00
        -11   -1    0    0    0    0  0.00000000000E+00  0.00000000000E+00  0.45593999997E+02  0.45594000000E+02  0.51100000000E-03 0.  1.
         11   -1    0    0    0    0 -0.00000000000E+00 -0.00000000000E+00 -0.45593999997E+02  0.45594000000E+02  0.51100000000E-03 0. -1.
    9900012    2    1    2    0    0 -0.40614975048E+02  0.10198360986E+02  0.11403520728E+02  0.47787273624E+02  0.20000011761E+02 0.  0.
        -12    1    1    2    0    0  0.40614975048E+02 -0.10198360986E+02 -0.11403520728E+02  0.43400726376E+02  0.00000000000E+00 0.  1.
         11    1    3    3    0    0 -0.28992506931E+02  0.75559679048E+01  0.13645213273E+02  0.32921876536E+02  0.51100000000E-03 0. -1.
        -11    1    3    3    0    0 -0.35562679479E+01 -0.30000797922E+01 -0.18703760518E+01  0.50145615275E+01  0.51100000000E-03 0.  1.
        -12    1    3    3    0    0 -0.80662001697E+01  0.56424728733E+01 -0.37131649329E+00  0.98508355606E+01  0.00000000000E+00 0.  1.
</event>
<event>
 7    1  0.3062695E-010  0.4778727E+02  0.7816164E-02  0.1312668E+00
        -11   -1    0    0    0    0  0.00000000000E+00  0.00000000000E+00  0.45593999997E+02  0.45594000000E+02  0.51100000000E-03 0.  1.
         11   -1    0    0    0    0 -0.00000000000E+00 -0.00000000000E+00 -0.45593999997E+02  0.45594000000E+02  0.51100000000E-03 0. -1.
    9900012    2    1    2    0    0 -0.17050138001E+02 -0.16594015618E+02 -0.36298134831E+02  0.47787272444E+02  0.20000006383E+02 0.  0.
        -12    1    1    2    0    0  0.17050138001E+02  0.16594015618E+02  0.36298134831E+02  0.43400727556E+02  0.00000000000E+00 0.  1.
         11    1    3    3    0    0 -0.10460953878E+02 -0.55789512590E+01 -0.18242173930E+02  0.21756221251E+02  0.51100000000E-03 0. -1.
        -11    1    3    3    0    0  0.11828470251E+01 -0.10849826487E+02 -0.94835247811E+01  0.14458737995E+02  0.51100000000E-03 0.  1.
        -12    1    3    3    0    0 -0.77720311478E+01 -0.16523787215E+00 -0.85724361194E+01  0.11572313197E+02  0.00000000000E+00 0.  1.
</event>
<event>
 7    1  0.3062695E-010  0.4778727E+02  0.7816164E-02  0.1312668E+00
        -11   -1    0    0    0    0  0.00000000000E+00  0.00000000000E+00  0.45593999997E+02  0.45594000000E+02  0.51100000000E-03 0. -1.
         11   -1    0    0    0    0 -0.00000000000E+00 -0.00000000000E+00 -0.45593999997E+02  0.45594000000E+02  0.51100000000E-03 0.  1.
    9900012    2    1    2    0    0 -0.27399714945E+02  0.15704726427E+02  0.29769790200E+02  0.47787271667E+02  0.20000002841E+02 0.  0.
        -12    1    1    2    0    0  0.27399714945E+02 -0.15704726427E+02 -0.29769790200E+02  0.43400728333E+02  0.00000000000E+00 0.  1.
         11    1    3    3    0    0 -0.10697014426E+02  0.12163910796E+02  0.42645020253E+01  0.16750308095E+02  0.51100000000E-03 0. -1.
        -11    1    3    3    0    0  0.26289429609E+00  0.30667822580E+00  0.75680192044E+00  0.85785450573E+00  0.51100000000E-03 0.  1.
         12    1    3    3    0    0 -0.16965594815E+02  0.32341374055E+01  0.24748486255E+02  0.30179109067E+02  0.00000000000E+00 0. -1.
</event>
<event>
 7    1  0.3062695E-010  0.4778727E+02  0.7816164E-02  0.1312668E+00
        -11   -1    0    0    0    0  0.00000000000E+00  0.00000000000E+00  0.45593999997E+02  0.45594000000E+02  0.51100000000E-03 0.  1.
         11   -1    0    0    0    0 -0.00000000000E+00 -0.00000000000E+00 -0.45593999997E+02  0.45594000000E+02  0.51100000000E-03 0. -1.
    9900012    2    1    2    0    0  0.26698347840E+02  0.36770766467E+01 -0.34019127029E+02  0.47787266436E+02  0.19999978987E+02 0.  0.
        -12    1    1    2    0    0 -0.26698347840E+02 -0.36770766467E+01  0.34019127029E+02  0.43400733564E+02  0.00000000000E+00 0.  1.
         11    1    3    3    0    0  0.46221945804E+01  0.34856828026E+01 -0.57715306768E+01  0.81746702657E+01  0.51100000000E-03 0. -1.
        -11    1    3    3    0    0  0.28102904324E+01 -0.67185663321E+01 -0.80985302076E+01  0.10891421287E+02  0.51100000000E-03 0.  1.
        -12    1    3    3    0    0  0.19265862827E+02  0.69099601763E+01 -0.20149066145E+02  0.28721174883E+02  0.00000000000E+00 0.  1.
</event>
<event>
 7    1  0.3062695E-010  0.4778728E+02  0.7816164E-02  0.1312668E+00
        -11   -1    0    0    0    0  0.00000000000E+00  0.00000000000E+00  0.45593999997E+02  0.45594000000E+02  0.51100000000E-03 0. -1.
         11   -1    0    0    0    0 -0.00000000000E+00 -0.00000000000E+00 -0.45593999997E+02  0.45594000000E+02  0.51100000000E-03 0.  1.
    9900012    2    1    2    0    0  0.13820765801E+02 -0.39924273973E+02  0.99328376664E+01  0.47787280148E+02  0.20000041505E+02 0.  0.
        -12    1    1    2    0    0 -0.13820765801E+02  0.39924273973E+02 -0.99328376664E+01  0.43400719852E+02  0.00000000000E+00 0.  1.
         11    1    3    3    0    0  0.10360504061E+02 -0.15229151448E+02  0.84052782943E+01  0.20246377496E+02  0.51100000000E-03 0.  1.
        -11    1    3    3    0    0 -0.20706723759E+00 -0.20670147133E+02 -0.24242633909E+01  0.20812854504E+02  0.51100000000E-03 0. -1.
         12    1    3    3    0    0  0.36673289769E+01 -0.40249753920E+01  0.39518227631E+01  0.67280481480E+01  0.00000000000E+00 0. -1.
</event>
<event>
 7    1  0.3062695E-010  0.4778728E+02  0.7816164E-02  0.1312668E+00
        -11   -1    0    0    0    0  0.00000000000E+00  0.00000000000E+00  0.45593999997E+02  0.45594000000E+02  0.51100000000E-03 0.  1.
         11   -1    0    0    0    0 -0.00000000000E+00 -0.00000000000E+00 -0.45593999997E+02  0.45594000000E+02  0.51100000000E-03 0. -1.
    9900012    2    1    2    0    0  0.40300270239E+01 -0.28270858919E+02 -0.32682409329E+02  0.47787280405E+02  0.20000042677E+02 0.  0.
        -12    1    1    2    0    0 -0.40300270239E+01  0.28270858919E+02  0.32682409329E+02  0.43400719595E+02  0.00000000000E+00 0.  1.
         11    1    3    3    0    0  0.17010730639E+01 -0.13345959494E+02 -0.26757686951E+02  0.29949659357E+02  0.51100000000E-03 0. -1.
        -11    1    3    3    0    0  0.13110400307E+01 -0.26957394691E+01  0.16449217115E+01  0.34192988968E+01  0.51100000000E-03 0.  1.
         12    1    3    3    0    0  0.10179139294E+01 -0.12229159956E+02 -0.75696440899E+01  0.14418322151E+02  0.00000000000E+00 0. -1.
</event>
<event>
 7    1  0.3062695E-010  0.4778727E+02  0.7816164E-02  0.1312668E+00
        -11   -1    0    0    0    0  0.00000000000E+00  0.00000000000E+00  0.45593999997E+02  0.45594000000E+02  0.51100000000E-03 0. -1.
         11   -1    0    0    0    0 -0.00000000000E+00 -0.00000000000E+00 -0.45593999997E+02  0.45594000000E+02  0.51100000000E-03 0.  1.
    9900012    2    1    2    0    0  0.21070437630E+02 -0.34877174843E+02  0.14941305119E+02  0.47787271140E+02  0.20000000435E+02 0.  0.
        -12    1    1    2    0    0 -0.21070437630E+02  0.34877174843E+02 -0.14941305119E+02  0.43400728860E+02  0.00000000000E+00 0.  1.
         11    1    3    3    0    0  0.85936004271E+01 -0.11781421796E+02  0.10552642774E+02  0.18000281598E+02  0.51100000000E-03 0. -1.
        -11    1    3    3    0    0  0.49036296949E+01 -0.19824442142E+02 -0.44059521826E-01  0.20421949759E+02  0.51100000000E-03 0.  1.
        -12    1    3    3    0    0  0.75732075077E+01 -0.32713109045E+01  0.44327218669E+01  0.93650397830E+01  0.00000000000E+00 0.  1.
</event>
<event>
 7    1  0.3062695E-010  0.4778727E+02  0.7816164E-02  0.1312668E+00
        -11   -1    0    0    0    0  0.00000000000E+00  0.00000000000E+00  0.45593999997E+02  0.45594000000E+02  0.51100000000E-03 0. -1.
         11   -1    0    0    0    0 -0.00000000000E+00 -0.00000000000E+00 -0.45593999997E+02  0.45594000000E+02  0.51100000000E-03 0.  1.
    9900012    2    1    2    0    0 -0.29894197313E+02  0.28636501370E+02  0.13034997092E+02  0.47787269673E+02  0.19999993747E+02 0.  0.
        -12    1    1    2    0    0  0.29894197313E+02 -0.28636501370E+02 -0.13034997092E+02  0.43400730327E+02  0.00000000000E+00 0.  1.
         11    1    3    3    0    0 -0.10808004445E+02  0.12345000425E+02 -0.45974843594E+00  0.16414120886E+02  0.51100000000E-03 0. -1.
        -11    1    3    3    0    0 -0.19426745429E+01  0.80526482729E+01  0.81389645303E+01  0.11613004455E+02  0.51100000000E-03 0.  1.
        -12    1    3    3    0    0 -0.17143518325E+02  0.82388526726E+01  0.53557809981E+01  0.19760144332E+02  0.00000000000E+00 0.  1.
</event>
<event>
 7    1  0.3062695E-010  0.4778727E+02  0.7816164E-02  0.1312668E+00
        -11   -1    0    0    0    0  0.00000000000E+00  0.00000000000E+00  0.45593999997E+02  0.45594000000E+02  0.51100000000E-03 0. -1.
         11   -1    0    0    0    0 -0.00000000000E+00 -0.00000000000E+00 -0.45593999997E+02  0.45594000000E+02  0.51100000000E-03 0.  1.
    9900012    2    1    2    0    0  0.38862031751E+02 -0.47684769363E+01  0.18725056852E+02  0.47787266847E+02  0.19999980861E+02 0.  0.
        -12    1    1    2    0    0 -0.38862031751E+02  0.47684769363E+01 -0.18725056852E+02  0.43400733153E+02  0.00000000000E+00 0.  1.
         11    1    3    3    0    0  0.11521261846E+02  0.42130481146E+01  0.61782520295E+01  0.13735357561E+02  0.51100000000E-03 0. -1.
        -11    1    3    3    0    0  0.24231827501E+02 -0.10790698713E+02  0.69881059125E+01  0.27430899862E+02  0.51100000000E-03 0.  1.
        -12    1    3    3    0    0  0.31089424053E+01  0.18091736623E+01  0.55586989096E+01  0.66210094236E+01  0.00000000000E+00 0.  1.
</event>
<event>
 7    1  0.3062695E-010  0.4778727E+02  0.7816164E-02  0.1312668E+00
        -11   -1    0    0    0    0  0.00000000000E+00  0.00000000000E+00  0.45593999997E+02  0.45594000000E+02  0.51100000000E-03 0.  1.
         11   -1    0    0    0    0 -0.00000000000E+00 -0.00000000000E+00 -0.45593999997E+02  0.45594000000E+02  0.51100000000E-03 0. -1.
    9900012    2    1    2    0    0 -0.37272330126E+02  0.10393939863E+02 -0.19656105546E+02  0.47787273461E+02  0.20000011019E+02 0.  0.
        -12    1    1    2    0    0  0.37272330126E+02 -0.10393939863E+02  0.19656105546E+02  0.43400726539E+02  0.00000000000E+00 0.  1.
         11    1    3    3    0    0 -0.93896736227E+01  0.59741138511E+01 -0.14354635743E+02  0.18163468133E+02  0.51100000000E-03 0. -1.
        -11    1    3    3    0    0 -0.23111483037E+02  0.99161757946E+00 -0.30538329340E+01  0.23333449155E+02  0.51100000000E-03 0.  1.
        -12    1    3    3    0    0 -0.47711734655E+01  0.34282084323E+01 -0.22476368694E+01  0.62903561735E+01  0.00000000000E+00 0.  1.
</event>
<event>
 7    1  0.3062695E-010  0.4778726E+02  0.7816164E-02  0.1312668E+00
        -11   -1    0    0    0    0  0.00000000000E+00  0.00000000000E+00  0.45593999997E+02  0.45594000000E+02  0.51100000000E-03 0. -1.
         11   -1    0    0    0    0 -0.00000000000E+00 -0.00000000000E+00 -0.45593999997E+02  0.45594000000E+02  0.51100000000E-03 0.  1.
    9900012    2    1    2    0    0 -0.36022732086E+02  0.14369966041E+02  0.19480526928E+02  0.47787261753E+02  0.19999957636E+02 0.  0.
        -12    1    1    2    0    0  0.36022732086E+02 -0.14369966041E+02 -0.19480526928E+02  0.43400738247E+02  0.00000000000E+00 0.  1.
         11    1    3    3    0    0 -0.34236986256E+02  0.12530007548E+02  0.20695697131E+02  0.41922359154E+02  0.51100000000E-03 0. -1.
        -11    1    3    3    0    0 -0.97989664938E+00  0.29298294960E+01 -0.25174933302E+01  0.39852065502E+01  0.51100000000E-03 0.  1.
        -12    1    3    3    0    0 -0.80584918117E+00 -0.10898710031E+01  0.13023231277E+01  0.18796960486E+01  0.00000000000E+00 0.  1.
</event>
<event>
 7    1  0.3062695E-010  0.4778727E+02  0.7816164E-02  0.1312668E+00
        -11   -1    0    0    0    0  0.00000000000E+00  0.00000000000E+00  0.45593999997E+02  0.45594000000E+02  0.51100000000E-03 0.  1.
         11   -1    0    0    0    0 -0.00000000000E+00 -0.00000000000E+00 -0.45593999997E+02  0.45594000000E+02  0.51100000000E-03 0. -1.
    9900012    2    1    2    0    0  0.17161378119E+02 -0.27978244664E+02 -0.28395918248E+02  0.47787271359E+02  0.20000001435E+02 0.  0.
        -12    1    1    2    0    0 -0.17161378119E+02  0.27978244664E+02  0.28395918248E+02  0.43400728641E+02  0.00000000000E+00 0.  1.
         11    1    3    3    0    0 -0.29032717975E+00 -0.14552480669E+02 -0.14544425956E+02  0.20576669073E+02  0.51100000000E-03 0. -1.
        -11    1    3    3    0    0  0.50438606106E+01 -0.82313270208E+01 -0.36195023220E+01  0.10309998628E+02  0.51100000000E-03 0.  1.
         12    1    3    3    0    0  0.12407844688E+02 -0.51944369742E+01 -0.10231989970E+02  0.16900603658E+02  0.00000000000E+00 0. -1.
</event>
<event>
 7    1  0.3062695E-010  0.4778726E+02  0.7816164E-02  0.1312668E+00
        -11   -1    0    0    0    0  0.00000000000E+00  0.00000000000E+00  0.45593999997E+02  0.45594000000E+02  0.51100000000E-03 0. -1.
         11   -1    0    0    0    0 -0.00000000000E+00 -0.00000000000E+00 -0.45593999997E+02  0.45594000000E+02  0.51100000000E-03 0.  1.
    9900012    2    1    2    0    0 -0.40332333662E+02  0.15443762253E+02 -0.42914892497E+01  0.47787264855E+02  0.19999971779E+02 0.  0.
        -12    1    1    2    0    0  0.40332333662E+02 -0.15443762253E+02  0.42914892497E+01  0.43400735145E+02  0.00000000000E+00 0.  1.
         11    1    3    3    0    0 -0.72446806317E+01  0.27649151379E+01 -0.11194695037E+01  0.78347536915E+01  0.51100000000E-03 0. -1.
        -11    1    3    3    0    0 -0.31217550973E+02  0.61639345911E+01  0.12751421752E+01  0.31845809241E+02  0.51100000000E-03 0.  1.
        -12    1    3    3    0    0 -0.18701020576E+01  0.65149125242E+01 -0.44471619212E+01  0.81067019223E+01  0.00000000000E+00 0.  1.
</event>
<event>
 7    1  0.3062695E-010  0.4778727E+02  0.7816164E-02  0.1312668E+00
        -11   -1    0    0    0    0  0.00000000000E+00  0.00000000000E+00  0.45593999997E+02  0.45594000000E+02  0.51100000000E-03 0.  1.
         11   -1    0    0    0    0 -0.00000000000E+00 -0.00000000000E+00 -0.45593999997E+02  0.45594000000E+02  0.51100000000E-03 0. -1.
    9900012    2    1    2    0    0 -0.31837664004E+02  0.14236279526E+02 -0.25832440718E+02  0.47787268469E+02  0.19999988260E+02 0.  0.
        -12    1    1    2    0    0  0.31837664004E+02 -0.14236279526E+02  0.25832440718E+02  0.43400731531E+02  0.00000000000E+00 0.  1.
         11    1    3    3    0    0 -0.21213024905E+02  0.74992384409E+01 -0.86446498866E+01  0.24103132052E+02  0.51100000000E-03 0. -1.
        -11    1    3    3    0    0 -0.64673279522E+01  0.16041269747E+01 -0.15492616134E+02  0.16864777174E+02  0.51100000000E-03 0.  1.
        -12    1    3    3    0    0 -0.41573111467E+01  0.51329141105E+01 -0.16951746971E+01  0.68193592434E+01  0.00000000000E+00 0.  1.
</event>
<event>
 7    1  0.3062695E-010  0.4778727E+02  0.7816164E-02  0.1312668E+00
        -11   -1    0    0    0    0  0.00000000000E+00  0.00000000000E+00  0.45593999997E+02  0.45594000000E+02  0.51100000000E-03 0.  1.
         11   -1    0    0    0    0 -0.00000000000E+00 -0.00000000000E+00 -0.45593999997E+02  0.45594000000E+02  0.51100000000E-03 0. -1.
    9900012    2    1    2    0    0  0.40279699499E+01  0.42869569343E+02 -0.54404706868E+01  0.47787271447E+02  0.20000001837E+02 0.  0.
        -12    1    1    2    0    0 -0.40279699499E+01 -0.42869569343E+02  0.54404706868E+01  0.43400728553E+02  0.00000000000E+00 0.  1.
         11    1    3    3    0    0  0.29381382016E+01  0.29446471037E+02  0.36134731347E+01  0.29812489011E+02  0.51100000000E-03 0. -1.
        -11    1    3    3    0    0  0.25354126634E+01  0.86628859612E+01 -0.18402372015E+01  0.92119695923E+01  0.51100000000E-03 0.  1.
         12    1    3    3    0    0 -0.14455809151E+01  0.47602123448E+01 -0.72137066200E+01  0.87628128446E+01  0.00000000000E+00 0. -1.
</event>
<event>
 7    1  0.3062695E-010  0.4778725E+02  0.7816164E-02  0.1312668E+00
        -11   -1    0    0    0    0  0.00000000000E+00  0.00000000000E+00  0.45593999997E+02  0.45594000000E+02  0.51100000000E-03 0.  1.
         11   -1    0    0    0    0 -0.00000000000E+00 -0.00000000000E+00 -0.45593999997E+02  0.45594000000E+02  0.51100000000E-03 0. -1.
    9900012    2    1    2    0    0 -0.37526782512E+02  0.20833366917E+02  0.64293486392E+01  0.47787249929E+02  0.19999903725E+02 0.  0.
        -12    1    1    2    0    0  0.37526782512E+02 -0.20833366917E+02 -0.64293486392E+01  0.43400750071E+02  0.00000000000E+00 0.  1.
         11    1    3    3    0    0 -0.32618273934E+01  0.98288063682E+00 -0.47180676675E+00  0.34392112725E+01  0.51100000000E-03 0. -1.
        -11    1    3    3    0    0 -0.27243597345E+01  0.58913199406E+01  0.74125391876E+01  0.98526912098E+01  0.51100000000E-03 0.  1.
        -12    1    3    3    0    0 -0.31540595384E+02  0.13959166339E+02 -0.51138378171E+00  0.34495347447E+02  0.00000000000E+00 0.  1.
</event>
<event>
 7    1  0.3062695E-010  0.4778727E+02  0.7816164E-02  0.1312668E+00
        -11   -1    0    0    0    0  0.00000000000E+00  0.00000000000E+00  0.45593999997E+02  0.45594000000E+02  0.51100000000E-03 0.  1.
         11   -1    0    0    0    0 -0.00000000000E+00 -0.00000000000E+00 -0.45593999997E+02  0.45594000000E+02  0.51100000000E-03 0. -1.
    9900012    2    1    2    0    0  0.18738366089E+02 -0.46345507714E+01 -0.38871812459E+02  0.47787271568E+02  0.20000002388E+02 0.  0.
        -12    1    1    2    0    0 -0.18738366089E+02  0.46345507714E+01  0.38871812459E+02  0.43400728432E+02  0.00000000000E+00 0.  1.
         11    1    3    3    0    0  0.17956116534E+02 -0.15447738933E+01 -0.28109696405E+02  0.33391068859E+02  0.51100000000E-03 0. -1.
        -11    1    3    3    0    0 -0.40663764704E+01 -0.22282507267E+01 -0.52795533538E+01  0.70266779332E+01  0.51100000000E-03 0.  1.
         12    1    3    3    0    0  0.48486260264E+01 -0.86152615138E+00 -0.54825627006E+01  0.73695247756E+01  0.00000000000E+00 0. -1.
</event>
<event>
 7    1  0.3062695E-010  0.4778723E+02  0.7816164E-02  0.1312668E+00
        -11   -1    0    0    0    0  0.00000000000E+00  0.00000000000E+00  0.45593999997E+02  0.45594000000E+02  0.51100000000E-03 0.  1.
         11   -1    0    0    0    0 -0.00000000000E+00 -0.00000000000E+00 -0.45593999997E+02  0.45594000000E+02  0.51100000000E-03 0. -1.
    9900012    2    1    2    0    0 -0.34820831694E+02 -0.63525860854E+01  0.25115350156E+02  0.47787234070E+02  0.19999831420E+02 0.  0.
        -12    1    1    2    0    0  0.34820831694E+02  0.63525860854E+01 -0.25115350156E+02  0.43400765930E+02  0.00000000000E+00 0.  1.
         11    1    3    3    0    0 -0.28061710993E+02 -0.82442474910E+00  0.93095136501E+01  0.29577125362E+02  0.51100000000E-03 0. -1.
        -11    1    3    3    0    0 -0.52194521531E+01 -0.29272208264E+01  0.97066183789E+01  0.11403058500E+02  0.51100000000E-03 0.  1.
         12    1    3    3    0    0 -0.15396685474E+01 -0.26009405099E+01  0.60992181268E+01  0.68070502077E+01  0.00000000000E+00 0. -1.
</event>
<event>
 7    1  0.3062695E-010  0.4778727E+02  0.7816164E-02  0.1312668E+00
        -11   -1    0    0    0    0  0.00000000000E+00  0.00000000000E+00  0.45593999997E+02  0.45594000000E+02  0.51100000000E-03 0.  1.
         11   -1    0    0    0    0 -0.00000000000E+00 -0.00000000000E+00 -0.45593999997E+02  0.45594000000E+02  0.51100000000E-03 0. -1.
    9900012    2    1    2    0    0 -0.12077173862E+02 -0.62280642666E+01 -0.41218640540E+02  0.47787271423E+02  0.20000001728E+02 0.  0.
        -12    1    1    2    0    0  0.12077173862E+02  0.62280642666E+01  0.41218640540E+02  0.43400728577E+02  0.00000000000E+00 0.  1.
         11    1    3    3    0    0 -0.47948799376E+01  0.13668874380E+01 -0.23910628299E+02  0.24424933998E+02  0.51100000000E-03 0. -1.
        -11    1    3    3    0    0 -0.52402685255E+01 -0.95546399004E+01 -0.76923590719E+01  0.13338813523E+02  0.51100000000E-03 0.  1.
        -12    1    3    3    0    0 -0.20420253986E+01  0.19596881959E+01 -0.96156531693E+01  0.10023523903E+02  0.00000000000E+00 0.  1.
</event>
<event>
 7    1  0.3062695E-010  0.4778727E+02  0.7816164E-02  0.1312668E+00
        -11   -1    0    0    0    0  0.00000000000E+00  0.00000000000E+00  0.45593999997E+02  0.45594000000E+02  0.51100000000E-03 0.  1.
         11   -1    0    0    0    0 -0.00000000000E+00 -0.00000000000E+00 -0.45593999997E+02  0.45594000000E+02  0.51100000000E-03 0. -1.
    9900012    2    1    2    0    0  0.29809443938E+02 -0.27752675299E+02 -0.14993636765E+02  0.47787273306E+02  0.20000010310E+02 0.  0.
        -12    1    1    2    0    0 -0.29809443938E+02  0.27752675299E+02  0.14993636765E+02  0.43400726694E+02  0.00000000000E+00 0.  1.
         11    1    3    3    0    0  0.10178899635E+01 -0.12568533008E+02 -0.58821473429E+01  0.13914157523E+02  0.51100000000E-03 0. -1.
        -11    1    3    3    0    0  0.17009970857E+02 -0.78568858313E+01 -0.57175410270E+01  0.19589794261E+02  0.51100000000E-03 0.  1.
         12    1    3    3    0    0  0.11781583117E+02 -0.73272564596E+01 -0.33939483953E+01  0.14283321521E+02  0.00000000000E+00 0. -1.
</event>
<event>
 7    1  0.3062695E-010  0.4778727E+02  0.7816164E-02  0.1312668E+00
        -11   -1    0    0    0    0  0.00000000000E+00  0.00000000000E+00  0.45593999997E+02  0.45594000000E+02  0.51100000000E-03 0.  1.
         11   -1    0    0    0    0 -0.00000000000E+00 -0.00000000000E+00 -0.45593999997E+02  0.45594000000E+02  0.51100000000E-03 0. -1.
    9900012    2    1    2    0    0 -0.65440744690E+01  0.20123364158E+02 -0.37892593805E+02  0.47787270041E+02  0.19999995424E+02 0.  0.
        -12    1    1    2    0    0  0.65440744690E+01 -0.20123364158E+02  0.37892593805E+02  0.43400729959E+02  0.00000000000E+00 0.  1.
         11    1    3    3    0    0 -0.18356495152E+01  0.62399450481E+01 -0.11283164055E+02  0.13023682839E+02  0.51100000000E-03 0. -1.
        -11    1    3    3    0    0 -0.21559740529E+01  0.16434870249E+02 -0.26369665076E+02  0.31146627758E+02  0.51100000000E-03 0.  1.
        -12    1    3    3    0    0 -0.25524509010E+01 -0.25514511391E+01 -0.23976467428E+00  0.36169594435E+01  0.00000000000E+00 0.  1.
</event>
<event>
 7    1  0.3062695E-010  0.4778725E+02  0.7816164E-02  0.1312668E+00
        -11   -1    0    0    0    0  0.00000000000E+00  0.00000000000E+00  0.45593999997E+02  0.45594000000E+02  0.51100000000E-03 0. -1.
         11   -1    0    0    0    0 -0.00000000000E+00 -0.00000000000E+00 -0.45593999997E+02  0.45594000000E+02  0.51100000000E-03 0.  1.
    9900012    2    1    2    0    0 -0.16279066383E+02  0.37767908563E+02  0.13863712631E+02  0.47787246004E+02  0.19999885831E+02 0.  0.
        -12    1    1    2    0    0  0.16279066383E+02 -0.37767908563E+02 -0.13863712631E+02  0.43400753996E+02  0.00000000000E+00 0.  1.
         11    1    3    3    0    0 -0.90546843464E+01  0.12395573754E+02  0.54653949792E+01  0.16294419285E+02  0.51100000000E-03 0.  1.
        -11    1    3    3    0    0 -0.79512944858E+01  0.11170897361E+02 -0.20267378649E+01  0.13860725035E+02  0.51100000000E-03 0. -1.
        -12    1    3    3    0    0  0.72691244903E+00  0.14201437447E+02  0.10425055516E+02  0.17632101684E+02  0.00000000000E+00 0.  1.
</event>
<event>
 7    1  0.3062695E-010  0.4778727E+02  0.7816164E-02  0.1312668E+00
        -11   -1    0    0    0    0  0.00000000000E+00  0.00000000000E+00  0.45593999997E+02  0.45594000000E+02  0.51100000000E-03 0. -1.
         11   -1    0    0    0    0 -0.00000000000E+00 -0.00000000000E+00 -0.45593999997E+02  0.45594000000E+02  0.51100000000E-03 0.  1.
    9900012    2    1    2    0    0 -0.43372846857E+02  0.38027090018E+00 -0.15081931843E+01  0.47787273081E+02  0.20000009285E+02 0.  0.
        -12    1    1    2    0    0  0.43372846857E+02 -0.38027090018E+00  0.15081931843E+01  0.43400726919E+02  0.00000000000E+00 0.  1.
         11    1    3    3    0    0 -0.19597726872E+01 -0.12752233659E+01  0.43372729791E+01  0.49273563677E+01  0.51100000000E-03 0.  1.
        -11    1    3    3    0    0 -0.34150955675E+02 -0.30150130285E+00 -0.15254195778E+01  0.34186336185E+02  0.51100000000E-03 0. -1.
         12    1    3    3    0    0 -0.72621184943E+01  0.19569955689E+01 -0.43200465856E+01  0.86735805285E+01  0.00000000000E+00 0. -1.
</event>
<event>
 7    1  0.3062695E-010  0.4778727E+02  0.7816164E-02  0.1312668E+00
        -11   -1    0    0    0    0  0.00000000000E+00  0.00000000000E+00  0.45593999997E+02  0.45594000000E+02  0.51100000000E-03 0.  1.
         11   -1    0    0    0    0 -0.00000000000E+00 -0.00000000000E+00 -0.45593999997E+02  0.45594000000E+02  0.51100000000E-03 0. -1.
    9900012    2    1    2    0    0  0.38351853555E+02 -0.44702267744E+00 -0.20311543210E+02  0.47787270882E+02  0.19999999260E+02 0.  0.
        -12    1    1    2    0    0 -0.38351853555E+02  0.44702267744E+00  0.20311543210E+02  0.43400729118E+02  0.00000000000E+00 0.  1.
         11    1    3    3    0    0  0.20097763667E+02 -0.85451843964E+01 -0.10899242309E+02  0.24407657895E+02  0.51100000000E-03 0. -1.
        -11    1    3    3    0    0  0.16726138802E+02  0.63116091517E+01 -0.53062604212E+01  0.18648231263E+02  0.51100000000E-03 0.  1.
         12    1    3    3    0    0  0.15279510864E+01  0.17865525672E+01 -0.41060404793E+01  0.47313817237E+01  0.00000000000E+00 0. -1.
</event>
<event>
 7    1  0.3062695E-010  0.4778726E+02  0.7816164E-02  0.1312668E+00
        -11   -1    0    0    0    0  0.00000000000E+00  0.00000000000E+00  0.45593999997E+02  0.45594000000E+02  0.51100000000E-03 0.  1.
         11   -1    0    0    0    0 -0.00000000000E+00 -0.00000000000E+00 -0.45593999997E+02  0.45594000000E+02  0.51100000000E-03 0. -1.
    9900012    2    1    2    0    0 -0.33733575912E+02  0.27213583657E+02 -0.22562332957E+01  0.47787264200E+02  0.19999968795E+02 0.  0.
        -12    1    1    2    0    0  0.33733575912E+02 -0.27213583657E+02  0.22562332957E+01  0.43400735800E+02  0.00000000000E+00 0.  1.
         11    1    3    3    0    0 -0.16869141815E+02  0.24237261370E+02 -0.60149302052E+01  0.30136226870E+02  0.51100000000E-03 0. -1.
        -11    1    3    3    0    0 -0.10486773134E+02  0.13059853937E+01  0.31651795056E+01  0.11031607778E+02  0.51100000000E-03 0.  1.
         12    1    3    3    0    0 -0.63776609626E+01  0.16703368934E+01  0.59351740392E+00  0.66194295525E+01  0.00000000000E+00 0. -1.
</event>
<event>
 7    1  0.3062695E-010  0.4778727E+02  0.7816164E-02  0.1312668E+00
        -11   -1    0    0    0    0  0.00000000000E+00  0.00000000000E+00  0.45593999997E+02  0.45594000000E+02  0.51100000000E-03 0. -1.
         11   -1    0    0    0    0 -0.00000000000E+00 -0.00000000000E+00 -0.45593999997E+02  0.45594000000E+02  0.51100000000E-03 0.  1.
    9900012    2    1    2    0    0  0.36538128000E+02 -0.14440870587E+01  0.23377412958E+02  0.47787267036E+02  0.19999981725E+02 0.  0.
        -12    1    1    2    0    0 -0.36538128000E+02  0.14440870587E+01 -0.23377412958E+02  0.43400732964E+02  0.00000000000E+00 0.  1.
         11    1    3    3    0    0  0.18406118633E+02  0.89931286102E+00  0.12749494473E+02  0.22408560336E+02  0.51100000000E-03 0. -1.
        -11    1    3    3    0    0  0.50717566336E+01 -0.10577184320E+01 -0.33783105228E+01  0.61850194730E+01  0.51100000000E-03 0.  1.
        -12    1    3    3    0    0  0.13060252733E+02 -0.12856814878E+01  0.14006229008E+02  0.19193687227E+02  0.00000000000E+00 0.  1.
</event>
<event>
 7    1  0.3062695E-010  0.4778726E+02  0.7816164E-02  0.1312668E+00
        -11   -1    0    0    0    0  0.00000000000E+00  0.00000000000E+00  0.45593999997E+02  0.45594000000E+02  0.51100000000E-03 0.  1.
         11   -1    0    0    0    0 -0.00000000000E+00 -0.00000000000E+00 -0.45593999997E+02  0.45594000000E+02  0.51100000000E-03 0. -1.
    9900012    2    1    2    0    0 -0.12725171587E+02  0.13554267266E+02 -0.39217037202E+02  0.47787260836E+02  0.19999953456E+02 0.  0.
        -12    1    1    2    0    0  0.12725171587E+02 -0.13554267266E+02  0.39217037202E+02  0.43400739164E+02  0.00000000000E+00 0.  1.
         11    1    3    3    0    0 -0.37618834140E+01 -0.34606613416E+00 -0.52962087410E+01  0.65054865982E+01  0.51100000000E-03 0.  1.
        -11    1    3    3    0    0 -0.12217120302E+02  0.98474162352E+01 -0.32177497069E+02  0.35799733978E+02  0.51100000000E-03 0. -1.
        -12    1    3    3    0    0  0.32538321286E+01  0.40529171654E+01 -0.17433313921E+01  0.54820402601E+01  0.00000000000E+00 0.  1.
</event>
<event>
 7    1  0.3062695E-010  0.4778727E+02  0.7816164E-02  0.1312668E+00
        -11   -1    0    0    0    0  0.00000000000E+00  0.00000000000E+00  0.45593999997E+02  0.45594000000E+02  0.51100000000E-03 0. -1.
         11   -1    0    0    0    0 -0.00000000000E+00 -0.00000000000E+00 -0.45593999997E+02  0.45594000000E+02  0.51100000000E-03 0.  1.
    9900012    2    1    2    0    0 -0.21601562017E+02  0.80726757064E+01  0.36767205878E+02  0.47787274169E+02  0.20000014244E+02 0.  0.
        -12    1    1    2    0    0  0.21601562017E+02 -0.80726757064E+01 -0.36767205878E+02  0.43400725831E+02  0.00000000000E+00 0.  1.
         11    1    3    3    0    0 -0.69926272709E+01  0.15032473736E+01  0.29686445103E+01  0.77439937569E+01  0.51100000000E-03 0. -1.
        -11    1    3    3    0    0 -0.12724349910E+02  0.26368806955E+01  0.33186229476E+02  0.35639697635E+02  0.51100000000E-03 0.  1.
        -12    1    3    3    0    0 -0.18845848359E+01  0.39325476373E+01  0.61233189155E+00  0.44035827764E+01  0.00000000000E+00 0.  1.
</event>
<event>
 7    1  0.3062695E-010  0.4778728E+02  0.7816164E-02  0.1312668E+00
        -11   -1    0    0    0    0  0.00000000000E+00  0.00000000000E+00  0.45593999997E+02  0.45594000000E+02  0.51100000000E-03 0.  1.
         11   -1    0    0    0    0 -0.00000000000E+00 -0.00000000000E+00 -0.45593999997E+02  0.45594000000E+02  0.51100000000E-03 0. -1.
    9900012    2    1    2    0    0  0.14339860337E+02  0.12820922701E+02 -0.38905206440E+02  0.47787277177E+02  0.20000027962E+02 0.  0.
        -12    1    1    2    0    0 -0.14339860337E+02 -0.12820922701E+02  0.38905206440E+02  0.43400722823E+02  0.00000000000E+00 0.  1.
         11    1    3    3    0    0  0.27501004435E+00  0.77841774990E+01 -0.84144219305E+01  0.11466104245E+02  0.51100000000E-03 0.  1.
        -11    1    3    3    0    0  0.13111890593E+01  0.67209814271E+01 -0.97389349500E+01  0.11905362754E+02  0.51100000000E-03 0. -1.
         12    1    3    3    0    0  0.12753661233E+02 -0.16842362248E+01 -0.20751849560E+02  0.24415810178E+02  0.00000000000E+00 0. -1.
</event>
<event>
 7    1  0.3062695E-010  0.4778727E+02  0.7816164E-02  0.1312668E+00
        -11   -1    0    0    0    0  0.00000000000E+00  0.00000000000E+00  0.45593999997E+02  0.45594000000E+02  0.51100000000E-03 0. -1.
         11   -1    0    0    0    0 -0.00000000000E+00 -0.00000000000E+00 -0.45593999997E+02  0.45594000000E+02  0.51100000000E-03 0.  1.
    9900012    2    1    2    0    0 -0.34397244613E+02  0.26225858377E+01  0.26335806297E+02  0.47787273201E+02  0.20000009831E+02 0.  0.
        -12    1    1    2    0    0  0.34397244613E+02 -0.26225858377E+01 -0.26335806297E+02  0.43400726799E+02  0.00000000000E+00 0.  1.
         11    1    3    3    0    0  0.18905573881E+01  0.17110878036E+01  0.46177995870E+00  0.25913837425E+01  0.51100000000E-03 0.  1.
        -11    1    3    3    0    0 -0.19435469613E+02  0.22200880496E+01  0.17862672245E+02  0.26490400715E+02  0.51100000000E-03 0. -1.
         12    1    3    3    0    0 -0.16852332388E+02 -0.13085900155E+01  0.80113540930E+01  0.18705488744E+02  0.00000000000E+00 0. -1.
</event>
<event>
 7    1  0.3062695E-010  0.4778727E+02  0.7816164E-02  0.1312668E+00
        -11   -1    0    0    0    0  0.00000000000E+00  0.00000000000E+00  0.45593999997E+02  0.45594000000E+02  0.51100000000E-03 0. -1.
         11   -1    0    0    0    0 -0.00000000000E+00 -0.00000000000E+00 -0.45593999997E+02  0.45594000000E+02  0.51100000000E-03 0.  1.
    9900012    2    1    2    0    0 -0.31295042686E+02 -0.29840870865E+02 -0.37102862660E+01  0.47787268498E+02  0.19999988391E+02 0.  0.
        -12    1    1    2    0    0  0.31295042686E+02  0.29840870865E+02  0.37102862660E+01  0.43400731502E+02  0.00000000000E+00 0.  1.
         11    1    3    3    0    0 -0.81954894611E+01 -0.18064185437E+02  0.40718668111E+01  0.20249961545E+02  0.51100000000E-03 0. -1.
        -11    1    3    3    0    0 -0.13778368737E+02 -0.82818073756E+01 -0.70555817372E+01  0.17555996479E+02  0.51100000000E-03 0.  1.
        -12    1    3    3    0    0 -0.93211844880E+01 -0.34948780530E+01 -0.72657133993E+00  0.99813104739E+01  0.00000000000E+00 0.  1.
</event>
<event>
 7    1  0.3062695E-010  0.4778726E+02  0.7816164E-02  0.1312668E+00
        -11   -1    0    0    0    0  0.00000000000E+00  0.00000000000E+00  0.45593999997E+02  0.45594000000E+02  0.51100000000E-03 0. -1.
         11   -1    0    0    0    0 -0.00000000000E+00 -0.00000000000E+00 -0.45593999997E+02  0.45594000000E+02  0.51100000000E-03 0.  1.
    9900012    2    1    2    0    0 -0.42934632994E+02  0.46070588862E+01 -0.43607542885E+01  0.47787264063E+02  0.19999968169E+02 0.  0.
        -12    1    1    2    0    0  0.42934632994E+02 -0.46070588862E+01  0.43607542885E+01  0.43400735937E+02  0.00000000000E+00 0.  1.
         11    1    3    3    0    0 -0.27829835449E+02  0.47615696384E+01 -0.56816092179E+01  0.28800225174E+02  0.51100000000E-03 0. -1.
        -11    1    3    3    0    0 -0.30838096899E+01  0.38931419145E+01  0.35548638479E+01  0.61076585864E+01  0.51100000000E-03 0.  1.
        -12    1    3    3    0    0 -0.12020987855E+02 -0.40476526666E+01 -0.22340089184E+01  0.12879380302E+02  0.00000000000E+00 0.  1.
</event>
<event>
 7    1  0.3062695E-010  0.4778727E+02  0.7816164E-02  0.1312668E+00
        -11   -1    0    0    0    0  0.00000000000E+00  0.00000000000E+00  0.45593999997E+02  0.45594000000E+02  0.51100000000E-03 0. -1.
         11   -1    0    0    0    0 -0.00000000000E+00 -0.00000000000E+00 -0.45593999997E+02  0.45594000000E+02  0.51100000000E-03 0.  1.
    9900012    2    1    2    0    0  0.10249990490E+02  0.29224210115E+02  0.30405696729E+02  0.47787272409E+02  0.20000006220E+02 0.  0.
        -12    1    1    2    0    0 -0.10249990490E+02 -0.29224210115E+02 -0.30405696729E+02  0.43400727591E+02  0.00000000000E+00 0.  1.
         11    1    3    3    0    0 -0.99024328402E+00 -0.19807870543E+01  0.38300362719E+01  0.44241696646E+01  0.51100000000E-03 0. -1.
        -11    1    3    3    0    0  0.69644585226E+01  0.27299724561E+02  0.19723800687E+02  0.34391960651E+02  0.51100000000E-03 0.  1.
         12    1    3    3    0    0  0.42757752509E+01  0.39052726082E+01  0.68518597705E+01  0.89711420932E+01  0.00000000000E+00 0. -1.
</event>
<event>
 7    1  0.3062695E-010  0.4778727E+02  0.7816164E-02  0.1312668E+00
        -11   -1    0    0    0    0  0.00000000000E+00  0.00000000000E+00  0.45593999997E+02  0.45594000000E+02  0.51100000000E-03 0.  1.
         11   -1    0    0    0    0 -0.00000000000E+00 -0.00000000000E+00 -0.45593999997E+02  0.45594000000E+02  0.51100000000E-03 0. -1.
    9900012    2    1    2    0    0  0.38111183156E+02 -0.19735024409E+02  0.64567421246E+01  0.47787274328E+02  0.20000014971E+02 0.  0.
        -12    1    1    2    0    0 -0.38111183156E+02  0.19735024409E+02 -0.64567421246E+01  0.43400725672E+02  0.00000000000E+00 0.  1.
         11    1    3    3    0    0  0.32515618895E+01  0.25442022056E+01  0.33940316857E+01  0.53446301022E+01  0.51100000000E-03 0. -1.
        -11    1    3    3    0    0  0.85256628363E+01 -0.33188760417E+01  0.39871581236E+01  0.99799446462E+01  0.51100000000E-03 0.  1.
         12    1    3    3    0    0  0.26333958431E+02 -0.18960350573E+02 -0.92444768481E+00  0.32462699580E+02  0.00000000000E+00 0. -1.
</event>
<event>
 7    1  0.3062695E-010  0.4778727E+02  0.7816164E-02  0.1312668E+00
        -11   -1    0    0    0    0  0.00000000000E+00  0.00000000000E+00  0.45593999997E+02  0.45594000000E+02  0.51100000000E-03 0.  1.
         11   -1    0    0    0    0 -0.00000000000E+00 -0.00000000000E+00 -0.45593999997E+02  0.45594000000E+02  0.51100000000E-03 0. -1.
    9900012    2    1    2    0    0  0.33320785019E+02 -0.22429290038E+02 -0.16440072440E+02  0.47787265586E+02  0.19999975112E+02 0.  0.
        -12    1    1    2    0    0 -0.33320785019E+02  0.22429290038E+02  0.16440072440E+02  0.43400734414E+02  0.00000000000E+00 0.  1.
         11    1    3    3    0    0  0.20106590404E+02 -0.10709334140E+02 -0.92067267368E+01  0.24570889948E+02  0.51100000000E-03 0. -1.
        -11    1    3    3    0    0  0.31396983999E+01 -0.10962639480E+02 -0.64062673842E+01  0.13079657200E+02  0.51100000000E-03 0.  1.
         12    1    3    3    0    0  0.10074496215E+02 -0.75731641834E+00 -0.82707831911E+00  0.10136718438E+02  0.00000000000E+00 0. -1.
</event>
<event>
 7    1  0.3062695E-010  0.4778727E+02  0.7816164E-02  0.1312668E+00
        -11   -1    0    0    0    0  0.00000000000E+00  0.00000000000E+00  0.45593999997E+02  0.45594000000E+02  0.51100000000E-03 0.  1.
         11   -1    0    0    0    0 -0.00000000000E+00 -0.00000000000E+00 -0.45593999997E+02  0.45594000000E+02  0.51100000000E-03 0. -1.
    9900012    2    1    2    0    0  0.42817521596E+02 -0.16898050202E+01  0.68867710101E+01  0.47787271762E+02  0.20000003271E+02 0.  0.
        -12    1    1    2    0    0 -0.42817521596E+02  0.16898050202E+01 -0.68867710101E+01  0.43400728238E+02  0.00000000000E+00 0.  1.
         11    1    3    3    0    0  0.12925757168E+02  0.22608142110E+01 -0.52035416946E+01  0.14116066225E+02  0.51100000000E-03 0.  1.
        -11    1    3    3    0    0  0.95876995860E+01 -0.41639274127E+01  0.74680562526E+01  0.12846561381E+02  0.51100000000E-03 0. -1.
         12    1    3    3    0    0  0.20304064843E+02  0.21330818149E+00  0.46222564520E+01  0.20824644156E+02  0.00000000000E+00 0. -1.
</event>
<event>
 7    1  0.3062695E-010  0.4778727E+02  0.7816164E-02  0.1312668E+00
        -11   -1    0    0    0    0  0.00000000000E+00  0.00000000000E+00  0.45593999997E+02  0.45594000000E+02  0.51100000000E-03 0.  1.
         11   -1    0    0    0    0 -0.00000000000E+00 -0.00000000000E+00 -0.45593999997E+02  0.45594000000E+02  0.51100000000E-03 0. -1.
    9900012    2    1    2    0    0 -0.81287506307E+01  0.34278666094E+01 -0.42494664160E+02  0.47787270302E+02  0.19999996614E+02 0.  0.
        -12    1    1    2    0    0  0.81287506307E+01 -0.34278666094E+01  0.42494664160E+02  0.43400729698E+02  0.00000000000E+00 0.  1.
         11    1    3    3    0    0 -0.25790639628E+00  0.62914468302E+01 -0.10702844787E+02  0.12417717412E+02  0.51100000000E-03 0. -1.
        -11    1    3    3    0    0 -0.61602163745E+01 -0.79811370524E+01 -0.19771228411E+02  0.22193428928E+02  0.51100000000E-03 0.  1.
         12    1    3    3    0    0 -0.17106278599E+01  0.51175568316E+01 -0.12020590961E+02  0.13176123962E+02  0.00000000000E+00 0. -1.
</event>
<event>
 7    1  0.3062695E-010  0.4778727E+02  0.7816164E-02  0.1312668E+00
        -11   -1    0    0    0    0  0.00000000000E+00  0.00000000000E+00  0.45593999997E+02  0.45594000000E+02  0.51100000000E-03 0.  1.
         11   -1    0    0    0    0 -0.00000000000E+00 -0.00000000000E+00 -0.45593999997E+02  0.45594000000E+02  0.51100000000E-03 0. -1.
    9900012    2    1    2    0    0 -0.23553562470E+02 -0.33006037091E+02 -0.15474314219E+02  0.47787272011E+02  0.20000004405E+02 0.  0.
        -12    1    1    2    0    0  0.23553562470E+02  0.33006037091E+02  0.15474314219E+02  0.43400727989E+02  0.00000000000E+00 0.  1.
         11    1    3    3    0    0 -0.20351762473E+02 -0.26383345053E+02 -0.89377151534E+01  0.34498664964E+02  0.51100000000E-03 0. -1.
        -11    1    3    3    0    0  0.22556369683E+01 -0.47092155008E+01 -0.51660660945E+01  0.73452602350E+01  0.51100000000E-03 0.  1.
        -12    1    3    3    0    0 -0.54574369656E+01 -0.19134765376E+01 -0.13705329710E+01  0.59433468112E+01  0.00000000000E+00 0.  1.
</event>
<event>
 7    1  0.3062695E-010  0.4778726E+02  0.7816164E-02  0.1312668E+00
        -11   -1    0    0    0    0  0.00000000000E+00  0.00000000000E+00  0.45593999997E+02  0.45594000000E+02  0.51100000000E-03 0.  1.
         11   -1    0    0    0    0 -0.00000000000E+00 -0.00000000000E+00 -0.45593999997E+02  0.45594000000E+02  0.51100000000E-03 0. -1.
    9900012    2    1    2    0    0  0.34091247622E+02  0.22385340467E+01 -0.26765650516E+02  0.47787259837E+02  0.19999948900E+02 0.  0.
        -12    1    1    2    0    0 -0.34091247622E+02 -0.22385340467E+01  0.26765650516E+02  0.43400740163E+02  0.00000000000E+00 0.  1.
         11    1    3    3    0    0  0.23017729920E+02  0.38950113165E+01 -0.25965402269E+02  0.34916888737E+02  0.51100000000E-03 0. -1.
        -11    1    3    3    0    0  0.37803182698E+01  0.21351634119E+01  0.10007008066E+01  0.44554608496E+01  0.51100000000E-03 0.  1.
         12    1    3    3    0    0  0.72931994325E+01 -0.37916406817E+01 -0.18009490538E+01  0.84149102500E+01  0.00000000000E+00 0. -1.
</event>
<event>
 7    1  0.3062695E-010  0.4778727E+02  0.7816164E-02  0.1312668E+00
        -11   -1    0    0    0    0  0.00000000000E+00  0.00000000000E+00  0.45593999997E+02  0.45594000000E+02  0.51100000000E-03 0.  1.
         11   -1    0    0    0    0 -0.00000000000E+00 -0.00000000000E+00 -0.45593999997E+02  0.45594000000E+02  0.51100000000E-03 0. -1.
    9900012    2    1    2    0    0  0.36936267745E+02 -0.79268174606E+01 -0.21365885961E+02  0.47787269673E+02  0.19999993749E+02 0.  0.
        -12    1    1    2    0    0 -0.36936267745E+02  0.79268174606E+01  0.21365885961E+02  0.43400730327E+02  0.00000000000E+00 0.  1.
         11    1    3    3    0    0  0.21877481757E+02 -0.96136683706E+01 -0.13565731351E+02  0.27478644342E+02  0.51100000000E-03 0. -1.
        -11    1    3    3    0    0  0.82898302418E+01  0.14722015817E+01  0.17514097486E+01  0.85997732124E+01  0.51100000000E-03 0.  1.
        -12    1    3    3    0    0  0.67689557465E+01  0.21464932832E+00 -0.95515643590E+01  0.11708852119E+02  0.00000000000E+00 0.  1.
</event>
<event>
 7    1  0.3062695E-010  0.4778727E+02  0.7816164E-02  0.1312668E+00
        -11   -1    0    0    0    0  0.00000000000E+00  0.00000000000E+00  0.45593999997E+02  0.45594000000E+02  0.51100000000E-03 0.  1.
         11   -1    0    0    0    0 -0.00000000000E+00 -0.00000000000E+00 -0.45593999997E+02  0.45594000000E+02  0.51100000000E-03 0. -1.
    9900012    2    1    2    0    0 -0.32535756306E+02  0.33481633251E+01 -0.28527835273E+02  0.47787273953E+02  0.20000013261E+02 0.  0.
        -12    1    1    2    0    0  0.32535756306E+02 -0.33481633251E+01  0.28527835273E+02  0.43400726047E+02  0.00000000000E+00 0.  1.
         11    1    3    3    0    0 -0.28633458621E+02 -0.18606388774E+01 -0.26668313414E+02  0.39173152416E+02  0.51100000000E-03 0. -1.
        -11    1    3    3    0    0 -0.26769335142E+01  0.61814392176E+01 -0.94547902817E+00  0.68022124852E+01  0.51100000000E-03 0.  1.
         12    1    3    3    0    0 -0.12253641711E+01 -0.97263701510E+00 -0.91404283104E+00  0.18119090518E+01  0.00000000000E+00 0. -1.
</event>
<event>
 7    1  0.3062695E-010  0.4778727E+02  0.7816164E-02  0.1312668E+00
        -11   -1    0    0    0    0  0.00000000000E+00  0.00000000000E+00  0.45593999997E+02  0.45594000000E+02  0.51100000000E-03 0. -1.
         11   -1    0    0    0    0 -0.00000000000E+00 -0.00000000000E+00 -0.45593999997E+02  0.45594000000E+02  0.51100000000E-03 0.  1.
    9900012    2    1    2    0    0  0.23216062440E+02 -0.35070228354E+02 -0.10710577505E+02  0.47787274863E+02  0.20000017408E+02 0.  0.
        -12    1    1    2    0    0 -0.23216062440E+02  0.35070228354E+02  0.10710577505E+02  0.43400725137E+02  0.00000000000E+00 0.  1.
         11    1    3    3    0    0  0.11840777948E+02 -0.58303295998E+01 -0.46552671959E+01  0.13995294873E+02  0.51100000000E-03 0. -1.
        -11    1    3    3    0    0 -0.10242893053E+01 -0.10091729548E+02  0.17175450952E+00  0.10145031972E+02  0.51100000000E-03 0.  1.
         12    1    3    3    0    0  0.12399573797E+02 -0.19148169206E+02 -0.62270648186E+01  0.23646948018E+02  0.00000000000E+00 0. -1.
</event>
<event>
 7    1  0.3062695E-010  0.4778725E+02  0.7816164E-02  0.1312668E+00
        -11   -1    0    0    0    0  0.00000000000E+00  0.00000000000E+00  0.45593999997E+02  0.45594000000E+02  0.51100000000E-03 0.  1.
         11   -1    0    0    0    0 -0.00000000000E+00 -0.00000000000E+00 -0.45593999997E+02  0.45594000000E+02  0.51100000000E-03 0. -1.
    9900012    2    1    2    0    0 -0.14965665086E+02 -0.93802543411E+01 -0.39644225941E+02  0.47787251695E+02  0.19999911780E+02 0.  0.
        -12    1    1    2    0    0  0.14965665086E+02  0.93802543411E+01  0.39644225941E+02  0.43400748305E+02  0.00000000000E+00 0.  1.
         11    1    3    3    0    0 -0.72564745473E+01 -0.37338181897E+01 -0.81048492879E+01  0.11501582646E+02  0.51100000000E-03 0. -1.
        -11    1    3    3    0    0 -0.57378637761E+01  0.46946555500E+01 -0.12839716825E+02  0.14826368397E+02  0.51100000000E-03 0.  1.
        -12    1    3    3    0    0 -0.19713267622E+01 -0.10341091701E+02 -0.18699659828E+02  0.21459300652E+02  0.00000000000E+00 0.  1.
</event>
<event>
 7    1  0.3062695E-010  0.4778727E+02  0.7816164E-02  0.1312668E+00
        -11   -1    0    0    0    0  0.00000000000E+00  0.00000000000E+00  0.45593999997E+02  0.45594000000E+02  0.51100000000E-03 0. -1.
         11   -1    0    0    0    0 -0.00000000000E+00 -0.00000000000E+00 -0.45593999997E+02  0.45594000000E+02  0.51100000000E-03 0.  1.
    9900012    2    1    2    0    0 -0.23679035272E+02 -0.20148932247E+02  0.30281134971E+02  0.47787270545E+02  0.19999997722E+02 0.  0.
        -12    1    1    2    0    0  0.23679035272E+02  0.20148932247E+02 -0.30281134971E+02  0.43400729455E+02  0.00000000000E+00 0.  1.
         11    1    3    3    0    0 -0.12829049576E+02 -0.17632166883E+02  0.19939139384E+02  0.29547370469E+02  0.51100000000E-03 0. -1.
        -11    1    3    3    0    0 -0.72911842917E+01  0.60718250908E-01  0.32176515287E+00  0.72985332880E+01  0.51100000000E-03 0.  1.
         12    1    3    3    0    0 -0.35588014046E+01 -0.25774836145E+01  0.10020230435E+02  0.10941366788E+02  0.00000000000E+00 0. -1.
</event>
<event>
 7    1  0.3062695E-010  0.4778727E+02  0.7816164E-02  0.1312668E+00
        -11   -1    0    0    0    0  0.00000000000E+00  0.00000000000E+00  0.45593999997E+02  0.45594000000E+02  0.51100000000E-03 0.  1.
         11   -1    0    0    0    0 -0.00000000000E+00 -0.00000000000E+00 -0.45593999997E+02  0.45594000000E+02  0.51100000000E-03 0. -1.
    9900012    2    1    2    0    0  0.37820150048E+02  0.14015046739E+02 -0.16026167843E+02  0.47787270277E+02  0.19999996502E+02 0.  0.
        -12    1    1    2    0    0 -0.37820150048E+02 -0.14015046739E+02  0.16026167843E+02  0.43400729723E+02  0.00000000000E+00 0.  1.
         11    1    3    3    0    0  0.13862551003E+02 -0.15545404732E+01 -0.17999702667E-01  0.13949453059E+02  0.51100000000E-03 0. -1.
        -11    1    3    3    0    0  0.18587589024E+01  0.45673602204E+01 -0.12900134860E+01  0.50970480766E+01  0.51100000000E-03 0.  1.
         12    1    3    3    0    0  0.22098840142E+02  0.11002226992E+02 -0.14718154654E+02  0.28740769142E+02  0.00000000000E+00 0. -1.
</event>
<event>
 7    1  0.3062695E-010  0.4778727E+02  0.7816164E-02  0.1312668E+00
        -11   -1    0    0    0    0  0.00000000000E+00  0.00000000000E+00  0.45593999997E+02  0.45594000000E+02  0.51100000000E-03 0.  1.
         11   -1    0    0    0    0 -0.00000000000E+00 -0.00000000000E+00 -0.45593999997E+02  0.45594000000E+02  0.51100000000E-03 0. -1.
    9900012    2    1    2    0    0  0.61205521212E+01  0.41695376613E+02 -0.10375823699E+02  0.47787270668E+02  0.19999998283E+02 0.  0.
        -12    1    1    2    0    0 -0.61205521212E+01 -0.41695376613E+02  0.10375823699E+02  0.43400729332E+02  0.00000000000E+00 0.  1.
         11    1    3    3    0    0  0.24130499378E+01  0.14416916994E+02 -0.13289523209E+02  0.19755549423E+02  0.51100000000E-03 0. -1.
        -11    1    3    3    0    0  0.13722053175E+01  0.14667334948E+02  0.36775219958E+01  0.15183472271E+02  0.51100000000E-03 0.  1.
         12    1    3    3    0    0  0.23352968659E+01  0.12611124670E+02 -0.76382248521E+00  0.12848248973E+02  0.00000000000E+00 0. -1.
</event>
<event>
 7    1  0.3062695E-010  0.4778727E+02  0.7816164E-02  0.1312668E+00
        -11   -1    0    0    0    0  0.00000000000E+00  0.00000000000E+00  0.45593999997E+02  0.45594000000E+02  0.51100000000E-03 0.  1.
         11   -1    0    0    0    0 -0.00000000000E+00 -0.00000000000E+00 -0.45593999997E+02  0.45594000000E+02  0.51100000000E-03 0. -1.
    9900012    2    1    2    0    0 -0.29060652876E+02 -0.21124951250E+02 -0.24348261587E+02  0.47787274739E+02  0.20000016843E+02 0.  0.
        -12    1    1    2    0    0  0.29060652876E+02  0.21124951250E+02  0.24348261587E+02  0.43400725261E+02  0.00000000000E+00 0.  1.
         11    1    3    3    0    0 -0.30331891793E+01 -0.89071715241E+01 -0.12543088277E+02  0.15680146841E+02  0.51100000000E-03 0. -1.
        -11    1    3    3    0    0 -0.33238720848E+01 -0.50005841888E+01 -0.29655113995E+01  0.66968818107E+01  0.51100000000E-03 0.  1.
         12    1    3    3    0    0 -0.22703591612E+02 -0.72171955373E+01 -0.88396619100E+01  0.25410246087E+02  0.00000000000E+00 0. -1.
</event>
<event>
 7    1  0.3062695E-010  0.4778727E+02  0.7816164E-02  0.1312668E+00
        -11   -1    0    0    0    0  0.00000000000E+00  0.00000000000E+00  0.45593999997E+02  0.45594000000E+02  0.51100000000E-03 0.  1.
         11   -1    0    0    0    0 -0.00000000000E+00 -0.00000000000E+00 -0.45593999997E+02  0.45594000000E+02  0.51100000000E-03 0. -1.
    9900012    2    1    2    0    0 -0.37568770717E+02 -0.16252494269E+02  0.14424537220E+02  0.47787269855E+02  0.19999994576E+02 0.  0.
        -12    1    1    2    0    0  0.37568770717E+02  0.16252494269E+02 -0.14424537220E+02  0.43400730145E+02  0.00000000000E+00 0.  1.
         11    1    3    3    0    0 -0.27909548461E+02 -0.76837832970E+01  0.11648498732E+02  0.31203700806E+02  0.51100000000E-03 0. -1.
        -11    1    3    3    0    0 -0.53881875176E+01 -0.10373609954E+02  0.23853732101E+01  0.11930396214E+02  0.51100000000E-03 0.  1.
         12    1    3    3    0    0 -0.42710347383E+01  0.18048989822E+01  0.39066527761E+00  0.46531728349E+01  0.00000000000E+00 0. -1.
</event>
<event>
 7    1  0.3062695E-010  0.4778727E+02  0.7816164E-02  0.1312668E+00
        -11   -1    0    0    0    0  0.00000000000E+00  0.00000000000E+00  0.45593999997E+02  0.45594000000E+02  0.51100000000E-03 0. -1.
         11   -1    0    0    0    0 -0.00000000000E+00 -0.00000000000E+00 -0.45593999997E+02  0.45594000000E+02  0.51100000000E-03 0.  1.
    9900012    2    1    2    0    0 -0.40790919024E+02 -0.94867641748E+01  0.11389726082E+02  0.47787266947E+02  0.19999981318E+02 0.  0.
        -12    1    1    2    0    0  0.40790919024E+02  0.94867641748E+01 -0.11389726082E+02  0.43400733053E+02  0.00000000000E+00 0.  1.
         11    1    3    3    0    0 -0.86182042283E+01  0.28364913203E+01  0.80628699645E+01  0.12137915779E+02  0.51100000000E-03 0. -1.
        -11    1    3    3    0    0 -0.78877518102E+01 -0.71756708735E+01  0.12981174069E+01  0.10742066383E+02  0.51100000000E-03 0.  1.
         12    1    3    3    0    0 -0.24284962985E+02 -0.51475846215E+01  0.20287387105E+01  0.24907284786E+02  0.00000000000E+00 0. -1.
</event>
<event>
 7    1  0.3062695E-010  0.4778726E+02  0.7816164E-02  0.1312668E+00
        -11   -1    0    0    0    0  0.00000000000E+00  0.00000000000E+00  0.45593999997E+02  0.45594000000E+02  0.51100000000E-03 0. -1.
         11   -1    0    0    0    0 -0.00000000000E+00 -0.00000000000E+00 -0.45593999997E+02  0.45594000000E+02  0.51100000000E-03 0.  1.
    9900012    2    1    2    0    0 -0.21654816984E+02 -0.36577044312E+02  0.87643194860E+01  0.47787256167E+02  0.19999932169E+02 0.  0.
        -12    1    1    2    0    0  0.21654816984E+02  0.36577044312E+02 -0.87643194860E+01  0.43400743833E+02  0.00000000000E+00 0.  1.
         11    1    3    3    0    0 -0.14816259814E+02 -0.12172877600E+02  0.35086614640E+01  0.19493876205E+02  0.51100000000E-03 0. -1.
        -11    1    3    3    0    0  0.24691097826E+01 -0.12694003213E+01 -0.13833562246E+00  0.27797513018E+01  0.51100000000E-03 0.  1.
         12    1    3    3    0    0 -0.93076669528E+01 -0.23134766390E+02  0.53939936445E+01  0.25513628661E+02  0.00000000000E+00 0. -1.
</event>
<event>
 7    1  0.3062695E-010  0.4778727E+02  0.7816164E-02  0.1312668E+00
        -11   -1    0    0    0    0  0.00000000000E+00  0.00000000000E+00  0.45593999997E+02  0.45594000000E+02  0.51100000000E-03 0.  1.
         11   -1    0    0    0    0 -0.00000000000E+00 -0.00000000000E+00 -0.45593999997E+02  0.45594000000E+02  0.51100000000E-03 0. -1.
    9900012    2    1    2    0    0 -0.37464068404E+02 -0.22931333492E+01 -0.21790103801E+02  0.47787268374E+02  0.19999987826E+02 0.  0.
        -12    1    1    2    0    0  0.37464068404E+02  0.22931333492E+01  0.21790103801E+02  0.43400731626E+02  0.00000000000E+00 0.  1.
         11    1    3    3    0    0 -0.13924926096E+01  0.34040823285E+01 -0.30959311882E+01  0.48074527923E+01  0.51100000000E-03 0. -1.
        -11    1    3    3    0    0 -0.32542595980E+02 -0.60580665404E+01 -0.20564607447E+02  0.38969524029E+02  0.51100000000E-03 0.  1.
        -12    1    3    3    0    0 -0.35289798143E+01  0.36085086272E+00  0.18704348335E+01  0.40102915531E+01  0.00000000000E+00 0.  1.
</event>
<event>
 7    1  0.3062695E-010  0.4778725E+02  0.7816164E-02  0.1312668E+00
        -11   -1    0    0    0    0  0.00000000000E+00  0.00000000000E+00  0.45593999997E+02  0.45594000000E+02  0.51100000000E-03 0.  1.
         11   -1    0    0    0    0 -0.00000000000E+00 -0.00000000000E+00 -0.45593999997E+02  0.45594000000E+02  0.51100000000E-03 0. -1.
    9900012    2    1    2    0    0  0.36494437728E+01  0.42467085500E+02 -0.81763973255E+01  0.47787248118E+02  0.19999895467E+02 0.  0.
        -12    1    1    2    0    0 -0.36494437728E+01 -0.42467085500E+02  0.81763973255E+01  0.43400751882E+02  0.00000000000E+00 0.  1.
         11    1    3    3    0    0  0.81663427474E+01  0.16009562518E+02 -0.17137204620E+01  0.18053589227E+02  0.51100000000E-03 0. -1.
        -11    1    3    3    0    0 -0.19213941457E+01  0.12048148549E+02 -0.86144189129E+01  0.14935121439E+02  0.51100000000E-03 0.  1.
        -12    1    3    3    0    0 -0.25955048288E+01  0.14409374433E+02  0.21517420495E+01  0.14798537452E+02  0.00000000000E+00 0.  1.
</event>
<event>
 7    1  0.3062695E-010  0.4778727E+02  0.7816164E-02  0.1312668E+00
        -11   -1    0    0    0    0  0.00000000000E+00  0.00000000000E+00  0.45593999997E+02  0.45594000000E+02  0.51100000000E-03 0.  1.
         11   -1    0    0    0    0 -0.00000000000E+00 -0.00000000000E+00 -0.45593999997E+02  0.45594000000E+02  0.51100000000E-03 0. -1.
    9900012    2    1    2    0    0 -0.17199307931E+02  0.39403196183E+02 -0.59325933288E+01  0.47787265832E+02  0.19999976233E+02 0.  0.
        -12    1    1    2    0    0  0.17199307931E+02 -0.39403196183E+02  0.59325933288E+01  0.43400734168E+02  0.00000000000E+00 0.  1.
         11    1    3    3    0    0 -0.18653561782E+02  0.35967918874E+02 -0.48972783826E+01  0.40812129215E+02  0.51100000000E-03 0. -1.
        -11    1    3    3    0    0  0.17990439802E+01 -0.11509285082E+01 -0.10412046716E+01  0.23759846597E+01  0.51100000000E-03 0.  1.
        -12    1    3    3    0    0 -0.34479013010E+00  0.45862058175E+01  0.58897254581E-02  0.45991519569E+01  0.00000000000E+00 0.  1.
</event>
<event>
 7    1  0.3062695E-010  0.4778726E+02  0.7816164E-02  0.1312668E+00
        -11   -1    0    0    0    0  0.00000000000E+00  0.00000000000E+00  0.45593999997E+02  0.45594000000E+02  0.51100000000E-03 0.  1.
         11   -1    0    0    0    0 -0.00000000000E+00 -0.00000000000E+00 -0.45593999997E+02  0.45594000000E+02  0.51100000000E-03 0. -1.
    9900012    2    1    2    0    0 -0.20583117978E+02  0.50814396830E+00 -0.38206037762E+02  0.47787259482E+02  0.19999947284E+02 0.  0.
        -12    1    1    2    0    0  0.20583117978E+02 -0.50814396830E+00  0.38206037762E+02  0.43400740518E+02  0.00000000000E+00 0.  1.
         11    1    3    3    0    0 -0.42414661680E+01  0.14197538483E+01  0.69824552647E+00  0.45269507751E+01  0.51100000000E-03 0.  1.
        -11    1    3    3    0    0 -0.12328208620E+02 -0.48375872740E+01 -0.25685471749E+02  0.28898623456E+02  0.51100000000E-03 0. -1.
        -12    1    3    3    0    0 -0.40134431902E+01  0.39259773940E+01 -0.13218811540E+02  0.14361685252E+02  0.00000000000E+00 0.  1.
</event>
<event>
 7    1  0.3062695E-010  0.4778727E+02  0.7816164E-02  0.1312668E+00
        -11   -1    0    0    0    0  0.00000000000E+00  0.00000000000E+00  0.45593999997E+02  0.45594000000E+02  0.51100000000E-03 0.  1.
         11   -1    0    0    0    0 -0.00000000000E+00 -0.00000000000E+00 -0.45593999997E+02  0.45594000000E+02  0.51100000000E-03 0. -1.
    9900012    2    1    2    0    0 -0.14812905218E+02 -0.74857839735E+01 -0.40101924632E+02  0.47787268648E+02  0.19999989074E+02 0.  0.
        -12    1    1    2    0    0  0.14812905218E+02  0.74857839735E+01  0.40101924632E+02  0.43400731352E+02  0.00000000000E+00 0.  1.
         11    1    3    3    0    0 -0.10722788795E+02  0.77638220362E+00 -0.14342958162E+02  0.17924882648E+02  0.51100000000E-03 0. -1.
        -11    1    3    3    0    0  0.38270961738E+01 -0.54737977720E+01 -0.10416706075E+02  0.12374041090E+02  0.51100000000E-03 0.  1.
        -12    1    3    3    0    0 -0.79172125972E+01 -0.27883684051E+01 -0.15342260395E+02  0.17488344910E+02  0.00000000000E+00 0.  1.
</event>
<event>
 7    1  0.3062695E-010  0.4778732E+02  0.7816164E-02  0.1312668E+00
        -11   -1    0    0    0    0  0.00000000000E+00  0.00000000000E+00  0.45593999997E+02  0.45594000000E+02  0.51100000000E-03 0.  1.
         11   -1    0    0    0    0 -0.00000000000E+00 -0.00000000000E+00 -0.45593999997E+02  0.45594000000E+02  0.51100000000E-03 0. -1.
    9900012    2    1    2    0    0  0.41053490996E+01  0.21196073802E+02 -0.37649587941E+02  0.47787321342E+02  0.20000229326E+02 0.  0.
        -12    1    1    2    0    0 -0.41053490996E+01 -0.21196073802E+02  0.37649587941E+02  0.43400678658E+02  0.00000000000E+00 0.  1.
         11    1    3    3    0    0 -0.43580094998E+01  0.16251674725E+02 -0.16812774664E+02  0.23786100361E+02  0.51100000000E-03 0. -1.
        -11    1    3    3    0    0  0.21771629415E+01 -0.34933744408E+00 -0.10830206075E+02  0.11052395171E+02  0.51100000000E-03 0.  1.
         12    1    3    3    0    0  0.62861956579E+01  0.52937365208E+01 -0.10006607201E+02  0.12948825811E+02  0.00000000000E+00 0. -1.
</event>
<event>
 7    1  0.3062695E-010  0.4778727E+02  0.7816164E-02  0.1312668E+00
        -11   -1    0    0    0    0  0.00000000000E+00  0.00000000000E+00  0.45593999997E+02  0.45594000000E+02  0.51100000000E-03 0.  1.
         11   -1    0    0    0    0 -0.00000000000E+00 -0.00000000000E+00 -0.45593999997E+02  0.45594000000E+02  0.51100000000E-03 0. -1.
    9900012    2    1    2    0    0 -0.23747831952E+02  0.32923276803E+02  0.15353243913E+02  0.47787265253E+02  0.19999973597E+02 0.  0.
        -12    1    1    2    0    0  0.23747831952E+02 -0.32923276803E+02 -0.15353243913E+02  0.43400734747E+02  0.00000000000E+00 0.  1.
         11    1    3    3    0    0 -0.15214653309E+02  0.13489530733E+02  0.44726744899E+01  0.20819652544E+02  0.51100000000E-03 0. -1.
        -11    1    3    3    0    0 -0.53499271503E+01  0.19266255875E+02  0.12302882975E+02  0.23477036987E+02  0.51100000000E-03 0.  1.
        -12    1    3    3    0    0 -0.31832514929E+01  0.16749019526E+00 -0.14223135515E+01  0.34905757221E+01  0.00000000000E+00 0.  1.
</event>
<event>
 7    1  0.3062695E-010  0.4778727E+02  0.7816164E-02  0.1312668E+00
        -11   -1    0    0    0    0  0.00000000000E+00  0.00000000000E+00  0.45593999997E+02  0.45594000000E+02  0.51100000000E-03 0.  1.
         11   -1    0    0    0    0 -0.00000000000E+00 -0.00000000000E+00 -0.45593999997E+02  0.45594000000E+02  0.51100000000E-03 0. -1.
    9900012    2    1    2    0    0 -0.25567313427E+02 -0.11127009546E+02 -0.33258459759E+02  0.47787274167E+02  0.20000014236E+02 0.  0.
        -12    1    1    2    0    0  0.25567313427E+02  0.11127009546E+02  0.33258459759E+02  0.43400725833E+02  0.00000000000E+00 0.  1.
         11    1    3    3    0    0 -0.88537890156E+01 -0.58043412873E+01 -0.14894010047E+01  0.10691037056E+02  0.51100000000E-03 0.  1.
        -11    1    3    3    0    0 -0.62252565514E+01 -0.22577111041E+01 -0.19854873906E+02  0.20930052476E+02  0.51100000000E-03 0. -1.
         12    1    3    3    0    0 -0.10488267860E+02 -0.30649571545E+01 -0.11914184848E+02  0.16166184635E+02  0.00000000000E+00 0. -1.
</event>
<event>
 7    1  0.3062695E-010  0.4778727E+02  0.7816164E-02  0.1312668E+00
        -11   -1    0    0    0    0  0.00000000000E+00  0.00000000000E+00  0.45593999997E+02  0.45594000000E+02  0.51100000000E-03 0.  1.
         11   -1    0    0    0    0 -0.00000000000E+00 -0.00000000000E+00 -0.45593999997E+02  0.45594000000E+02  0.51100000000E-03 0. -1.
    9900012    2    1    2    0    0  0.15842133160E+02  0.74552021145E+01 -0.39712340867E+02  0.47787271450E+02  0.20000001847E+02 0.  0.
        -12    1    1    2    0    0 -0.15842133160E+02 -0.74552021145E+01  0.39712340867E+02  0.43400728550E+02  0.00000000000E+00 0.  1.
         11    1    3    3    0    0  0.59653824176E+01  0.24982757068E+01 -0.71307260556E+00  0.65065844878E+01  0.51100000000E-03 0.  1.
        -11    1    3    3    0    0  0.17830068044E+01  0.58783170455E+00 -0.89089997541E+00  0.20780669875E+01  0.51100000000E-03 0. -1.
         12    1    3    3    0    0  0.80937439377E+01  0.43690947032E+01 -0.38108368286E+02  0.39202619974E+02  0.00000000000E+00 0. -1.
</event>
<event>
 7    1  0.3062695E-010  0.4778727E+02  0.7816164E-02  0.1312668E+00
        -11   -1    0    0    0    0  0.00000000000E+00  0.00000000000E+00  0.45593999997E+02  0.45594000000E+02  0.51100000000E-03 0.  1.
         11   -1    0    0    0    0 -0.00000000000E+00 -0.00000000000E+00 -0.45593999997E+02  0.45594000000E+02  0.51100000000E-03 0. -1.
    9900012    2    1    2    0    0 -0.92167110831E+01  0.41046832503E+02 -0.10669258385E+02  0.47787270787E+02  0.19999998827E+02 0.  0.
        -12    1    1    2    0    0  0.92167110831E+01 -0.41046832503E+02  0.10669258385E+02  0.43400729213E+02  0.00000000000E+00 0.  1.
         11    1    3    3    0    0 -0.10299530012E+02  0.19977163688E+02  0.86796079213E+00  0.22492682003E+02  0.51100000000E-03 0.  1.
        -11    1    3    3    0    0 -0.22278266147E+01  0.14298425227E+02 -0.10032793079E+02  0.17608665838E+02  0.51100000000E-03 0. -1.
        -12    1    3    3    0    0  0.33106455432E+01  0.67712435883E+01 -0.15044260986E+01  0.76859229460E+01  0.00000000000E+00 0.  1.
</event>
<event>
 7    1  0.3062695E-010  0.4778726E+02  0.7816164E-02  0.1312668E+00
        -11   -1    0    0    0    0  0.00000000000E+00  0.00000000000E+00  0.45593999997E+02  0.45594000000E+02  0.51100000000E-03 0.  1.
         11   -1    0    0    0    0 -0.00000000000E+00 -0.00000000000E+00 -0.45593999997E+02  0.45594000000E+02  0.51100000000E-03 0. -1.
    9900012    2    1    2    0    0 -0.32772346881E+02 -0.11126020620E+02 -0.26187958399E+02  0.47787260145E+02  0.19999950303E+02 0.  0.
        -12    1    1    2    0    0  0.32772346881E+02  0.11126020620E+02  0.26187958399E+02  0.43400739855E+02  0.00000000000E+00 0.  1.
         11    1    3    3    0    0 -0.13501226033E+02  0.46076809589E+01 -0.80566606152E+01  0.16383638446E+02  0.51100000000E-03 0.  1.
        -11    1    3    3    0    0 -0.15880285491E+02 -0.94666673168E+01 -0.13727381519E+02  0.23026989837E+02  0.51100000000E-03 0. -1.
         12    1    3    3    0    0 -0.33908353572E+01 -0.62670342623E+01 -0.44039162649E+01  0.83766318609E+01  0.00000000000E+00 0. -1.
</event>
<event>
 7    1  0.3062695E-010  0.4778727E+02  0.7816164E-02  0.1312668E+00
        -11   -1    0    0    0    0  0.00000000000E+00  0.00000000000E+00  0.45593999997E+02  0.45594000000E+02  0.51100000000E-03 0.  1.
         11   -1    0    0    0    0 -0.00000000000E+00 -0.00000000000E+00 -0.45593999997E+02  0.45594000000E+02  0.51100000000E-03 0. -1.
    9900012    2    1    2    0    0  0.26320653796E+02 -0.13945231371E+02 -0.31565441771E+02  0.47787269494E+02  0.19999992931E+02 0.  0.
        -12    1    1    2    0    0 -0.26320653796E+02  0.13945231371E+02  0.31565441771E+02  0.43400730506E+02  0.00000000000E+00 0.  1.
         11    1    3    3    0    0  0.12282298952E+02 -0.96570343109E+00 -0.21218966995E+02  0.24536340625E+02  0.51100000000E-03 0. -1.
        -11    1    3    3    0    0  0.79208708505E+01 -0.44103226561E+01 -0.90864195756E+00  0.91113539844E+01  0.51100000000E-03 0.  1.
         12    1    3    3    0    0  0.61174839933E+01 -0.85692052841E+01 -0.94378328182E+01  0.14139574884E+02  0.00000000000E+00 0. -1.
</event>
<event>
 7    1  0.3062695E-010  0.4778730E+02  0.7816164E-02  0.1312668E+00
        -11   -1    0    0    0    0  0.00000000000E+00  0.00000000000E+00  0.45593999997E+02  0.45594000000E+02  0.51100000000E-03 0.  1.
         11   -1    0    0    0    0 -0.00000000000E+00 -0.00000000000E+00 -0.45593999997E+02  0.45594000000E+02  0.51100000000E-03 0. -1.
    9900012    2    1    2    0    0 -0.38370412643E+01 -0.19039806801E+01 -0.43188806203E+02  0.47787297133E+02  0.20000118947E+02 0.  0.
        -12    1    1    2    0    0  0.38370412643E+01  0.19039806801E+01  0.43188806203E+02  0.43400702867E+02  0.00000000000E+00 0.  1.
         11    1    3    3    0    0 -0.49611030967E+01 -0.80556944230E+01 -0.37085898039E+02  0.38273627869E+02  0.51100000000E-03 0. -1.
        -11    1    3    3    0    0  0.24656422887E+01  0.46065210547E+01 -0.47437272864E+01  0.70570799168E+01  0.51100000000E-03 0.  1.
         12    1    3    3    0    0 -0.13415804563E+01  0.15451926882E+01 -0.13591808775E+01  0.24565893475E+01  0.00000000000E+00 0. -1.
</event>
<event>
 7    1  0.3062695E-010  0.4778728E+02  0.7816164E-02  0.1312668E+00
        -11   -1    0    0    0    0  0.00000000000E+00  0.00000000000E+00  0.45593999997E+02  0.45594000000E+02  0.51100000000E-03 0.  1.
         11   -1    0    0    0    0 -0.00000000000E+00 -0.00000000000E+00 -0.45593999997E+02  0.45594000000E+02  0.51100000000E-03 0. -1.
    9900012    2    1    2    0    0 -0.34452515505E+02  0.26387344775E+02 -0.59564840779E+00  0.47787278970E+02  0.20000036136E+02 0.  0.
        -12    1    1    2    0    0  0.34452515505E+02 -0.26387344775E+02  0.59564840779E+00  0.43400721030E+02  0.00000000000E+00 0.  1.
         11    1    3    3    0    0 -0.29709385306E+02  0.14402425751E+02  0.21392932916E-01  0.33016327789E+02  0.51100000000E-03 0. -1.
        -11    1    3    3    0    0 -0.96857814336E-01  0.85521925891E+01 -0.21001221423E+01  0.88068094558E+01  0.51100000000E-03 0.  1.
        -12    1    3    3    0    0 -0.46462723848E+01  0.34327264346E+01  0.14830808016E+01  0.59641417247E+01  0.00000000000E+00 0.  1.
</event>
<event>
 7    1  0.3062695E-010  0.4778726E+02  0.7816164E-02  0.1312668E+00
        -11   -1    0    0    0    0  0.00000000000E+00  0.00000000000E+00  0.45593999997E+02  0.45594000000E+02  0.51100000000E-03 0.  1.
         11   -1    0    0    0    0 -0.00000000000E+00 -0.00000000000E+00 -0.45593999997E+02  0.45594000000E+02  0.51100000000E-03 0. -1.
    9900012    2    1    2    0    0 -0.35329243682E+02 -0.20572957756E+02 -0.14567849278E+02  0.47787259424E+02  0.19999947017E+02 0.  0.
        -12    1    1    2    0    0  0.35329243682E+02  0.20572957756E+02  0.14567849278E+02  0.43400740576E+02  0.00000000000E+00 0.  1.
         11    1    3    3    0    0 -0.24801919874E+02 -0.22824822942E+02 -0.10053602414E+02  0.35173607912E+02  0.51100000000E-03 0. -1.
        -11    1    3    3    0    0 -0.92114408570E+01  0.61887033351E-01 -0.33003303574E+01  0.97850218904E+01  0.51100000000E-03 0.  1.
         12    1    3    3    0    0 -0.13158829513E+01  0.21899781530E+01 -0.12139165066E+01  0.28286296218E+01  0.00000000000E+00 0. -1.
</event>
<event>
 7    1  0.3062695E-010  0.4778726E+02  0.7816164E-02  0.1312668E+00
        -11   -1    0    0    0    0  0.00000000000E+00  0.00000000000E+00  0.45593999997E+02  0.45594000000E+02  0.51100000000E-03 0. -1.
         11   -1    0    0    0    0 -0.00000000000E+00 -0.00000000000E+00 -0.45593999997E+02  0.45594000000E+02  0.51100000000E-03 0.  1.
    9900012    2    1    2    0    0  0.17680919200E+02  0.39154213206E+02  0.61609231587E+01  0.47787259342E+02  0.19999946643E+02 0.  0.
        -12    1    1    2    0    0 -0.17680919200E+02 -0.39154213206E+02 -0.61609231587E+01  0.43400740658E+02  0.00000000000E+00 0.  1.
         11    1    3    3    0    0  0.40873810333E+01  0.61013065896E+01  0.75337950624E+01  0.10520964505E+02  0.51100000000E-03 0. -1.
        -11    1    3    3    0    0 -0.92860100244E+00  0.86235255149E+01 -0.17299222806E+01  0.88442141248E+01  0.51100000000E-03 0.  1.
         12    1    3    3    0    0  0.14522139169E+02  0.24429381101E+02  0.35705037684E+00  0.28422080712E+02  0.00000000000E+00 0. -1.
</event>
<event>
 7    1  0.3062695E-010  0.4778727E+02  0.7816164E-02  0.1312668E+00
        -11   -1    0    0    0    0  0.00000000000E+00  0.00000000000E+00  0.45593999997E+02  0.45594000000E+02  0.51100000000E-03 0.  1.
         11   -1    0    0    0    0 -0.00000000000E+00 -0.00000000000E+00 -0.45593999997E+02  0.45594000000E+02  0.51100000000E-03 0. -1.
    9900012    2    1    2    0    0 -0.16341293482E+02  0.20270606083E+01 -0.40155651543E+02  0.47787271916E+02  0.20000003974E+02 0.  0.
        -12    1    1    2    0    0  0.16341293482E+02 -0.20270606083E+01  0.40155651543E+02  0.43400728084E+02  0.00000000000E+00 0.  1.
         11    1    3    3    0    0 -0.17223050237E+02 -0.22372995386E+01 -0.34681539026E+02  0.38787215912E+02  0.51100000000E-03 0. -1.
        -11    1    3    3    0    0  0.78087385012E+00  0.56652652917E+01 -0.46569442287E+01  0.73751016675E+01  0.51100000000E-03 0.  1.
         12    1    3    3    0    0  0.10088290514E+00 -0.14009051448E+01 -0.81716828847E+00  0.16249543369E+01  0.00000000000E+00 0. -1.
</event>
<event>
 7    1  0.3062695E-010  0.4778722E+02  0.7816164E-02  0.1312668E+00
        -11   -1    0    0    0    0  0.00000000000E+00  0.00000000000E+00  0.45593999997E+02  0.45594000000E+02  0.51100000000E-03 0.  1.
         11   -1    0    0    0    0 -0.00000000000E+00 -0.00000000000E+00 -0.45593999997E+02  0.45594000000E+02  0.51100000000E-03 0. -1.
    9900012    2    1    2    0    0 -0.21194181971E+02  0.32184204804E+02 -0.19965258864E+02  0.47787217175E+02  0.19999754388E+02 0.  0.
        -12    1    1    2    0    0  0.21194181971E+02 -0.32184204804E+02  0.19965258864E+02  0.43400782825E+02  0.00000000000E+00 0.  1.
         11    1    3    3    0    0 -0.15380614657E+02  0.25239902604E+02 -0.98890065430E+01  0.31167425966E+02  0.51100000000E-03 0. -1.
        -11    1    3    3    0    0 -0.41376192928E+01  0.46398200146E+00  0.40537193196E+00  0.41832402960E+01  0.51100000000E-03 0.  1.
         12    1    3    3    0    0 -0.16759480219E+01  0.64803201990E+01 -0.10481624253E+02  0.12436550914E+02  0.00000000000E+00 0. -1.
</event>
<event>
 7    1  0.3062695E-010  0.4778731E+02  0.7816164E-02  0.1312668E+00
        -11   -1    0    0    0    0  0.00000000000E+00  0.00000000000E+00  0.45593999997E+02  0.45594000000E+02  0.51100000000E-03 0.  1.
         11   -1    0    0    0    0 -0.00000000000E+00 -0.00000000000E+00 -0.45593999997E+02  0.45594000000E+02  0.51100000000E-03 0. -1.
    9900012    2    1    2    0    0 -0.53213139234E+01 -0.13209391754E+02 -0.40997749653E+02  0.47787310040E+02  0.20000177794E+02 0.  0.
        -12    1    1    2    0    0  0.53213139234E+01  0.13209391754E+02  0.40997749653E+02  0.43400689960E+02  0.00000000000E+00 0.  1.
         11    1    3    3    0    0  0.42791561014E+00 -0.37895864783E+01 -0.84725502503E+01  0.92912962202E+01  0.51100000000E-03 0. -1.
        -11    1    3    3    0    0  0.53406594250E+01 -0.29766639673E+01 -0.18530278022E+02  0.19512928414E+02  0.51100000000E-03 0.  1.
        -12    1    3    3    0    0 -0.11089888959E+02 -0.64431413089E+01 -0.13994921381E+02  0.18983085406E+02  0.00000000000E+00 0.  1.
</event>
<event>
 7    1  0.3062695E-010  0.4778727E+02  0.7816164E-02  0.1312668E+00
        -11   -1    0    0    0    0  0.00000000000E+00  0.00000000000E+00  0.45593999997E+02  0.45594000000E+02  0.51100000000E-03 0.  1.
         11   -1    0    0    0    0 -0.00000000000E+00 -0.00000000000E+00 -0.45593999997E+02  0.45594000000E+02  0.51100000000E-03 0. -1.
    9900012    2    1    2    0    0 -0.26972753582E+02  0.11221916546E+02 -0.32096142629E+02  0.47787271683E+02  0.20000002913E+02 0.  0.
        -12    1    1    2    0    0  0.26972753582E+02 -0.11221916546E+02  0.32096142629E+02  0.43400728317E+02  0.00000000000E+00 0.  1.
         11    1    3    3    0    0 -0.29276644753E+02  0.12137382871E+02 -0.26072674710E+02  0.41039278231E+02  0.51100000000E-03 0. -1.
        -11    1    3    3    0    0  0.12329942277E+01 -0.12146087806E+01 -0.24083977165E+01  0.29657931616E+01  0.51100000000E-03 0.  1.
         12    1    3    3    0    0  0.10708969428E+01  0.29914245578E+00 -0.36150702022E+01  0.37822002906E+01  0.00000000000E+00 0. -1.
</event>
<event>
 7    1  0.3062695E-010  0.4778727E+02  0.7816164E-02  0.1312668E+00
        -11   -1    0    0    0    0  0.00000000000E+00  0.00000000000E+00  0.45593999997E+02  0.45594000000E+02  0.51100000000E-03 0. -1.
         11   -1    0    0    0    0 -0.00000000000E+00 -0.00000000000E+00 -0.45593999997E+02  0.45594000000E+02  0.51100000000E-03 0.  1.
    9900012    2    1    2    0    0  0.12498937309E+02 -0.18613072026E+02  0.37161179761E+02  0.47787272295E+02  0.20000005701E+02 0.  0.
        -12    1    1    2    0    0 -0.12498937309E+02  0.18613072026E+02 -0.37161179761E+02  0.43400727705E+02  0.00000000000E+00 0.  1.
         11    1    3    3    0    0  0.22805632246E+01 -0.13393810627E+01  0.15035271945E+02  0.15266116499E+02  0.51100000000E-03 0. -1.
        -11    1    3    3    0    0  0.10339917775E+02 -0.77169518869E+01  0.71374693636E+01  0.14744786034E+02  0.51100000000E-03 0.  1.
        -12    1    3    3    0    0 -0.12154369071E+00 -0.95567390768E+01  0.14988438453E+02  0.17776369761E+02  0.00000000000E+00 0.  1.
</event>
<event>
 7    1  0.3062695E-010  0.4778727E+02  0.7816164E-02  0.1312668E+00
        -11   -1    0    0    0    0  0.00000000000E+00  0.00000000000E+00  0.45593999997E+02  0.45594000000E+02  0.51100000000E-03 0.  1.
         11   -1    0    0    0    0 -0.00000000000E+00 -0.00000000000E+00 -0.45593999997E+02  0.45594000000E+02  0.51100000000E-03 0. -1.
    9900012    2    1    2    0    0 -0.19179958553E+02  0.52827865742E+01 -0.38572589305E+02  0.47787270862E+02  0.19999999167E+02 0.  0.
        -12    1    1    2    0    0  0.19179958553E+02 -0.52827865742E+01  0.38572589305E+02  0.43400729138E+02  0.00000000000E+00 0.  1.
         11    1    3    3    0    0 -0.62809170583E+01  0.37136992833E+01 -0.14263634662E+02  0.16021633983E+02  0.51100000000E-03 0. -1.
        -11    1    3    3    0    0  0.35287990883E+01  0.10501742461E+01 -0.24729598530E+01  0.44351797763E+01  0.51100000000E-03 0.  1.
        -12    1    3    3    0    0 -0.16427840583E+02  0.51891304485E+00 -0.21835994790E+02  0.27330457103E+02  0.00000000000E+00 0.  1.
</event>
<event>
 7    1  0.3062695E-010  0.4778727E+02  0.7816164E-02  0.1312668E+00
        -11   -1    0    0    0    0  0.00000000000E+00  0.00000000000E+00  0.45593999997E+02  0.45594000000E+02  0.51100000000E-03 0. -1.
         11   -1    0    0    0    0 -0.00000000000E+00 -0.00000000000E+00 -0.45593999997E+02  0.45594000000E+02  0.51100000000E-03 0.  1.
    9900012    2    1    2    0    0 -0.39918501688E+02 -0.16119484153E+02  0.55044401166E+01  0.47787269506E+02  0.19999992987E+02 0.  0.
        -12    1    1    2    0    0  0.39918501688E+02  0.16119484153E+02 -0.55044401166E+01  0.43400730494E+02  0.00000000000E+00 0.  1.
         11    1    3    3    0    0 -0.26761041357E+02 -0.27243912287E+01  0.28291958191E+00  0.26900849165E+02  0.51100000000E-03 0. -1.
        -11    1    3    3    0    0 -0.90808426477E+01 -0.11851087738E+02  0.65865586996E+01  0.16318478469E+02  0.51100000000E-03 0.  1.
         12    1    3    3    0    0 -0.40766176842E+01 -0.15440051854E+01 -0.13650381648E+01  0.45679418721E+01  0.00000000000E+00 0. -1.
</event>
<event>
 7    1  0.3062695E-010  0.4778727E+02  0.7816164E-02  0.1312668E+00
        -11   -1    0    0    0    0  0.00000000000E+00  0.00000000000E+00  0.45593999997E+02  0.45594000000E+02  0.51100000000E-03 0.  1.
         11   -1    0    0    0    0 -0.00000000000E+00 -0.00000000000E+00 -0.45593999997E+02  0.45594000000E+02  0.51100000000E-03 0. -1.
    9900012    2    1    2    0    0  0.27882980918E+02 -0.36619175805E+00 -0.33257007029E+02  0.47787271460E+02  0.20000001895E+02 0.  0.
        -12    1    1    2    0    0 -0.27882980918E+02  0.36619175805E+00  0.33257007029E+02  0.43400728540E+02  0.00000000000E+00 0.  1.
         11    1    3    3    0    0  0.20339145735E+02 -0.23832999106E+01 -0.23857277652E+02  0.31440907507E+02  0.51100000000E-03 0. -1.
        -11    1    3    3    0    0 -0.24833152697E+01  0.19497269975E+01 -0.34936788839E+01  0.47089364509E+01  0.51100000000E-03 0.  1.
        -12    1    3    3    0    0  0.10027150453E+02  0.67381155031E-01 -0.59060504931E+01  0.11637427502E+02  0.00000000000E+00 0.  1.
</event>
<event>
 7    1  0.3062695E-010  0.4778728E+02  0.7816164E-02  0.1312668E+00
        -11   -1    0    0    0    0  0.00000000000E+00  0.00000000000E+00  0.45593999997E+02  0.45594000000E+02  0.51100000000E-03 0.  1.
         11   -1    0    0    0    0 -0.00000000000E+00 -0.00000000000E+00 -0.45593999997E+02  0.45594000000E+02  0.51100000000E-03 0. -1.
    9900012    2    1    2    0    0 -0.41711318829E+02 -0.11280901359E+02 -0.40656678299E+01  0.47787279858E+02  0.20000040184E+02 0.  0.
        -12    1    1    2    0    0  0.41711318829E+02  0.11280901359E+02  0.40656678299E+01  0.43400720142E+02  0.00000000000E+00 0.  1.
         11    1    3    3    0    0 -0.19311751026E+02  0.19331768271E+01  0.17311170516E+01  0.19485319264E+02  0.51100000000E-03 0. -1.
        -11    1    3    3    0    0 -0.17836868768E+01  0.12890321103E+01 -0.16643796364E+01  0.27592213560E+01  0.51100000000E-03 0.  1.
         12    1    3    3    0    0 -0.20615880926E+02 -0.14503110297E+02 -0.41324052450E+01  0.25542739238E+02  0.00000000000E+00 0. -1.
</event>
<event>
 7    1  0.3062695E-010  0.4778727E+02  0.7816164E-02  0.1312668E+00
        -11   -1    0    0    0    0  0.00000000000E+00  0.00000000000E+00  0.45593999997E+02  0.45594000000E+02  0.51100000000E-03 0. -1.
         11   -1    0    0    0    0 -0.00000000000E+00 -0.00000000000E+00 -0.45593999997E+02  0.45594000000E+02  0.51100000000E-03 0.  1.
    9900012    2    1    2    0    0  0.90745500293E+01  0.35147088433E+02  0.23789872394E+02  0.47787270604E+02  0.19999997992E+02 0.  0.
        -12    1    1    2    0    0 -0.90745500293E+01 -0.35147088433E+02 -0.23789872394E+02  0.43400729396E+02  0.00000000000E+00 0.  1.
         11    1    3    3    0    0  0.33114303891E+01  0.26249559532E+02  0.22416974948E+02  0.34677452515E+02  0.51100000000E-03 0. -1.
        -11    1    3    3    0    0  0.48199059762E+01  0.62169377727E+01 -0.25467229626E+01  0.82684706565E+01  0.51100000000E-03 0.  1.
        -12    1    3    3    0    0  0.94321366397E+00  0.26805911290E+01  0.39196204083E+01  0.48413474325E+01  0.00000000000E+00 0.  1.
</event>
<event>
 7    1  0.3062695E-010  0.4778728E+02  0.7816164E-02  0.1312668E+00
        -11   -1    0    0    0    0  0.00000000000E+00  0.00000000000E+00  0.45593999997E+02  0.45594000000E+02  0.51100000000E-03 0. -1.
         11   -1    0    0    0    0 -0.00000000000E+00 -0.00000000000E+00 -0.45593999997E+02  0.45594000000E+02  0.51100000000E-03 0.  1.
    9900012    2    1    2    0    0 -0.37364178237E+02 -0.12245841638E+02  0.18373361055E+02  0.47787275937E+02  0.20000022306E+02 0.  0.
        -12    1    1    2    0    0  0.37364178237E+02  0.12245841638E+02 -0.18373361055E+02  0.43400724063E+02  0.00000000000E+00 0.  1.
         11    1    3    3    0    0 -0.63751928019E+01 -0.28439068336E+01  0.27802906160E+01  0.75140472124E+01  0.51100000000E-03 0. -1.
        -11    1    3    3    0    0 -0.16452272548E+01 -0.75198315374E+01  0.25828384474E+01  0.81194638849E+01  0.51100000000E-03 0.  1.
        -12    1    3    3    0    0 -0.29343758181E+02 -0.18821032665E+01  0.13010231991E+02  0.32153764839E+02  0.00000000000E+00 0.  1.
</event>
<event>
 7    1  0.3062695E-010  0.4778727E+02  0.7816164E-02  0.1312668E+00
        -11   -1    0    0    0    0  0.00000000000E+00  0.00000000000E+00  0.45593999997E+02  0.45594000000E+02  0.51100000000E-03 0.  1.
         11   -1    0    0    0    0 -0.00000000000E+00 -0.00000000000E+00 -0.45593999997E+02  0.45594000000E+02  0.51100000000E-03 0. -1.
    9900012    2    1    2    0    0 -0.11615902438E+02  0.30542615365E+02 -0.28562960029E+02  0.47787271568E+02  0.20000002388E+02 0.  0.
        -12    1    1    2    0    0  0.11615902438E+02 -0.30542615365E+02  0.28562960029E+02  0.43400728432E+02  0.00000000000E+00 0.  1.
         11    1    3    3    0    0 -0.23219672440E+01  0.17694787956E+02 -0.50284487063E+01  0.18541368594E+02  0.51100000000E-03 0. -1.
        -11    1    3    3    0    0 -0.27817036873E+01  0.28345083095E+01 -0.12003755728E+02  0.12643672907E+02  0.51100000000E-03 0.  1.
         12    1    3    3    0    0 -0.65122315066E+01  0.10013319100E+02 -0.11530755596E+02  0.16602230067E+02  0.00000000000E+00 0. -1.
</event>
<event>
 7    1  0.3062695E-010  0.4778727E+02  0.7816164E-02  0.1312668E+00
        -11   -1    0    0    0    0  0.00000000000E+00  0.00000000000E+00  0.45593999997E+02  0.45594000000E+02  0.51100000000E-03 0. -1.
         11   -1    0    0    0    0 -0.00000000000E+00 -0.00000000000E+00 -0.45593999997E+02  0.45594000000E+02  0.51100000000E-03 0.  1.
    9900012    2    1    2    0    0 -0.32678307920E+02 -0.14184630464E+02  0.24790071893E+02  0.47787271730E+02  0.20000003125E+02 0.  0.
        -12    1    1    2    0    0  0.32678307920E+02  0.14184630464E+02 -0.24790071893E+02  0.43400728270E+02  0.00000000000E+00 0.  1.
         11    1    3    3    0    0 -0.96231808576E+01 -0.13783298326E+01  0.15452598641E-01  0.97214012359E+01  0.51100000000E-03 0. -1.
        -11    1    3    3    0    0 -0.31297873281E+01 -0.27491347345E+01 -0.66997069523E+00  0.42192619616E+01  0.51100000000E-03 0.  1.
         12    1    3    3    0    0 -0.19925339734E+02 -0.10057165897E+02  0.25444589989E+02  0.33846608532E+02  0.00000000000E+00 0. -1.
</event>
<event>
 7    1  0.3062695E-010  0.4778727E+02  0.7816164E-02  0.1312668E+00
        -11   -1    0    0    0    0  0.00000000000E+00  0.00000000000E+00  0.45593999997E+02  0.45594000000E+02  0.51100000000E-03 0.  1.
         11   -1    0    0    0    0 -0.00000000000E+00 -0.00000000000E+00 -0.45593999997E+02  0.45594000000E+02  0.51100000000E-03 0. -1.
    9900012    2    1    2    0    0  0.34361125101E+02 -0.24946058390E+01 -0.26395329571E+02  0.47787269595E+02  0.19999993393E+02 0.  0.
        -12    1    1    2    0    0 -0.34361125101E+02  0.24946058390E+01  0.26395329571E+02  0.43400730405E+02  0.00000000000E+00 0.  1.
         11    1    3    3    0    0  0.13143941214E+02  0.55223116714E+01 -0.33126315026E+01  0.14636688306E+02  0.51100000000E-03 0. -1.
        -11    1    3    3    0    0  0.20820429686E+02 -0.87847904794E+01 -0.23059036317E+02  0.32285941092E+02  0.51100000000E-03 0.  1.
        -12    1    3    3    0    0  0.39675420110E+00  0.76787296900E+00 -0.23661751644E-01  0.86464019749E+00  0.00000000000E+00 0.  1.
</event>
<event>
 7    1  0.3062695E-010  0.4778727E+02  0.7816164E-02  0.1312668E+00
        -11   -1    0    0    0    0  0.00000000000E+00  0.00000000000E+00  0.45593999997E+02  0.45594000000E+02  0.51100000000E-03 0.  1.
         11   -1    0    0    0    0 -0.00000000000E+00 -0.00000000000E+00 -0.45593999997E+02  0.45594000000E+02  0.51100000000E-03 0. -1.
    9900012    2    1    2    0    0 -0.26986391863E+02  0.16491241452E+02 -0.29721998370E+02  0.47787267547E+02  0.19999984053E+02 0.  0.
        -12    1    1    2    0    0  0.26986391863E+02 -0.16491241452E+02  0.29721998370E+02  0.43400732453E+02  0.00000000000E+00 0.  1.
         11    1    3    3    0    0 -0.20594966778E+00  0.12330957671E+01 -0.37894865387E+01  0.39903820525E+01  0.51100000000E-03 0. -1.
        -11    1    3    3    0    0 -0.72159060264E+01  0.13811431234E+02 -0.13068430814E+02  0.20337374873E+02  0.51100000000E-03 0.  1.
        -12    1    3    3    0    0 -0.19564536168E+02  0.14467144502E+01 -0.12864081017E+02  0.23459510622E+02  0.00000000000E+00 0.  1.
</event>
<event>
 7    1  0.3062695E-010  0.4778728E+02  0.7816164E-02  0.1312668E+00
        -11   -1    0    0    0    0  0.00000000000E+00  0.00000000000E+00  0.45593999997E+02  0.45594000000E+02  0.51100000000E-03 0.  1.
         11   -1    0    0    0    0 -0.00000000000E+00 -0.00000000000E+00 -0.45593999997E+02  0.45594000000E+02  0.51100000000E-03 0. -1.
    9900012    2    1    2    0    0  0.25441722595E+01  0.29047787915E+02 -0.32146165351E+02  0.47787277172E+02  0.20000027939E+02 0.  0.
        -12    1    1    2    0    0 -0.25441722595E+01 -0.29047787915E+02  0.32146165351E+02  0.43400722828E+02  0.00000000000E+00 0.  1.
         11    1    3    3    0    0  0.94138359925E+01  0.16928735861E+02 -0.26236756823E+02  0.32612418107E+02  0.51100000000E-03 0. -1.
        -11    1    3    3    0    0 -0.49232372704E+01  0.85569561382E+01 -0.47363629486E+01  0.10949561535E+02  0.51100000000E-03 0.  1.
         12    1    3    3    0    0 -0.19464264627E+01  0.35620959157E+01 -0.11730455793E+01  0.42252975301E+01  0.00000000000E+00 0. -1.
</event>
<event>
 7    1  0.3062695E-010  0.4778727E+02  0.7816164E-02  0.1312668E+00
        -11   -1    0    0    0    0  0.00000000000E+00  0.00000000000E+00  0.45593999997E+02  0.45594000000E+02  0.51100000000E-03 0.  1.
         11   -1    0    0    0    0 -0.00000000000E+00 -0.00000000000E+00 -0.45593999997E+02  0.45594000000E+02  0.51100000000E-03 0. -1.
    9900012    2    1    2    0    0  0.41883312975E+02  0.14264220633E+01 -0.11286126595E+02  0.47787271444E+02  0.20000001822E+02 0.  0.
        -12    1    1    2    0    0 -0.41883312975E+02 -0.14264220633E+01  0.11286126595E+02  0.43400728556E+02  0.00000000000E+00 0.  1.
         11    1    3    3    0    0  0.10224779829E+02 -0.13877160249E+01 -0.81395682433E+01  0.13142467415E+02  0.51100000000E-03 0. -1.
        -11    1    3    3    0    0  0.68405567881E+01 -0.50482855366E+00  0.48037413300E+01  0.83740074078E+01  0.51100000000E-03 0.  1.
        -12    1    3    3    0    0  0.24817976358E+02  0.33189666419E+01 -0.79502996817E+01  0.26270796621E+02  0.00000000000E+00 0.  1.
</event>
<event>
 7    1  0.3062695E-010  0.4778727E+02  0.7816164E-02  0.1312668E+00
        -11   -1    0    0    0    0  0.00000000000E+00  0.00000000000E+00  0.45593999997E+02  0.45594000000E+02  0.51100000000E-03 0.  1.
         11   -1    0    0    0    0 -0.00000000000E+00 -0.00000000000E+00 -0.45593999997E+02  0.45594000000E+02  0.51100000000E-03 0. -1.
    9900012    2    1    2    0    0 -0.20192183343E+02  0.36534814205E+02 -0.11878832120E+02  0.47787267636E+02  0.19999984461E+02 0.  0.
        -12    1    1    2    0    0  0.20192183343E+02 -0.36534814205E+02  0.11878832120E+02  0.43400732364E+02  0.00000000000E+00 0.  1.
         11    1    3    3    0    0 -0.20493850155E+02  0.23715050276E+02 -0.13522501001E+02  0.34135898074E+02  0.51100000000E-03 0. -1.
        -11    1    3    3    0    0 -0.52144947965E+00  0.94593125485E+01  0.29968312129E+01  0.99363726294E+01  0.51100000000E-03 0.  1.
        -12    1    3    3    0    0  0.82311629176E+00  0.33604513807E+01 -0.13531623319E+01  0.37149969324E+01  0.00000000000E+00 0.  1.
</event>
<event>
 7    1  0.3062695E-010  0.4778727E+02  0.7816164E-02  0.1312668E+00
        -11   -1    0    0    0    0  0.00000000000E+00  0.00000000000E+00  0.45593999997E+02  0.45594000000E+02  0.51100000000E-03 0. -1.
         11   -1    0    0    0    0 -0.00000000000E+00 -0.00000000000E+00 -0.45593999997E+02  0.45594000000E+02  0.51100000000E-03 0.  1.
    9900012    2    1    2    0    0  0.30303032174E+02  0.26232990840E+02  0.16648728182E+02  0.47787265935E+02  0.19999976703E+02 0.  0.
        -12    1    1    2    0    0 -0.30303032174E+02 -0.26232990840E+02 -0.16648728182E+02  0.43400734065E+02  0.00000000000E+00 0.  1.
         11    1    3    3    0    0  0.28625229397E+02  0.25159221103E+02  0.16675574558E+02  0.41598857576E+02  0.51100000000E-03 0. -1.
        -11    1    3    3    0    0 -0.19467325762E+01 -0.10214778052E+00 -0.10885553266E+01  0.22327460340E+01  0.51100000000E-03 0.  1.
        -12    1    3    3    0    0  0.36245353529E+01  0.11759175173E+01  0.10617089508E+01  0.39556623249E+01  0.00000000000E+00 0.  1.
</event>
<event>
 7    1  0.3062695E-010  0.4778727E+02  0.7816164E-02  0.1312668E+00
        -11   -1    0    0    0    0  0.00000000000E+00  0.00000000000E+00  0.45593999997E+02  0.45594000000E+02  0.51100000000E-03 0. -1.
         11   -1    0    0    0    0 -0.00000000000E+00 -0.00000000000E+00 -0.45593999997E+02  0.45594000000E+02  0.51100000000E-03 0.  1.
    9900012    2    1    2    0    0  0.32266084246E+02 -0.17991541719E+02  0.22777781668E+02  0.47787273005E+02  0.20000008939E+02 0.  0.
        -12    1    1    2    0    0 -0.32266084246E+02  0.17991541719E+02 -0.22777781668E+02  0.43400726995E+02  0.00000000000E+00 0.  1.
         11    1    3    3    0    0  0.62423327685E+01  0.28809190984E+01  0.32768373572E+01  0.76160407412E+01  0.51100000000E-03 0. -1.
        -11    1    3    3    0    0  0.16123440862E+02 -0.19019943936E+02  0.15327483700E+02  0.29268675566E+02  0.51100000000E-03 0.  1.
        -12    1    3    3    0    0  0.99003106160E+01 -0.18525168818E+01  0.41734606102E+01  0.10902556698E+02  0.00000000000E+00 0.  1.
</event>
<event>
 7    1  0.3062695E-010  0.4778727E+02  0.7816164E-02  0.1312668E+00
        -11   -1    0    0    0    0  0.00000000000E+00  0.00000000000E+00  0.45593999997E+02  0.45594000000E+02  0.51100000000E-03 0.  1.
         11   -1    0    0    0    0 -0.00000000000E+00 -0.00000000000E+00 -0.45593999997E+02  0.45594000000E+02  0.51100000000E-03 0. -1.
    9900012    2    1    2    0    0 -0.24819503771E+02  0.21100085292E+00 -0.35602963993E+02  0.47787270354E+02  0.19999996851E+02 0.  0.
        -12    1    1    2    0    0  0.24819503771E+02 -0.21100085292E+00  0.35602963993E+02  0.43400729646E+02  0.00000000000E+00 0.  1.
         11    1    3    3    0    0 -0.12524777604E+02  0.96225717435E+01 -0.15072404025E+02  0.21832116350E+02  0.51100000000E-03 0. -1.
        -11    1    3    3    0    0 -0.10827225884E+02 -0.82010412198E+01 -0.15679713295E+02  0.20744621151E+02  0.51100000000E-03 0.  1.
        -12    1    3    3    0    0 -0.14675002832E+01 -0.12105296708E+01 -0.48508466723E+01  0.52105328521E+01  0.00000000000E+00 0.  1.
</event>
<event>
 7    1  0.3062695E-010  0.4778727E+02  0.7816164E-02  0.1312668E+00
        -11   -1    0    0    0    0  0.00000000000E+00  0.00000000000E+00  0.45593999997E+02  0.45594000000E+02  0.51100000000E-03 0. -1.
         11   -1    0    0    0    0 -0.00000000000E+00 -0.00000000000E+00 -0.45593999997E+02  0.45594000000E+02  0.51100000000E-03 0.  1.
    9900012    2    1    2    0    0 -0.27275395642E+02 -0.77219956793E+01  0.32864066477E+02  0.47787270858E+02  0.19999999148E+02 0.  0.
        -12    1    1    2    0    0  0.27275395642E+02  0.77219956793E+01 -0.32864066477E+02  0.43400729142E+02  0.00000000000E+00 0.  1.
         11    1    3    3    0    0 -0.22941767688E+02 -0.15368948847E+01  0.22930717761E+02  0.32473136095E+02  0.51100000000E-03 0. -1.
        -11    1    3    3    0    0  0.56980833153E-01  0.14191226940E+01 -0.65042717284E+00  0.15621177306E+01  0.51100000000E-03 0.  1.
         12    1    3    3    0    0 -0.43906087874E+01 -0.76042234887E+01  0.10583775889E+02  0.13752017032E+02  0.00000000000E+00 0. -1.
</event>
<event>
 7    1  0.3062695E-010  0.4778726E+02  0.7816164E-02  0.1312668E+00
        -11   -1    0    0    0    0  0.00000000000E+00  0.00000000000E+00  0.45593999997E+02  0.45594000000E+02  0.51100000000E-03 0.  1.
         11   -1    0    0    0    0 -0.00000000000E+00 -0.00000000000E+00 -0.45593999997E+02  0.45594000000E+02  0.51100000000E-03 0. -1.
    9900012    2    1    2    0    0  0.57084491925E+01  0.17051118094E+02 -0.39500593404E+02  0.47787263835E+02  0.19999967129E+02 0.  0.
        -12    1    1    2    0    0 -0.57084491925E+01 -0.17051118094E+02  0.39500593404E+02  0.43400736165E+02  0.00000000000E+00 0.  1.
         11    1    3    3    0    0  0.94032223533E+00  0.29908112377E+01 -0.17449684079E+02  0.17729090007E+02  0.51100000000E-03 0. -1.
        -11    1    3    3    0    0  0.97890608497E+01  0.92830153070E+01 -0.14894298553E+02  0.20095776053E+02  0.51100000000E-03 0.  1.
        -12    1    3    3    0    0 -0.50209338926E+01  0.47772915490E+01 -0.71566107720E+01  0.99623977757E+01  0.00000000000E+00 0.  1.
</event>
<event>
 7    1  0.3062695E-010  0.4778727E+02  0.7816164E-02  0.1312668E+00
        -11   -1    0    0    0    0  0.00000000000E+00  0.00000000000E+00  0.45593999997E+02  0.45594000000E+02  0.51100000000E-03 0.  1.
         11   -1    0    0    0    0 -0.00000000000E+00 -0.00000000000E+00 -0.45593999997E+02  0.45594000000E+02  0.51100000000E-03 0. -1.
    9900012    2    1    2    0    0 -0.11635585906E+02 -0.34864791239E+02 -0.23079916901E+02  0.47787273144E+02  0.20000009571E+02 0.  0.
        -12    1    1    2    0    0  0.11635585906E+02  0.34864791239E+02  0.23079916901E+02  0.43400726856E+02  0.00000000000E+00 0.  1.
         11    1    3    3    0    0  0.75746280465E+00 -0.80860148994E+01 -0.14041516782E+02  0.16221022799E+02  0.51100000000E-03 0. -1.
        -11    1    3    3    0    0 -0.11783746576E+02 -0.18616788702E+02 -0.59920404780E+01  0.22833003620E+02  0.51100000000E-03 0.  1.
         12    1    3    3    0    0 -0.60930213455E+00 -0.81619876380E+01 -0.30463596404E+01  0.87332467246E+01  0.00000000000E+00 0. -1.
</event>
<event>
 7    1  0.3062695E-010  0.4778727E+02  0.7816164E-02  0.1312668E+00
        -11   -1    0    0    0    0  0.00000000000E+00  0.00000000000E+00  0.45593999997E+02  0.45594000000E+02  0.51100000000E-03 0.  1.
         11   -1    0    0    0    0 -0.00000000000E+00 -0.00000000000E+00 -0.45593999997E+02  0.45594000000E+02  0.51100000000E-03 0. -1.
    9900012    2    1    2    0    0  0.36661322694E+02  0.12363876018E+01 -0.23195732851E+02  0.47787271222E+02  0.20000000811E+02 0.  0.
        -12    1    1    2    0    0 -0.36661322694E+02 -0.12363876018E+01  0.23195732851E+02  0.43400728778E+02  0.00000000000E+00 0.  1.
         11    1    3    3    0    0  0.20963447821E+01 -0.35707289339E+01 -0.54955838046E+01  0.68808580990E+01  0.51100000000E-03 0. -1.
        -11    1    3    3    0    0  0.18568300008E+02  0.84451204355E+01 -0.85104291960E+01  0.22102697340E+02  0.51100000000E-03 0.  1.
        -12    1    3    3    0    0  0.15996677904E+02 -0.36380038999E+01 -0.91897198502E+01  0.18803715783E+02  0.00000000000E+00 0.  1.
</event>
<event>
 7    1  0.3062695E-010  0.4778728E+02  0.7816164E-02  0.1312668E+00
        -11   -1    0    0    0    0  0.00000000000E+00  0.00000000000E+00  0.45593999997E+02  0.45594000000E+02  0.51100000000E-03 0.  1.
         11   -1    0    0    0    0 -0.00000000000E+00 -0.00000000000E+00 -0.45593999997E+02  0.45594000000E+02  0.51100000000E-03 0. -1.
    9900012    2    1    2    0    0  0.15921805209E+02  0.29177721762E+01 -0.40269163309E+02  0.47787276628E+02  0.20000025457E+02 0.  0.
        -12    1    1    2    0    0 -0.15921805209E+02 -0.29177721762E+01  0.40269163309E+02  0.43400723372E+02  0.00000000000E+00 0.  1.
         11    1    3    3    0    0  0.56406178031E+00  0.26985590510E+01 -0.37691188029E+01  0.46697583937E+01  0.51100000000E-03 0. -1.
        -11    1    3    3    0    0  0.40501654682E+01 -0.37965086575E+01 -0.99527964454E+00  0.56398493010E+01  0.51100000000E-03 0.  1.
        -12    1    3    3    0    0  0.11307577961E+02  0.40157217826E+01 -0.35504764862E+02  0.37477668933E+02  0.00000000000E+00 0.  1.
</event>
<event>
 7    1  0.3062695E-010  0.4778727E+02  0.7816164E-02  0.1312668E+00
        -11   -1    0    0    0    0  0.00000000000E+00  0.00000000000E+00  0.45593999997E+02  0.45594000000E+02  0.51100000000E-03 0. -1.
         11   -1    0    0    0    0 -0.00000000000E+00 -0.00000000000E+00 -0.45593999997E+02  0.45594000000E+02  0.51100000000E-03 0.  1.
    9900012    2    1    2    0    0 -0.12812778183E+02 -0.13655424986E+02  0.39153362765E+02  0.47787265765E+02  0.19999975929E+02 0.  0.
        -12    1    1    2    0    0  0.12812778183E+02  0.13655424986E+02 -0.39153362765E+02  0.43400734235E+02  0.00000000000E+00 0.  1.
         11    1    3    3    0    0 -0.51491082911E+01 -0.16977403083E+01  0.27645708750E+02  0.28172341949E+02  0.51100000000E-03 0. -1.
        -11    1    3    3    0    0 -0.52986831924E+01 -0.12189670334E+02  0.10826620859E+02  0.17142923494E+02  0.51100000000E-03 0.  1.
         12    1    3    3    0    0 -0.23649866996E+01  0.23198565605E+00  0.68103315678E+00  0.24720003225E+01  0.00000000000E+00 0. -1.
</event>
<event>
 7    1  0.3062695E-010  0.4778727E+02  0.7816164E-02  0.1312668E+00
        -11   -1    0    0    0    0  0.00000000000E+00  0.00000000000E+00  0.45593999997E+02  0.45594000000E+02  0.51100000000E-03 0.  1.
         11   -1    0    0    0    0 -0.00000000000E+00 -0.00000000000E+00 -0.45593999997E+02  0.45594000000E+02  0.51100000000E-03 0. -1.
    9900012    2    1    2    0    0  0.29318241736E+02  0.31614852071E+02  0.49563200333E+01  0.47787270994E+02  0.19999999771E+02 0.  0.
        -12    1    1    2    0    0 -0.29318241736E+02 -0.31614852071E+02 -0.49563200333E+01  0.43400729006E+02  0.00000000000E+00 0.  1.
         11    1    3    3    0    0  0.12851353886E+02  0.82500071550E+01 -0.55311277712E+01  0.16242330173E+02  0.51100000000E-03 0. -1.
        -11    1    3    3    0    0  0.11362084325E+02  0.14620778388E+02  0.10760467766E+02  0.21416157165E+02  0.51100000000E-03 0.  1.
        -12    1    3    3    0    0  0.51048035250E+01  0.87440665274E+01 -0.27301996161E+00  0.10128783657E+02  0.00000000000E+00 0.  1.
</event>
<event>
 7    1  0.3062695E-010  0.4778727E+02  0.7816164E-02  0.1312668E+00
        -11   -1    0    0    0    0  0.00000000000E+00  0.00000000000E+00  0.45593999997E+02  0.45594000000E+02  0.51100000000E-03 0. -1.
         11   -1    0    0    0    0 -0.00000000000E+00 -0.00000000000E+00 -0.45593999997E+02  0.45594000000E+02  0.51100000000E-03 0.  1.
    9900012    2    1    2    0    0  0.26083518269E+02  0.13253044328E+02  0.32056668211E+02  0.47787273209E+02  0.20000009868E+02 0.  0.
        -12    1    1    2    0    0 -0.26083518269E+02 -0.13253044328E+02 -0.32056668211E+02  0.43400726791E+02  0.00000000000E+00 0.  1.
         11    1    3    3    0    0  0.66772919171E+01  0.63935074655E+00 -0.23620178314E+00  0.67119883989E+01  0.51100000000E-03 0.  1.
        -11    1    3    3    0    0  0.27316353292E+01  0.68490199760E+01  0.12892953216E+02  0.14852580554E+02  0.51100000000E-03 0. -1.
         12    1    3    3    0    0  0.16674591022E+02  0.57646736054E+01  0.19399916778E+02  0.26222704256E+02  0.00000000000E+00 0. -1.
</event>
<event>
 7    1  0.3062695E-010  0.4778727E+02  0.7816164E-02  0.1312668E+00
        -11   -1    0    0    0    0  0.00000000000E+00  0.00000000000E+00  0.45593999997E+02  0.45594000000E+02  0.51100000000E-03 0.  1.
         11   -1    0    0    0    0 -0.00000000000E+00 -0.00000000000E+00 -0.45593999997E+02  0.45594000000E+02  0.51100000000E-03 0. -1.
    9900012    2    1    2    0    0 -0.30849705141E+01 -0.34512643323E+02 -0.26133964832E+02  0.47787266019E+02  0.19999977088E+02 0.  0.
        -12    1    1    2    0    0  0.30849705141E+01  0.34512643323E+02  0.26133964832E+02  0.43400733981E+02  0.00000000000E+00 0.  1.
         11    1    3    3    0    0  0.55135541193E+01 -0.24059062042E+01 -0.46520064124E+01  0.76045267842E+01  0.51100000000E-03 0. -1.
        -11    1    3    3    0    0 -0.64916530658E+01 -0.16761826329E+02 -0.81084497455E+01  0.19719212432E+02  0.51100000000E-03 0.  1.
         12    1    3    3    0    0 -0.21068715676E+01 -0.15344910790E+02 -0.13373508674E+02  0.20463526803E+02  0.00000000000E+00 0. -1.
</event>
<event>
 7    1  0.3062695E-010  0.4778727E+02  0.7816164E-02  0.1312668E+00
        -11   -1    0    0    0    0  0.00000000000E+00  0.00000000000E+00  0.45593999997E+02  0.45594000000E+02  0.51100000000E-03 0. -1.
         11   -1    0    0    0    0 -0.00000000000E+00 -0.00000000000E+00 -0.45593999997E+02  0.45594000000E+02  0.51100000000E-03 0.  1.
    9900012    2    1    2    0    0 -0.40056693767E+02  0.14388121636E+02  0.84891963945E+01  0.47787271721E+02  0.20000003084E+02 0.  0.
        -12    1    1    2    0    0  0.40056693767E+02 -0.14388121636E+02 -0.84891963945E+01  0.43400728279E+02  0.00000000000E+00 0.  1.
         11    1    3    3    0    0 -0.18001212721E+02  0.10177356996E+02 -0.36255356756E+01  0.20994446029E+02  0.51100000000E-03 0. -1.
        -11    1    3    3    0    0  0.54406373318E+00 -0.56849455217E+00  0.55133140808E+00  0.96081110748E+00  0.51100000000E-03 0.  1.
         12    1    3    3    0    0 -0.22599544779E+02  0.47792591923E+01  0.11563400662E+02  0.25832014584E+02  0.00000000000E+00 0. -1.
</event>
<event>
 7    1  0.3062695E-010  0.4778727E+02  0.7816164E-02  0.1312668E+00
        -11   -1    0    0    0    0  0.00000000000E+00  0.00000000000E+00  0.45593999997E+02  0.45594000000E+02  0.51100000000E-03 0.  1.
         11   -1    0    0    0    0 -0.00000000000E+00 -0.00000000000E+00 -0.45593999997E+02  0.45594000000E+02  0.51100000000E-03 0. -1.
    9900012    2    1    2    0    0 -0.25405022134E+02  0.34748132220E+02 -0.55475306584E+01  0.47787274905E+02  0.20000017600E+02 0.  0.
        -12    1    1    2    0    0  0.25405022134E+02 -0.34748132220E+02  0.55475306584E+01  0.43400725095E+02  0.00000000000E+00 0.  1.
         11    1    3    3    0    0 -0.55331993473E+00 -0.81721204456E+00 -0.29762455844E+01  0.31356078383E+01  0.51100000000E-03 0. -1.
        -11    1    3    3    0    0 -0.25457175716E+00  0.21275327543E+01  0.19482889000E+01  0.28960373442E+01  0.51100000000E-03 0.  1.
         12    1    3    3    0    0 -0.24597130443E+02  0.33437811510E+02 -0.45195739740E+01  0.41755629722E+02  0.00000000000E+00 0. -1.
</event>
<event>
 7    1  0.3062695E-010  0.4778727E+02  0.7816164E-02  0.1312668E+00
        -11   -1    0    0    0    0  0.00000000000E+00  0.00000000000E+00  0.45593999997E+02  0.45594000000E+02  0.51100000000E-03 0.  1.
         11   -1    0    0    0    0 -0.00000000000E+00 -0.00000000000E+00 -0.45593999997E+02  0.45594000000E+02  0.51100000000E-03 0. -1.
    9900012    2    1    2    0    0  0.10307554948E+02  0.41403343684E+02 -0.79461036776E+01  0.47787272807E+02  0.20000008035E+02 0.  0.
        -12    1    1    2    0    0 -0.10307554948E+02 -0.41403343684E+02  0.79461036776E+01  0.43400727193E+02  0.00000000000E+00 0.  1.
         11    1    3    3    0    0  0.71514796139E+00  0.15556448006E+02 -0.89142237215E+01  0.17943742530E+02  0.51100000000E-03 0. -1.
        -11    1    3    3    0    0  0.79331427708E+00  0.62578197436E+01 -0.44212295822E+01  0.77030465898E+01  0.51100000000E-03 0.  1.
         12    1    3    3    0    0  0.87990927098E+01  0.19589075935E+02  0.53893496261E+01  0.22140483687E+02  0.00000000000E+00 0. -1.
</event>
<event>
 7    1  0.3062695E-010  0.4778726E+02  0.7816164E-02  0.1312668E+00
        -11   -1    0    0    0    0  0.00000000000E+00  0.00000000000E+00  0.45593999997E+02  0.45594000000E+02  0.51100000000E-03 0.  1.
         11   -1    0    0    0    0 -0.00000000000E+00 -0.00000000000E+00 -0.45593999997E+02  0.45594000000E+02  0.51100000000E-03 0. -1.
    9900012    2    1    2    0    0 -0.17625764209E+02  0.17047823976E+02 -0.35809609192E+02  0.47787262947E+02  0.19999963079E+02 0.  0.
        -12    1    1    2    0    0  0.17625764209E+02 -0.17047823976E+02  0.35809609192E+02  0.43400737053E+02  0.00000000000E+00 0.  1.
         11    1    3    3    0    0 -0.97495594911E+01  0.14580253840E+01 -0.12459436547E+02  0.15887646384E+02  0.51100000000E-03 0. -1.
        -11    1    3    3    0    0 -0.74050239680E+01  0.16201997646E+02 -0.14373223280E+02  0.22889487880E+02  0.51100000000E-03 0.  1.
        -12    1    3    3    0    0 -0.47118074988E+00 -0.61219905399E+00 -0.89769493645E+01  0.90101286825E+01  0.00000000000E+00 0.  1.
</event>
<event>
 7    1  0.3062695E-010  0.4778727E+02  0.7816164E-02  0.1312668E+00
        -11   -1    0    0    0    0  0.00000000000E+00  0.00000000000E+00  0.45593999997E+02  0.45594000000E+02  0.51100000000E-03 0.  1.
         11   -1    0    0    0    0 -0.00000000000E+00 -0.00000000000E+00 -0.45593999997E+02  0.45594000000E+02  0.51100000000E-03 0. -1.
    9900012    2    1    2    0    0 -0.15894051186E+02  0.35777110630E+02 -0.18735017010E+02  0.47787269932E+02  0.19999994926E+02 0.  0.
        -12    1    1    2    0    0  0.15894051186E+02 -0.35777110630E+02  0.18735017010E+02  0.43400730068E+02  0.00000000000E+00 0.  1.
         11    1    3    3    0    0 -0.73039896805E+01  0.74414009192E+01 -0.92405691207E+01  0.13932366304E+02  0.51100000000E-03 0. -1.
        -11    1    3    3    0    0 -0.32109197490E+01  0.26555178633E+02 -0.69073484938E+01  0.27626056203E+02  0.51100000000E-03 0.  1.
         12    1    3    3    0    0 -0.53791417566E+01  0.17805310777E+01 -0.25870993953E+01  0.62288474244E+01  0.00000000000E+00 0. -1.
</event>
<event>
 7    1  0.3062695E-010  0.4778727E+02  0.7816164E-02  0.1312668E+00
        -11   -1    0    0    0    0  0.00000000000E+00  0.00000000000E+00  0.45593999997E+02  0.45594000000E+02  0.51100000000E-03 0.  1.
         11   -1    0    0    0    0 -0.00000000000E+00 -0.00000000000E+00 -0.45593999997E+02  0.45594000000E+02  0.51100000000E-03 0. -1.
    9900012    2    1    2    0    0 -0.23912972882E+02 -0.12631138495E+02 -0.33944768632E+02  0.47787271329E+02  0.20000001296E+02 0.  0.
        -12    1    1    2    0    0  0.23912972882E+02  0.12631138495E+02  0.33944768632E+02  0.43400728671E+02  0.00000000000E+00 0.  1.
         11    1    3    3    0    0 -0.14157987909E+02 -0.16204176459E+01 -0.13064427829E+02  0.19332709322E+02  0.51100000000E-03 0. -1.
        -11    1    3    3    0    0 -0.50180746289E+01 -0.12270448732E+02 -0.10279439078E+02  0.16775334663E+02  0.51100000000E-03 0.  1.
        -12    1    3    3    0    0 -0.47369103438E+01  0.12597278824E+01 -0.10600901725E+02  0.11679227343E+02  0.00000000000E+00 0.  1.
</event>
<event>
 7    1  0.3062695E-010  0.4778727E+02  0.7816164E-02  0.1312668E+00
        -11   -1    0    0    0    0  0.00000000000E+00  0.00000000000E+00  0.45593999997E+02  0.45594000000E+02  0.51100000000E-03 0.  1.
         11   -1    0    0    0    0 -0.00000000000E+00 -0.00000000000E+00 -0.45593999997E+02  0.45594000000E+02  0.51100000000E-03 0. -1.
    9900012    2    1    2    0    0  0.21260960194E+02  0.96974585862E+01 -0.36572591662E+02  0.47787267377E+02  0.19999983277E+02 0.  0.
        -12    1    1    2    0    0 -0.21260960194E+02 -0.96974585862E+01  0.36572591662E+02  0.43400732623E+02  0.00000000000E+00 0.  1.
         11    1    3    3    0    0  0.10872384070E+02  0.67883961993E+01 -0.34305239653E+02  0.36621585523E+02  0.51100000000E-03 0. -1.
        -11    1    3    3    0    0  0.33657812029E+01  0.96378897486E+00  0.10319460917E+00  0.35025735799E+01  0.51100000000E-03 0.  1.
         12    1    3    3    0    0  0.70227949209E+01  0.19452734120E+01 -0.23705466180E+01  0.76631082738E+01  0.00000000000E+00 0. -1.
</event>
<event>
 7    1  0.3062695E-010  0.4778727E+02  0.7816164E-02  0.1312668E+00
        -11   -1    0    0    0    0  0.00000000000E+00  0.00000000000E+00  0.45593999997E+02  0.45594000000E+02  0.51100000000E-03 0.  1.
         11   -1    0    0    0    0 -0.00000000000E+00 -0.00000000000E+00 -0.45593999997E+02  0.45594000000E+02  0.51100000000E-03 0. -1.
    9900012    2    1    2    0    0  0.28473511082E+02  0.49066037394E+01 -0.32385300493E+02  0.47787270955E+02  0.19999999593E+02 0.  0.
        -12    1    1    2    0    0 -0.28473511082E+02 -0.49066037394E+01  0.32385300493E+02  0.43400729045E+02  0.00000000000E+00 0.  1.
         11    1    3    3    0    0  0.86475239940E+01  0.90129837607E+00 -0.49256826454E+01  0.99927153354E+01  0.51100000000E-03 0. -1.
        -11    1    3    3    0    0  0.31277952867E+00 -0.28271554502E+01  0.63315424374E+00  0.29140218823E+01  0.51100000000E-03 0.  1.
        -12    1    3    3    0    0  0.19513207559E+02  0.68324608135E+01 -0.28092772091E+02  0.34880533737E+02  0.00000000000E+00 0.  1.
</event>
<event>
 7    1  0.3062695E-010  0.4778727E+02  0.7816164E-02  0.1312668E+00
        -11   -1    0    0    0    0  0.00000000000E+00  0.00000000000E+00  0.45593999997E+02  0.45594000000E+02  0.51100000000E-03 0. -1.
         11   -1    0    0    0    0 -0.00000000000E+00 -0.00000000000E+00 -0.45593999997E+02  0.45594000000E+02  0.51100000000E-03 0.  1.
    9900012    2    1    2    0    0  0.40499953638E+02  0.14306311765E+02  0.62214427170E+01  0.47787272466E+02  0.20000006481E+02 0.  0.
        -12    1    1    2    0    0 -0.40499953638E+02 -0.14306311765E+02 -0.62214427170E+01  0.43400727534E+02  0.00000000000E+00 0.  1.
         11    1    3    3    0    0  0.16294629777E+02  0.79060027112E+01  0.20989484471E+01  0.18232537488E+02  0.51100000000E-03 0. -1.
        -11    1    3    3    0    0  0.99519173293E+01 -0.28651991139E+01  0.67369290555E+01  0.12354603913E+02  0.51100000000E-03 0.  1.
        -12    1    3    3    0    0  0.14253406532E+02  0.92655081674E+01 -0.26144347856E+01  0.17200131064E+02  0.00000000000E+00 0.  1.
</event>
<event>
 7    1  0.3062695E-010  0.4778727E+02  0.7816164E-02  0.1312668E+00
        -11   -1    0    0    0    0  0.00000000000E+00  0.00000000000E+00  0.45593999997E+02  0.45594000000E+02  0.51100000000E-03 0.  1.
         11   -1    0    0    0    0 -0.00000000000E+00 -0.00000000000E+00 -0.45593999997E+02  0.45594000000E+02  0.51100000000E-03 0. -1.
    9900012    2    1    2    0    0 -0.30340890837E+02 -0.45220349406E+01 -0.30701876902E+02  0.47787266111E+02  0.19999977506E+02 0.  0.
        -12    1    1    2    0    0  0.30340890837E+02  0.45220349406E+01  0.30701876902E+02  0.43400733889E+02  0.00000000000E+00 0.  1.
         11    1    3    3    0    0 -0.48759705715E+01 -0.49090653365E+01 -0.13930362135E+02  0.15554067023E+02  0.51100000000E-03 0. -1.
        -11    1    3    3    0    0 -0.15163335196E+02  0.50044770991E+01 -0.75807834611E+01  0.17675966832E+02  0.51100000000E-03 0.  1.
         12    1    3    3    0    0 -0.10301585069E+02 -0.46174467033E+01 -0.91907313063E+01  0.14557232256E+02  0.00000000000E+00 0. -1.
</event>
<event>
 7    1  0.3062695E-010  0.4778729E+02  0.7816164E-02  0.1312668E+00
        -11   -1    0    0    0    0  0.00000000000E+00  0.00000000000E+00  0.45593999997E+02  0.45594000000E+02  0.51100000000E-03 0. -1.
         11   -1    0    0    0    0 -0.00000000000E+00 -0.00000000000E+00 -0.45593999997E+02  0.45594000000E+02  0.51100000000E-03 0.  1.
    9900012    2    1    2    0    0  0.35816029200E+02 -0.21069814272E+02  0.12525834339E+02  0.47787290939E+02  0.20000090707E+02 0.  0.
        -12    1    1    2    0    0 -0.35816029200E+02  0.21069814272E+02 -0.12525834339E+02  0.43400709061E+02  0.00000000000E+00 0.  1.
         11    1    3    3    0    0  0.11622108815E+02 -0.64304106575E+01 -0.98543887704E+00  0.13318959591E+02  0.51100000000E-03 0. -1.
        -11    1    3    3    0    0  0.56446626686E+01 -0.74200926416E+01  0.10978802207E+02  0.14403266630E+02  0.51100000000E-03 0.  1.
        -12    1    3    3    0    0  0.18549257716E+02 -0.72193109726E+01  0.25324710093E+01  0.20065064718E+02  0.00000000000E+00 0.  1.
</event>
<event>
 7    1  0.3062695E-010  0.4778727E+02  0.7816164E-02  0.1312668E+00
        -11   -1    0    0    0    0  0.00000000000E+00  0.00000000000E+00  0.45593999997E+02  0.45594000000E+02  0.51100000000E-03 0.  1.
         11   -1    0    0    0    0 -0.00000000000E+00 -0.00000000000E+00 -0.45593999997E+02  0.45594000000E+02  0.51100000000E-03 0. -1.
    9900012    2    1    2    0    0  0.16469149615E+02 -0.32108034601E+02 -0.24113577747E+02  0.47787269514E+02  0.19999993022E+02 0.  0.
        -12    1    1    2    0    0 -0.16469149615E+02  0.32108034601E+02  0.24113577747E+02  0.43400730486E+02  0.00000000000E+00 0.  1.
         11    1    3    3    0    0  0.15231381775E+02 -0.18024156859E+02 -0.90493000051E+01  0.25273603860E+02  0.51100000000E-03 0.  1.
        -11    1    3    3    0    0  0.20774404869E+01 -0.80240131614E+01 -0.14049611490E+02  0.16312330596E+02  0.51100000000E-03 0. -1.
        -12    1    3    3    0    0 -0.83967264752E+00 -0.60598645806E+01 -0.10146662521E+01  0.62013350573E+01  0.00000000000E+00 0.  1.
</event>
<event>
 7    1  0.3062695E-010  0.4778727E+02  0.7816164E-02  0.1312668E+00
        -11   -1    0    0    0    0  0.00000000000E+00  0.00000000000E+00  0.45593999997E+02  0.45594000000E+02  0.51100000000E-03 0. -1.
         11   -1    0    0    0    0 -0.00000000000E+00 -0.00000000000E+00 -0.45593999997E+02  0.45594000000E+02  0.51100000000E-03 0.  1.
    9900012    2    1    2    0    0  0.37413871384E+02 -0.68262888392E+01  0.20909972943E+02  0.47787274664E+02  0.20000016501E+02 0.  0.
        -12    1    1    2    0    0 -0.37413871384E+02  0.68262888392E+01 -0.20909972943E+02  0.43400725336E+02  0.00000000000E+00 0.  1.
         11    1    3    3    0    0  0.28825804456E+02 -0.98849061554E+01  0.85035910092E+01  0.31637784887E+02  0.51100000000E-03 0. -1.
        -11    1    3    3    0    0  0.18551134247E+01  0.28281751474E+01  0.57984752464E+01  0.67128485702E+01  0.51100000000E-03 0.  1.
         12    1    3    3    0    0  0.67329535029E+01  0.23044216877E+00  0.66079066879E+01  0.94366412066E+01  0.00000000000E+00 0. -1.
</event>
<event>
 7    1  0.3062695E-010  0.4778727E+02  0.7816164E-02  0.1312668E+00
        -11   -1    0    0    0    0  0.00000000000E+00  0.00000000000E+00  0.45593999997E+02  0.45594000000E+02  0.51100000000E-03 0.  1.
         11   -1    0    0    0    0 -0.00000000000E+00 -0.00000000000E+00 -0.45593999997E+02  0.45594000000E+02  0.51100000000E-03 0. -1.
    9900012    2    1    2    0    0  0.28849310617E+02 -0.11205609603E+02 -0.30426543748E+02  0.47787274498E+02  0.20000015747E+02 0.  0.
        -12    1    1    2    0    0 -0.28849310617E+02  0.11205609603E+02  0.30426543748E+02  0.43400725502E+02  0.00000000000E+00 0.  1.
         11    1    3    3    0    0  0.67579620927E+01 -0.10521655411E+01 -0.18896385122E+02  0.20096031322E+02  0.51100000000E-03 0. -1.
        -11    1    3    3    0    0  0.58778496300E+01 -0.11412361488E+01 -0.27512215551E+00  0.59939326558E+01  0.51100000000E-03 0.  1.
         12    1    3    3    0    0  0.16213498894E+02 -0.90122079135E+01 -0.11255036470E+02  0.21697310520E+02  0.00000000000E+00 0. -1.
</event>
<event>
 7    1  0.3062695E-010  0.4778727E+02  0.7816164E-02  0.1312668E+00
        -11   -1    0    0    0    0  0.00000000000E+00  0.00000000000E+00  0.45593999997E+02  0.45594000000E+02  0.51100000000E-03 0.  1.
         11   -1    0    0    0    0 -0.00000000000E+00 -0.00000000000E+00 -0.45593999997E+02  0.45594000000E+02  0.51100000000E-03 0. -1.
    9900012    2    1    2    0    0  0.36457520707E+02  0.11774432096E+02 -0.20392039702E+02  0.47787270162E+02  0.19999995975E+02 0.  0.
        -12    1    1    2    0    0 -0.36457520707E+02 -0.11774432096E+02  0.20392039702E+02  0.43400729838E+02  0.00000000000E+00 0.  1.
         11    1    3    3    0    0  0.17042162467E+02  0.57794884269E+01 -0.14917594803E+02  0.23374610649E+02  0.51100000000E-03 0. -1.
        -11    1    3    3    0    0  0.13255436026E+02  0.13792469102E+01  0.22410598381E+01  0.13514113206E+02  0.51100000000E-03 0.  1.
        -12    1    3    3    0    0  0.61599222145E+01  0.46156967586E+01 -0.77155047365E+01  0.10898546306E+02  0.00000000000E+00 0.  1.
</event>
<event>
 7    1  0.3062695E-010  0.4778727E+02  0.7816164E-02  0.1312668E+00
        -11   -1    0    0    0    0  0.00000000000E+00  0.00000000000E+00  0.45593999997E+02  0.45594000000E+02  0.51100000000E-03 0.  1.
         11   -1    0    0    0    0 -0.00000000000E+00 -0.00000000000E+00 -0.45593999997E+02  0.45594000000E+02  0.51100000000E-03 0. -1.
    9900012    2    1    2    0    0 -0.22523366082E+02  0.24969291399E+02 -0.27438217453E+02  0.47787270633E+02  0.19999998122E+02 0.  0.
        -12    1    1    2    0    0  0.22523366082E+02 -0.24969291399E+02  0.27438217453E+02  0.43400729367E+02  0.00000000000E+00 0.  1.
         11    1    3    3    0    0 -0.18727833140E+02  0.10301763961E+02 -0.11405259613E+02  0.24226803791E+02  0.51100000000E-03 0. -1.
        -11    1    3    3    0    0 -0.19670476733E+01  0.71357573406E+01 -0.22303194265E+01  0.77306296236E+01  0.51100000000E-03 0.  1.
         12    1    3    3    0    0 -0.18284852688E+01  0.75317700966E+01 -0.13802638414E+02  0.15829837218E+02  0.00000000000E+00 0. -1.
</event>
<event>
 7    1  0.3062695E-010  0.4778727E+02  0.7816164E-02  0.1312668E+00
        -11   -1    0    0    0    0  0.00000000000E+00  0.00000000000E+00  0.45593999997E+02  0.45594000000E+02  0.51100000000E-03 0.  1.
         11   -1    0    0    0    0 -0.00000000000E+00 -0.00000000000E+00 -0.45593999997E+02  0.45594000000E+02  0.51100000000E-03 0. -1.
    9900012    2    1    2    0    0  0.32949966572E+02  0.24936538911E+02 -0.13269960366E+02  0.47787272840E+02  0.20000008186E+02 0.  0.
        -12    1    1    2    0    0 -0.32949966572E+02 -0.24936538911E+02  0.13269960366E+02  0.43400727160E+02  0.00000000000E+00 0.  1.
         11    1    3    3    0    0  0.99587661846E+01  0.93414875702E+01  0.30487264133E+01  0.13990537765E+02  0.51100000000E-03 0. -1.
        -11    1    3    3    0    0  0.95581954984E+01  0.11696948310E+02 -0.11563129533E+02  0.19023240150E+02  0.51100000000E-03 0.  1.
         12    1    3    3    0    0  0.13433004889E+02  0.38981030309E+01 -0.47555572466E+01  0.14773494925E+02  0.00000000000E+00 0. -1.
</event>
<event>
 7    1  0.3062695E-010  0.4778728E+02  0.7816164E-02  0.1312668E+00
        -11   -1    0    0    0    0  0.00000000000E+00  0.00000000000E+00  0.45593999997E+02  0.45594000000E+02  0.51100000000E-03 0. -1.
         11   -1    0    0    0    0 -0.00000000000E+00 -0.00000000000E+00 -0.45593999997E+02  0.45594000000E+02  0.51100000000E-03 0.  1.
    9900012    2    1    2    0    0  0.24990620919E+02 -0.24936124660E+01  0.35395954483E+02  0.47787276149E+02  0.20000023272E+02 0.  0.
        -12    1    1    2    0    0 -0.24990620919E+02  0.24936124660E+01 -0.35395954483E+02  0.43400723851E+02  0.00000000000E+00 0.  1.
         11    1    3    3    0    0  0.35287634780E+01  0.58392302630E+01  0.55853439447E+01  0.88173039524E+01  0.51100000000E-03 0. -1.
        -11    1    3    3    0    0  0.41399723733E+01 -0.63763606695E+01  0.10373048741E+02  0.12860695435E+02  0.51100000000E-03 0.  1.
         12    1    3    3    0    0  0.17321885068E+02 -0.19564820595E+01  0.19437561798E+02  0.26109276761E+02  0.00000000000E+00 0. -1.
</event>
<event>
 7    1  0.3062695E-010  0.4778727E+02  0.7816164E-02  0.1312668E+00
        -11   -1    0    0    0    0  0.00000000000E+00  0.00000000000E+00  0.45593999997E+02  0.45594000000E+02  0.51100000000E-03 0. -1.
         11   -1    0    0    0    0 -0.00000000000E+00 -0.00000000000E+00 -0.45593999997E+02  0.45594000000E+02  0.51100000000E-03 0.  1.
    9900012    2    1    2    0    0  0.41356640336E+02  0.33373940035E-01  0.13162463808E+02  0.47787271122E+02  0.20000000352E+02 0.  0.
        -12    1    1    2    0    0 -0.41356640336E+02 -0.33373940035E-01 -0.13162463808E+02  0.43400728878E+02  0.00000000000E+00 0.  1.
         11    1    3    3    0    0  0.17346967913E+02  0.44698466461E+01  0.26849204535E+01  0.18113686066E+02  0.51100000000E-03 0. -1.
        -11    1    3    3    0    0  0.16844975538E+02 -0.80307533667E+01  0.33754463145E+01  0.18964172499E+02  0.51100000000E-03 0.  1.
        -12    1    3    3    0    0  0.71646968851E+01  0.35942806606E+01  0.71020970405E+01  0.10709412556E+02  0.00000000000E+00 0.  1.
</event>
<event>
 7    1  0.3062695E-010  0.4778727E+02  0.7816164E-02  0.1312668E+00
        -11   -1    0    0    0    0  0.00000000000E+00  0.00000000000E+00  0.45593999997E+02  0.45594000000E+02  0.51100000000E-03 0.  1.
         11   -1    0    0    0    0 -0.00000000000E+00 -0.00000000000E+00 -0.45593999997E+02  0.45594000000E+02  0.51100000000E-03 0. -1.
    9900012    2    1    2    0    0 -0.53908563227E+00  0.30282434963E+02 -0.31085473528E+02  0.47787272528E+02  0.20000006765E+02 0.  0.
        -12    1    1    2    0    0  0.53908563227E+00 -0.30282434963E+02  0.31085473528E+02  0.43400727472E+02  0.00000000000E+00 0.  1.
         11    1    3    3    0    0  0.13397170514E+01  0.19608807524E+02 -0.11188050511E+02  0.22615761070E+02  0.51100000000E-03 0. -1.
        -11    1    3    3    0    0  0.10122547014E+01  0.42042277174E+01 -0.16956891116E+02  0.17499609906E+02  0.51100000000E-03 0.  1.
        -12    1    3    3    0    0 -0.28910573850E+01  0.64693997219E+01 -0.29405319009E+01  0.76719015521E+01  0.00000000000E+00 0.  1.
</event>
<event>
 7    1  0.3062695E-010  0.4778727E+02  0.7816164E-02  0.1312668E+00
        -11   -1    0    0    0    0  0.00000000000E+00  0.00000000000E+00  0.45593999997E+02  0.45594000000E+02  0.51100000000E-03 0.  1.
         11   -1    0    0    0    0 -0.00000000000E+00 -0.00000000000E+00 -0.45593999997E+02  0.45594000000E+02  0.51100000000E-03 0. -1.
    9900012    2    1    2    0    0 -0.13160097629E+02  0.35385309722E+02 -0.21408290722E+02  0.47787271603E+02  0.20000002547E+02 0.  0.
        -12    1    1    2    0    0  0.13160097629E+02 -0.35385309722E+02  0.21408290722E+02  0.43400728397E+02  0.00000000000E+00 0.  1.
         11    1    3    3    0    0  0.36554289137E+00  0.18501149311E+02 -0.13702203959E+02  0.23025562773E+02  0.51100000000E-03 0. -1.
        -11    1    3    3    0    0 -0.10634020884E+02  0.17589838364E+02 -0.68126091888E+01  0.21654017135E+02  0.51100000000E-03 0.  1.
         12    1    3    3    0    0 -0.28916196365E+01 -0.70567795287E+00 -0.89347757383E+00  0.31076916949E+01  0.00000000000E+00 0. -1.
</event>
<event>
 7    1  0.3062695E-010  0.4778727E+02  0.7816164E-02  0.1312668E+00
        -11   -1    0    0    0    0  0.00000000000E+00  0.00000000000E+00  0.45593999997E+02  0.45594000000E+02  0.51100000000E-03 0.  1.
         11   -1    0    0    0    0 -0.00000000000E+00 -0.00000000000E+00 -0.45593999997E+02  0.45594000000E+02  0.51100000000E-03 0. -1.
    9900012    2    1    2    0    0  0.81156084039E+01  0.30070125614E+02 -0.30224956002E+02  0.47787268214E+02  0.19999987096E+02 0.  0.
        -12    1    1    2    0    0 -0.81156084039E+01 -0.30070125614E+02  0.30224956002E+02  0.43400731786E+02  0.00000000000E+00 0.  1.
         11    1    3    3    0    0 -0.45996781743E+01  0.94954468618E+01 -0.10101307838E+02  0.14606744015E+02  0.51100000000E-03 0. -1.
        -11    1    3    3    0    0  0.10808501464E+02  0.13037680872E+02 -0.78841131748E+01  0.18680579949E+02  0.51100000000E-03 0.  1.
         12    1    3    3    0    0  0.19067851144E+01  0.75369978796E+01 -0.12239534989E+02  0.14499944250E+02  0.00000000000E+00 0. -1.
</event>
<event>
 7    1  0.3062695E-010  0.4778726E+02  0.7816164E-02  0.1312668E+00
        -11   -1    0    0    0    0  0.00000000000E+00  0.00000000000E+00  0.45593999997E+02  0.45594000000E+02  0.51100000000E-03 0. -1.
         11   -1    0    0    0    0 -0.00000000000E+00 -0.00000000000E+00 -0.45593999997E+02  0.45594000000E+02  0.51100000000E-03 0.  1.
    9900012    2    1    2    0    0 -0.32902605712E+02 -0.20552248587E+02  0.19458868225E+02  0.47787263402E+02  0.19999965155E+02 0.  0.
        -12    1    1    2    0    0  0.32902605712E+02  0.20552248587E+02 -0.19458868225E+02  0.43400736598E+02  0.00000000000E+00 0.  1.
         11    1    3    3    0    0 -0.98213511222E+01 -0.10268878010E+02  0.10573013849E+02  0.17711505175E+02  0.51100000000E-03 0. -1.
        -11    1    3    3    0    0 -0.10456531054E+02  0.18685118830E+01  0.45946287867E+00  0.10632096911E+02  0.51100000000E-03 0.  1.
        -12    1    3    3    0    0 -0.12624723536E+02 -0.12151882460E+02  0.84263914978E+01  0.19443661316E+02  0.00000000000E+00 0.  1.
</event>
<event>
 7    1  0.3062695E-010  0.4778727E+02  0.7816164E-02  0.1312668E+00
        -11   -1    0    0    0    0  0.00000000000E+00  0.00000000000E+00  0.45593999997E+02  0.45594000000E+02  0.51100000000E-03 0.  1.
         11   -1    0    0    0    0 -0.00000000000E+00 -0.00000000000E+00 -0.45593999997E+02  0.45594000000E+02  0.51100000000E-03 0. -1.
    9900012    2    1    2    0    0  0.22559439617E+02 -0.39165153685E+01 -0.36869446977E+02  0.47787268107E+02  0.19999986606E+02 0.  0.
        -12    1    1    2    0    0 -0.22559439617E+02  0.39165153685E+01  0.36869446977E+02  0.43400731893E+02  0.00000000000E+00 0.  1.
         11    1    3    3    0    0  0.19862756731E+02  0.33676060858E+01 -0.27869654923E+02  0.34388770573E+02  0.51100000000E-03 0. -1.
        -11    1    3    3    0    0  0.34057036707E+01 -0.38682956450E+01 -0.19091820959E+01  0.54961354811E+01  0.51100000000E-03 0.  1.
         12    1    3    3    0    0 -0.70902078510E+00 -0.34158258092E+01 -0.70906099585E+01  0.79023620529E+01  0.00000000000E+00 0. -1.
</event>
<event>
 7    1  0.3062695E-010  0.4778727E+02  0.7816164E-02  0.1312668E+00
        -11   -1    0    0    0    0  0.00000000000E+00  0.00000000000E+00  0.45593999997E+02  0.45594000000E+02  0.51100000000E-03 0. -1.
         11   -1    0    0    0    0 -0.00000000000E+00 -0.00000000000E+00 -0.45593999997E+02  0.45594000000E+02  0.51100000000E-03 0.  1.
    9900012    2    1    2    0    0 -0.19996270006E+02  0.36330404630E+02  0.12801323170E+02  0.47787274319E+02  0.20000014932E+02 0.  0.
        -12    1    1    2    0    0  0.19996270006E+02 -0.36330404630E+02 -0.12801323170E+02  0.43400725681E+02  0.00000000000E+00 0.  1.
         11    1    3    3    0    0 -0.13735269912E+01 -0.16803770616E+01 -0.15169485112E+01  0.26479003968E+01  0.51100000000E-03 0.  1.
        -11    1    3    3    0    0 -0.18368008541E+02  0.35607767570E+02  0.12085281761E+02  0.41849144371E+02  0.51100000000E-03 0. -1.
        -12    1    3    3    0    0 -0.25473447370E+00  0.24030141214E+01  0.22329899200E+01  0.32902295517E+01  0.00000000000E+00 0.  1.
</event>
<event>
 7    1  0.3341965E-010  0.4778727E+02  0.7816164E-02  0.1312668E+00
        -11   -1    0    0    0    0  0.00000000000E+00  0.00000000000E+00  0.45593999997E+02  0.45594000000E+02  0.51100000000E-03 0. -1.
         11   -1    0    0    0    0 -0.00000000000E+00 -0.00000000000E+00 -0.45593999997E+02  0.45594000000E+02  0.51100000000E-03 0.  1.
    9900012    2    1    2    0    0 -0.33657714632E+02  0.23277731547E+02  0.14454383412E+02  0.47787265674E+02  0.19999975514E+02 0.  0.
        -12    1    1    2    0    0  0.33657714632E+02 -0.23277731547E+02 -0.14454383412E+02  0.43400734326E+02  0.00000000000E+00 0.  1.
         11    1    3    3    0    0 -0.28351616917E+02  0.17343110152E+02  0.13932375271E+02  0.36037601647E+02  0.51100000000E-03 0. -1.
        -11    1    3    3    0    0 -0.27769629302E+01  0.68456104344E+01 -0.24111959726E+01  0.77709569304E+01  0.51100000000E-03 0.  1.
        -12    1    3    3    0    0 -0.25291347847E+01 -0.91098903892E+00  0.29332041135E+01  0.39787070965E+01  0.00000000000E+00 0.  1.
</event>
<event>
 7    1  0.3062695E-010  0.4778727E+02  0.7816164E-02  0.1312668E+00
        -11   -1    0    0    0    0  0.00000000000E+00  0.00000000000E+00  0.45593999997E+02  0.45594000000E+02  0.51100000000E-03 0.  1.
         11   -1    0    0    0    0 -0.00000000000E+00 -0.00000000000E+00 -0.45593999997E+02  0.45594000000E+02  0.51100000000E-03 0. -1.
    9900012    2    1    2    0    0  0.58809612337E+00  0.21906773092E+02 -0.37461590170E+02  0.47787270715E+02  0.19999998499E+02 0.  0.
        -12    1    1    2    0    0 -0.58809612337E+00 -0.21906773092E+02  0.37461590170E+02  0.43400729285E+02  0.00000000000E+00 0.  1.
         11    1    3    3    0    0 -0.78727472646E+01  0.12013641093E+02 -0.15486136009E+02  0.21121745443E+02  0.51100000000E-03 0. -1.
        -11    1    3    3    0    0  0.74754874302E+01  0.28657205802E+01 -0.11441038415E+02  0.13963976047E+02  0.51100000000E-03 0.  1.
         12    1    3    3    0    0  0.98535595770E+00  0.70274114186E+01 -0.10534415746E+02  0.12701549225E+02  0.00000000000E+00 0. -1.
</event>
<event>
 7    1  0.3062695E-010  0.4778727E+02  0.7816164E-02  0.1312668E+00
        -11   -1    0    0    0    0  0.00000000000E+00  0.00000000000E+00  0.45593999997E+02  0.45594000000E+02  0.51100000000E-03 0. -1.
         11   -1    0    0    0    0 -0.00000000000E+00 -0.00000000000E+00 -0.45593999997E+02  0.45594000000E+02  0.51100000000E-03 0.  1.
    9900012    2    1    2    0    0  0.37414027667E+02  0.61321323972E+01  0.21123698908E+02  0.47787272246E+02  0.20000005478E+02 0.  0.
        -12    1    1    2    0    0 -0.37414027667E+02 -0.61321323972E+01 -0.21123698908E+02  0.43400727754E+02  0.00000000000E+00 0.  1.
         11    1    3    3    0    0  0.26932792387E+02  0.11209435442E+02  0.15309214812E+02  0.32945391288E+02  0.51100000000E-03 0. -1.
        -11    1    3    3    0    0 -0.89199816183E+00  0.46155019843E+00  0.47283019185E+00  0.11100711499E+01  0.51100000000E-03 0.  1.
         12    1    3    3    0    0  0.11373233442E+02 -0.55388532431E+01  0.53416539036E+01  0.13731809808E+02  0.00000000000E+00 0. -1.
</event>
<event>
 7    1  0.3062695E-010  0.4778727E+02  0.7816164E-02  0.1312668E+00
        -11   -1    0    0    0    0  0.00000000000E+00  0.00000000000E+00  0.45593999997E+02  0.45594000000E+02  0.51100000000E-03 0. -1.
         11   -1    0    0    0    0 -0.00000000000E+00 -0.00000000000E+00 -0.45593999997E+02  0.45594000000E+02  0.51100000000E-03 0.  1.
    9900012    2    1    2    0    0 -0.33165467037E+02 -0.27881986435E+02 -0.25039392821E+01  0.47787273240E+02  0.20000010012E+02 0.  0.
        -12    1    1    2    0    0  0.33165467037E+02  0.27881986435E+02  0.25039392821E+01  0.43400726760E+02  0.00000000000E+00 0.  1.
         11    1    3    3    0    0 -0.32788825077E+02 -0.26720133117E+02 -0.18317396003E+01  0.42337073988E+02  0.51100000000E-03 0. -1.
        -11    1    3    3    0    0  0.20098270803E+00 -0.13241916796E+01 -0.28725811411E+01  0.31694795041E+01  0.51100000000E-03 0.  1.
         12    1    3    3    0    0 -0.57762466831E+00  0.16233836120E+00  0.22003814594E+01  0.22807197477E+01  0.00000000000E+00 0. -1.
</event>
<event>
 7    1  0.3062695E-010  0.4778727E+02  0.7816164E-02  0.1312668E+00
        -11   -1    0    0    0    0  0.00000000000E+00  0.00000000000E+00  0.45593999997E+02  0.45594000000E+02  0.51100000000E-03 0.  1.
         11   -1    0    0    0    0 -0.00000000000E+00 -0.00000000000E+00 -0.45593999997E+02  0.45594000000E+02  0.51100000000E-03 0. -1.
    9900012    2    1    2    0    0 -0.15526032331E+02  0.58216571703E+01 -0.40108275974E+02  0.47787272198E+02  0.20000005259E+02 0.  0.
        -12    1    1    2    0    0  0.15526032331E+02 -0.58216571703E+01  0.40108275974E+02  0.43400727802E+02  0.00000000000E+00 0.  1.
         11    1    3    3    0    0 -0.12473081039E+02  0.57974763149E+01 -0.39409885772E+02  0.41741197623E+02  0.51100000000E-03 0. -1.
        -11    1    3    3    0    0 -0.37935118036E+01 -0.11754630042E+01  0.73126614942E+00  0.40382168739E+01  0.51100000000E-03 0.  1.
        -12    1    3    3    0    0  0.74056051177E+00  0.11996438596E+01 -0.14296563517E+01  0.20078577005E+01  0.00000000000E+00 0.  1.
</event>
<event>
 7    1  0.3062695E-010  0.4778727E+02  0.7816164E-02  0.1312668E+00
        -11   -1    0    0    0    0  0.00000000000E+00  0.00000000000E+00  0.45593999997E+02  0.45594000000E+02  0.51100000000E-03 0.  1.
         11   -1    0    0    0    0 -0.00000000000E+00 -0.00000000000E+00 -0.45593999997E+02  0.45594000000E+02  0.51100000000E-03 0. -1.
    9900012    2    1    2    0    0 -0.64618021481E+01 -0.52642589644E+01 -0.42592909349E+02  0.47787271478E+02  0.20000001975E+02 0.  0.
        -12    1    1    2    0    0  0.64618021481E+01  0.52642589644E+01  0.42592909349E+02  0.43400728522E+02  0.00000000000E+00 0.  1.
         11    1    3    3    0    0  0.58458569063E+01  0.16363233241E+01 -0.15098253235E+02  0.16272948350E+02  0.51100000000E-03 0. -1.
        -11    1    3    3    0    0 -0.80548685731E+01 -0.76194138775E+01 -0.19896525790E+02  0.22777359687E+02  0.51100000000E-03 0.  1.
        -12    1    3    3    0    0 -0.42527904813E+01  0.71883158895E+00 -0.75981303249E+01  0.87369634407E+01  0.00000000000E+00 0.  1.
</event>
<event>
 7    1  0.3062695E-010  0.4778729E+02  0.7816164E-02  0.1312668E+00
        -11   -1    0    0    0    0  0.00000000000E+00  0.00000000000E+00  0.45593999997E+02  0.45594000000E+02  0.51100000000E-03 0.  1.
         11   -1    0    0    0    0 -0.00000000000E+00 -0.00000000000E+00 -0.45593999997E+02  0.45594000000E+02  0.51100000000E-03 0. -1.
    9900012    2    1    2    0    0  0.19918441429E+02 -0.38380565780E+02  0.37161086833E+01  0.47787290302E+02  0.20000087801E+02 0.  0.
        -12    1    1    2    0    0 -0.19918441429E+02  0.38380565780E+02 -0.37161086833E+01  0.43400709698E+02  0.00000000000E+00 0.  1.
         11    1    3    3    0    0 -0.11561748402E+00 -0.13298992507E+02  0.59485656622E+01  0.14569214214E+02  0.51100000000E-03 0. -1.
        -11    1    3    3    0    0  0.20775232680E+01 -0.11176178465E+00 -0.12893721391E+01  0.24476671342E+01  0.51100000000E-03 0.  1.
         12    1    3    3    0    0  0.17956535645E+02 -0.24969811488E+02 -0.94308483983E+00  0.30770408953E+02  0.00000000000E+00 0. -1.
</event>
<event>
 7    1  0.3062695E-010  0.4778727E+02  0.7816164E-02  0.1312668E+00
        -11   -1    0    0    0    0  0.00000000000E+00  0.00000000000E+00  0.45593999997E+02  0.45594000000E+02  0.51100000000E-03 0.  1.
         11   -1    0    0    0    0 -0.00000000000E+00 -0.00000000000E+00 -0.45593999997E+02  0.45594000000E+02  0.51100000000E-03 0. -1.
    9900012    2    1    2    0    0 -0.35811360501E+02 -0.20071667855E+02  0.14081833735E+02  0.47787269214E+02  0.19999991652E+02 0.  0.
        -12    1    1    2    0    0  0.35811360501E+02  0.20071667855E+02 -0.14081833735E+02  0.43400730786E+02  0.00000000000E+00 0.  1.
         11    1    3    3    0    0 -0.12982539332E+02 -0.15767942881E+02  0.90024959261E+01  0.22320826225E+02  0.51100000000E-03 0. -1.
        -11    1    3    3    0    0 -0.20173471811E+02 -0.18519817726E+01  0.13963430472E+01  0.20306367858E+02  0.51100000000E-03 0.  1.
        -12    1    3    3    0    0 -0.26553493577E+01 -0.24517432022E+01  0.36829947621E+01  0.51600751310E+01  0.00000000000E+00 0.  1.
</event>
<event>
 7    1  0.3062695E-010  0.4778727E+02  0.7816164E-02  0.1312668E+00
        -11   -1    0    0    0    0  0.00000000000E+00  0.00000000000E+00  0.45593999997E+02  0.45594000000E+02  0.51100000000E-03 0.  1.
         11   -1    0    0    0    0 -0.00000000000E+00 -0.00000000000E+00 -0.45593999997E+02  0.45594000000E+02  0.51100000000E-03 0. -1.
    9900012    2    1    2    0    0  0.24615359240E+02 -0.30250570103E+02 -0.19042331916E+02  0.47787270664E+02  0.19999998268E+02 0.  0.
        -12    1    1    2    0    0 -0.24615359240E+02  0.30250570103E+02  0.19042331916E+02  0.43400729336E+02  0.00000000000E+00 0.  1.
         11    1    3    3    0    0  0.84857348904E+01 -0.13416513097E+02 -0.13579230507E+02  0.20890333213E+02  0.51100000000E-03 0. -1.
        -11    1    3    3    0    0  0.35185077860E+01 -0.45438929950E+01  0.39075990915E+01  0.69495461371E+01  0.51100000000E-03 0.  1.
         12    1    3    3    0    0  0.12611116564E+02 -0.12290164011E+02 -0.93707004996E+01  0.19947391314E+02  0.00000000000E+00 0. -1.
</event>
<event>
 7    1  0.3062695E-010  0.4778726E+02  0.7816164E-02  0.1312668E+00
        -11   -1    0    0    0    0  0.00000000000E+00  0.00000000000E+00  0.45593999997E+02  0.45594000000E+02  0.51100000000E-03 0.  1.
         11   -1    0    0    0    0 -0.00000000000E+00 -0.00000000000E+00 -0.45593999997E+02  0.45594000000E+02  0.51100000000E-03 0. -1.
    9900012    2    1    2    0    0  0.36541761508E+02  0.87064875499E+01 -0.21737545676E+02  0.47787260933E+02  0.19999953899E+02 0.  0.
        -12    1    1    2    0    0 -0.36541761508E+02 -0.87064875499E+01  0.21737545676E+02  0.43400739067E+02  0.00000000000E+00 0.  1.
         11    1    3    3    0    0  0.32001954401E+02  0.83613744668E+01 -0.19589098182E+02  0.38441779827E+02  0.51100000000E-03 0. -1.
        -11    1    3    3    0    0  0.72548731285E+00  0.14905263658E+01  0.26399960337E+01  0.31173033230E+01  0.51100000000E-03 0.  1.
        -12    1    3    3    0    0  0.38143197939E+01 -0.11454132827E+01 -0.47884435275E+01  0.62281777828E+01  0.00000000000E+00 0.  1.
</event>
<event>
 7    1  0.3062695E-010  0.4778727E+02  0.7816164E-02  0.1312668E+00
        -11   -1    0    0    0    0  0.00000000000E+00  0.00000000000E+00  0.45593999997E+02  0.45594000000E+02  0.51100000000E-03 0.  1.
         11   -1    0    0    0    0 -0.00000000000E+00 -0.00000000000E+00 -0.45593999997E+02  0.45594000000E+02  0.51100000000E-03 0. -1.
    9900012    2    1    2    0    0  0.37085471349E+02  0.41607339114E+01 -0.22158053305E+02  0.47787271687E+02  0.20000002928E+02 0.  0.
        -12    1    1    2    0    0 -0.37085471349E+02 -0.41607339114E+01  0.22158053305E+02  0.43400728313E+02  0.00000000000E+00 0.  1.
         11    1    3    3    0    0  0.28322305763E+02 -0.29192075379E+01 -0.16114928482E+02  0.32716443826E+02  0.51100000000E-03 0. -1.
        -11    1    3    3    0    0  0.72857950858E+01  0.60520864173E+01 -0.77437569292E+00  0.95031688404E+01  0.51100000000E-03 0.  1.
         12    1    3    3    0    0  0.14773704998E+01  0.10278550320E+01 -0.52687491304E+01  0.55676590197E+01  0.00000000000E+00 0. -1.
</event>
<event>
 7    1  0.3062695E-010  0.4778727E+02  0.7816164E-02  0.1312668E+00
        -11   -1    0    0    0    0  0.00000000000E+00  0.00000000000E+00  0.45593999997E+02  0.45594000000E+02  0.51100000000E-03 0. -1.
         11   -1    0    0    0    0 -0.00000000000E+00 -0.00000000000E+00 -0.45593999997E+02  0.45594000000E+02  0.51100000000E-03 0.  1.
    9900012    2    1    2    0    0  0.40092056148E+02  0.10330696940E+02  0.13020261269E+02  0.47787268797E+02  0.19999989755E+02 0.  0.
        -12    1    1    2    0    0 -0.40092056148E+02 -0.10330696940E+02 -0.13020261269E+02  0.43400731203E+02  0.00000000000E+00 0.  1.
         11    1    3    3    0    0  0.17653736508E+01 -0.31442817907E+01  0.29724656207E+01  0.46731792427E+01  0.51100000000E-03 0.  1.
        -11    1    3    3    0    0  0.31811614753E+02  0.77443374295E+01  0.51287981230E+01  0.33139978362E+02  0.51100000000E-03 0. -1.
        -12    1    3    3    0    0  0.65150677439E+01  0.57306413009E+01  0.49189975252E+01  0.99741111925E+01  0.00000000000E+00 0.  1.
</event>
<event>
 7    1  0.3062695E-010  0.4778727E+02  0.7816164E-02  0.1312668E+00
        -11   -1    0    0    0    0  0.00000000000E+00  0.00000000000E+00  0.45593999997E+02  0.45594000000E+02  0.51100000000E-03 0. -1.
         11   -1    0    0    0    0 -0.00000000000E+00 -0.00000000000E+00 -0.45593999997E+02  0.45594000000E+02  0.51100000000E-03 0.  1.
    9900012    2    1    2    0    0  0.30138254008E+02 -0.17389475038E+02 -0.25940604537E+02  0.47787272351E+02  0.20000005957E+02 0.  0.
        -12    1    1    2    0    0 -0.30138254008E+02  0.17389475038E+02  0.25940604537E+02  0.43400727649E+02  0.00000000000E+00 0.  1.
         11    1    3    3    0    0  0.11561091697E+01 -0.26176796955E+01 -0.90850943406E+01  0.95251128518E+01  0.51100000000E-03 0.  1.
        -11    1    3    3    0    0  0.17895049377E+02 -0.64808333309E+01 -0.41678883666E+01  0.19483461873E+02  0.51100000000E-03 0. -1.
         12    1    3    3    0    0  0.11087095461E+02 -0.82909620113E+01 -0.12687621829E+02  0.18778697626E+02  0.00000000000E+00 0. -1.
</event>
<event>
 7    1  0.3062695E-010  0.4778727E+02  0.7816164E-02  0.1312668E+00
        -11   -1    0    0    0    0  0.00000000000E+00  0.00000000000E+00  0.45593999997E+02  0.45594000000E+02  0.51100000000E-03 0.  1.
         11   -1    0    0    0    0 -0.00000000000E+00 -0.00000000000E+00 -0.45593999997E+02  0.45594000000E+02  0.51100000000E-03 0. -1.
    9900012    2    1    2    0    0  0.22479557876E+01  0.42257060449E+02 -0.96390301327E+01  0.47787269996E+02  0.19999995219E+02 0.  0.
        -12    1    1    2    0    0 -0.22479557876E+01 -0.42257060449E+02  0.96390301327E+01  0.43400730004E+02  0.00000000000E+00 0.  1.
         11    1    3    3    0    0 -0.54260844386E+01  0.54310658110E+01 -0.40506305864E+01  0.86802348232E+01  0.51100000000E-03 0. -1.
        -11    1    3    3    0    0  0.96960708923E+01  0.32096354262E+02 -0.53904264878E+01  0.33959482412E+02  0.51100000000E-03 0.  1.
        -12    1    3    3    0    0 -0.20220306661E+01  0.47296403753E+01 -0.19797305843E+00  0.51475527609E+01  0.00000000000E+00 0.  1.
</event>
<event>
 7    1  0.3062695E-010  0.4778727E+02  0.7816164E-02  0.1312668E+00
        -11   -1    0    0    0    0  0.00000000000E+00  0.00000000000E+00  0.45593999997E+02  0.45594000000E+02  0.51100000000E-03 0.  1.
         11   -1    0    0    0    0 -0.00000000000E+00 -0.00000000000E+00 -0.45593999997E+02  0.45594000000E+02  0.51100000000E-03 0. -1.
    9900012    2    1    2    0    0 -0.80410110693E+01 -0.65586921828E+00 -0.42644289185E+02  0.47787269320E+02  0.19999992136E+02 0.  0.
        -12    1    1    2    0    0  0.80410110693E+01  0.65586921828E+00  0.42644289185E+02  0.43400730680E+02  0.00000000000E+00 0.  1.
         11    1    3    3    0    0 -0.83238860222E+01 -0.38265023602E+01 -0.41718896644E+02  0.42712943428E+02  0.51100000000E-03 0. -1.
        -11    1    3    3    0    0  0.17268060301E+01  0.25990499166E+01  0.24458869643E+00  0.31299749881E+01  0.51100000000E-03 0.  1.
        -12    1    3    3    0    0 -0.14439310772E+01  0.57158322536E+00 -0.11699812375E+01  0.19443509033E+01  0.00000000000E+00 0.  1.
</event>
<event>
 7    1  0.3062695E-010  0.4778727E+02  0.7816164E-02  0.1312668E+00
        -11   -1    0    0    0    0  0.00000000000E+00  0.00000000000E+00  0.45593999997E+02  0.45594000000E+02  0.51100000000E-03 0.  1.
         11   -1    0    0    0    0 -0.00000000000E+00 -0.00000000000E+00 -0.45593999997E+02  0.45594000000E+02  0.51100000000E-03 0. -1.
    9900012    2    1    2    0    0 -0.96478274049E+01 -0.41922555954E+02 -0.57482511200E+01  0.47787266569E+02  0.19999979596E+02 0.  0.
        -12    1    1    2    0    0  0.96478274049E+01  0.41922555954E+02  0.57482511200E+01  0.43400733431E+02  0.00000000000E+00 0.  1.
         11    1    3    3    0    0 -0.81038485329E+01 -0.50055152833E+01 -0.29011895942E+01  0.99571303908E+01  0.51100000000E-03 0. -1.
        -11    1    3    3    0    0  0.86292286237E+00 -0.28725437505E+01  0.16211155922E+01  0.34094221635E+01  0.51100000000E-03 0.  1.
         12    1    3    3    0    0 -0.24069017344E+01 -0.34044496921E+02 -0.44681771180E+01  0.34420714015E+02  0.00000000000E+00 0. -1.
</event>
<event>
 7    1  0.3062695E-010  0.4778727E+02  0.7816164E-02  0.1312668E+00
        -11   -1    0    0    0    0  0.00000000000E+00  0.00000000000E+00  0.45593999997E+02  0.45594000000E+02  0.51100000000E-03 0.  1.
         11   -1    0    0    0    0 -0.00000000000E+00 -0.00000000000E+00 -0.45593999997E+02  0.45594000000E+02  0.51100000000E-03 0. -1.
    9900012    2    1    2    0    0  0.60590698618E+01  0.38925730628E+02  0.18212595562E+02  0.47787268789E+02  0.19999989716E+02 0.  0.
        -12    1    1    2    0    0 -0.60590698618E+01 -0.38925730628E+02 -0.18212595562E+02  0.43400731211E+02  0.00000000000E+00 0.  1.
         11    1    3    3    0    0  0.39846608857E+01  0.55776263952E+00 -0.11826250334E+01  0.41937124087E+01  0.51100000000E-03 0. -1.
        -11    1    3    3    0    0  0.39079319757E+01  0.32267911179E+02  0.14660788139E+02  0.35657099339E+02  0.51100000000E-03 0.  1.
        -12    1    3    3    0    0 -0.18335229996E+01  0.61000568099E+01  0.47344324571E+01  0.79364570411E+01  0.00000000000E+00 0.  1.
</event>
<event>
 7    1  0.3062695E-010  0.4778727E+02  0.7816164E-02  0.1312668E+00
        -11   -1    0    0    0    0  0.00000000000E+00  0.00000000000E+00  0.45593999997E+02  0.45594000000E+02  0.51100000000E-03 0.  1.
         11   -1    0    0    0    0 -0.00000000000E+00 -0.00000000000E+00 -0.45593999997E+02  0.45594000000E+02  0.51100000000E-03 0. -1.
    9900012    2    1    2    0    0  0.21417025494E+02  0.20908910665E+02 -0.31428516415E+02  0.47787272238E+02  0.20000005443E+02 0.  0.
        -12    1    1    2    0    0 -0.21417025494E+02 -0.20908910665E+02  0.31428516415E+02  0.43400727762E+02  0.00000000000E+00 0.  1.
         11    1    3    3    0    0 -0.15095313048E+01  0.31944173742E+00 -0.26192928899E+01  0.30399709354E+01  0.51100000000E-03 0. -1.
        -11    1    3    3    0    0  0.22539392340E+02  0.21242206446E+02 -0.30139185952E+02  0.43216039521E+02  0.51100000000E-03 0.  1.
        -12    1    3    3    0    0  0.38716445877E+00 -0.65273751844E+00  0.13299624273E+01  0.15312617817E+01  0.00000000000E+00 0.  1.
</event>
<event>
 7    1  0.3062695E-010  0.4778728E+02  0.7816164E-02  0.1312668E+00
        -11   -1    0    0    0    0  0.00000000000E+00  0.00000000000E+00  0.45593999997E+02  0.45594000000E+02  0.51100000000E-03 0.  1.
         11   -1    0    0    0    0 -0.00000000000E+00 -0.00000000000E+00 -0.45593999997E+02  0.45594000000E+02  0.51100000000E-03 0. -1.
    9900012    2    1    2    0    0  0.12017122313E+02  0.59563968416E+00 -0.41699602577E+02  0.47787275693E+02  0.20000021193E+02 0.  0.
        -12    1    1    2    0    0 -0.12017122313E+02 -0.59563968416E+00  0.41699602577E+02  0.43400724307E+02  0.00000000000E+00 0.  1.
         11    1    3    3    0    0 -0.32190571460E+00  0.33620255826E+00 -0.67127565695E+01  0.67288748296E+01  0.51100000000E-03 0. -1.
        -11    1    3    3    0    0  0.10189219057E+02  0.69891029824E+01 -0.29901415572E+02  0.32353707654E+02  0.51100000000E-03 0.  1.
        -12    1    3    3    0    0  0.21498089711E+01 -0.67296658565E+01 -0.50854304356E+01  0.87046932093E+01  0.00000000000E+00 0.  1.
</event>
<event>
 7    1  0.3062695E-010  0.4778727E+02  0.7816164E-02  0.1312668E+00
        -11   -1    0    0    0    0  0.00000000000E+00  0.00000000000E+00  0.45593999997E+02  0.45594000000E+02  0.51100000000E-03 0.  1.
         11   -1    0    0    0    0 -0.00000000000E+00 -0.00000000000E+00 -0.45593999997E+02  0.45594000000E+02  0.51100000000E-03 0. -1.
    9900012    2    1    2    0    0  0.24949046624E+02  0.35098310482E+02  0.54108178360E+01  0.47787271022E+02  0.19999999899E+02 0.  0.
        -12    1    1    2    0    0 -0.24949046624E+02 -0.35098310482E+02 -0.54108178360E+01  0.43400728978E+02  0.00000000000E+00 0.  1.
         11    1    3    3    0    0  0.20371007858E+02  0.22765865639E+02  0.67339800374E+01  0.31282728251E+02  0.51100000000E-03 0. -1.
        -11    1    3    3    0    0  0.42449304007E+01  0.14037780799E+02 -0.78919167103E+00  0.14686781391E+02  0.51100000000E-03 0.  1.
         12    1    3    3    0    0  0.33310836530E+00 -0.17053359563E+01 -0.53397053038E+00  0.18177613799E+01  0.00000000000E+00 0. -1.
</event>
<event>
 7    1  0.3062695E-010  0.4778727E+02  0.7816164E-02  0.1312668E+00
        -11   -1    0    0    0    0  0.00000000000E+00  0.00000000000E+00  0.45593999997E+02  0.45594000000E+02  0.51100000000E-03 0.  1.
         11   -1    0    0    0    0 -0.00000000000E+00 -0.00000000000E+00 -0.45593999997E+02  0.45594000000E+02  0.51100000000E-03 0. -1.
    9900012    2    1    2    0    0  0.27071504996E+02 -0.24071903825E+02 -0.23901887723E+02  0.47787272204E+02  0.20000005288E+02 0.  0.
        -12    1    1    2    0    0 -0.27071504996E+02  0.24071903825E+02  0.23901887723E+02  0.43400727796E+02  0.00000000000E+00 0.  1.
         11    1    3    3    0    0  0.22927547303E+01 -0.12605376740E+02 -0.46655976928E+01  0.13635250240E+02  0.51100000000E-03 0.  1.
        -11    1    3    3    0    0  0.21418178483E+02 -0.10868422979E+02 -0.19182732305E+02  0.30738220614E+02  0.51100000000E-03 0. -1.
         12    1    3    3    0    0  0.33605717830E+01 -0.59810410602E+00 -0.53557724663E-01  0.34138013504E+01  0.00000000000E+00 0. -1.
</event>
<event>
 7    1  0.3062695E-010  0.4778726E+02  0.7816164E-02  0.1312668E+00
        -11   -1    0    0    0    0  0.00000000000E+00  0.00000000000E+00  0.45593999997E+02  0.45594000000E+02  0.51100000000E-03 0. -1.
         11   -1    0    0    0    0 -0.00000000000E+00 -0.00000000000E+00 -0.45593999997E+02  0.45594000000E+02  0.51100000000E-03 0.  1.
    9900012    2    1    2    0    0  0.24389975336E+01 -0.42770868383E+02 -0.69518658587E+01  0.47787258876E+02  0.19999944519E+02 0.  0.
        -12    1    1    2    0    0 -0.24389975336E+01  0.42770868383E+02  0.69518658587E+01  0.43400741124E+02  0.00000000000E+00 0.  1.
         11    1    3    3    0    0 -0.95449624293E+00 -0.18370745272E+02  0.53620429147E+01  0.19161076416E+02  0.51100000000E-03 0. -1.
        -11    1    3    3    0    0  0.28059155265E+01 -0.52382988971E+01 -0.59941450473E+01  0.84405398160E+01  0.51100000000E-03 0.  1.
         12    1    3    3    0    0  0.58757825003E+00 -0.19161824214E+02 -0.63197637261E+01  0.20185642644E+02  0.00000000000E+00 0. -1.
</event>
<event>
 7    1  0.3062695E-010  0.4778727E+02  0.7816164E-02  0.1312668E+00
        -11   -1    0    0    0    0  0.00000000000E+00  0.00000000000E+00  0.45593999997E+02  0.45594000000E+02  0.51100000000E-03 0.  1.
         11   -1    0    0    0    0 -0.00000000000E+00 -0.00000000000E+00 -0.45593999997E+02  0.45594000000E+02  0.51100000000E-03 0. -1.
    9900012    2    1    2    0    0 -0.25385377183E+02  0.21022302723E+02 -0.28235950941E+02  0.47787268301E+02  0.19999987490E+02 0.  0.
        -12    1    1    2    0    0  0.25385377183E+02 -0.21022302723E+02  0.28235950941E+02  0.43400731699E+02  0.00000000000E+00 0.  1.
         11    1    3    3    0    0 -0.11391013043E+02  0.11706483080E+02 -0.22373132678E+01  0.16486433671E+02  0.51100000000E-03 0. -1.
        -11    1    3    3    0    0 -0.14491021783E+01  0.42154487997E+00 -0.53251452482E+01  0.55348685065E+01  0.51100000000E-03 0.  1.
         12    1    3    3    0    0 -0.12545261961E+02  0.88942747633E+01 -0.20673492425E+02  0.25765966124E+02  0.00000000000E+00 0. -1.
</event>
<event>
 7    1  0.4327198E-010  0.4778727E+02  0.7816164E-02  0.1312668E+00
        -11   -1    0    0    0    0  0.00000000000E+00  0.00000000000E+00  0.45593999997E+02  0.45594000000E+02  0.51100000000E-03 0.  1.
         11   -1    0    0    0    0 -0.00000000000E+00 -0.00000000000E+00 -0.45593999997E+02  0.45594000000E+02  0.51100000000E-03 0. -1.
    9900012    2    1    2    0    0  0.42545641675E+02 -0.83049631445E+01  0.21258498029E+01  0.47787271023E+02  0.19999999902E+02 0.  0.
        -12    1    1    2    0    0 -0.42545641675E+02  0.83049631445E+01 -0.21258498029E+01  0.43400728977E+02  0.00000000000E+00 0.  1.
         11    1    3    3    0    0  0.22214062678E+02 -0.32285634254E+01  0.92032516124E+00  0.22466312584E+02  0.51100000000E-03 0. -1.
        -11    1    3    3    0    0  0.41656969586E+00 -0.48788530675E+00  0.45650326956E+01  0.46098900374E+01  0.51100000000E-03 0.  1.
        -12    1    3    3    0    0  0.19915009301E+02 -0.45885144123E+01 -0.33595080540E+01  0.20711068402E+02  0.00000000000E+00 0.  1.
</event>
<event>
 7    1  0.3062695E-010  0.4778727E+02  0.7816164E-02  0.1312668E+00
        -11   -1    0    0    0    0  0.00000000000E+00  0.00000000000E+00  0.45593999997E+02  0.45594000000E+02  0.51100000000E-03 0.  1.
         11   -1    0    0    0    0 -0.00000000000E+00 -0.00000000000E+00 -0.45593999997E+02  0.45594000000E+02  0.51100000000E-03 0. -1.
    9900012    2    1    2    0    0 -0.20980177343E+02 -0.37931672546E+02  0.21549208752E+01  0.47787270658E+02  0.19999998237E+02 0.  0.
        -12    1    1    2    0    0  0.20980177343E+02  0.37931672546E+02 -0.21549208752E+01  0.43400729342E+02  0.00000000000E+00 0.  1.
         11    1    3    3    0    0 -0.14233789771E+02 -0.22751322514E+02 -0.36940724305E+00  0.26839521407E+02  0.51100000000E-03 0. -1.
        -11    1    3    3    0    0 -0.93423431978E+01 -0.57433740862E+01  0.67722508802E+00  0.10987463602E+02  0.51100000000E-03 0.  1.
        -12    1    3    3    0    0  0.25959556259E+01 -0.94369759459E+01  0.18471030302E+01  0.99602856495E+01  0.00000000000E+00 0.  1.
</event>
<event>
 7    1  0.3062695E-010  0.4778728E+02  0.7816164E-02  0.1312668E+00
        -11   -1    0    0    0    0  0.00000000000E+00  0.00000000000E+00  0.45593999997E+02  0.45594000000E+02  0.51100000000E-03 0.  1.
         11   -1    0    0    0    0 -0.00000000000E+00 -0.00000000000E+00 -0.45593999997E+02  0.45594000000E+02  0.51100000000E-03 0. -1.
    9900012    2    1    2    0    0 -0.87904386350E+01  0.14011956140E+02 -0.40125004630E+02  0.47787277392E+02  0.20000028943E+02 0.  0.
        -12    1    1    2    0    0  0.87904386350E+01 -0.14011956140E+02  0.40125004630E+02  0.43400722608E+02  0.00000000000E+00 0.  1.
         11    1    3    3    0    0 -0.12579481002E+01  0.76804052535E+00 -0.13404715679E+02  0.13485500449E+02  0.51100000000E-03 0. -1.
        -11    1    3    3    0    0 -0.86982666682E+00  0.13053921899E+02 -0.10533310146E+02  0.16796192969E+02  0.51100000000E-03 0.  1.
        -12    1    3    3    0    0 -0.66626638679E+01  0.18999371631E+00 -0.16186978805E+02  0.17505583974E+02  0.00000000000E+00 0.  1.
</event>
<event>
 7    1  0.3062695E-010  0.4778727E+02  0.7816164E-02  0.1312668E+00
        -11   -1    0    0    0    0  0.00000000000E+00  0.00000000000E+00  0.45593999997E+02  0.45594000000E+02  0.51100000000E-03 0.  1.
         11   -1    0    0    0    0 -0.00000000000E+00 -0.00000000000E+00 -0.45593999997E+02  0.45594000000E+02  0.51100000000E-03 0. -1.
    9900012    2    1    2    0    0  0.34476601275E+02 -0.17734117602E+02 -0.19506115172E+02  0.47787268535E+02  0.19999988560E+02 0.  0.
        -12    1    1    2    0    0 -0.34476601275E+02  0.17734117602E+02  0.19506115172E+02  0.43400731465E+02  0.00000000000E+00 0.  1.
         11    1    3    3    0    0  0.69527396102E+01 -0.41836298112E+00 -0.11421151098E+02  0.13377529979E+02  0.51100000000E-03 0. -1.
        -11    1    3    3    0    0  0.67425225170E+01 -0.65255778792E+01  0.67901140917E+00  0.94077538927E+01  0.51100000000E-03 0.  1.
         12    1    3    3    0    0  0.20781339147E+02 -0.10790176742E+02 -0.87639754831E+01  0.25001984664E+02  0.00000000000E+00 0. -1.
</event>
<event>
 7    1  0.3062695E-010  0.4778728E+02  0.7816164E-02  0.1312668E+00
        -11   -1    0    0    0    0  0.00000000000E+00  0.00000000000E+00  0.45593999997E+02  0.45594000000E+02  0.51100000000E-03 0. -1.
         11   -1    0    0    0    0 -0.00000000000E+00 -0.00000000000E+00 -0.45593999997E+02  0.45594000000E+02  0.51100000000E-03 0.  1.
    9900012    2    1    2    0    0 -0.15741916697E+01 -0.15985185310E+02  0.40318959130E+02  0.47787277723E+02  0.20000030452E+02 0.  0.
        -12    1    1    2    0    0  0.15741916697E+01  0.15985185310E+02 -0.40318959130E+02  0.43400722277E+02  0.00000000000E+00 0.  1.
         11    1    3    3    0    0  0.30826335842E+01 -0.11349162031E+02  0.16623268143E+02  0.20362690211E+02  0.51100000000E-03 0.  1.
        -11    1    3    3    0    0 -0.80811399522E+01 -0.15810505499E+01  0.98514987531E+01  0.12839648426E+02  0.51100000000E-03 0. -1.
         12    1    3    3    0    0  0.34243146983E+01 -0.30549727283E+01  0.13844192234E+02  0.14584939086E+02  0.00000000000E+00 0. -1.
</event>
<event>
 7    1  0.3062695E-010  0.4778727E+02  0.7816164E-02  0.1312668E+00
        -11   -1    0    0    0    0  0.00000000000E+00  0.00000000000E+00  0.45593999997E+02  0.45594000000E+02  0.51100000000E-03 0.  1.
         11   -1    0    0    0    0 -0.00000000000E+00 -0.00000000000E+00 -0.45593999997E+02  0.45594000000E+02  0.51100000000E-03 0. -1.
    9900012    2    1    2    0    0 -0.14662475536E+02  0.35982668274E+02 -0.19336048798E+02  0.47787269729E+02  0.19999994001E+02 0.  0.
        -12    1    1    2    0    0  0.14662475536E+02 -0.35982668274E+02  0.19336048798E+02  0.43400730271E+02  0.00000000000E+00 0.  1.
         11    1    3    3    0    0 -0.31947432087E+01 -0.15187607198E+01 -0.36691709873E+01  0.50966493198E+01  0.51100000000E-03 0.  1.
        -11    1    3    3    0    0 -0.90111407456E+01  0.24029512513E+02 -0.12886129784E+02  0.28717076283E+02  0.51100000000E-03 0. -1.
         12    1    3    3    0    0 -0.24565915811E+01  0.13471916481E+02 -0.27807480270E+01  0.13973544126E+02  0.00000000000E+00 0. -1.
</event>
<event>
 7    1  0.3062695E-010  0.4778725E+02  0.7816164E-02  0.1312668E+00
        -11   -1    0    0    0    0  0.00000000000E+00  0.00000000000E+00  0.45593999997E+02  0.45594000000E+02  0.51100000000E-03 0. -1.
         11   -1    0    0    0    0 -0.00000000000E+00 -0.00000000000E+00 -0.45593999997E+02  0.45594000000E+02  0.51100000000E-03 0.  1.
    9900012    2    1    2    0    0 -0.38991974925E+02  0.18650926856E+02  0.39234796227E+01  0.47787252616E+02  0.19999915977E+02 0.  0.
        -12    1    1    2    0    0  0.38991974925E+02 -0.18650926856E+02 -0.39234796227E+01  0.43400747384E+02  0.00000000000E+00 0.  1.
         11    1    3    3    0    0 -0.26641931721E+02  0.11405623032E+02 -0.27359324095E+00  0.28981987787E+02  0.51100000000E-03 0. -1.
        -11    1    3    3    0    0  0.62409344418E+00  0.26811952717E+01  0.42357145522E+01  0.50516906815E+01  0.51100000000E-03 0.  1.
        -12    1    3    3    0    0 -0.12974136649E+02  0.45641085525E+01 -0.38641688544E-01  0.13753574148E+02  0.00000000000E+00 0.  1.
</event>
<event>
 7    1  0.3062695E-010  0.4778727E+02  0.7816164E-02  0.1312668E+00
        -11   -1    0    0    0    0  0.00000000000E+00  0.00000000000E+00  0.45593999997E+02  0.45594000000E+02  0.51100000000E-03 0.  1.
         11   -1    0    0    0    0 -0.00000000000E+00 -0.00000000000E+00 -0.45593999997E+02  0.45594000000E+02  0.51100000000E-03 0. -1.
    9900012    2    1    2    0    0  0.31272331405E+00 -0.32828787343E+02 -0.28386547968E+02  0.47787272128E+02  0.20000004941E+02 0.  0.
        -12    1    1    2    0    0 -0.31272331405E+00  0.32828787343E+02  0.28386547968E+02  0.43400727872E+02  0.00000000000E+00 0.  1.
         11    1    3    3    0    0  0.21472836738E+01 -0.25018387110E+02 -0.29169659377E+02  0.38488953600E+02  0.51100000000E-03 0. -1.
        -11    1    3    3    0    0 -0.28696060647E+01 -0.29507412798E+01  0.12658475396E+01  0.43062609445E+01  0.51100000000E-03 0.  1.
         12    1    3    3    0    0  0.10350457049E+01 -0.48596589528E+01 -0.48273613050E+00  0.49920575838E+01  0.00000000000E+00 0. -1.
</event>
<event>
 7    1  0.3062695E-010  0.4778727E+02  0.7816164E-02  0.1312668E+00
        -11   -1    0    0    0    0  0.00000000000E+00  0.00000000000E+00  0.45593999997E+02  0.45594000000E+02  0.51100000000E-03 0. -1.
         11   -1    0    0    0    0 -0.00000000000E+00 -0.00000000000E+00 -0.45593999997E+02  0.45594000000E+02  0.51100000000E-03 0.  1.
    9900012    2    1    2    0    0  0.42222857311E+02  0.76143841654E+01  0.65478892756E+01  0.47787269826E+02  0.19999994443E+02 0.  0.
        -12    1    1    2    0    0 -0.42222857311E+02 -0.76143841654E+01 -0.65478892756E+01  0.43400730174E+02  0.00000000000E+00 0.  1.
         11    1    3    3    0    0  0.14413643505E+02 -0.46766490126E+01  0.45975844978E+01  0.15835464898E+02  0.51100000000E-03 0. -1.
        -11    1    3    3    0    0  0.74882781013E+01  0.60405622516E+01 -0.30844455021E+01  0.10103291818E+02  0.51100000000E-03 0.  1.
         12    1    3    3    0    0  0.20320935705E+02  0.62504709264E+01  0.50347502799E+01  0.21848513109E+02  0.00000000000E+00 0. -1.
</event>
<event>
 7    1  0.3062695E-010  0.4778727E+02  0.7816164E-02  0.1312668E+00
        -11   -1    0    0    0    0  0.00000000000E+00  0.00000000000E+00  0.45593999997E+02  0.45594000000E+02  0.51100000000E-03 0.  1.
         11   -1    0    0    0    0 -0.00000000000E+00 -0.00000000000E+00 -0.45593999997E+02  0.45594000000E+02  0.51100000000E-03 0. -1.
    9900012    2    1    2    0    0 -0.35916562001E+02 -0.62444993078E+01 -0.23550587975E+02  0.47787269689E+02  0.19999993821E+02 0.  0.
        -12    1    1    2    0    0  0.35916562001E+02  0.62444993078E+01  0.23550587975E+02  0.43400730311E+02  0.00000000000E+00 0.  1.
         11    1    3    3    0    0 -0.14661946003E+02 -0.11394068731E+01 -0.10541666263E+02  0.18094132653E+02  0.51100000000E-03 0. -1.
        -11    1    3    3    0    0 -0.17331683813E+02 -0.19487965611E+00 -0.25897282959E+01  0.17525180022E+02  0.51100000000E-03 0.  1.
        -12    1    3    3    0    0 -0.39229321843E+01 -0.49102127786E+01 -0.10419193416E+02  0.12167957014E+02  0.00000000000E+00 0.  1.
</event>
<event>
 7    1  0.3062695E-010  0.4778726E+02  0.7816164E-02  0.1312668E+00
        -11   -1    0    0    0    0  0.00000000000E+00  0.00000000000E+00  0.45593999997E+02  0.45594000000E+02  0.51100000000E-03 0.  1.
         11   -1    0    0    0    0 -0.00000000000E+00 -0.00000000000E+00 -0.45593999997E+02  0.45594000000E+02  0.51100000000E-03 0. -1.
    9900012    2    1    2    0    0  0.13373328036E+02  0.41239191985E+02 -0.20267495656E+01  0.47787256088E+02  0.19999931808E+02 0.  0.
        -12    1    1    2    0    0 -0.13373328036E+02 -0.41239191985E+02  0.20267495656E+01  0.43400743912E+02  0.00000000000E+00 0.  1.
         11    1    3    3    0    0  0.47901558573E+01  0.67241413306E+01  0.45155569313E+00  0.82682266887E+01  0.51100000000E-03 0. -1.
        -11    1    3    3    0    0  0.51505128717E+01  0.18019036590E+01  0.29159852454E+01  0.61868901599E+01  0.51100000000E-03 0.  1.
        -12    1    3    3    0    0  0.34326593073E+01  0.32713146995E+02 -0.53942905041E+01  0.33332139239E+02  0.00000000000E+00 0.  1.
</event>
<event>
 7    1  0.3062695E-010  0.4778727E+02  0.7816164E-02  0.1312668E+00
        -11   -1    0    0    0    0  0.00000000000E+00  0.00000000000E+00  0.45593999997E+02  0.45594000000E+02  0.51100000000E-03 0.  1.
         11   -1    0    0    0    0 -0.00000000000E+00 -0.00000000000E+00 -0.45593999997E+02  0.45594000000E+02  0.51100000000E-03 0. -1.
    9900012    2    1    2    0    0  0.74627299527E+01  0.27741416346E+02 -0.32532214590E+02  0.47787268378E+02  0.19999987841E+02 0.  0.
        -12    1    1    2    0    0 -0.74627299527E+01 -0.27741416346E+02  0.32532214590E+02  0.43400731622E+02  0.00000000000E+00 0.  1.
         11    1    3    3    0    0  0.38072662710E+00  0.43967429948E+01 -0.18026151965E+02  0.18558514398E+02  0.51100000000E-03 0. -1.
        -11    1    3    3    0    0  0.12188189741E+01  0.15441545402E+02 -0.80171640736E+01  0.17441380798E+02  0.51100000000E-03 0.  1.
         12    1    3    3    0    0  0.58631843515E+01  0.79031279486E+01 -0.64888985513E+01  0.11787373182E+02  0.00000000000E+00 0. -1.
</event>
<event>
 7    1  0.3062695E-010  0.4778727E+02  0.7816164E-02  0.1312668E+00
        -11   -1    0    0    0    0  0.00000000000E+00  0.00000000000E+00  0.45593999997E+02  0.45594000000E+02  0.51100000000E-03 0.  1.
         11   -1    0    0    0    0 -0.00000000000E+00 -0.00000000000E+00 -0.45593999997E+02  0.45594000000E+02  0.51100000000E-03 0. -1.
    9900012    2    1    2    0    0 -0.14625868420E+02  0.21067891945E+02 -0.35012159672E+02  0.47787269327E+02  0.19999992169E+02 0.  0.
        -12    1    1    2    0    0  0.14625868420E+02 -0.21067891945E+02  0.35012159672E+02  0.43400730673E+02  0.00000000000E+00 0.  1.
         11    1    3    3    0    0 -0.70968321512E+01  0.30351611189E+01 -0.20343325849E+02  0.21758403812E+02  0.51100000000E-03 0. -1.
        -11    1    3    3    0    0 -0.25451547698E+01  0.55778651946E+01  0.26607740240E-01  0.61311582238E+01  0.51100000000E-03 0.  1.
         12    1    3    3    0    0 -0.49838814991E+01  0.12454865631E+02 -0.14695441564E+02  0.19897707291E+02  0.00000000000E+00 0. -1.
</event>
<event>
 7    1  0.3062695E-010  0.4778727E+02  0.7816164E-02  0.1312668E+00
        -11   -1    0    0    0    0  0.00000000000E+00  0.00000000000E+00  0.45593999997E+02  0.45594000000E+02  0.51100000000E-03 0.  1.
         11   -1    0    0    0    0 -0.00000000000E+00 -0.00000000000E+00 -0.45593999997E+02  0.45594000000E+02  0.51100000000E-03 0. -1.
    9900012    2    1    2    0    0 -0.45783997406E+01  0.32453976794E+02 -0.28449981302E+02  0.47787265098E+02  0.19999972887E+02 0.  0.
        -12    1    1    2    0    0  0.45783997406E+01 -0.32453976794E+02  0.28449981302E+02  0.43400734902E+02  0.00000000000E+00 0.  1.
         11    1    3    3    0    0  0.26162895694E+01  0.26866190618E+01 -0.16588432901E+01  0.41005675725E+01  0.51100000000E-03 0. -1.
        -11    1    3    3    0    0  0.18421459369E+01  0.16295174405E+02 -0.20583016029E+02  0.26317043140E+02  0.51100000000E-03 0.  1.
        -12    1    3    3    0    0 -0.90368352468E+01  0.13472183328E+02 -0.62081219833E+01  0.17369654385E+02  0.00000000000E+00 0.  1.
</event>
<event>
 7    1  0.3062695E-010  0.4778728E+02  0.7816164E-02  0.1312668E+00
        -11   -1    0    0    0    0  0.00000000000E+00  0.00000000000E+00  0.45593999997E+02  0.45594000000E+02  0.51100000000E-03 0.  1.
         11   -1    0    0    0    0 -0.00000000000E+00 -0.00000000000E+00 -0.45593999997E+02  0.45594000000E+02  0.51100000000E-03 0. -1.
    9900012    2    1    2    0    0  0.14901923411E+01 -0.40554857422E+01 -0.43185123864E+02  0.47787279257E+02  0.20000037445E+02 0.  0.
        -12    1    1    2    0    0 -0.14901923411E+01  0.40554857422E+01  0.43185123864E+02  0.43400720743E+02  0.00000000000E+00 0.  1.
         11    1    3    3    0    0 -0.52378826113E+01  0.17976611160E+01 -0.24668694580E+02  0.25282632226E+02  0.51100000000E-03 0. -1.
        -11    1    3    3    0    0  0.47478769307E+01 -0.14445141885E+01 -0.16565310677E+02  0.17292728954E+02  0.51100000000E-03 0.  1.
         12    1    3    3    0    0  0.19801980217E+01 -0.44086326698E+01 -0.19511186078E+01  0.52119180772E+01  0.00000000000E+00 0. -1.
</event>
<event>
 7    1  0.3062695E-010  0.4778727E+02  0.7816164E-02  0.1312668E+00
        -11   -1    0    0    0    0  0.00000000000E+00  0.00000000000E+00  0.45593999997E+02  0.45594000000E+02  0.51100000000E-03 0.  1.
         11   -1    0    0    0    0 -0.00000000000E+00 -0.00000000000E+00 -0.45593999997E+02  0.45594000000E+02  0.51100000000E-03 0. -1.
    9900012    2    1    2    0    0  0.27211138885E+02 -0.11422293421E+02 -0.31823076741E+02  0.47787273282E+02  0.20000010200E+02 0.  0.
        -12    1    1    2    0    0 -0.27211138885E+02  0.11422293421E+02  0.31823076741E+02  0.43400726718E+02  0.00000000000E+00 0.  1.
         11    1    3    3    0    0  0.85316989477E+01 -0.60093997321E+01 -0.19042840508E+02  0.21714800182E+02  0.51100000000E-03 0. -1.
        -11    1    3    3    0    0  0.15989668249E+02 -0.23587004189E+01 -0.43915603789E+01  0.16748694314E+02  0.51100000000E-03 0.  1.
        -12    1    3    3    0    0  0.26897716883E+01 -0.30541932703E+01 -0.83886758535E+01  0.93237787856E+01  0.00000000000E+00 0.  1.
</event>
<event>
 7    1  0.3062695E-010  0.4778727E+02  0.7816164E-02  0.1312668E+00
        -11   -1    0    0    0    0  0.00000000000E+00  0.00000000000E+00  0.45593999997E+02  0.45594000000E+02  0.51100000000E-03 0. -1.
         11   -1    0    0    0    0 -0.00000000000E+00 -0.00000000000E+00 -0.45593999997E+02  0.45594000000E+02  0.51100000000E-03 0.  1.
    9900012    2    1    2    0    0 -0.22575399136E+02  0.34707706741E+02  0.13013442234E+02  0.47787271525E+02  0.20000002191E+02 0.  0.
        -12    1    1    2    0    0  0.22575399136E+02 -0.34707706741E+02 -0.13013442234E+02  0.43400728475E+02  0.00000000000E+00 0.  1.
         11    1    3    3    0    0 -0.62891307047E+01  0.29102365842E+01 -0.58620557939E-02  0.69298395813E+01  0.51100000000E-03 0. -1.
        -11    1    3    3    0    0 -0.88316790819E+00  0.60240001099E+01  0.85574012976E+01  0.10502270236E+02  0.51100000000E-03 0.  1.
        -12    1    3    3    0    0 -0.15403100523E+02  0.25773470047E+02  0.44619029918E+01  0.30355161708E+02  0.00000000000E+00 0.  1.
</event>
<event>
 7    1  0.3062695E-010  0.4778727E+02  0.7816164E-02  0.1312668E+00
        -11   -1    0    0    0    0  0.00000000000E+00  0.00000000000E+00  0.45593999997E+02  0.45594000000E+02  0.51100000000E-03 0. -1.
         11   -1    0    0    0    0 -0.00000000000E+00 -0.00000000000E+00 -0.45593999997E+02  0.45594000000E+02  0.51100000000E-03 0.  1.
    9900012    2    1    2    0    0  0.27742238407E+02  0.27808292757E+02  0.18457802007E+02  0.47787269674E+02  0.19999993754E+02 0.  0.
        -12    1    1    2    0    0 -0.27742238407E+02 -0.27808292757E+02 -0.18457802007E+02  0.43400730326E+02  0.00000000000E+00 0.  1.
         11    1    3    3    0    0  0.99229029616E+01  0.16676326877E+02  0.64772102231E+01  0.20457715753E+02  0.51100000000E-03 0. -1.
        -11    1    3    3    0    0  0.11737732481E+02  0.69836589929E+00  0.26121753652E+01  0.12045145874E+02  0.51100000000E-03 0.  1.
        -12    1    3    3    0    0  0.60816029640E+01  0.10433599980E+02  0.93684164191E+01  0.15284408047E+02  0.00000000000E+00 0.  1.
</event>
<event>
 7    1  0.3062695E-010  0.4778727E+02  0.7816164E-02  0.1312668E+00
        -11   -1    0    0    0    0  0.00000000000E+00  0.00000000000E+00  0.45593999997E+02  0.45594000000E+02  0.51100000000E-03 0. -1.
         11   -1    0    0    0    0 -0.00000000000E+00 -0.00000000000E+00 -0.45593999997E+02  0.45594000000E+02  0.51100000000E-03 0.  1.
    9900012    2    1    2    0    0 -0.64811629527E+01 -0.42913543327E+02  0.21425743997E+00  0.47787267514E+02  0.19999983903E+02 0.  0.
        -12    1    1    2    0    0  0.64811629527E+01  0.42913543327E+02 -0.21425743997E+00  0.43400732486E+02  0.00000000000E+00 0.  1.
         11    1    3    3    0    0 -0.61848618636E+01 -0.14586698443E+02  0.54287659529E+01  0.16748008472E+02  0.51100000000E-03 0. -1.
        -11    1    3    3    0    0  0.29389189622E+01 -0.25202896023E+02 -0.18849754086E+01  0.25443591436E+02  0.51100000000E-03 0.  1.
        -12    1    3    3    0    0 -0.32352200513E+01 -0.31239488605E+01 -0.33295331043E+01  0.55956676059E+01  0.00000000000E+00 0.  1.
</event>
<event>
 7    1  0.3062695E-010  0.4778726E+02  0.7816164E-02  0.1312668E+00
        -11   -1    0    0    0    0  0.00000000000E+00  0.00000000000E+00  0.45593999997E+02  0.45594000000E+02  0.51100000000E-03 0.  1.
         11   -1    0    0    0    0 -0.00000000000E+00 -0.00000000000E+00 -0.45593999997E+02  0.45594000000E+02  0.51100000000E-03 0. -1.
    9900012    2    1    2    0    0  0.40807411028E+02  0.13992247351E+02 -0.47535355585E+01  0.47787264050E+02  0.19999968109E+02 0.  0.
        -12    1    1    2    0    0 -0.40807411028E+02 -0.13992247351E+02  0.47535355585E+01  0.43400735950E+02  0.00000000000E+00 0.  1.
         11    1    3    3    0    0  0.14897303564E+02  0.63905108134E+01 -0.93408254119E+01  0.18708802783E+02  0.51100000000E-03 0. -1.
        -11    1    3    3    0    0  0.15843776925E+02 -0.13602445405E+00  0.41292458793E+01  0.16373589762E+02  0.51100000000E-03 0.  1.
        -12    1    3    3    0    0  0.10066330539E+02  0.77377609915E+01  0.45804397407E+00  0.12704871505E+02  0.00000000000E+00 0.  1.
</event>
<event>
 7    1  0.3062695E-010  0.4778727E+02  0.7816164E-02  0.1312668E+00
        -11   -1    0    0    0    0  0.00000000000E+00  0.00000000000E+00  0.45593999997E+02  0.45594000000E+02  0.51100000000E-03 0.  1.
         11   -1    0    0    0    0 -0.00000000000E+00 -0.00000000000E+00 -0.45593999997E+02  0.45594000000E+02  0.51100000000E-03 0. -1.
    9900012    2    1    2    0    0 -0.35633937119E+02 -0.24771022607E+02 -0.49226311279E+00  0.47787270068E+02  0.19999995550E+02 0.  0.
        -12    1    1    2    0    0  0.35633937119E+02  0.24771022607E+02  0.49226311279E+00  0.43400729932E+02  0.00000000000E+00 0.  1.
         11    1    3    3    0    0 -0.19738352854E+02 -0.10318491616E+02  0.74188743224E+01  0.23475807528E+02  0.51100000000E-03 0.  1.
        -11    1    3    3    0    0 -0.10241718545E+02 -0.13569797452E+02 -0.42703051718E+01  0.17529053259E+02  0.51100000000E-03 0. -1.
        -12    1    3    3    0    0 -0.56538657211E+01 -0.88273353897E+00 -0.36408322634E+01  0.67824092816E+01  0.00000000000E+00 0.  1.
</event>
<event>
 7    1  0.3062695E-010  0.4778727E+02  0.7816164E-02  0.1312668E+00
        -11   -1    0    0    0    0  0.00000000000E+00  0.00000000000E+00  0.45593999997E+02  0.45594000000E+02  0.51100000000E-03 0.  1.
         11   -1    0    0    0    0 -0.00000000000E+00 -0.00000000000E+00 -0.45593999997E+02  0.45594000000E+02  0.51100000000E-03 0. -1.
    9900012    2    1    2    0    0  0.29406840613E+01 -0.35933780630E+02  0.24160694011E+02  0.47787270188E+02  0.19999996096E+02 0.  0.
        -12    1    1    2    0    0 -0.29406840613E+01  0.35933780630E+02 -0.24160694011E+02  0.43400729812E+02  0.00000000000E+00 0.  1.
         11    1    3    3    0    0 -0.67883848090E+01 -0.48089452912E+01  0.32693780975E+01  0.89385097490E+01  0.51100000000E-03 0.  1.
        -11    1    3    3    0    0  0.74596077074E+01 -0.26117829148E+02  0.18436693466E+02  0.32828317239E+02  0.51100000000E-03 0. -1.
        -12    1    3    3    0    0  0.22694611628E+01 -0.50070061904E+01  0.24546224482E+01  0.60204431999E+01  0.00000000000E+00 0.  1.
</event>
<event>
 7    1  0.3062695E-010  0.4778729E+02  0.7816164E-02  0.1312668E+00
        -11   -1    0    0    0    0  0.00000000000E+00  0.00000000000E+00  0.45593999997E+02  0.45594000000E+02  0.51100000000E-03 0.  1.
         11   -1    0    0    0    0 -0.00000000000E+00 -0.00000000000E+00 -0.45593999997E+02  0.45594000000E+02  0.51100000000E-03 0. -1.
    9900012    2    1    2    0    0 -0.28812269498E+02  0.17930382318E+02 -0.27055055557E+02  0.47787291309E+02  0.20000092394E+02 0.  0.
        -12    1    1    2    0    0  0.28812269498E+02 -0.17930382318E+02  0.27055055557E+02  0.43400708691E+02  0.00000000000E+00 0.  1.
         11    1    3    3    0    0 -0.58167166326E+01  0.61707181884E+01  0.14146295863E+01  0.85972747119E+01  0.51100000000E-03 0. -1.
        -11    1    3    3    0    0 -0.16197959174E+02  0.58630775118E+01 -0.22716187655E+02  0.28509204499E+02  0.51100000000E-03 0.  1.
         12    1    3    3    0    0 -0.67975936912E+01  0.58965866179E+01 -0.57534974885E+01  0.10680812098E+02  0.00000000000E+00 0. -1.
</event>
<event>
 7    1  0.3062695E-010  0.4778727E+02  0.7816164E-02  0.1312668E+00
        -11   -1    0    0    0    0  0.00000000000E+00  0.00000000000E+00  0.45593999997E+02  0.45594000000E+02  0.51100000000E-03 0.  1.
         11   -1    0    0    0    0 -0.00000000000E+00 -0.00000000000E+00 -0.45593999997E+02  0.45594000000E+02  0.51100000000E-03 0. -1.
    9900012    2    1    2    0    0  0.10398008515E+02  0.35746689130E+02 -0.22308713382E+02  0.47787273536E+02  0.20000011362E+02 0.  0.
        -12    1    1    2    0    0 -0.10398008515E+02 -0.35746689130E+02  0.22308713382E+02  0.43400726464E+02  0.00000000000E+00 0.  1.
         11    1    3    3    0    0 -0.30412502020E+01  0.15545285173E+02 -0.76393575676E+01  0.17585928414E+02  0.51100000000E-03 0. -1.
        -11    1    3    3    0    0  0.13284549008E+02  0.20448786034E+02 -0.11398695390E+02  0.26917695842E+02  0.51100000000E-03 0.  1.
         12    1    3    3    0    0  0.15470970891E+00 -0.24738207659E+00 -0.32706604235E+01  0.32836492797E+01  0.00000000000E+00 0. -1.
</event>
<event>
 7    1  0.3062695E-010  0.4778727E+02  0.7816164E-02  0.1312668E+00
        -11   -1    0    0    0    0  0.00000000000E+00  0.00000000000E+00  0.45593999997E+02  0.45594000000E+02  0.51100000000E-03 0. -1.
         11   -1    0    0    0    0 -0.00000000000E+00 -0.00000000000E+00 -0.45593999997E+02  0.45594000000E+02  0.51100000000E-03 0.  1.
    9900012    2    1    2    0    0  0.22522892135E+02  0.67313118600E+01  0.36483317015E+02  0.47787266713E+02  0.19999980250E+02 0.  0.
        -12    1    1    2    0    0 -0.22522892135E+02 -0.67313118600E+01 -0.36483317015E+02  0.43400733287E+02  0.00000000000E+00 0.  1.
         11    1    3    3    0    0 -0.30065913458E+01  0.52148380523E+00  0.45129519492E+01  0.54477768343E+01  0.51100000000E-03 0.  1.
        -11    1    3    3    0    0  0.19827740503E+02  0.27101785307E+01  0.28439404833E+02  0.34774762524E+02  0.51100000000E-03 0. -1.
        -12    1    3    3    0    0  0.57017429779E+01  0.34996495240E+01  0.35309602329E+01  0.75647273542E+01  0.00000000000E+00 0.  1.
</event>
<event>
 7    1  0.3062695E-010  0.4778727E+02  0.7816164E-02  0.1312668E+00
        -11   -1    0    0    0    0  0.00000000000E+00  0.00000000000E+00  0.45593999997E+02  0.45594000000E+02  0.51100000000E-03 0. -1.
         11   -1    0    0    0    0 -0.00000000000E+00 -0.00000000000E+00 -0.45593999997E+02  0.45594000000E+02  0.51100000000E-03 0.  1.
    9900012    2    1    2    0    0 -0.91877650199E+01  0.42133925370E+02 -0.48928966211E+01  0.47787272696E+02  0.20000007530E+02 0.  0.
        -12    1    1    2    0    0  0.91877650199E+01 -0.42133925370E+02  0.48928966211E+01  0.43400727304E+02  0.00000000000E+00 0.  1.
         11    1    3    3    0    0 -0.15476113676E+01  0.33460404334E+02 -0.15145337037E+01  0.33530397727E+02  0.51100000000E-03 0. -1.
        -11    1    3    3    0    0 -0.30075439518E+01  0.10810603699E+00 -0.33710194760E+01  0.45189357272E+01  0.51100000000E-03 0.  1.
         12    1    3    3    0    0 -0.46326097005E+01  0.85654149992E+01 -0.73434413939E-02  0.97379392416E+01  0.00000000000E+00 0. -1.
</event>
<event>
 7    1  0.3062695E-010  0.4778727E+02  0.7816164E-02  0.1312668E+00
        -11   -1    0    0    0    0  0.00000000000E+00  0.00000000000E+00  0.45593999997E+02  0.45594000000E+02  0.51100000000E-03 0.  1.
         11   -1    0    0    0    0 -0.00000000000E+00 -0.00000000000E+00 -0.45593999997E+02  0.45594000000E+02  0.51100000000E-03 0. -1.
    9900012    2    1    2    0    0 -0.34967300673E+02 -0.17490227386E+02 -0.18841524355E+02  0.47787271776E+02  0.20000003337E+02 0.  0.
        -12    1    1    2    0    0  0.34967300673E+02  0.17490227386E+02  0.18841524355E+02  0.43400728224E+02  0.00000000000E+00 0.  1.
         11    1    3    3    0    0 -0.63980202664E+01 -0.11374518641E+02 -0.12482540204E+01  0.13110014340E+02  0.51100000000E-03 0.  1.
        -11    1    3    3    0    0  0.27966714062E+00 -0.21076480600E+00 -0.55484334296E+00  0.65611501228E+00  0.51100000000E-03 0. -1.
         12    1    3    3    0    0 -0.28848947547E+02 -0.59049439392E+01 -0.17038426991E+02  0.34021142424E+02  0.00000000000E+00 0. -1.
</event>
<event>
 7    1  0.3062695E-010  0.4778727E+02  0.7816164E-02  0.1312668E+00
        -11   -1    0    0    0    0  0.00000000000E+00  0.00000000000E+00  0.45593999997E+02  0.45594000000E+02  0.51100000000E-03 0. -1.
         11   -1    0    0    0    0 -0.00000000000E+00 -0.00000000000E+00 -0.45593999997E+02  0.45594000000E+02  0.51100000000E-03 0.  1.
    9900012    2    1    2    0    0  0.27770588098E+02 -0.46001633100E+01  0.33034167931E+02  0.47787270551E+02  0.19999997752E+02 0.  0.
        -12    1    1    2    0    0 -0.27770588098E+02  0.46001633100E+01 -0.33034167931E+02  0.43400729449E+02  0.00000000000E+00 0.  1.
         11    1    3    3    0    0  0.38342447605E+01  0.32470211805E+01  0.56066721904E+01  0.75285691032E+01  0.51100000000E-03 0. -1.
        -11    1    3    3    0    0  0.34020911038E+01 -0.72439496544E+01  0.12587157833E+02  0.14915950290E+02  0.51100000000E-03 0.  1.
        -12    1    3    3    0    0  0.20534252234E+02 -0.60323483616E+00  0.14840337907E+02  0.25342751158E+02  0.00000000000E+00 0.  1.
</event>
<event>
 7    1  0.3062695E-010  0.4778729E+02  0.7816164E-02  0.1312668E+00
        -11   -1    0    0    0    0  0.00000000000E+00  0.00000000000E+00  0.45593999997E+02  0.45594000000E+02  0.51100000000E-03 0.  1.
         11   -1    0    0    0    0 -0.00000000000E+00 -0.00000000000E+00 -0.45593999997E+02  0.45594000000E+02  0.51100000000E-03 0. -1.
    9900012    2    1    2    0    0  0.14023733181E+02 -0.29276584454E+02 -0.28806913481E+02  0.47787288555E+02  0.20000079837E+02 0.  0.
        -12    1    1    2    0    0 -0.14023733181E+02  0.29276584454E+02  0.28806913481E+02  0.43400711445E+02  0.00000000000E+00 0.  1.
         11    1    3    3    0    0  0.12858350198E+02 -0.20230583459E+02 -0.12158551743E+02  0.26878319472E+02  0.51100000000E-03 0. -1.
        -11    1    3    3    0    0 -0.19067321410E+01  0.65351720634E+00 -0.52847955678E+01  0.56561273546E+01  0.51100000000E-03 0.  1.
         12    1    3    3    0    0  0.30721151233E+01 -0.96995182020E+01 -0.11363566170E+02  0.15252841728E+02  0.00000000000E+00 0. -1.
</event>
<event>
 7    1  0.3062695E-010  0.4778727E+02  0.7816164E-02  0.1312668E+00
        -11   -1    0    0    0    0  0.00000000000E+00  0.00000000000E+00  0.45593999997E+02  0.45594000000E+02  0.51100000000E-03 0.  1.
         11   -1    0    0    0    0 -0.00000000000E+00 -0.00000000000E+00 -0.45593999997E+02  0.45594000000E+02  0.51100000000E-03 0. -1.
    9900012    2    1    2    0    0 -0.16895363767E+02 -0.14186180231E+02 -0.37375420323E+02  0.47787273386E+02  0.20000010674E+02 0.  0.
        -12    1    1    2    0    0  0.16895363767E+02  0.14186180231E+02  0.37375420323E+02  0.43400726614E+02  0.00000000000E+00 0.  1.
         11    1    3    3    0    0 -0.84378313979E+01 -0.10022238909E+02 -0.79508507752E+01  0.15325087268E+02  0.51100000000E-03 0. -1.
        -11    1    3    3    0    0 -0.33743699668E+01  0.98099621745E+00 -0.18829371004E+01  0.39867503856E+01  0.51100000000E-03 0.  1.
         12    1    3    3    0    0 -0.50831624020E+01 -0.51449375389E+01 -0.27541632447E+02  0.28475435732E+02  0.00000000000E+00 0. -1.
</event>
<event>
 7    1  0.4014490E-010  0.4778727E+02  0.7816164E-02  0.1312668E+00
        -11   -1    0    0    0    0  0.00000000000E+00  0.00000000000E+00  0.45593999997E+02  0.45594000000E+02  0.51100000000E-03 0. -1.
         11   -1    0    0    0    0 -0.00000000000E+00 -0.00000000000E+00 -0.45593999997E+02  0.45594000000E+02  0.51100000000E-03 0.  1.
    9900012    2    1    2    0    0 -0.11087489073E+01 -0.29766500367E-03  0.43386564394E+02  0.47787270811E+02  0.19999998937E+02 0.  0.
        -12    1    1    2    0    0  0.11087489073E+01  0.29766500367E-03 -0.43386564394E+02  0.43400729189E+02  0.00000000000E+00 0.  1.
         11    1    3    3    0    0  0.13603870841E+01  0.43240954277E+01  0.20490610964E+02  0.20986033265E+02  0.51100000000E-03 0. -1.
        -11    1    3    3    0    0 -0.53207997425E+01 -0.76561080945E+01  0.17670995663E+02  0.19979764489E+02  0.51100000000E-03 0.  1.
        -12    1    3    3    0    0  0.28516637511E+01  0.33317150018E+01  0.52249577672E+01  0.68214730573E+01  0.00000000000E+00 0.  1.
</event>
<event>
 7    1  0.3062695E-010  0.4778727E+02  0.7816164E-02  0.1312668E+00
        -11   -1    0    0    0    0  0.00000000000E+00  0.00000000000E+00  0.45593999997E+02  0.45594000000E+02  0.51100000000E-03 0.  1.
         11   -1    0    0    0    0 -0.00000000000E+00 -0.00000000000E+00 -0.45593999997E+02  0.45594000000E+02  0.51100000000E-03 0. -1.
    9900012    2    1    2    0    0 -0.17790392909E+02  0.15199068423E+02 -0.36552882850E+02  0.47787274137E+02  0.20000014099E+02 0.  0.
        -12    1    1    2    0    0  0.17790392909E+02 -0.15199068423E+02  0.36552882850E+02  0.43400725863E+02  0.00000000000E+00 0.  1.
         11    1    3    3    0    0 -0.57870913479E+01  0.16575612533E+02 -0.18317699054E+02  0.25372809383E+02  0.51100000000E-03 0. -1.
        -11    1    3    3    0    0 -0.42402870109E+01  0.11148726163E+01 -0.36485096061E+01  0.57039107192E+01  0.51100000000E-03 0.  1.
         12    1    3    3    0    0 -0.77630145498E+01 -0.24914167259E+01 -0.14586674190E+02  0.16710554035E+02  0.00000000000E+00 0. -1.
</event>
<event>
 7    1  0.3062695E-010  0.4778727E+02  0.7816164E-02  0.1312668E+00
        -11   -1    0    0    0    0  0.00000000000E+00  0.00000000000E+00  0.45593999997E+02  0.45594000000E+02  0.51100000000E-03 0.  1.
         11   -1    0    0    0    0 -0.00000000000E+00 -0.00000000000E+00 -0.45593999997E+02  0.45594000000E+02  0.51100000000E-03 0. -1.
    9900012    2    1    2    0    0  0.85815085150E+01 -0.51234047841E-01 -0.42543840242E+02  0.47787271252E+02  0.20000000945E+02 0.  0.
        -12    1    1    2    0    0 -0.85815085150E+01  0.51234047841E-01  0.42543840242E+02  0.43400728748E+02  0.00000000000E+00 0.  1.
         11    1    3    3    0    0  0.12961777168E+02 -0.37319713378E+01 -0.35640345122E+02  0.38107341525E+02  0.51100000000E-03 0. -1.
        -11    1    3    3    0    0 -0.46883307560E+01  0.28446256977E+01 -0.68672381837E+01  0.87881341120E+01  0.51100000000E-03 0.  1.
         12    1    3    3    0    0  0.30806210274E+00  0.83611159221E+00 -0.36256937130E-01  0.89179561518E+00  0.00000000000E+00 0. -1.
</event>
<event>
 7    1  0.3062695E-010  0.4778728E+02  0.7816164E-02  0.1312668E+00
        -11   -1    0    0    0    0  0.00000000000E+00  0.00000000000E+00  0.45593999997E+02  0.45594000000E+02  0.51100000000E-03 0.  1.
         11   -1    0    0    0    0 -0.00000000000E+00 -0.00000000000E+00 -0.45593999997E+02  0.45594000000E+02  0.51100000000E-03 0. -1.
    9900012    2    1    2    0    0 -0.38946772854E+00  0.42992939033E+02 -0.59226965008E+01  0.47787276208E+02  0.20000023542E+02 0.  0.
        -12    1    1    2    0    0  0.38946772854E+00 -0.42992939033E+02  0.59226965008E+01  0.43400723792E+02  0.00000000000E+00 0.  1.
         11    1    3    3    0    0 -0.86602777593E+01  0.27282396279E+02 -0.78967237224E+01  0.29693228242E+02  0.51100000000E-03 0. -1.
        -11    1    3    3    0    0  0.54976975809E+01  0.83326511063E+01  0.59652586608E-01  0.99830512291E+01  0.51100000000E-03 0.  1.
         12    1    3    3    0    0  0.27731124498E+01  0.73778916476E+01  0.19143746351E+01  0.81109967369E+01  0.00000000000E+00 0. -1.
</event>
<event>
 7    1  0.3062695E-010  0.4778728E+02  0.7816164E-02  0.1312668E+00
        -11   -1    0    0    0    0  0.00000000000E+00  0.00000000000E+00  0.45593999997E+02  0.45594000000E+02  0.51100000000E-03 0.  1.
         11   -1    0    0    0    0 -0.00000000000E+00 -0.00000000000E+00 -0.45593999997E+02  0.45594000000E+02  0.51100000000E-03 0. -1.
    9900012    2    1    2    0    0  0.40139411342E+01 -0.11477660401E+02 -0.41662626540E+02  0.47787275791E+02  0.20000021640E+02 0.  0.
        -12    1    1    2    0    0 -0.40139411342E+01  0.11477660401E+02  0.41662626540E+02  0.43400724209E+02  0.00000000000E+00 0.  1.
         11    1    3    3    0    0  0.55125600168E+01 -0.17435026274E+01 -0.20716459717E+02  0.21508133875E+02  0.51100000000E-03 0. -1.
        -11    1    3    3    0    0 -0.58889525666E+01 -0.85929150597E+00 -0.84593975675E+01  0.10343091979E+02  0.51100000000E-03 0.  1.
        -12    1    3    3    0    0  0.43903336840E+01 -0.88748662679E+01 -0.12486769255E+02  0.15936049936E+02  0.00000000000E+00 0.  1.
</event>
<event>
 7    1  0.3062695E-010  0.4778727E+02  0.7816164E-02  0.1312668E+00
        -11   -1    0    0    0    0  0.00000000000E+00  0.00000000000E+00  0.45593999997E+02  0.45594000000E+02  0.51100000000E-03 0.  1.
         11   -1    0    0    0    0 -0.00000000000E+00 -0.00000000000E+00 -0.45593999997E+02  0.45594000000E+02  0.51100000000E-03 0. -1.
    9900012    2    1    2    0    0 -0.31968816040E+02  0.39453869577E+01 -0.29086976090E+02  0.47787268954E+02  0.19999990469E+02 0.  0.
        -12    1    1    2    0    0  0.31968816040E+02 -0.39453869577E+01  0.29086976090E+02  0.43400731046E+02  0.00000000000E+00 0.  1.
         11    1    3    3    0    0 -0.12425958214E+02  0.50817095241E+00 -0.20431047516E+02  0.23918410861E+02  0.51100000000E-03 0. -1.
        -11    1    3    3    0    0 -0.20001000866E+02  0.41020389397E+01 -0.62827716436E+01  0.21362115506E+02  0.51100000000E-03 0.  1.
        -12    1    3    3    0    0  0.45814303995E+00 -0.66482293438E+00 -0.23731569309E+01  0.25067425870E+01  0.00000000000E+00 0.  1.
</event>
<event>
 7    1  0.3062695E-010  0.4778727E+02  0.7816164E-02  0.1312668E+00
        -11   -1    0    0    0    0  0.00000000000E+00  0.00000000000E+00  0.45593999997E+02  0.45594000000E+02  0.51100000000E-03 0.  1.
         11   -1    0    0    0    0 -0.00000000000E+00 -0.00000000000E+00 -0.45593999997E+02  0.45594000000E+02  0.51100000000E-03 0. -1.
    9900012    2    1    2    0    0  0.35630706508E+01 -0.42701662278E+02  0.68917265699E+01  0.47787270411E+02  0.19999997112E+02 0.  0.
        -12    1    1    2    0    0 -0.35630706508E+01  0.42701662278E+02 -0.68917265699E+01  0.43400729589E+02  0.00000000000E+00 0.  1.
         11    1    3    3    0    0  0.11187114641E+01 -0.22808581518E+02  0.34792128698E+01  0.23099520096E+02  0.51100000000E-03 0. -1.
        -11    1    3    3    0    0  0.32662891166E+01  0.10738145972E+01  0.90553203754E+00  0.35555183749E+01  0.51100000000E-03 0.  1.
        -12    1    3    3    0    0 -0.82192992989E+00 -0.20966895357E+02  0.25069816625E+01  0.21132231940E+02  0.00000000000E+00 0.  1.
</event>
<event>
 7    1  0.3062695E-010  0.4778727E+02  0.7816164E-02  0.1312668E+00
        -11   -1    0    0    0    0  0.00000000000E+00  0.00000000000E+00  0.45593999997E+02  0.45594000000E+02  0.51100000000E-03 0. -1.
         11   -1    0    0    0    0 -0.00000000000E+00 -0.00000000000E+00 -0.45593999997E+02  0.45594000000E+02  0.51100000000E-03 0.  1.
    9900012    2    1    2    0    0 -0.11870673779E+02 -0.37226858611E+02  0.18891032049E+02  0.47787274316E+02  0.20000014915E+02 0.  0.
        -12    1    1    2    0    0  0.11870673779E+02  0.37226858611E+02 -0.18891032049E+02  0.43400725684E+02  0.00000000000E+00 0.  1.
         11    1    3    3    0    0 -0.54839629999E+01 -0.16002368774E+02  0.28707955684E+01  0.17157829817E+02  0.51100000000E-03 0. -1.
        -11    1    3    3    0    0  0.30022271734E+01 -0.10091087988E+02  0.10995581081E+02  0.15223213470E+02  0.51100000000E-03 0.  1.
        -12    1    3    3    0    0 -0.93889379529E+01 -0.11133401850E+02  0.50246553992E+01  0.15406231029E+02  0.00000000000E+00 0.  1.
</event>
<event>
 7    1  0.3062695E-010  0.4778728E+02  0.7816164E-02  0.1312668E+00
        -11   -1    0    0    0    0  0.00000000000E+00  0.00000000000E+00  0.45593999997E+02  0.45594000000E+02  0.51100000000E-03 0. -1.
         11   -1    0    0    0    0 -0.00000000000E+00 -0.00000000000E+00 -0.45593999997E+02  0.45594000000E+02  0.51100000000E-03 0.  1.
    9900012    2    1    2    0    0  0.43183751142E+02 -0.48627737503E+00 -0.43069709071E+01  0.47787276195E+02  0.20000023486E+02 0.  0.
        -12    1    1    2    0    0 -0.43183751142E+02  0.48627737503E+00  0.43069709071E+01  0.43400723805E+02  0.00000000000E+00 0.  1.
         11    1    3    3    0    0  0.86175668778E+01 -0.14376595431E+01 -0.84892392010E+01  0.12181810470E+02  0.51100000000E-03 0. -1.
        -11    1    3    3    0    0  0.87387501988E+01  0.26991884141E+01 -0.10153989476E+01  0.92023045165E+01  0.51100000000E-03 0.  1.
         12    1    3    3    0    0  0.25827434065E+02 -0.17478062460E+01  0.51976672415E+01  0.26403161209E+02  0.00000000000E+00 0. -1.
</event>
<event>
 7    1  0.3062695E-010  0.4778727E+02  0.7816164E-02  0.1312668E+00
        -11   -1    0    0    0    0  0.00000000000E+00  0.00000000000E+00  0.45593999997E+02  0.45594000000E+02  0.51100000000E-03 0.  1.
         11   -1    0    0    0    0 -0.00000000000E+00 -0.00000000000E+00 -0.45593999997E+02  0.45594000000E+02  0.51100000000E-03 0. -1.
    9900012    2    1    2    0    0 -0.36542605837E+02 -0.23304694177E+02  0.22699072666E+01  0.47787270847E+02  0.19999999099E+02 0.  0.
        -12    1    1    2    0    0  0.36542605837E+02  0.23304694177E+02 -0.22699072666E+01  0.43400729153E+02  0.00000000000E+00 0.  1.
         11    1    3    3    0    0 -0.31856014430E+02 -0.12090415336E+02 -0.18555035752E+01  0.34123696929E+02  0.51100000000E-03 0. -1.
        -11    1    3    3    0    0 -0.15258589411E+01 -0.77491507532E+01  0.85132492888E+00  0.79436979612E+01  0.51100000000E-03 0.  1.
         12    1    3    3    0    0 -0.31607324659E+01 -0.34651280883E+01  0.32740859129E+01  0.57198759562E+01  0.00000000000E+00 0. -1.
</event>
<event>
 7    1  0.3062695E-010  0.4778726E+02  0.7816164E-02  0.1312668E+00
        -11   -1    0    0    0    0  0.00000000000E+00  0.00000000000E+00  0.45593999997E+02  0.45594000000E+02  0.51100000000E-03 0.  1.
         11   -1    0    0    0    0 -0.00000000000E+00 -0.00000000000E+00 -0.45593999997E+02  0.45594000000E+02  0.51100000000E-03 0. -1.
    9900012    2    1    2    0    0 -0.65801162305E+01 -0.16263804964E+02 -0.39696532986E+02  0.47787262534E+02  0.19999961198E+02 0.  0.
        -12    1    1    2    0    0  0.65801162305E+01  0.16263804964E+02  0.39696532986E+02  0.43400737466E+02  0.00000000000E+00 0.  1.
         11    1    3    3    0    0 -0.20857899579E+00 -0.18898214770E+01 -0.20678134925E+02  0.20765360450E+02  0.51100000000E-03 0. -1.
        -11    1    3    3    0    0 -0.37438820483E+01 -0.89901020205E+01 -0.34349278316E+01  0.10326534588E+02  0.51100000000E-03 0.  1.
        -12    1    3    3    0    0 -0.26276551864E+01 -0.53838814665E+01 -0.15583470229E+02  0.16695367496E+02  0.00000000000E+00 0.  1.
</event>
<event>
 7    1  0.3062695E-010  0.4778727E+02  0.7816164E-02  0.1312668E+00
        -11   -1    0    0    0    0  0.00000000000E+00  0.00000000000E+00  0.45593999997E+02  0.45594000000E+02  0.51100000000E-03 0.  1.
         11   -1    0    0    0    0 -0.00000000000E+00 -0.00000000000E+00 -0.45593999997E+02  0.45594000000E+02  0.51100000000E-03 0. -1.
    9900012    2    1    2    0    0 -0.23677168764E+02  0.16590802293E+02 -0.32369126298E+02  0.47787269836E+02  0.19999994492E+02 0.  0.
        -12    1    1    2    0    0  0.23677168764E+02 -0.16590802293E+02  0.32369126298E+02  0.43400730164E+02  0.00000000000E+00 0.  1.
         11    1    3    3    0    0 -0.19530259423E+02  0.20057858433E+02 -0.28098936445E+02  0.39664832631E+02  0.51100000000E-03 0. -1.
        -11    1    3    3    0    0 -0.27462710233E+01 -0.35342835764E+01 -0.48548017335E+01  0.66032011225E+01  0.51100000000E-03 0.  1.
         12    1    3    3    0    0 -0.14006383180E+01  0.67227436147E-01  0.58461187961E+00  0.15192360829E+01  0.00000000000E+00 0. -1.
</event>
<event>
 7    1  0.3062695E-010  0.4778727E+02  0.7816164E-02  0.1312668E+00
        -11   -1    0    0    0    0  0.00000000000E+00  0.00000000000E+00  0.45593999997E+02  0.45594000000E+02  0.51100000000E-03 0.  1.
         11   -1    0    0    0    0 -0.00000000000E+00 -0.00000000000E+00 -0.45593999997E+02  0.45594000000E+02  0.51100000000E-03 0. -1.
    9900012    2    1    2    0    0  0.50167647041E+01 -0.15412184709E+02 -0.40260649066E+02  0.47787271563E+02  0.20000002365E+02 0.  0.
        -12    1    1    2    0    0 -0.50167647041E+01  0.15412184709E+02  0.40260649066E+02  0.43400728437E+02  0.00000000000E+00 0.  1.
         11    1    3    3    0    0  0.20752117865E+00 -0.48260963837E+01 -0.92775193350E+01  0.10459762742E+02  0.51100000000E-03 0. -1.
        -11    1    3    3    0    0  0.65472228511E+01 -0.89413721807E+01 -0.67489024875E+01  0.12975436354E+02  0.51100000000E-03 0.  1.
        -12    1    3    3    0    0 -0.17379793256E+01 -0.16447161445E+01 -0.24234227244E+02  0.24352072467E+02  0.00000000000E+00 0.  1.
</event>
<event>
 7    1  0.3062695E-010  0.4778727E+02  0.7816164E-02  0.1312668E+00
        -11   -1    0    0    0    0  0.00000000000E+00  0.00000000000E+00  0.45593999997E+02  0.45594000000E+02  0.51100000000E-03 0.  1.
         11   -1    0    0    0    0 -0.00000000000E+00 -0.00000000000E+00 -0.45593999997E+02  0.45594000000E+02  0.51100000000E-03 0. -1.
    9900012    2    1    2    0    0  0.17037970644E+02 -0.36988002530E+02 -0.15007283132E+02  0.47787270491E+02  0.19999997479E+02 0.  0.
        -12    1    1    2    0    0 -0.17037970644E+02  0.36988002530E+02  0.15007283132E+02  0.43400729509E+02  0.00000000000E+00 0.  1.
         11    1    3    3    0    0  0.16678922332E+00 -0.93935014725E+01 -0.81254440479E+01  0.12421293403E+02  0.51100000000E-03 0. -1.
        -11    1    3    3    0    0  0.16942968410E+02 -0.16683308383E+02 -0.48002267902E+01  0.24257764419E+02  0.51100000000E-03 0.  1.
        -12    1    3    3    0    0 -0.71786989001E-01 -0.10911192675E+02 -0.20816122944E+01  0.11108212669E+02  0.00000000000E+00 0.  1.
</event>
<event>
 7    1  0.3062695E-010  0.4778727E+02  0.7816164E-02  0.1312668E+00
        -11   -1    0    0    0    0  0.00000000000E+00  0.00000000000E+00  0.45593999997E+02  0.45594000000E+02  0.51100000000E-03 0.  1.
         11   -1    0    0    0    0 -0.00000000000E+00 -0.00000000000E+00 -0.45593999997E+02  0.45594000000E+02  0.51100000000E-03 0. -1.
    9900012    2    1    2    0    0  0.20526976872E+02  0.37901185916E+02 -0.50760914232E+01  0.47787269850E+02  0.19999994556E+02 0.  0.
        -12    1    1    2    0    0 -0.20526976872E+02 -0.37901185916E+02  0.50760914232E+01  0.43400730150E+02  0.00000000000E+00 0.  1.
         11    1    3    3    0    0  0.80423765638E+00  0.16035593431E+02  0.75413622794E+00  0.16073449431E+02  0.51100000000E-03 0. -1.
        -11    1    3    3    0    0  0.42179519447E+01  0.65386408160E+01  0.27951863092E+01  0.82678902444E+01  0.51100000000E-03 0.  1.
         12    1    3    3    0    0  0.15504787271E+02  0.15326951670E+02 -0.86254139603E+01  0.23445930175E+02  0.00000000000E+00 0. -1.
</event>
<event>
 7    1  0.3062695E-010  0.4778727E+02  0.7816164E-02  0.1312668E+00
        -11   -1    0    0    0    0  0.00000000000E+00  0.00000000000E+00  0.45593999997E+02  0.45594000000E+02  0.51100000000E-03 0.  1.
         11   -1    0    0    0    0 -0.00000000000E+00 -0.00000000000E+00 -0.45593999997E+02  0.45594000000E+02  0.51100000000E-03 0. -1.
    9900012    2    1    2    0    0 -0.25039945076E+02  0.72635524821E+00 -0.35441455300E+02  0.47787271951E+02  0.20000004136E+02 0.  0.
        -12    1    1    2    0    0  0.25039945076E+02 -0.72635524821E+00  0.35441455300E+02  0.43400728049E+02  0.00000000000E+00 0.  1.
         11    1    3    3    0    0 -0.18932337302E+02  0.13105123959E+01 -0.29230507412E+02  0.34850730298E+02  0.51100000000E-03 0. -1.
        -11    1    3    3    0    0 -0.34269962627E+01 -0.48296763895E+01 -0.50506281016E+01  0.77832462311E+01  0.51100000000E-03 0.  1.
         12    1    3    3    0    0 -0.26806115113E+01  0.42455192418E+01 -0.11603197864E+01  0.51532954227E+01  0.00000000000E+00 0. -1.
</event>
<event>
 7    1  0.3222416E-010  0.4778727E+02  0.7816164E-02  0.1312668E+00
        -11   -1    0    0    0    0  0.00000000000E+00  0.00000000000E+00  0.45593999997E+02  0.45594000000E+02  0.51100000000E-03 0. -1.
         11   -1    0    0    0    0 -0.00000000000E+00 -0.00000000000E+00 -0.45593999997E+02  0.45594000000E+02  0.51100000000E-03 0.  1.
    9900012    2    1    2    0    0  0.27628650487E+02  0.16367115322E+02  0.29195869864E+02  0.47787267186E+02  0.19999982407E+02 0.  0.
        -12    1    1    2    0    0 -0.27628650487E+02 -0.16367115322E+02 -0.29195869864E+02  0.43400732814E+02  0.00000000000E+00 0.  1.
         11    1    3    3    0    0  0.12045024346E+02  0.13248723284E+02  0.17674161291E+02  0.25159238020E+02  0.51100000000E-03 0. -1.
        -11    1    3    3    0    0  0.39481709665E+01 -0.40536573484E+01  0.21400133712E+01  0.60497809357E+01  0.51100000000E-03 0.  1.
        -12    1    3    3    0    0  0.11635455175E+02  0.71720493863E+01  0.93816952019E+01  0.16578248230E+02  0.00000000000E+00 0.  1.
</event>
<event>
 7    1  0.3062695E-010  0.4778726E+02  0.7816164E-02  0.1312668E+00
        -11   -1    0    0    0    0  0.00000000000E+00  0.00000000000E+00  0.45593999997E+02  0.45594000000E+02  0.51100000000E-03 0.  1.
         11   -1    0    0    0    0 -0.00000000000E+00 -0.00000000000E+00 -0.45593999997E+02  0.45594000000E+02  0.51100000000E-03 0. -1.
    9900012    2    1    2    0    0  0.19394143493E+02  0.39996717110E+01 -0.38619867962E+02  0.47787258336E+02  0.19999942057E+02 0.  0.
        -12    1    1    2    0    0 -0.19394143493E+02 -0.39996717110E+01  0.38619867962E+02  0.43400741664E+02  0.00000000000E+00 0.  1.
         11    1    3    3    0    0  0.79340444097E+00 -0.60106251515E+01 -0.10810023048E+02  0.12394099559E+02  0.51100000000E-03 0. -1.
        -11    1    3    3    0    0  0.10427593163E+02  0.74469739352E+01 -0.20276705855E+02  0.23986181867E+02  0.51100000000E-03 0.  1.
         12    1    3    3    0    0  0.81731458886E+01  0.25633229273E+01 -0.75331390590E+01  0.11406976910E+02  0.00000000000E+00 0. -1.
</event>
<event>
 7    1  0.3062695E-010  0.4778727E+02  0.7816164E-02  0.1312668E+00
        -11   -1    0    0    0    0  0.00000000000E+00  0.00000000000E+00  0.45593999997E+02  0.45594000000E+02  0.51100000000E-03 0. -1.
         11   -1    0    0    0    0 -0.00000000000E+00 -0.00000000000E+00 -0.45593999997E+02  0.45594000000E+02  0.51100000000E-03 0.  1.
    9900012    2    1    2    0    0  0.33196766543E+02 -0.26874037009E+02 -0.77060983569E+01  0.47787272748E+02  0.20000007768E+02 0.  0.
        -12    1    1    2    0    0 -0.33196766543E+02  0.26874037009E+02  0.77060983569E+01  0.43400727252E+02  0.00000000000E+00 0.  1.
         11    1    3    3    0    0  0.13371801381E+02 -0.20022457004E+02  0.22296399955E+01  0.24180056894E+02  0.51100000000E-03 0. -1.
        -11    1    3    3    0    0  0.10541181825E+02 -0.16314647682E+01 -0.60943080765E+01  0.12284900600E+02  0.51100000000E-03 0.  1.
        -12    1    3    3    0    0  0.92837833372E+01 -0.52201152370E+01 -0.38414302758E+01  0.11322315254E+02  0.00000000000E+00 0.  1.
</event>
<event>
 7    1  0.3062695E-010  0.4778727E+02  0.7816164E-02  0.1312668E+00
        -11   -1    0    0    0    0  0.00000000000E+00  0.00000000000E+00  0.45593999997E+02  0.45594000000E+02  0.51100000000E-03 0.  1.
         11   -1    0    0    0    0 -0.00000000000E+00 -0.00000000000E+00 -0.45593999997E+02  0.45594000000E+02  0.51100000000E-03 0. -1.
    9900012    2    1    2    0    0 -0.26237844541E+02 -0.34037748797E+02 -0.60523250252E+01  0.47787268813E+02  0.19999989827E+02 0.  0.
        -12    1    1    2    0    0  0.26237844541E+02  0.34037748797E+02  0.60523250252E+01  0.43400731187E+02  0.00000000000E+00 0.  1.
         11    1    3    3    0    0 -0.61145095940E+01 -0.15220819630E+01 -0.47925946530E+01  0.79166233235E+01  0.51100000000E-03 0. -1.
        -11    1    3    3    0    0 -0.17409767828E+02 -0.28996557356E+02 -0.48371887390E+01  0.34165754045E+02  0.51100000000E-03 0.  1.
        -12    1    3    3    0    0 -0.27135671186E+01 -0.35191094788E+01  0.35774583667E+01  0.57048914447E+01  0.00000000000E+00 0.  1.
</event>
<event>
 7    1  0.3062695E-010  0.4778728E+02  0.7816164E-02  0.1312668E+00
        -11   -1    0    0    0    0  0.00000000000E+00  0.00000000000E+00  0.45593999997E+02  0.45594000000E+02  0.51100000000E-03 0.  1.
         11   -1    0    0    0    0 -0.00000000000E+00 -0.00000000000E+00 -0.45593999997E+02  0.45594000000E+02  0.51100000000E-03 0. -1.
    9900012    2    1    2    0    0 -0.14048354088E+00 -0.37723177218E+02 -0.21460774887E+02  0.47787277727E+02  0.20000030469E+02 0.  0.
        -12    1    1    2    0    0  0.14048354088E+00  0.37723177218E+02  0.21460774887E+02  0.43400722273E+02  0.00000000000E+00 0.  1.
         11    1    3    3    0    0  0.28487183672E+01 -0.59863504122E+01 -0.57705063883E+01  0.87892167928E+01  0.51100000000E-03 0. -1.
        -11    1    3    3    0    0  0.23686732276E+01 -0.81207846293E+01  0.23745169714E+01  0.87861303748E+01  0.51100000000E-03 0.  1.
        -12    1    3    3    0    0 -0.53578751357E+01 -0.23616042177E+02 -0.18064785470E+02  0.30211930560E+02  0.00000000000E+00 0.  1.
</event>
<event>
 7    1  0.3062695E-010  0.4778727E+02  0.7816164E-02  0.1312668E+00
        -11   -1    0    0    0    0  0.00000000000E+00  0.00000000000E+00  0.45593999997E+02  0.45594000000E+02  0.51100000000E-03 0. -1.
         11   -1    0    0    0    0 -0.00000000000E+00 -0.00000000000E+00 -0.45593999997E+02  0.45594000000E+02  0.51100000000E-03 0.  1.
    9900012    2    1    2    0    0  0.35129345020E+02  0.18602800947E+02  0.17420903324E+02  0.47787274692E+02  0.20000016633E+02 0.  0.
        -12    1    1    2    0    0 -0.35129345020E+02 -0.18602800947E+02 -0.17420903324E+02  0.43400725308E+02  0.00000000000E+00 0.  1.
         11    1    3    3    0    0  0.15470109019E+02  0.10561567888E+02  0.93664551516E+01  0.20942814321E+02  0.51100000000E-03 0. -1.
        -11    1    3    3    0    0  0.11491726188E+02 -0.27367055480E+01  0.18161445836E+01  0.11951891459E+02  0.51100000000E-03 0.  1.
        -12    1    3    3    0    0  0.81675098136E+01  0.10777938606E+02  0.62383035883E+01  0.14892568912E+02  0.00000000000E+00 0.  1.
</event>
<event>
 7    1  0.3062695E-010  0.4778728E+02  0.7816164E-02  0.1312668E+00
        -11   -1    0    0    0    0  0.00000000000E+00  0.00000000000E+00  0.45593999997E+02  0.45594000000E+02  0.51100000000E-03 0.  1.
         11   -1    0    0    0    0 -0.00000000000E+00 -0.00000000000E+00 -0.45593999997E+02  0.45594000000E+02  0.51100000000E-03 0. -1.
    9900012    2    1    2    0    0 -0.78491072578E+01  0.37230910120E+02 -0.20877581031E+02  0.47787279466E+02  0.20000038399E+02 0.  0.
        -12    1    1    2    0    0  0.78491072578E+01 -0.37230910120E+02  0.20877581031E+02  0.43400720534E+02  0.00000000000E+00 0.  1.
         11    1    3    3    0    0 -0.85021155965E+01  0.33216008450E+02 -0.11294551851E+02  0.36099253299E+02  0.51100000000E-03 0. -1.
        -11    1    3    3    0    0  0.18737961258E+01  0.37741420319E+01 -0.95556163156E+01  0.10443422017E+02  0.51100000000E-03 0.  1.
         12    1    3    3    0    0 -0.12207877871E+01  0.24075963792E+00 -0.27412863827E-01  0.12446041497E+01  0.00000000000E+00 0. -1.
</event>
<event>
 7    1  0.3062695E-010  0.4778727E+02  0.7816164E-02  0.1312668E+00
        -11   -1    0    0    0    0  0.00000000000E+00  0.00000000000E+00  0.45593999997E+02  0.45594000000E+02  0.51100000000E-03 0. -1.
         11   -1    0    0    0    0 -0.00000000000E+00 -0.00000000000E+00 -0.45593999997E+02  0.45594000000E+02  0.51100000000E-03 0.  1.
    9900012    2    1    2    0    0 -0.42425680140E+02 -0.52029951060E+01  0.75242048042E+01  0.47787272456E+02  0.20000006437E+02 0.  0.
        -12    1    1    2    0    0  0.42425680140E+02  0.52029951060E+01 -0.75242048042E+01  0.43400727544E+02  0.00000000000E+00 0.  1.
         11    1    3    3    0    0 -0.11752776463E+02  0.60650531146E+01  0.19704629712E+01  0.13371437785E+02  0.51100000000E-03 0. -1.
        -11    1    3    3    0    0 -0.27045407942E+02 -0.94591851129E+01  0.79146375445E+01  0.29724935012E+02  0.51100000000E-03 0.  1.
        -12    1    3    3    0    0 -0.36274957353E+01 -0.18088631076E+01 -0.23608957116E+01  0.46908996592E+01  0.00000000000E+00 0.  1.
</event>
<event>
 7    1  0.3062695E-010  0.4778726E+02  0.7816164E-02  0.1312668E+00
        -11   -1    0    0    0    0  0.00000000000E+00  0.00000000000E+00  0.45593999997E+02  0.45594000000E+02  0.51100000000E-03 0.  1.
         11   -1    0    0    0    0 -0.00000000000E+00 -0.00000000000E+00 -0.45593999997E+02  0.45594000000E+02  0.51100000000E-03 0. -1.
    9900012    2    1    2    0    0  0.23853075636E+02 -0.80808512266E+01 -0.35346219922E+02  0.47787255345E+02  0.19999928419E+02 0.  0.
        -12    1    1    2    0    0 -0.23853075636E+02  0.80808512266E+01  0.35346219922E+02  0.43400744655E+02  0.00000000000E+00 0.  1.
         11    1    3    3    0    0  0.12400902738E+02 -0.31496586386E+01 -0.31594901187E+02  0.34087248636E+02  0.51100000000E-03 0. -1.
        -11    1    3    3    0    0  0.10132537395E+02 -0.25539612363E+01 -0.31688579154E+01  0.10919372363E+02  0.51100000000E-03 0.  1.
         12    1    3    3    0    0  0.13196355035E+01 -0.23772313516E+01 -0.58246081928E+00  0.27806343462E+01  0.00000000000E+00 0. -1.
</event>
<event>
 7    1  0.3062695E-010  0.4778727E+02  0.7816164E-02  0.1312668E+00
        -11   -1    0    0    0    0  0.00000000000E+00  0.00000000000E+00  0.45593999997E+02  0.45594000000E+02  0.51100000000E-03 0.  1.
         11   -1    0    0    0    0 -0.00000000000E+00 -0.00000000000E+00 -0.45593999997E+02  0.45594000000E+02  0.51100000000E-03 0. -1.
    9900012    2    1    2    0    0 -0.41479991594E+02  0.21419174384E+01 -0.12587513259E+02  0.47787274165E+02  0.20000014229E+02 0.  0.
        -12    1    1    2    0    0  0.41479991594E+02 -0.21419174384E+01  0.12587513259E+02  0.43400725835E+02  0.00000000000E+00 0.  1.
         11    1    3    3    0    0 -0.23196853209E+02 -0.20971863124E+01 -0.15451452519E+02  0.27950663220E+02  0.51100000000E-03 0. -1.
        -11    1    3    3    0    0  0.61600244465E-01 -0.58465273161E+00  0.39499468905E+00  0.70826158458E+00  0.51100000000E-03 0.  1.
         12    1    3    3    0    0 -0.18344738629E+02  0.48237564824E+01  0.24689445707E+01  0.19128349361E+02  0.00000000000E+00 0. -1.
</event>
<event>
 7    1  0.3062695E-010  0.4778727E+02  0.7816164E-02  0.1312668E+00
        -11   -1    0    0    0    0  0.00000000000E+00  0.00000000000E+00  0.45593999997E+02  0.45594000000E+02  0.51100000000E-03 0.  1.
         11   -1    0    0    0    0 -0.00000000000E+00 -0.00000000000E+00 -0.45593999997E+02  0.45594000000E+02  0.51100000000E-03 0. -1.
    9900012    2    1    2    0    0 -0.49620286939E+01 -0.22655877120E+02 -0.36683959105E+02  0.47787270139E+02  0.19999995872E+02 0.  0.
        -12    1    1    2    0    0  0.49620286939E+01  0.22655877120E+02  0.36683959105E+02  0.43400729861E+02  0.00000000000E+00 0.  1.
         11    1    3    3    0    0 -0.81248235979E+01 -0.15352112476E+02 -0.22746451923E+02  0.28619943944E+02  0.51100000000E-03 0. -1.
        -11    1    3    3    0    0  0.27716613519E+01 -0.29171609679E+01  0.51681671227E+00  0.40569735687E+01  0.51100000000E-03 0.  1.
         12    1    3    3    0    0  0.39113355205E+00 -0.43866036757E+01 -0.14454323894E+02  0.15110352627E+02  0.00000000000E+00 0. -1.
</event>
<event>
 7    1  0.3062695E-010  0.4778727E+02  0.7816164E-02  0.1312668E+00
        -11   -1    0    0    0    0  0.00000000000E+00  0.00000000000E+00  0.45593999997E+02  0.45594000000E+02  0.51100000000E-03 0.  1.
         11   -1    0    0    0    0 -0.00000000000E+00 -0.00000000000E+00 -0.45593999997E+02  0.45594000000E+02  0.51100000000E-03 0. -1.
    9900012    2    1    2    0    0 -0.36958550129E+00  0.43283133413E+02 -0.31713143393E+01  0.47787268829E+02  0.19999989901E+02 0.  0.
        -12    1    1    2    0    0  0.36958550129E+00 -0.43283133413E+02  0.31713143393E+01  0.43400731171E+02  0.00000000000E+00 0.  1.
         11    1    3    3    0    0  0.65816024187E+01  0.23925262349E+02 -0.39358352723E+01  0.25124220753E+02  0.51100000000E-03 0. -1.
        -11    1    3    3    0    0 -0.50184936641E+01  0.24437317832E+01 -0.42037728306E+00  0.55976621018E+01  0.51100000000E-03 0.  1.
        -12    1    3    3    0    0 -0.19326942559E+01  0.16914139281E+02  0.11848982160E+01  0.17065385975E+02  0.00000000000E+00 0.  1.
</event>
<event>
 7    1  0.3485264E-010  0.4778727E+02  0.7816164E-02  0.1312668E+00
        -11   -1    0    0    0    0  0.00000000000E+00  0.00000000000E+00  0.45593999997E+02  0.45594000000E+02  0.51100000000E-03 0. -1.
         11   -1    0    0    0    0 -0.00000000000E+00 -0.00000000000E+00 -0.45593999997E+02  0.45594000000E+02  0.51100000000E-03 0.  1.
    9900012    2    1    2    0    0  0.94225573622E+01 -0.22355896675E+02  0.35986840141E+02  0.47787269975E+02  0.19999995123E+02 0.  0.
        -12    1    1    2    0    0 -0.94225573622E+01  0.22355896675E+02 -0.35986840141E+02  0.43400730025E+02  0.00000000000E+00 0.  1.
         11    1    3    3    0    0  0.57294940434E+01 -0.19085718682E+02  0.26106995190E+02  0.32843065595E+02  0.51100000000E-03 0. -1.
        -11    1    3    3    0    0 -0.14660948826E-01  0.32056402229E+01  0.52839176646E+01  0.61803017992E+01  0.51100000000E-03 0.  1.
        -12    1    3    3    0    0  0.37077242676E+01 -0.64758182162E+01  0.45959272864E+01  0.87639025802E+01  0.00000000000E+00 0.  1.
</event>
<event>
 7    1  0.3062695E-010  0.4778727E+02  0.7816164E-02  0.1312668E+00
        -11   -1    0    0    0    0  0.00000000000E+00  0.00000000000E+00  0.45593999997E+02  0.45594000000E+02  0.51100000000E-03 0.  1.
         11   -1    0    0    0    0 -0.00000000000E+00 -0.00000000000E+00 -0.45593999997E+02  0.45594000000E+02  0.51100000000E-03 0. -1.
    9900012    2    1    2    0    0  0.10318372348E+02 -0.27602563441E+01 -0.42065851181E+02  0.47787266613E+02  0.19999979794E+02 0.  0.
        -12    1    1    2    0    0 -0.10318372348E+02  0.27602563441E+01  0.42065851181E+02  0.43400733387E+02  0.00000000000E+00 0.  1.
         11    1    3    3    0    0  0.41632216802E+01 -0.39489845063E+01 -0.28591973190E+02  0.29162095682E+02  0.51100000000E-03 0. -1.
        -11    1    3    3    0    0  0.71230124656E+01 -0.78854591551E+00 -0.27473905764E+01  0.76751069364E+01  0.51100000000E-03 0.  1.
         12    1    3    3    0    0 -0.96786179755E+00  0.19772740777E+01 -0.10726487414E+02  0.10950063995E+02  0.00000000000E+00 0. -1.
</event>
<event>
 7    1  0.3062695E-010  0.4778727E+02  0.7816164E-02  0.1312668E+00
        -11   -1    0    0    0    0  0.00000000000E+00  0.00000000000E+00  0.45593999997E+02  0.45594000000E+02  0.51100000000E-03 0.  1.
         11   -1    0    0    0    0 -0.00000000000E+00 -0.00000000000E+00 -0.45593999997E+02  0.45594000000E+02  0.51100000000E-03 0. -1.
    9900012    2    1    2    0    0 -0.24860798686E+01  0.26761229286E+02 -0.34077548296E+02  0.47787270929E+02  0.19999999475E+02 0.  0.
        -12    1    1    2    0    0  0.24860798686E+01 -0.26761229286E+02  0.34077548296E+02  0.43400729071E+02  0.00000000000E+00 0.  1.
         11    1    3    3    0    0  0.28829920290E+01  0.24210416709E+02 -0.30148610672E+02  0.38773633386E+02  0.51100000000E-03 0. -1.
        -11    1    3    3    0    0 -0.46511274233E+01  0.30088553774E+01 -0.59352028934E+00  0.55712174240E+01  0.51100000000E-03 0.  1.
         12    1    3    3    0    0 -0.71794447431E+00 -0.45804280127E+00 -0.33354173352E+01  0.34424201190E+01  0.00000000000E+00 0. -1.
</event>
<event>
 7    1  0.3062695E-010  0.4778727E+02  0.7816164E-02  0.1312668E+00
        -11   -1    0    0    0    0  0.00000000000E+00  0.00000000000E+00  0.45593999997E+02  0.45594000000E+02  0.51100000000E-03 0.  1.
         11   -1    0    0    0    0 -0.00000000000E+00 -0.00000000000E+00 -0.45593999997E+02  0.45594000000E+02  0.51100000000E-03 0. -1.
    9900012    2    1    2    0    0  0.41920204370E+02  0.11174673061E+02  0.12026288947E+01  0.47787272256E+02  0.20000005524E+02 0.  0.
        -12    1    1    2    0    0 -0.41920204370E+02 -0.11174673061E+02 -0.12026288947E+01  0.43400727744E+02  0.00000000000E+00 0.  1.
         11    1    3    3    0    0  0.20794772507E+02  0.12897777233E+02 -0.53528434428E+01  0.25048516011E+02  0.51100000000E-03 0. -1.
        -11    1    3    3    0    0  0.14470747241E+02  0.10884970903E+01  0.50007134345E+01  0.15349087489E+02  0.51100000000E-03 0.  1.
         12    1    3    3    0    0  0.66546846216E+01 -0.28116012625E+01  0.15547589030E+01  0.73896687557E+01  0.00000000000E+00 0. -1.
</event>
<event>
 7    1  0.3062695E-010  0.4778727E+02  0.7816164E-02  0.1312668E+00
        -11   -1    0    0    0    0  0.00000000000E+00  0.00000000000E+00  0.45593999997E+02  0.45594000000E+02  0.51100000000E-03 0.  1.
         11   -1    0    0    0    0 -0.00000000000E+00 -0.00000000000E+00 -0.45593999997E+02  0.45594000000E+02  0.51100000000E-03 0. -1.
    9900012    2    1    2    0    0  0.35417564293E+02 -0.22516435198E+02  0.11055740415E+02  0.47787272925E+02  0.20000008574E+02 0.  0.
        -12    1    1    2    0    0 -0.35417564293E+02  0.22516435198E+02 -0.11055740415E+02  0.43400727075E+02  0.00000000000E+00 0.  1.
         11    1    3    3    0    0  0.74088686301E+01  0.12857725435E+01  0.10154735330E+01  0.75878674323E+01  0.51100000000E-03 0. -1.
        -11    1    3    3    0    0  0.24447768771E+02 -0.25094745512E+02  0.81709517047E+01  0.35975048328E+02  0.51100000000E-03 0.  1.
        -12    1    3    3    0    0  0.35609268920E+01  0.12925377706E+01  0.18693151777E+01  0.42243571644E+01  0.00000000000E+00 0.  1.
</event>
<event>
 7    1  0.3062695E-010  0.4778727E+02  0.7816164E-02  0.1312668E+00
        -11   -1    0    0    0    0  0.00000000000E+00  0.00000000000E+00  0.45593999997E+02  0.45594000000E+02  0.51100000000E-03 0.  1.
         11   -1    0    0    0    0 -0.00000000000E+00 -0.00000000000E+00 -0.45593999997E+02  0.45594000000E+02  0.51100000000E-03 0. -1.
    9900012    2    1    2    0    0 -0.83982576161E+01  0.22443856826E+02 -0.36185162394E+02  0.47787269387E+02  0.19999992444E+02 0.  0.
        -12    1    1    2    0    0  0.83982576161E+01 -0.22443856826E+02  0.36185162394E+02  0.43400730613E+02  0.00000000000E+00 0.  1.
         11    1    3    3    0    0  0.10792596053E+01 -0.90990247934E+00 -0.11391348169E+02  0.11478481484E+02  0.51100000000E-03 0. -1.
        -11    1    3    3    0    0 -0.89278873192E+01  0.11038560451E+02 -0.13413743650E+02  0.19531653995E+02  0.51100000000E-03 0.  1.
         12    1    3    3    0    0 -0.54962990216E+00  0.12315198855E+02 -0.11380070576E+02  0.16777133908E+02  0.00000000000E+00 0. -1.
</event>
<event>
 7    1  0.3062695E-010  0.4778727E+02  0.7816164E-02  0.1312668E+00
        -11   -1    0    0    0    0  0.00000000000E+00  0.00000000000E+00  0.45593999997E+02  0.45594000000E+02  0.51100000000E-03 0. -1.
         11   -1    0    0    0    0 -0.00000000000E+00 -0.00000000000E+00 -0.45593999997E+02  0.45594000000E+02  0.51100000000E-03 0.  1.
    9900012    2    1    2    0    0  0.46085784645E+01 -0.42973561714E+02 -0.39569254326E+01  0.47787271196E+02  0.20000000689E+02 0.  0.
        -12    1    1    2    0    0 -0.46085784645E+01  0.42973561714E+02  0.39569254326E+01  0.43400728804E+02  0.00000000000E+00 0.  1.
         11    1    3    3    0    0  0.88567583731E+01 -0.24317979006E+02  0.50129953541E+01  0.26361646279E+02  0.51100000000E-03 0. -1.
        -11    1    3    3    0    0 -0.29586847672E+01 -0.14580547074E+02 -0.84766163519E+01  0.17123060286E+02  0.51100000000E-03 0.  1.
         12    1    3    3    0    0 -0.12894951414E+01 -0.40750356340E+01 -0.49330443469E+00  0.43025646309E+01  0.00000000000E+00 0. -1.
</event>
<event>
 7    1  0.3062695E-010  0.4778728E+02  0.7816164E-02  0.1312668E+00
        -11   -1    0    0    0    0  0.00000000000E+00  0.00000000000E+00  0.45593999997E+02  0.45594000000E+02  0.51100000000E-03 0.  1.
         11   -1    0    0    0    0 -0.00000000000E+00 -0.00000000000E+00 -0.45593999997E+02  0.45594000000E+02  0.51100000000E-03 0. -1.
    9900012    2    1    2    0    0  0.27475145675E+02  0.32252940616E+02  0.94067420986E+01  0.47787278748E+02  0.20000035125E+02 0.  0.
        -12    1    1    2    0    0 -0.27475145675E+02 -0.32252940616E+02 -0.94067420986E+01  0.43400721252E+02  0.00000000000E+00 0.  1.
         11    1    3    3    0    0 -0.16513923025E+01  0.55831708036E+01 -0.16637035066E+01  0.60553119142E+01  0.51100000000E-03 0. -1.
        -11    1    3    3    0    0  0.72141087295E+01  0.69223828403E+01  0.63888354455E+01  0.11865073433E+02  0.51100000000E-03 0.  1.
         12    1    3    3    0    0  0.21912429248E+02  0.19747386972E+02  0.46816101597E+01  0.29866893402E+02  0.00000000000E+00 0. -1.
</event>
<event>
 7    1  0.3062695E-010  0.4778727E+02  0.7816164E-02  0.1312668E+00
        -11   -1    0    0    0    0  0.00000000000E+00  0.00000000000E+00  0.45593999997E+02  0.45594000000E+02  0.51100000000E-03 0. -1.
         11   -1    0    0    0    0 -0.00000000000E+00 -0.00000000000E+00 -0.45593999997E+02  0.45594000000E+02  0.51100000000E-03 0.  1.
    9900012    2    1    2    0    0 -0.29310764531E+02  0.12096971375E+02  0.29633861257E+02  0.47787269974E+02  0.19999995117E+02 0.  0.
        -12    1    1    2    0    0  0.29310764531E+02 -0.12096971375E+02 -0.29633861257E+02  0.43400730026E+02  0.00000000000E+00 0.  1.
         11    1    3    3    0    0 -0.26564902404E+02  0.11405655043E+02  0.30762013880E+02  0.42214742743E+02  0.51100000000E-03 0. -1.
        -11    1    3    3    0    0 -0.33111650748E+01 -0.11078139182E+01 -0.11811130309E+01  0.36859319151E+01  0.51100000000E-03 0.  1.
         12    1    3    3    0    0  0.56530294741E+00  0.17991302498E+01  0.52960407753E-01  0.18865953151E+01  0.00000000000E+00 0. -1.
</event>
<event>
 7    1  0.3062695E-010  0.4778727E+02  0.7816164E-02  0.1312668E+00
        -11   -1    0    0    0    0  0.00000000000E+00  0.00000000000E+00  0.45593999997E+02  0.45594000000E+02  0.51100000000E-03 0.  1.
         11   -1    0    0    0    0 -0.00000000000E+00 -0.00000000000E+00 -0.45593999997E+02  0.45594000000E+02  0.51100000000E-03 0. -1.
    9900012    2    1    2    0    0 -0.55778673352E+01  0.36101063466E+02 -0.23435529094E+02  0.47787269462E+02  0.19999992783E+02 0.  0.
        -12    1    1    2    0    0  0.55778673352E+01 -0.36101063466E+02  0.23435529094E+02  0.43400730538E+02  0.00000000000E+00 0.  1.
         11    1    3    3    0    0  0.55546357911E+01  0.63784402328E+01 -0.97699827115E+01  0.12922501345E+02  0.51100000000E-03 0. -1.
        -11    1    3    3    0    0 -0.73127141921E+01  0.22721711124E+02 -0.83830253894E+01  0.25298756100E+02  0.51100000000E-03 0.  1.
         12    1    3    3    0    0 -0.38197889342E+01  0.70009121090E+01 -0.52825209931E+01  0.95660120166E+01  0.00000000000E+00 0. -1.
</event>
<event>
 7    1  0.3062695E-010  0.4778727E+02  0.7816164E-02  0.1312668E+00
        -11   -1    0    0    0    0  0.00000000000E+00  0.00000000000E+00  0.45593999997E+02  0.45594000000E+02  0.51100000000E-03 0.  1.
         11   -1    0    0    0    0 -0.00000000000E+00 -0.00000000000E+00 -0.45593999997E+02  0.45594000000E+02  0.51100000000E-03 0. -1.
    9900012    2    1    2    0    0  0.19510748993E+02  0.11539817151E+02 -0.37010633925E+02  0.47787265794E+02  0.19999976059E+02 0.  0.
        -12    1    1    2    0    0 -0.19510748993E+02 -0.11539817151E+02  0.37010633925E+02  0.43400734206E+02  0.00000000000E+00 0.  1.
         11    1    3    3    0    0 -0.33676885807E+01  0.16512271341E-01 -0.23230070594E+01  0.40912053347E+01  0.51100000000E-03 0. -1.
        -11    1    3    3    0    0  0.14913131374E+02  0.38912444169E+01 -0.22308867192E+02  0.27115103285E+02  0.51100000000E-03 0.  1.
         12    1    3    3    0    0  0.79653062006E+01  0.76320604626E+01 -0.12378759673E+02  0.16580957174E+02  0.00000000000E+00 0. -1.
</event>
<event>
 7    1  0.3062695E-010  0.4778726E+02  0.7816164E-02  0.1312668E+00
        -11   -1    0    0    0    0  0.00000000000E+00  0.00000000000E+00  0.45593999997E+02  0.45594000000E+02  0.51100000000E-03 0. -1.
         11   -1    0    0    0    0 -0.00000000000E+00 -0.00000000000E+00 -0.45593999997E+02  0.45594000000E+02  0.51100000000E-03 0.  1.
    9900012    2    1    2    0    0  0.14130142988E+02  0.39026297558E+02 -0.12685078710E+02  0.47787261944E+02  0.19999958508E+02 0.  0.
        -12    1    1    2    0    0 -0.14130142988E+02 -0.39026297558E+02  0.12685078710E+02  0.43400738056E+02  0.00000000000E+00 0.  1.
         11    1    3    3    0    0  0.96401946395E+01  0.22513361666E+02  0.26710188287E+01  0.24635729095E+02  0.51100000000E-03 0. -1.
        -11    1    3    3    0    0  0.26649133937E+01  0.99379984844E+01 -0.10968669179E+02  0.15039191504E+02  0.51100000000E-03 0.  1.
         12    1    3    3    0    0  0.18250349551E+01  0.65749374071E+01 -0.43874283595E+01  0.81123413454E+01  0.00000000000E+00 0. -1.
</event>
<event>
 7    1  0.3062695E-010  0.4778727E+02  0.7816164E-02  0.1312668E+00
        -11   -1    0    0    0    0  0.00000000000E+00  0.00000000000E+00  0.45593999997E+02  0.45594000000E+02  0.51100000000E-03 0. -1.
         11   -1    0    0    0    0 -0.00000000000E+00 -0.00000000000E+00 -0.45593999997E+02  0.45594000000E+02  0.51100000000E-03 0.  1.
    9900012    2    1    2    0    0  0.34920445381E+02 -0.25543097740E+02 -0.34258338194E+01  0.47787266306E+02  0.19999978397E+02 0.  0.
        -12    1    1    2    0    0 -0.34920445381E+02  0.25543097740E+02  0.34258338194E+01  0.43400733694E+02  0.00000000000E+00 0.  1.
         11    1    3    3    0    0  0.18222613859E+02 -0.21530360620E+02 -0.90441958516E+01  0.29621235003E+02  0.51100000000E-03 0. -1.
        -11    1    3    3    0    0  0.12247517490E+02 -0.34630568363E+01  0.34607566528E+01  0.13189817444E+02  0.51100000000E-03 0.  1.
         12    1    3    3    0    0  0.44503140324E+01 -0.54968028402E+00  0.21576053794E+01  0.49762138594E+01  0.00000000000E+00 0. -1.
</event>
<event>
 7    1  0.3062695E-010  0.4778727E+02  0.7816164E-02  0.1312668E+00
        -11   -1    0    0    0    0  0.00000000000E+00  0.00000000000E+00  0.45593999997E+02  0.45594000000E+02  0.51100000000E-03 0. -1.
         11   -1    0    0    0    0 -0.00000000000E+00 -0.00000000000E+00 -0.45593999997E+02  0.45594000000E+02  0.51100000000E-03 0.  1.
    9900012    2    1    2    0    0 -0.22442336833E+02 -0.37144646530E+02  0.48959908573E+00  0.47787274710E+02  0.20000016715E+02 0.  0.
        -12    1    1    2    0    0  0.22442336833E+02  0.37144646530E+02 -0.48959908573E+00  0.43400725290E+02  0.00000000000E+00 0.  1.
         11    1    3    3    0    0 -0.66192730746E+01 -0.10895428735E+02 -0.25201409424E+00  0.12751025634E+02  0.51100000000E-03 0. -1.
        -11    1    3    3    0    0 -0.11402881910E+02 -0.11275914793E+02 -0.71320849883E+01  0.17551028654E+02  0.51100000000E-03 0.  1.
        -12    1    3    3    0    0 -0.44201818483E+01 -0.14973303003E+02  0.78736981683E+01  0.17485220423E+02  0.00000000000E+00 0.  1.
</event>
<event>
 7    1  0.3062695E-010  0.4778727E+02  0.7816164E-02  0.1312668E+00
        -11   -1    0    0    0    0  0.00000000000E+00  0.00000000000E+00  0.45593999997E+02  0.45594000000E+02  0.51100000000E-03 0.  1.
         11   -1    0    0    0    0 -0.00000000000E+00 -0.00000000000E+00 -0.45593999997E+02  0.45594000000E+02  0.51100000000E-03 0. -1.
    9900012    2    1    2    0    0 -0.29734765413E+02 -0.12560168775E+02 -0.29012221721E+02  0.47787272783E+02  0.20000007925E+02 0.  0.
        -12    1    1    2    0    0  0.29734765413E+02  0.12560168775E+02  0.29012221721E+02  0.43400727217E+02  0.00000000000E+00 0.  1.
         11    1    3    3    0    0 -0.16888715118E+02 -0.11745304623E+02 -0.99409695501E+01  0.22847401491E+02  0.51100000000E-03 0. -1.
        -11    1    3    3    0    0 -0.25249428430E+01  0.36580885096E+01 -0.80283728068E+01  0.91766942899E+01  0.51100000000E-03 0.  1.
        -12    1    3    3    0    0 -0.10321107451E+02 -0.44729526618E+01 -0.11042879364E+02  0.15763177002E+02  0.00000000000E+00 0.  1.
</event>
<event>
 7    1  0.3062695E-010  0.4778727E+02  0.7816164E-02  0.1312668E+00
        -11   -1    0    0    0    0  0.00000000000E+00  0.00000000000E+00  0.45593999997E+02  0.45594000000E+02  0.51100000000E-03 0. -1.
         11   -1    0    0    0    0 -0.00000000000E+00 -0.00000000000E+00 -0.45593999997E+02  0.45594000000E+02  0.51100000000E-03 0.  1.
    9900012    2    1    2    0    0  0.22386261956E+02 -0.36161819624E+02 -0.86487871713E+01  0.47787269103E+02  0.19999991147E+02 0.  0.
        -12    1    1    2    0    0 -0.22386261956E+02  0.36161819624E+02  0.86487871713E+01  0.43400730897E+02  0.00000000000E+00 0.  1.
         11    1    3    3    0    0  0.13401203946E+02 -0.30854947891E+02 -0.68962126607E+01  0.34339158782E+02  0.51100000000E-03 0. -1.
        -11    1    3    3    0    0  0.66750006175E+01 -0.31417564572E+01 -0.50004446277E+01  0.89123910157E+01  0.51100000000E-03 0.  1.
         12    1    3    3    0    0  0.23100573924E+01 -0.21651152764E+01  0.32478701172E+01  0.45357193051E+01  0.00000000000E+00 0. -1.
</event>
<event>
 7    1  0.3062695E-010  0.4778727E+02  0.7816164E-02  0.1312668E+00
        -11   -1    0    0    0    0  0.00000000000E+00  0.00000000000E+00  0.45593999997E+02  0.45594000000E+02  0.51100000000E-03 0. -1.
         11   -1    0    0    0    0 -0.00000000000E+00 -0.00000000000E+00 -0.45593999997E+02  0.45594000000E+02  0.51100000000E-03 0.  1.
    9900012    2    1    2    0    0  0.31842404888E+02 -0.28788448142E+02  0.63960579593E+01  0.47787273590E+02  0.20000011608E+02 0.  0.
        -12    1    1    2    0    0 -0.31842404888E+02  0.28788448142E+02 -0.63960579593E+01  0.43400726410E+02  0.00000000000E+00 0.  1.
         11    1    3    3    0    0  0.21028983386E+02 -0.14118726472E+02 -0.15585679744E+00  0.25329446718E+02  0.51100000000E-03 0. -1.
        -11    1    3    3    0    0 -0.48534437695E+00  0.11661038482E+01  0.21795624860E+01  0.25190971082E+01  0.51100000000E-03 0.  1.
        -12    1    3    3    0    0  0.11298765879E+02 -0.15835825519E+02  0.43723522708E+01  0.19938729765E+02  0.00000000000E+00 0.  1.
</event>
<event>
 7    1  0.3062695E-010  0.4778727E+02  0.7816164E-02  0.1312668E+00
        -11   -1    0    0    0    0  0.00000000000E+00  0.00000000000E+00  0.45593999997E+02  0.45594000000E+02  0.51100000000E-03 0.  1.
         11   -1    0    0    0    0 -0.00000000000E+00 -0.00000000000E+00 -0.45593999997E+02  0.45594000000E+02  0.51100000000E-03 0. -1.
    9900012    2    1    2    0    0  0.24194793420E+02 -0.99073020007E+01 -0.34642181435E+02  0.47787269636E+02  0.19999993579E+02 0.  0.
        -12    1    1    2    0    0 -0.24194793420E+02  0.99073020007E+01  0.34642181435E+02  0.43400730364E+02  0.00000000000E+00 0.  1.
         11    1    3    3    0    0  0.25580494251E+00  0.57944335288E+00 -0.43984835859E+01  0.44438551826E+01  0.51100000000E-03 0. -1.
        -11    1    3    3    0    0  0.13142230208E+02 -0.70939919760E+01 -0.28103859525E+02  0.31825616372E+02  0.51100000000E-03 0.  1.
        -12    1    3    3    0    0  0.10796758269E+02 -0.33927533775E+01 -0.21398383242E+01  0.11517798082E+02  0.00000000000E+00 0.  1.
</event>
<event>
 7    1  0.3062695E-010  0.4778726E+02  0.7816164E-02  0.1312668E+00
        -11   -1    0    0    0    0  0.00000000000E+00  0.00000000000E+00  0.45593999997E+02  0.45594000000E+02  0.51100000000E-03 0.  1.
         11   -1    0    0    0    0 -0.00000000000E+00 -0.00000000000E+00 -0.45593999997E+02  0.45594000000E+02  0.51100000000E-03 0. -1.
    9900012    2    1    2    0    0  0.39582173542E+02  0.97543050435E+00 -0.17774258978E+02  0.47787260269E+02  0.19999950868E+02 0.  0.
        -12    1    1    2    0    0 -0.39582173542E+02 -0.97543050435E+00  0.17774258978E+02  0.43400739731E+02  0.00000000000E+00 0.  1.
         11    1    3    3    0    0  0.10717631086E+02 -0.49536091667E+01 -0.13494980739E+01  0.11883896885E+02  0.51100000000E-03 0. -1.
        -11    1    3    3    0    0  0.90230061361E+01 -0.27142315358E+01 -0.13274325309E+01  0.95154490145E+01  0.51100000000E-03 0.  1.
         12    1    3    3    0    0  0.19841536320E+02  0.86432712069E+01 -0.15097328373E+02  0.26387914369E+02  0.00000000000E+00 0. -1.
</event>
<event>
 7    1  0.3062695E-010  0.4778727E+02  0.7816164E-02  0.1312668E+00
        -11   -1    0    0    0    0  0.00000000000E+00  0.00000000000E+00  0.45593999997E+02  0.45594000000E+02  0.51100000000E-03 0.  1.
         11   -1    0    0    0    0 -0.00000000000E+00 -0.00000000000E+00 -0.45593999997E+02  0.45594000000E+02  0.51100000000E-03 0. -1.
    9900012    2    1    2    0    0 -0.32064896637E+02  0.22323297783E+02 -0.18898035912E+02  0.47787274412E+02  0.20000015354E+02 0.  0.
        -12    1    1    2    0    0  0.32064896637E+02 -0.22323297783E+02  0.18898035912E+02  0.43400725588E+02  0.00000000000E+00 0.  1.
         11    1    3    3    0    0  0.21038077850E+01  0.22114611182E+01 -0.40625997634E+01  0.50814648058E+01  0.51100000000E-03 0. -1.
        -11    1    3    3    0    0 -0.13979627272E+02  0.91690203948E+01 -0.34343562413E+01  0.17067387519E+02  0.51100000000E-03 0.  1.
         12    1    3    3    0    0 -0.20189077149E+02  0.10942816270E+02 -0.11401079907E+02  0.25638422087E+02  0.00000000000E+00 0. -1.
</event>
<event>
 7    1  0.3062695E-010  0.4778727E+02  0.7816164E-02  0.1312668E+00
        -11   -1    0    0    0    0  0.00000000000E+00  0.00000000000E+00  0.45593999997E+02  0.45594000000E+02  0.51100000000E-03 0. -1.
         11   -1    0    0    0    0 -0.00000000000E+00 -0.00000000000E+00 -0.45593999997E+02  0.45594000000E+02  0.51100000000E-03 0.  1.
    9900012    2    1    2    0    0  0.15608973237E+02  0.28757286843E+02  0.28513181100E+02  0.47787273180E+02  0.20000009735E+02 0.  0.
        -12    1    1    2    0    0 -0.15608973237E+02 -0.28757286843E+02 -0.28513181100E+02  0.43400726820E+02  0.00000000000E+00 0.  1.
         11    1    3    3    0    0 -0.36368692291E+01  0.75300707710E+01  0.68636424478E+01  0.10818427405E+02  0.51100000000E-03 0. -1.
        -11    1    3    3    0    0  0.15262552508E+02  0.11798051786E+02  0.17054777276E+02  0.25748882756E+02  0.51100000000E-03 0.  1.
        -12    1    3    3    0    0  0.39832899581E+01  0.94291642862E+01  0.45947613761E+01  0.11219963018E+02  0.00000000000E+00 0.  1.
</event>
<event>
 7    1  0.3062695E-010  0.4778728E+02  0.7816164E-02  0.1312668E+00
        -11   -1    0    0    0    0  0.00000000000E+00  0.00000000000E+00  0.45593999997E+02  0.45594000000E+02  0.51100000000E-03 0. -1.
         11   -1    0    0    0    0 -0.00000000000E+00 -0.00000000000E+00 -0.45593999997E+02  0.45594000000E+02  0.51100000000E-03 0.  1.
    9900012    2    1    2    0    0  0.30821984672E+02 -0.45532808787E+01  0.30214165089E+02  0.47787275606E+02  0.20000020798E+02 0.  0.
        -12    1    1    2    0    0 -0.30821984672E+02  0.45532808787E+01 -0.30214165089E+02  0.43400724394E+02  0.00000000000E+00 0.  1.
         11    1    3    3    0    0  0.17722883195E+02 -0.64294663360E+01  0.14385887445E+02  0.23714813597E+02  0.51100000000E-03 0. -1.
        -11    1    3    3    0    0 -0.98687574256E+00  0.27606584965E+01  0.90633918695E-01  0.29331508372E+01  0.51100000000E-03 0.  1.
        -12    1    3    3    0    0  0.14085977220E+02 -0.88447303916E+00  0.15737643725E+02  0.21139311172E+02  0.00000000000E+00 0.  1.
</event>
<event>
 7    1  0.3062695E-010  0.4778727E+02  0.7816164E-02  0.1312668E+00
        -11   -1    0    0    0    0  0.00000000000E+00  0.00000000000E+00  0.45593999997E+02  0.45594000000E+02  0.51100000000E-03 0. -1.
         11   -1    0    0    0    0 -0.00000000000E+00 -0.00000000000E+00 -0.45593999997E+02  0.45594000000E+02  0.51100000000E-03 0.  1.
    9900012    2    1    2    0    0 -0.27958729443E+02 -0.12448418561E+01  0.33172017999E+02  0.47787274643E+02  0.20000016410E+02 0.  0.
        -12    1    1    2    0    0  0.27958729443E+02  0.12448418561E+01 -0.33172017999E+02  0.43400725357E+02  0.00000000000E+00 0.  1.
         11    1    3    3    0    0 -0.17401144549E+01 -0.21758275399E+01  0.26689747971E+01  0.38581926505E+01  0.51100000000E-03 0. -1.
        -11    1    3    3    0    0 -0.17085813401E+02 -0.54670368010E+01  0.98687537032E+01  0.20474516133E+02  0.51100000000E-03 0.  1.
        -12    1    3    3    0    0 -0.91328015866E+01  0.63980224848E+01  0.20634289499E+02  0.23454565860E+02  0.00000000000E+00 0.  1.
</event>
<event>
 7    1  0.3062695E-010  0.4778726E+02  0.7816164E-02  0.1312668E+00
        -11   -1    0    0    0    0  0.00000000000E+00  0.00000000000E+00  0.45593999997E+02  0.45594000000E+02  0.51100000000E-03 0.  1.
         11   -1    0    0    0    0 -0.00000000000E+00 -0.00000000000E+00 -0.45593999997E+02  0.45594000000E+02  0.51100000000E-03 0. -1.
    9900012    2    1    2    0    0 -0.66797707277E+01  0.41456424712E+02  0.10971303455E+02  0.47787262836E+02  0.19999962574E+02 0.  0.
        -12    1    1    2    0    0  0.66797707277E+01 -0.41456424712E+02 -0.10971303455E+02  0.43400737164E+02  0.00000000000E+00 0.  1.
         11    1    3    3    0    0 -0.97408897045E+01  0.87851300674E+01  0.36135828771E+01  0.13605933412E+02  0.51100000000E-03 0. -1.
        -11    1    3    3    0    0  0.30433905556E+01  0.20129216246E+02  0.17203416388E+01  0.20430544495E+02  0.51100000000E-03 0.  1.
         12    1    3    3    0    0  0.17728421157E-01  0.12542078399E+02  0.56373789389E+01  0.13750784929E+02  0.00000000000E+00 0. -1.
</event>
<event>
 7    1  0.3062695E-010  0.4778727E+02  0.7816164E-02  0.1312668E+00
        -11   -1    0    0    0    0  0.00000000000E+00  0.00000000000E+00  0.45593999997E+02  0.45594000000E+02  0.51100000000E-03 0.  1.
         11   -1    0    0    0    0 -0.00000000000E+00 -0.00000000000E+00 -0.45593999997E+02  0.45594000000E+02  0.51100000000E-03 0. -1.
    9900012    2    1    2    0    0 -0.14344520195E+02 -0.13633712676E+02 -0.38626151707E+02  0.47787274469E+02  0.20000015613E+02 0.  0.
        -12    1    1    2    0    0  0.14344520195E+02  0.13633712676E+02  0.38626151707E+02  0.43400725531E+02  0.00000000000E+00 0.  1.
         11    1    3    3    0    0  0.26313342960E+01 -0.26183525949E+01 -0.15203758788E+02  0.15650366514E+02  0.51100000000E-03 0. -1.
        -11    1    3    3    0    0  0.29047093440E+00 -0.46441942883E+00  0.54313882937E+00  0.77140055658E+00  0.51100000000E-03 0.  1.
         12    1    3    3    0    0 -0.17266325426E+02 -0.10550940653E+02 -0.23965531748E+02  0.31365507398E+02  0.00000000000E+00 0. -1.
</event>
<event>
 7    1  0.3785244E-010  0.4778727E+02  0.7816164E-02  0.1312668E+00
        -11   -1    0    0    0    0  0.00000000000E+00  0.00000000000E+00  0.45593999997E+02  0.45594000000E+02  0.51100000000E-03 0. -1.
         11   -1    0    0    0    0 -0.00000000000E+00 -0.00000000000E+00 -0.45593999997E+02  0.45594000000E+02  0.51100000000E-03 0.  1.
    9900012    2    1    2    0    0  0.28193484041E+01  0.38636752616E+02  0.19567213759E+02  0.47787271522E+02  0.20000002176E+02 0.  0.
        -12    1    1    2    0    0 -0.28193484041E+01 -0.38636752616E+02 -0.19567213759E+02  0.43400728478E+02  0.00000000000E+00 0.  1.
         11    1    3    3    0    0 -0.24603502722E+01  0.26367755607E+02  0.92327623560E+01  0.28045601441E+02  0.51100000000E-03 0. -1.
        -11    1    3    3    0    0  0.61794190688E+01  0.11737149112E+02  0.11926102783E+02  0.17837539549E+02  0.51100000000E-03 0.  1.
        -12    1    3    3    0    0 -0.89972039250E+00  0.53184789757E+00 -0.15916513794E+01  0.19041305324E+01  0.00000000000E+00 0.  1.
</event>
<event>
 7    1  0.3062695E-010  0.4778727E+02  0.7816164E-02  0.1312668E+00
        -11   -1    0    0    0    0  0.00000000000E+00  0.00000000000E+00  0.45593999997E+02  0.45594000000E+02  0.51100000000E-03 0.  1.
         11   -1    0    0    0    0 -0.00000000000E+00 -0.00000000000E+00 -0.45593999997E+02  0.45594000000E+02  0.51100000000E-03 0. -1.
    9900012    2    1    2    0    0  0.22064022051E+02 -0.93247573689E+01 -0.36191866978E+02  0.47787269540E+02  0.19999993141E+02 0.  0.
        -12    1    1    2    0    0 -0.22064022051E+02  0.93247573689E+01  0.36191866978E+02  0.43400730460E+02  0.00000000000E+00 0.  1.
         11    1    3    3    0    0  0.21891748689E+02 -0.14074923351E+02 -0.30595138333E+02  0.40167332720E+02  0.51100000000E-03 0. -1.
        -11    1    3    3    0    0  0.55878990335E+00  0.38043894774E+01 -0.53150040957E+01  0.65600986464E+01  0.51100000000E-03 0.  1.
         12    1    3    3    0    0 -0.38651654059E+00  0.94577650428E+00 -0.28172454981E+00  0.10598381736E+01  0.00000000000E+00 0. -1.
</event>
<event>
 7    1  0.3062695E-010  0.4778727E+02  0.7816164E-02  0.1312668E+00
        -11   -1    0    0    0    0  0.00000000000E+00  0.00000000000E+00  0.45593999997E+02  0.45594000000E+02  0.51100000000E-03 0.  1.
         11   -1    0    0    0    0 -0.00000000000E+00 -0.00000000000E+00 -0.45593999997E+02  0.45594000000E+02  0.51100000000E-03 0. -1.
    9900012    2    1    2    0    0 -0.17135980755E+02  0.30838654453E+02 -0.25277630799E+02  0.47787273465E+02  0.20000011038E+02 0.  0.
        -12    1    1    2    0    0  0.17135980755E+02 -0.30838654453E+02  0.25277630799E+02  0.43400726535E+02  0.00000000000E+00 0.  1.
         11    1    3    3    0    0 -0.18040795794E+02  0.16853524740E+02 -0.20183635232E+02  0.31888724348E+02  0.51100000000E-03 0. -1.
        -11    1    3    3    0    0  0.21762798718E+01  0.11649776275E+02 -0.57310117110E+01  0.13164268944E+02  0.51100000000E-03 0.  1.
         12    1    3    3    0    0 -0.12714648327E+01  0.23353534375E+01  0.63701614444E+00  0.27342801735E+01  0.00000000000E+00 0. -1.
</event>
<event>
 7    1  0.3062695E-010  0.4778725E+02  0.7816164E-02  0.1312668E+00
        -11   -1    0    0    0    0  0.00000000000E+00  0.00000000000E+00  0.45593999997E+02  0.45594000000E+02  0.51100000000E-03 0.  1.
         11   -1    0    0    0    0 -0.00000000000E+00 -0.00000000000E+00 -0.45593999997E+02  0.45594000000E+02  0.51100000000E-03 0. -1.
    9900012    2    1    2    0    0 -0.19623944417E+01 -0.24407277535E+02 -0.35833761878E+02  0.47787254857E+02  0.19999926194E+02 0.  0.
        -12    1    1    2    0    0  0.19623944417E+01  0.24407277535E+02  0.35833761878E+02  0.43400745143E+02  0.00000000000E+00 0.  1.
         11    1    3    3    0    0  0.55848563648E+01  0.15223445961E+00 -0.92526296570E+01  0.10808559191E+02  0.51100000000E-03 0. -1.
        -11    1    3    3    0    0 -0.35198482375E+01 -0.11416944475E+02 -0.12976839949E+02  0.17639000200E+02  0.51100000000E-03 0.  1.
         12    1    3    3    0    0 -0.40274025690E+01 -0.13142567520E+02 -0.13604292273E+02  0.19339695466E+02  0.00000000000E+00 0. -1.
</event>
<event>
 7    1  0.3062695E-010  0.4778727E+02  0.7816164E-02  0.1312668E+00
        -11   -1    0    0    0    0  0.00000000000E+00  0.00000000000E+00  0.45593999997E+02  0.45594000000E+02  0.51100000000E-03 0.  1.
         11   -1    0    0    0    0 -0.00000000000E+00 -0.00000000000E+00 -0.45593999997E+02  0.45594000000E+02  0.51100000000E-03 0. -1.
    9900012    2    1    2    0    0 -0.38242063941E+02  0.10422273961E+02 -0.17678915774E+02  0.47787270606E+02  0.19999998001E+02 0.  0.
        -12    1    1    2    0    0  0.38242063941E+02 -0.10422273961E+02  0.17678915774E+02  0.43400729394E+02  0.00000000000E+00 0.  1.
         11    1    3    3    0    0 -0.22294877098E+01 -0.22977008598E+01 -0.21674070842E+01  0.38662253451E+01  0.51100000000E-03 0. -1.
        -11    1    3    3    0    0 -0.25055013328E+01 -0.25662065210E+01 -0.39145690610E+01  0.53091246012E+01  0.51100000000E-03 0.  1.
        -12    1    3    3    0    0 -0.33507074899E+02  0.15286181342E+02 -0.11596939629E+02  0.38611920660E+02  0.00000000000E+00 0.  1.
</event>
<event>
 7    1  0.3062695E-010  0.4778727E+02  0.7816164E-02  0.1312668E+00
        -11   -1    0    0    0    0  0.00000000000E+00  0.00000000000E+00  0.45593999997E+02  0.45594000000E+02  0.51100000000E-03 0.  1.
         11   -1    0    0    0    0 -0.00000000000E+00 -0.00000000000E+00 -0.45593999997E+02  0.45594000000E+02  0.51100000000E-03 0. -1.
    9900012    2    1    2    0    0 -0.57583342684E+01  0.11386864981E+02 -0.41482573381E+02  0.47787274177E+02  0.20000014284E+02 0.  0.
        -12    1    1    2    0    0  0.57583342684E+01 -0.11386864981E+02  0.41482573381E+02  0.43400725823E+02  0.00000000000E+00 0.  1.
         11    1    3    3    0    0 -0.53977071804E+01  0.76171449321E+01 -0.17105038714E+02  0.19486879930E+02  0.51100000000E-03 0. -1.
        -11    1    3    3    0    0 -0.14469859573E+01  0.82936766570E+00  0.14943224225E+01  0.22393344656E+01  0.51100000000E-03 0.  1.
        -12    1    3    3    0    0  0.10863588694E+01  0.29403523833E+01 -0.25871857089E+02  0.26061059782E+02  0.00000000000E+00 0.  1.
</event>
<event>
 7    1  0.3062695E-010  0.4778727E+02  0.7816164E-02  0.1312668E+00
        -11   -1    0    0    0    0  0.00000000000E+00  0.00000000000E+00  0.45593999997E+02  0.45594000000E+02  0.51100000000E-03 0.  1.
         11   -1    0    0    0    0 -0.00000000000E+00 -0.00000000000E+00 -0.45593999997E+02  0.45594000000E+02  0.51100000000E-03 0. -1.
    9900012    2    1    2    0    0  0.21247238519E+02  0.31386075519E+02 -0.21144558827E+02  0.47787271330E+02  0.20000001300E+02 0.  0.
        -12    1    1    2    0    0 -0.21247238519E+02 -0.31386075519E+02  0.21144558827E+02  0.43400728670E+02  0.00000000000E+00 0.  1.
         11    1    3    3    0    0  0.15134762626E+01  0.24571210500E+01 -0.30017405456E+00  0.29014063789E+01  0.51100000000E-03 0. -1.
        -11    1    3    3    0    0  0.15788438072E+02  0.21066100318E+02 -0.50487321706E+01  0.26805690742E+02  0.51100000000E-03 0.  1.
        -12    1    3    3    0    0  0.39453241843E+01  0.78628541510E+01 -0.15795652602E+02  0.18080174209E+02  0.00000000000E+00 0.  1.
</event>
<event>
 7    1  0.3062695E-010  0.4778728E+02  0.7816164E-02  0.1312668E+00
        -11   -1    0    0    0    0  0.00000000000E+00  0.00000000000E+00  0.45593999997E+02  0.45594000000E+02  0.51100000000E-03 0. -1.
         11   -1    0    0    0    0 -0.00000000000E+00 -0.00000000000E+00 -0.45593999997E+02  0.45594000000E+02  0.51100000000E-03 0.  1.
    9900012    2    1    2    0    0  0.10258985542E+02  0.35092598929E+02  0.23385583300E+02  0.47787276616E+02  0.20000025404E+02 0.  0.
        -12    1    1    2    0    0 -0.10258985542E+02 -0.35092598929E+02 -0.23385583300E+02  0.43400723384E+02  0.00000000000E+00 0.  1.
         11    1    3    3    0    0  0.10769835463E+02  0.22066683322E+02  0.16248886128E+02  0.29444085474E+02  0.51100000000E-03 0. -1.
        -11    1    3    3    0    0  0.16620534854E+01 -0.67022918629E+00 -0.12055886034E+01  0.21598780271E+01  0.51100000000E-03 0.  1.
         12    1    3    3    0    0 -0.21729034070E+01  0.13696144794E+02  0.83422857754E+01  0.16183313115E+02  0.00000000000E+00 0. -1.
</event>
<event>
 7    1  0.3062695E-010  0.4778727E+02  0.7816164E-02  0.1312668E+00
        -11   -1    0    0    0    0  0.00000000000E+00  0.00000000000E+00  0.45593999997E+02  0.45594000000E+02  0.51100000000E-03 0. -1.
         11   -1    0    0    0    0 -0.00000000000E+00 -0.00000000000E+00 -0.45593999997E+02  0.45594000000E+02  0.51100000000E-03 0.  1.
    9900012    2    1    2    0    0  0.96128133497E+01 -0.27963256035E+02  0.31769066442E+02  0.47787269002E+02  0.19999990688E+02 0.  0.
        -12    1    1    2    0    0 -0.96128133497E+01  0.27963256035E+02 -0.31769066442E+02  0.43400730998E+02  0.00000000000E+00 0.  1.
         11    1    3    3    0    0  0.94298490724E+01 -0.50260327436E+01  0.14473599494E+02  0.17990779340E+02  0.51100000000E-03 0.  1.
        -11    1    3    3    0    0 -0.35387759521E+01 -0.15884310976E+02  0.12091436424E+02  0.20274050052E+02  0.51100000000E-03 0. -1.
         12    1    3    3    0    0  0.37217402294E+01 -0.70529123149E+01  0.52040305234E+01  0.95224396110E+01  0.00000000000E+00 0. -1.
</event>
<event>
 7    1  0.3062695E-010  0.4778728E+02  0.7816164E-02  0.1312668E+00
        -11   -1    0    0    0    0  0.00000000000E+00  0.00000000000E+00  0.45593999997E+02  0.45594000000E+02  0.51100000000E-03 0. -1.
         11   -1    0    0    0    0 -0.00000000000E+00 -0.00000000000E+00 -0.45593999997E+02  0.45594000000E+02  0.51100000000E-03 0.  1.
    9900012    2    1    2    0    0  0.40671663740E+02  0.78716658260E+01  0.12941216008E+02  0.47787280813E+02  0.20000044536E+02 0.  0.
        -12    1    1    2    0    0 -0.40671663740E+02 -0.78716658260E+01 -0.12941216008E+02  0.43400719187E+02  0.00000000000E+00 0.  1.
         11    1    3    3    0    0  0.35445083596E+02  0.12063722014E+02  0.93480889060E+01  0.38591114345E+02  0.51100000000E-03 0. -1.
        -11    1    3    3    0    0  0.52953174800E+01 -0.27448216307E+01  0.45134773778E+01  0.74796999472E+01  0.51100000000E-03 0.  1.
         12    1    3    3    0    0 -0.68737335904E-01 -0.14472345571E+01 -0.92035027623E+00  0.17164665204E+01  0.00000000000E+00 0. -1.
</event>
<event>
 7    1  0.3062695E-010  0.4778728E+02  0.7816164E-02  0.1312668E+00
        -11   -1    0    0    0    0  0.00000000000E+00  0.00000000000E+00  0.45593999997E+02  0.45594000000E+02  0.51100000000E-03 0.  1.
         11   -1    0    0    0    0 -0.00000000000E+00 -0.00000000000E+00 -0.45593999997E+02  0.45594000000E+02  0.51100000000E-03 0. -1.
    9900012    2    1    2    0    0 -0.57978447723E+01  0.40728983860E+02 -0.13825960424E+02  0.47787282127E+02  0.20000050530E+02 0.  0.
        -12    1    1    2    0    0  0.57978447723E+01 -0.40728983860E+02  0.13825960424E+02  0.43400717873E+02  0.00000000000E+00 0.  1.
         11    1    3    3    0    0 -0.55391283170E+01  0.20452264301E+02 -0.13428225924E+01  0.21231585676E+02  0.51100000000E-03 0. -1.
        -11    1    3    3    0    0  0.10606775502E+01  0.55395206013E+01 -0.10101044840E+02  0.11569029020E+02  0.51100000000E-03 0.  1.
        -12    1    3    3    0    0 -0.13193940056E+01  0.14737198958E+02 -0.23820929915E+01  0.14986667431E+02  0.00000000000E+00 0.  1.
</event>
<event>
 7    1  0.3062695E-010  0.4778727E+02  0.7816164E-02  0.1312668E+00
        -11   -1    0    0    0    0  0.00000000000E+00  0.00000000000E+00  0.45593999997E+02  0.45594000000E+02  0.51100000000E-03 0.  1.
         11   -1    0    0    0    0 -0.00000000000E+00 -0.00000000000E+00 -0.45593999997E+02  0.45594000000E+02  0.51100000000E-03 0. -1.
    9900012    2    1    2    0    0 -0.15835442479E+02 -0.26964058909E+02 -0.30096539934E+02  0.47787269276E+02  0.19999991936E+02 0.  0.
        -12    1    1    2    0    0  0.15835442479E+02  0.26964058909E+02  0.30096539934E+02  0.43400730724E+02  0.00000000000E+00 0.  1.
         11    1    3    3    0    0 -0.10694385187E+02 -0.27694782752E+02 -0.29452643380E+02  0.41819003677E+02  0.51100000000E-03 0. -1.
        -11    1    3    3    0    0 -0.48237665736E+01  0.10827070577E+01 -0.13436760706E+01  0.51231283581E+01  0.51100000000E-03 0.  1.
        -12    1    3    3    0    0 -0.31729071889E+00 -0.35198321467E+00  0.69977951637E+00  0.84513724047E+00  0.00000000000E+00 0.  1.
</event>
<event>
 7    1  0.3062695E-010  0.4778727E+02  0.7816164E-02  0.1312668E+00
        -11   -1    0    0    0    0  0.00000000000E+00  0.00000000000E+00  0.45593999997E+02  0.45594000000E+02  0.51100000000E-03 0.  1.
         11   -1    0    0    0    0 -0.00000000000E+00 -0.00000000000E+00 -0.45593999997E+02  0.45594000000E+02  0.51100000000E-03 0. -1.
    9900012    2    1    2    0    0 -0.41084213662E+02  0.13691665111E+02 -0.28721444757E+01  0.47787268213E+02  0.19999987091E+02 0.  0.
        -12    1    1    2    0    0  0.41084213662E+02 -0.13691665111E+02  0.28721444757E+01  0.43400731787E+02  0.00000000000E+00 0.  1.
         11    1    3    3    0    0 -0.30461473327E+02  0.97472515479E+01 -0.91538258748E+01  0.33267142925E+02  0.51100000000E-03 0. -1.
        -11    1    3    3    0    0 -0.95577203936E+00 -0.18320095011E+00  0.35200464807E+01  0.36520939565E+01  0.51100000000E-03 0.  1.
         12    1    3    3    0    0 -0.96669682959E+01  0.41276145128E+01  0.27616349183E+01  0.10868031332E+02  0.00000000000E+00 0. -1.
</event>
<event>
 7    1  0.3062695E-010  0.4778727E+02  0.7816164E-02  0.1312668E+00
        -11   -1    0    0    0    0  0.00000000000E+00  0.00000000000E+00  0.45593999997E+02  0.45594000000E+02  0.51100000000E-03 0. -1.
         11   -1    0    0    0    0 -0.00000000000E+00 -0.00000000000E+00 -0.45593999997E+02  0.45594000000E+02  0.51100000000E-03 0.  1.
    9900012    2    1    2    0    0  0.19278747386E+02 -0.28825264985E+02  0.26097073510E+02  0.47787271343E+02  0.20000001359E+02 0.  0.
        -12    1    1    2    0    0 -0.19278747386E+02  0.28825264985E+02 -0.26097073510E+02  0.43400728657E+02  0.00000000000E+00 0.  1.
         11    1    3    3    0    0  0.19107570748E+02 -0.18574481645E+02  0.10008024372E+02  0.28465262697E+02  0.51100000000E-03 0. -1.
        -11    1    3    3    0    0 -0.13611313879E+01 -0.52272390452E+01  0.72610743317E+01  0.90498567614E+01  0.51100000000E-03 0.  1.
         12    1    3    3    0    0  0.15323080255E+01 -0.50235442944E+01  0.88279748060E+01  0.10272151884E+02  0.00000000000E+00 0. -1.
</event>
<event>
 7    1  0.3062695E-010  0.4778727E+02  0.7816164E-02  0.1312668E+00
        -11   -1    0    0    0    0  0.00000000000E+00  0.00000000000E+00  0.45593999997E+02  0.45594000000E+02  0.51100000000E-03 0.  1.
         11   -1    0    0    0    0 -0.00000000000E+00 -0.00000000000E+00 -0.45593999997E+02  0.45594000000E+02  0.51100000000E-03 0. -1.
    9900012    2    1    2    0    0 -0.41307907967E+02 -0.59379301785E+01 -0.11917259724E+02  0.47787270113E+02  0.19999995751E+02 0.  0.
        -12    1    1    2    0    0  0.41307907967E+02  0.59379301785E+01  0.11917259724E+02  0.43400729887E+02  0.00000000000E+00 0.  1.
         11    1    3    3    0    0 -0.11155919871E+02 -0.36395211930E+01 -0.48813129585E+01  0.12709361870E+02  0.51100000000E-03 0. -1.
        -11    1    3    3    0    0 -0.23676212814E+02 -0.83805502536E+01 -0.74097623744E+01  0.26185898008E+02  0.51100000000E-03 0.  1.
        -12    1    3    3    0    0 -0.64757752821E+01  0.60821412680E+01  0.37381560853E+00  0.88920102349E+01  0.00000000000E+00 0.  1.
</event>
<event>
 7    1  0.3062695E-010  0.4778728E+02  0.7816164E-02  0.1312668E+00
        -11   -1    0    0    0    0  0.00000000000E+00  0.00000000000E+00  0.45593999997E+02  0.45594000000E+02  0.51100000000E-03 0. -1.
         11   -1    0    0    0    0 -0.00000000000E+00 -0.00000000000E+00 -0.45593999997E+02  0.45594000000E+02  0.51100000000E-03 0.  1.
    9900012    2    1    2    0    0 -0.25375378185E+02  0.24585569191E+02  0.25204421637E+02  0.47787275345E+02  0.20000019610E+02 0.  0.
        -12    1    1    2    0    0  0.25375378185E+02 -0.24585569191E+02 -0.25204421637E+02  0.43400724655E+02  0.00000000000E+00 0.  1.
         11    1    3    3    0    0 -0.11355436713E+02  0.76699309013E+01  0.15259002366E+02  0.20508801438E+02  0.51100000000E-03 0. -1.
        -11    1    3    3    0    0  0.11634028551E+01  0.29973333185E+01 -0.16790585027E+01  0.36272235859E+01  0.51100000000E-03 0.  1.
         12    1    3    3    0    0 -0.15183344328E+02  0.13918304971E+02  0.11624477774E+02  0.23651250321E+02  0.00000000000E+00 0. -1.
</event>
<event>
 7    1  0.3062695E-010  0.4778727E+02  0.7816164E-02  0.1312668E+00
        -11   -1    0    0    0    0  0.00000000000E+00  0.00000000000E+00  0.45593999997E+02  0.45594000000E+02  0.51100000000E-03 0.  1.
         11   -1    0    0    0    0 -0.00000000000E+00 -0.00000000000E+00 -0.45593999997E+02  0.45594000000E+02  0.51100000000E-03 0. -1.
    9900012    2    1    2    0    0  0.38639426257E+02  0.10975533694E+02 -0.16436406567E+02  0.47787273483E+02  0.20000011121E+02 0.  0.
        -12    1    1    2    0    0 -0.38639426257E+02 -0.10975533694E+02  0.16436406567E+02  0.43400726517E+02  0.00000000000E+00 0.  1.
         11    1    3    3    0    0  0.21476739985E+02 -0.96645563711E-01 -0.20433069165E+01  0.21573938078E+02  0.51100000000E-03 0. -1.
        -11    1    3    3    0    0  0.17530829920E+02  0.11548137729E+02 -0.14607275565E+02  0.25574635528E+02  0.51100000000E-03 0.  1.
        -12    1    3    3    0    0 -0.36814364818E+00 -0.47595847108E+00  0.21417591452E+00  0.63869987807E+00  0.00000000000E+00 0.  1.
</event>
<event>
 7    1  0.3062695E-010  0.4778727E+02  0.7816164E-02  0.1312668E+00
        -11   -1    0    0    0    0  0.00000000000E+00  0.00000000000E+00  0.45593999997E+02  0.45594000000E+02  0.51100000000E-03 0.  1.
         11   -1    0    0    0    0 -0.00000000000E+00 -0.00000000000E+00 -0.45593999997E+02  0.45594000000E+02  0.51100000000E-03 0. -1.
    9900012    2    1    2    0    0 -0.37425427424E+02 -0.47476043270E+01 -0.21457424255E+02  0.47787269356E+02  0.19999992304E+02 0.  0.
        -12    1    1    2    0    0  0.37425427424E+02  0.47476043270E+01  0.21457424255E+02  0.43400730644E+02  0.00000000000E+00 0.  1.
         11    1    3    3    0    0 -0.17835114738E+02  0.65815865639E+01 -0.13205958996E+02  0.23147482643E+02  0.51100000000E-03 0. -1.
        -11    1    3    3    0    0 -0.17443230845E+02 -0.99965137331E+01 -0.53746028156E+01  0.20810644988E+02  0.51100000000E-03 0.  1.
        -12    1    3    3    0    0 -0.21470818410E+01 -0.13326771578E+01 -0.28768624431E+01  0.38291417257E+01  0.00000000000E+00 0.  1.
</event>
<event>
 7    1  0.3062695E-010  0.4778727E+02  0.7816164E-02  0.1312668E+00
        -11   -1    0    0    0    0  0.00000000000E+00  0.00000000000E+00  0.45593999997E+02  0.45594000000E+02  0.51100000000E-03 0.  1.
         11   -1    0    0    0    0 -0.00000000000E+00 -0.00000000000E+00 -0.45593999997E+02  0.45594000000E+02  0.51100000000E-03 0. -1.
    9900012    2    1    2    0    0 -0.86442463203E+01 -0.21505575787E+02 -0.36693468923E+02  0.47787269061E+02  0.19999990958E+02 0.  0.
        -12    1    1    2    0    0  0.86442463203E+01  0.21505575787E+02  0.36693468923E+02  0.43400730939E+02  0.00000000000E+00 0.  1.
         11    1    3    3    0    0  0.45653706959E+01 -0.56286394235E+01 -0.11122985956E+02  0.13275730043E+02  0.51100000000E-03 0. -1.
        -11    1    3    3    0    0 -0.14402987506E+02 -0.16353716715E+02 -0.24796122721E+02  0.33011176921E+02  0.51100000000E-03 0.  1.
        -12    1    3    3    0    0  0.11933704898E+01  0.47678035091E+00 -0.77436024708E+00  0.15003620967E+01  0.00000000000E+00 0.  1.
</event>
<event>
 7    1  0.3062695E-010  0.4778727E+02  0.7816164E-02  0.1312668E+00
        -11   -1    0    0    0    0  0.00000000000E+00  0.00000000000E+00  0.45593999997E+02  0.45594000000E+02  0.51100000000E-03 0.  1.
         11   -1    0    0    0    0 -0.00000000000E+00 -0.00000000000E+00 -0.45593999997E+02  0.45594000000E+02  0.51100000000E-03 0. -1.
    9900012    2    1    2    0    0 -0.32952582074E+02  0.13845725679E+02 -0.24618015137E+02  0.47787268967E+02  0.19999990527E+02 0.  0.
        -12    1    1    2    0    0  0.32952582074E+02 -0.13845725679E+02  0.24618015137E+02  0.43400731033E+02  0.00000000000E+00 0.  1.
         11    1    3    3    0    0 -0.10447175913E+02  0.24311261332E+00 -0.53707138957E+01  0.11749347059E+02  0.51100000000E-03 0. -1.
        -11    1    3    3    0    0 -0.14081713936E+02  0.15816548948E+02 -0.16681942100E+02  0.26958209890E+02  0.51100000000E-03 0.  1.
        -12    1    3    3    0    0 -0.84236922255E+01 -0.22139358824E+01 -0.25653591420E+01  0.90797120179E+01  0.00000000000E+00 0.  1.
</event>
<event>
 7    1  0.3062695E-010  0.4778727E+02  0.7816164E-02  0.1312668E+00
        -11   -1    0    0    0    0  0.00000000000E+00  0.00000000000E+00  0.45593999997E+02  0.45594000000E+02  0.51100000000E-03 0. -1.
         11   -1    0    0    0    0 -0.00000000000E+00 -0.00000000000E+00 -0.45593999997E+02  0.45594000000E+02  0.51100000000E-03 0.  1.
    9900012    2    1    2    0    0 -0.41178407996E+02  0.11005622735E+02 -0.81754612154E+01  0.47787272092E+02  0.20000004774E+02 0.  0.
        -12    1    1    2    0    0  0.41178407996E+02 -0.11005622735E+02  0.81754612154E+01  0.43400727908E+02  0.00000000000E+00 0.  1.
         11    1    3    3    0    0 -0.28856296316E+02  0.87546553222E+01  0.30263537685E+00  0.30156614785E+02  0.51100000000E-03 0. -1.
        -11    1    3    3    0    0 -0.12333896048E+02  0.41839868031E+01 -0.87327028638E+01  0.15680906762E+02  0.51100000000E-03 0.  1.
         12    1    3    3    0    0  0.11784367404E-01 -0.19330193902E+01  0.25460627156E+00  0.19497505450E+01  0.00000000000E+00 0. -1.
</event>
<event>
 7    1  0.3062695E-010  0.4778727E+02  0.7816164E-02  0.1312668E+00
        -11   -1    0    0    0    0  0.00000000000E+00  0.00000000000E+00  0.45593999997E+02  0.45594000000E+02  0.51100000000E-03 0. -1.
         11   -1    0    0    0    0 -0.00000000000E+00 -0.00000000000E+00 -0.45593999997E+02  0.45594000000E+02  0.51100000000E-03 0.  1.
    9900012    2    1    2    0    0  0.28490363640E+02 -0.14595539912E+01  0.32707681346E+02  0.47787268011E+02  0.19999986167E+02 0.  0.
        -12    1    1    2    0    0 -0.28490363640E+02  0.14595539912E+01 -0.32707681346E+02  0.43400731989E+02  0.00000000000E+00 0.  1.
         11    1    3    3    0    0  0.19460858855E+02  0.45411855133E+01  0.16078484619E+02  0.25648880310E+02  0.51100000000E-03 0. -1.
        -11    1    3    3    0    0 -0.17209781083E+01  0.72277240443E+00  0.29079374184E+01  0.34554689824E+01  0.51100000000E-03 0.  1.
         12    1    3    3    0    0  0.10750482893E+02 -0.67235119089E+01  0.13721259308E+02  0.18682918718E+02  0.00000000000E+00 0. -1.
</event>
<event>
 7    1  0.3062695E-010  0.4778727E+02  0.7816164E-02  0.1312668E+00
        -11   -1    0    0    0    0  0.00000000000E+00  0.00000000000E+00  0.45593999997E+02  0.45594000000E+02  0.51100000000E-03 0.  1.
         11   -1    0    0    0    0 -0.00000000000E+00 -0.00000000000E+00 -0.45593999997E+02  0.45594000000E+02  0.51100000000E-03 0. -1.
    9900012    2    1    2    0    0  0.35708142049E+02  0.10516835554E+01 -0.24646419534E+02  0.47787269099E+02  0.19999991132E+02 0.  0.
        -12    1    1    2    0    0 -0.35708142049E+02 -0.10516835554E+01  0.24646419534E+02  0.43400730901E+02  0.00000000000E+00 0.  1.
         11    1    3    3    0    0  0.59688267584E+01  0.30834109107E+01 -0.11836564414E+02  0.13610237805E+02  0.51100000000E-03 0. -1.
        -11    1    3    3    0    0  0.22432160253E+02 -0.56832381496E+01 -0.11708678202E+02  0.25934420275E+02  0.51100000000E-03 0.  1.
         12    1    3    3    0    0  0.73071550372E+01  0.36515107944E+01 -0.11011769179E+01  0.82426110198E+01  0.00000000000E+00 0. -1.
</event>
<event>
 7    1  0.3062695E-010  0.4778728E+02  0.7816164E-02  0.1312668E+00
        -11   -1    0    0    0    0  0.00000000000E+00  0.00000000000E+00  0.45593999997E+02  0.45594000000E+02  0.51100000000E-03 0.  1.
         11   -1    0    0    0    0 -0.00000000000E+00 -0.00000000000E+00 -0.45593999997E+02  0.45594000000E+02  0.51100000000E-03 0. -1.
    9900012    2    1    2    0    0  0.24049274401E+02 -0.10731110646E+02 -0.34497805308E+02  0.47787275283E+02  0.20000019325E+02 0.  0.
        -12    1    1    2    0    0 -0.24049274401E+02  0.10731110646E+02  0.34497805308E+02  0.43400724717E+02  0.00000000000E+00 0.  1.
         11    1    3    3    0    0  0.17578760799E+02 -0.62624146960E+01 -0.14335925619E+02  0.23531881197E+02  0.51100000000E-03 0. -1.
        -11    1    3    3    0    0  0.42527645313E+01  0.11812636242E+01 -0.16688252635E+02  0.17262073055E+02  0.51100000000E-03 0.  1.
         12    1    3    3    0    0  0.22177490712E+01 -0.56499595739E+01 -0.34736270534E+01  0.69933210305E+01  0.00000000000E+00 0. -1.
</event>
<event>
 7    1  0.3062695E-010  0.4778727E+02  0.7816164E-02  0.1312668E+00
        -11   -1    0    0    0    0  0.00000000000E+00  0.00000000000E+00  0.45593999997E+02  0.45594000000E+02  0.51100000000E-03 0. -1.
         11   -1    0    0    0    0 -0.00000000000E+00 -0.00000000000E+00 -0.45593999997E+02  0.45594000000E+02  0.51100000000E-03 0.  1.
    9900012    2    1    2    0    0  0.35845636048E+02 -0.13594519868E+02  0.20344598682E+02  0.47787270863E+02  0.19999999173E+02 0.  0.
        -12    1    1    2    0    0 -0.35845636048E+02  0.13594519868E+02 -0.20344598682E+02  0.43400729137E+02  0.00000000000E+00 0.  1.
         11    1    3    3    0    0  0.29675411861E+02 -0.11824443177E+02  0.17671531345E+02  0.36506582227E+02  0.51100000000E-03 0. -1.
        -11    1    3    3    0    0  0.40460923676E+01  0.25340659562E+01 -0.14112695286E+01  0.49783567229E+01  0.51100000000E-03 0.  1.
         12    1    3    3    0    0  0.21241318186E+01 -0.43041426467E+01  0.40843368658E+01  0.63023319128E+01  0.00000000000E+00 0. -1.
</event>
<event>
 7    1  0.3062695E-010  0.4778727E+02  0.7816164E-02  0.1312668E+00
        -11   -1    0    0    0    0  0.00000000000E+00  0.00000000000E+00  0.45593999997E+02  0.45594000000E+02  0.51100000000E-03 0.  1.
         11   -1    0    0    0    0 -0.00000000000E+00 -0.00000000000E+00 -0.45593999997E+02  0.45594000000E+02  0.51100000000E-03 0. -1.
    9900012    2    1    2    0    0  0.15522657342E+02  0.35647954240E+02 -0.19284548161E+02  0.47787270395E+02  0.19999997039E+02 0.  0.
        -12    1    1    2    0    0 -0.15522657342E+02 -0.35647954240E+02  0.19284548161E+02  0.43400729605E+02  0.00000000000E+00 0.  1.
         11    1    3    3    0    0  0.12757404043E+02  0.25698281289E+02 -0.36552983146E+01  0.28922555647E+02  0.51100000000E-03 0. -1.
        -11    1    3    3    0    0  0.14734543093E+01  0.74570584995E+01 -0.98712538566E+01  0.12458749617E+02  0.51100000000E-03 0.  1.
         12    1    3    3    0    0  0.12917989897E+01  0.24926144514E+01 -0.57579959896E+01  0.64059651302E+01  0.00000000000E+00 0. -1.
</event>
<event>
 7    1  0.3062695E-010  0.4778727E+02  0.7816164E-02  0.1312668E+00
        -11   -1    0    0    0    0  0.00000000000E+00  0.00000000000E+00  0.45593999997E+02  0.45594000000E+02  0.51100000000E-03 0. -1.
         11   -1    0    0    0    0 -0.00000000000E+00 -0.00000000000E+00 -0.45593999997E+02  0.45594000000E+02  0.51100000000E-03 0.  1.
    9900012    2    1    2    0    0 -0.26571973656E+02  0.34243581365E+02  0.22204478096E+01  0.47787273772E+02  0.20000012435E+02 0.  0.
        -12    1    1    2    0    0  0.26571973656E+02 -0.34243581365E+02 -0.22204478096E+01  0.43400726228E+02  0.00000000000E+00 0.  1.
         11    1    3    3    0    0 -0.23255551120E+02  0.33166710449E+02  0.38563364699E+01  0.40690572264E+02  0.51100000000E-03 0. -1.
        -11    1    3    3    0    0  0.17479030788E+01  0.36516821542E+00 -0.55197435699E+00  0.18690074773E+01  0.51100000000E-03 0.  1.
         12    1    3    3    0    0 -0.50643256146E+01  0.71170270034E+00 -0.10839143034E+01  0.52276940309E+01  0.00000000000E+00 0. -1.
</event>
<event>
 7    1  0.3062695E-010  0.4778727E+02  0.7816164E-02  0.1312668E+00
        -11   -1    0    0    0    0  0.00000000000E+00  0.00000000000E+00  0.45593999997E+02  0.45594000000E+02  0.51100000000E-03 0.  1.
         11   -1    0    0    0    0 -0.00000000000E+00 -0.00000000000E+00 -0.45593999997E+02  0.45594000000E+02  0.51100000000E-03 0. -1.
    9900012    2    1    2    0    0 -0.38531636146E+02  0.42843308270E+01 -0.19508480815E+02  0.47787270762E+02  0.19999998710E+02 0.  0.
        -12    1    1    2    0    0  0.38531636146E+02 -0.42843308270E+01  0.19508480815E+02  0.43400729238E+02  0.00000000000E+00 0.  1.
         11    1    3    3    0    0 -0.21054284490E+02  0.47087971906E+01 -0.64652161565E+01  0.22522315303E+02  0.51100000000E-03 0. -1.
        -11    1    3    3    0    0  0.14616737734E+01 -0.18484791688E+01 -0.28895375943E+01  0.37286449586E+01  0.51100000000E-03 0.  1.
        -12    1    3    3    0    0 -0.18939025429E+02  0.14240128052E+01 -0.10153727065E+02  0.21536310500E+02  0.00000000000E+00 0.  1.
</event>
<event>
 7    1  0.3062695E-010  0.4778727E+02  0.7816164E-02  0.1312668E+00
        -11   -1    0    0    0    0  0.00000000000E+00  0.00000000000E+00  0.45593999997E+02  0.45594000000E+02  0.51100000000E-03 0.  1.
         11   -1    0    0    0    0 -0.00000000000E+00 -0.00000000000E+00 -0.45593999997E+02  0.45594000000E+02  0.51100000000E-03 0. -1.
    9900012    2    1    2    0    0  0.29747229540E+01 -0.42373929567E+02 -0.89008012384E+01  0.47787272514E+02  0.20000006700E+02 0.  0.
        -12    1    1    2    0    0 -0.29747229540E+01  0.42373929567E+02  0.89008012384E+01  0.43400727486E+02  0.00000000000E+00 0.  1.
         11    1    3    3    0    0  0.54560423014E+01 -0.15858990558E+02 -0.11713011582E+02  0.20456554443E+02  0.51100000000E-03 0. -1.
        -11    1    3    3    0    0 -0.37664639799E+01 -0.16542602630E+02  0.30799667376E+00  0.16968759969E+02  0.51100000000E-03 0.  1.
         12    1    3    3    0    0  0.12851446326E+01 -0.99723363799E+01  0.25042136695E+01  0.10361958102E+02  0.00000000000E+00 0. -1.
</event>
<event>
 7    1  0.3062695E-010  0.4778727E+02  0.7816164E-02  0.1312668E+00
        -11   -1    0    0    0    0  0.00000000000E+00  0.00000000000E+00  0.45593999997E+02  0.45594000000E+02  0.51100000000E-03 0.  1.
         11   -1    0    0    0    0 -0.00000000000E+00 -0.00000000000E+00 -0.45593999997E+02  0.45594000000E+02  0.51100000000E-03 0. -1.
    9900012    2    1    2    0    0 -0.41390489506E+02 -0.56764058511E+01 -0.11757086754E+02  0.47787270814E+02  0.19999998950E+02 0.  0.
        -12    1    1    2    0    0  0.41390489506E+02  0.56764058511E+01  0.11757086754E+02  0.43400729186E+02  0.00000000000E+00 0.  1.
         11    1    3    3    0    0 -0.21850350184E+02 -0.36734034432E+01 -0.76358368285E+01  0.23435820881E+02  0.51100000000E-03 0. -1.
        -11    1    3    3    0    0 -0.66456306757E+00 -0.29076039482E+01  0.29305076642E+01  0.41813490911E+01  0.51100000000E-03 0.  1.
        -12    1    3    3    0    0 -0.18875576255E+02  0.90460154029E+00 -0.70517575894E+01  0.20170100842E+02  0.00000000000E+00 0.  1.
</event>
<event>
 7    1  0.3062695E-010  0.4778727E+02  0.7816164E-02  0.1312668E+00
        -11   -1    0    0    0    0  0.00000000000E+00  0.00000000000E+00  0.45593999997E+02  0.45594000000E+02  0.51100000000E-03 0.  1.
         11   -1    0    0    0    0 -0.00000000000E+00 -0.00000000000E+00 -0.45593999997E+02  0.45594000000E+02  0.51100000000E-03 0. -1.
    9900012    2    1    2    0    0  0.21309718123E+02  0.37879609173E+01 -0.37618752617E+02  0.47787270941E+02  0.19999999528E+02 0.  0.
        -12    1    1    2    0    0 -0.21309718123E+02 -0.37879609173E+01  0.37618752617E+02  0.43400729059E+02  0.00000000000E+00 0.  1.
         11    1    3    3    0    0  0.43926725013E+01 -0.54614489661E+01 -0.39456343304E+01  0.80430732337E+01  0.51100000000E-03 0. -1.
        -11    1    3    3    0    0  0.27735718682E+01  0.59348558459E+01 -0.11537886806E+02  0.13267933035E+02  0.51100000000E-03 0.  1.
         12    1    3    3    0    0  0.14143473753E+02  0.33145540374E+01 -0.22135231481E+02  0.26476264672E+02  0.00000000000E+00 0. -1.
</event>
<event>
 7    1  0.3062695E-010  0.4778727E+02  0.7816164E-02  0.1312668E+00
        -11   -1    0    0    0    0  0.00000000000E+00  0.00000000000E+00  0.45593999997E+02  0.45594000000E+02  0.51100000000E-03 0.  1.
         11   -1    0    0    0    0 -0.00000000000E+00 -0.00000000000E+00 -0.45593999997E+02  0.45594000000E+02  0.51100000000E-03 0. -1.
    9900012    2    1    2    0    0 -0.95780115991E+01 -0.35240849960E+01 -0.42183714023E+02  0.47787271780E+02  0.20000003355E+02 0.  0.
        -12    1    1    2    0    0  0.95780115991E+01  0.35240849960E+01  0.42183714023E+02  0.43400728220E+02  0.00000000000E+00 0.  1.
         11    1    3    3    0    0 -0.70176964181E+01 -0.41794715069E+01 -0.31297039229E+02  0.32345335210E+02  0.51100000000E-03 0. -1.
        -11    1    3    3    0    0 -0.17941338798E+01  0.50881809080E+01 -0.25467158321E+01  0.59660927852E+01  0.51100000000E-03 0.  1.
        -12    1    3    3    0    0 -0.76618130119E+00 -0.44327943971E+01 -0.83399589620E+01  0.94758437852E+01  0.00000000000E+00 0.  1.
</event>
<event>
 7    1  0.3062695E-010  0.4778727E+02  0.7816164E-02  0.1312668E+00
        -11   -1    0    0    0    0  0.00000000000E+00  0.00000000000E+00  0.45593999997E+02  0.45594000000E+02  0.51100000000E-03 0.  1.
         11   -1    0    0    0    0 -0.00000000000E+00 -0.00000000000E+00 -0.45593999997E+02  0.45594000000E+02  0.51100000000E-03 0. -1.
    9900012    2    1    2    0    0 -0.36439945106E+02 -0.37869785595E+01 -0.23268273319E+02  0.47787270177E+02  0.19999996045E+02 0.  0.
        -12    1    1    2    0    0  0.36439945106E+02  0.37869785595E+01  0.23268273319E+02  0.43400729823E+02  0.00000000000E+00 0.  1.
         11    1    3    3    0    0 -0.14807689242E+02 -0.10285366974E+02 -0.15049336745E+02  0.23484866855E+02  0.51100000000E-03 0. -1.
        -11    1    3    3    0    0 -0.82328567006E+01  0.42318261885E+01 -0.38767121774E+01  0.10035794932E+02  0.51100000000E-03 0.  1.
         12    1    3    3    0    0 -0.13399399163E+02  0.22665622258E+01 -0.43422243970E+01  0.14266608390E+02  0.00000000000E+00 0. -1.
</event>
<event>
 7    1  0.3062695E-010  0.4778727E+02  0.7816164E-02  0.1312668E+00
        -11   -1    0    0    0    0  0.00000000000E+00  0.00000000000E+00  0.45593999997E+02  0.45594000000E+02  0.51100000000E-03 0.  1.
         11   -1    0    0    0    0 -0.00000000000E+00 -0.00000000000E+00 -0.45593999997E+02  0.45594000000E+02  0.51100000000E-03 0. -1.
    9900012    2    1    2    0    0 -0.30242417981E+02 -0.28972923388E+02 -0.11383726948E+02  0.47787269888E+02  0.19999994728E+02 0.  0.
        -12    1    1    2    0    0  0.30242417981E+02  0.28972923388E+02  0.11383726948E+02  0.43400730112E+02  0.00000000000E+00 0.  1.
         11    1    3    3    0    0 -0.22611921291E+02 -0.25181016251E+02 -0.78815749005E+01  0.34749126422E+02  0.51100000000E-03 0. -1.
        -11    1    3    3    0    0 -0.50759626965E+01 -0.87771383982E+00 -0.63880779803E+01  0.82062975467E+01  0.51100000000E-03 0.  1.
        -12    1    3    3    0    0 -0.25545339933E+01 -0.29141932977E+01  0.28859259331E+01  0.48318459196E+01  0.00000000000E+00 0.  1.
</event>
<event>
 7    1  0.3062695E-010  0.4778727E+02  0.7816164E-02  0.1312668E+00
        -11   -1    0    0    0    0  0.00000000000E+00  0.00000000000E+00  0.45593999997E+02  0.45594000000E+02  0.51100000000E-03 0. -1.
         11   -1    0    0    0    0 -0.00000000000E+00 -0.00000000000E+00 -0.45593999997E+02  0.45594000000E+02  0.51100000000E-03 0.  1.
    9900012    2    1    2    0    0  0.14664431167E+02 -0.39428977198E+02  0.10673959170E+02  0.47787272026E+02  0.20000004475E+02 0.  0.
        -12    1    1    2    0    0 -0.14664431167E+02  0.39428977198E+02 -0.10673959170E+02  0.43400727974E+02  0.00000000000E+00 0.  1.
         11    1    3    3    0    0 -0.67929371539E+00 -0.12695290154E+02  0.92849783866E+01  0.15743019276E+02  0.51100000000E-03 0. -1.
        -11    1    3    3    0    0  0.23535826981E+01 -0.65769015297E+01 -0.31091575748E+01  0.76460346804E+01  0.51100000000E-03 0.  1.
         12    1    3    3    0    0  0.12990142184E+02 -0.20156785515E+02  0.44981383581E+01  0.24398218069E+02  0.00000000000E+00 0. -1.
</event>
<event>
 7    1  0.3062695E-010  0.4778727E+02  0.7816164E-02  0.1312668E+00
        -11   -1    0    0    0    0  0.00000000000E+00  0.00000000000E+00  0.45593999997E+02  0.45594000000E+02  0.51100000000E-03 0. -1.
         11   -1    0    0    0    0 -0.00000000000E+00 -0.00000000000E+00 -0.45593999997E+02  0.45594000000E+02  0.51100000000E-03 0.  1.
    9900012    2    1    2    0    0 -0.41102115636E+02  0.24404236220E+01 -0.13721660119E+02  0.47787268052E+02  0.19999986357E+02 0.  0.
        -12    1    1    2    0    0  0.41102115636E+02 -0.24404236220E+01  0.13721660119E+02  0.43400731948E+02  0.00000000000E+00 0.  1.
         11    1    3    3    0    0 -0.20112695352E+00  0.11894442961E+01  0.24437990066E+01  0.27253226655E+01  0.51100000000E-03 0. -1.
        -11    1    3    3    0    0 -0.33844697271E+02  0.27405192684E+00 -0.17025259477E+02  0.37886648022E+02  0.51100000000E-03 0.  1.
        -12    1    3    3    0    0 -0.70562914110E+01  0.97692739908E+00  0.85980035144E+00  0.71752973642E+01  0.00000000000E+00 0.  1.
</event>
<event>
 7    1  0.3062695E-010  0.4778728E+02  0.7816164E-02  0.1312668E+00
        -11   -1    0    0    0    0  0.00000000000E+00  0.00000000000E+00  0.45593999997E+02  0.45594000000E+02  0.51100000000E-03 0.  1.
         11   -1    0    0    0    0 -0.00000000000E+00 -0.00000000000E+00 -0.45593999997E+02  0.45594000000E+02  0.51100000000E-03 0. -1.
    9900012    2    1    2    0    0 -0.48570436554E+00  0.54107480615E-01 -0.43397968157E+02  0.47787280230E+02  0.20000041882E+02 0.  0.
        -12    1    1    2    0    0  0.48570436554E+00 -0.54107480615E-01  0.43397968157E+02  0.43400719770E+02  0.00000000000E+00 0.  1.
         11    1    3    3    0    0  0.40867995504E+01  0.52579770749E+01 -0.29891750246E+02  0.30624581409E+02  0.51100000000E-03 0. -1.
        -11    1    3    3    0    0 -0.19747525365E+01 -0.37311735649E+01 -0.13533273845E+02  0.14176417212E+02  0.51100000000E-03 0.  1.
         12    1    3    3    0    0 -0.25977513794E+01 -0.14726960294E+01  0.27055933272E-01  0.29862816089E+01  0.00000000000E+00 0. -1.
</event>
<event>
 7    1  0.3062695E-010  0.4778727E+02  0.7816164E-02  0.1312668E+00
        -11   -1    0    0    0    0  0.00000000000E+00  0.00000000000E+00  0.45593999997E+02  0.45594000000E+02  0.51100000000E-03 0.  1.
         11   -1    0    0    0    0 -0.00000000000E+00 -0.00000000000E+00 -0.45593999997E+02  0.45594000000E+02  0.51100000000E-03 0. -1.
    9900012    2    1    2    0    0  0.40632542276E+02  0.67170002378E+01 -0.13693122065E+02  0.47787272173E+02  0.20000005146E+02 0.  0.
        -12    1    1    2    0    0 -0.40632542276E+02 -0.67170002378E+01  0.13693122065E+02  0.43400727827E+02  0.00000000000E+00 0.  1.
         11    1    3    3    0    0  0.80092171514E+00 -0.15753430196E+01  0.24161710806E+01  0.29935036621E+01  0.51100000000E-03 0. -1.
        -11    1    3    3    0    0  0.11698980685E+02  0.70000720552E+01 -0.54128840547E+01  0.14668553845E+02  0.51100000000E-03 0.  1.
         12    1    3    3    0    0  0.28132639876E+02  0.12922712022E+01 -0.10696409091E+02  0.30125214666E+02  0.00000000000E+00 0. -1.
</event>
<event>
 7    1  0.3062695E-010  0.4778727E+02  0.7816164E-02  0.1312668E+00
        -11   -1    0    0    0    0  0.00000000000E+00  0.00000000000E+00  0.45593999997E+02  0.45594000000E+02  0.51100000000E-03 0.  1.
         11   -1    0    0    0    0 -0.00000000000E+00 -0.00000000000E+00 -0.45593999997E+02  0.45594000000E+02  0.51100000000E-03 0. -1.
    9900012    2    1    2    0    0  0.38738597816E+01  0.24290575703E+02 -0.35757296298E+02  0.47787273092E+02  0.20000009334E+02 0.  0.
        -12    1    1    2    0    0 -0.38738597816E+01 -0.24290575703E+02  0.35757296298E+02  0.43400726908E+02  0.00000000000E+00 0.  1.
         11    1    3    3    0    0  0.16978198559E+01  0.16904057607E+02 -0.14106070215E+02  0.22081915067E+02  0.51100000000E-03 0. -1.
        -11    1    3    3    0    0  0.59949449998E+01  0.58151190571E+00 -0.86047661160E+01  0.10503310041E+02  0.51100000000E-03 0.  1.
         12    1    3    3    0    0 -0.38189050742E+01  0.68050061901E+01 -0.13046459967E+02  0.15202047983E+02  0.00000000000E+00 0. -1.
</event>
<event>
 7    1  0.3062695E-010  0.4778727E+02  0.7816164E-02  0.1312668E+00
        -11   -1    0    0    0    0  0.00000000000E+00  0.00000000000E+00  0.45593999997E+02  0.45594000000E+02  0.51100000000E-03 0.  1.
         11   -1    0    0    0    0 -0.00000000000E+00 -0.00000000000E+00 -0.45593999997E+02  0.45594000000E+02  0.51100000000E-03 0. -1.
    9900012    2    1    2    0    0  0.37124293641E+02 -0.11189456258E+02  0.19498873941E+02  0.47787271957E+02  0.20000004159E+02 0.  0.
        -12    1    1    2    0    0 -0.37124293641E+02  0.11189456258E+02 -0.19498873941E+02  0.43400728043E+02  0.00000000000E+00 0.  1.
         11    1    3    3    0    0  0.87081578572E+01  0.13631170138E+01  0.68743611182E+01  0.11177966823E+02  0.51100000000E-03 0. -1.
        -11    1    3    3    0    0  0.17275625077E+02  0.38828633326E+00  0.67466268014E+01  0.18550335888E+02  0.51100000000E-03 0.  1.
         12    1    3    3    0    0  0.11140510707E+02 -0.12940859605E+02  0.58778860215E+01  0.18058969246E+02  0.00000000000E+00 0. -1.
</event>
<event>
 7    1  0.3062695E-010  0.4778727E+02  0.7816164E-02  0.1312668E+00
        -11   -1    0    0    0    0  0.00000000000E+00  0.00000000000E+00  0.45593999997E+02  0.45594000000E+02  0.51100000000E-03 0. -1.
         11   -1    0    0    0    0 -0.00000000000E+00 -0.00000000000E+00 -0.45593999997E+02  0.45594000000E+02  0.51100000000E-03 0.  1.
    9900012    2    1    2    0    0 -0.87864178735E+01 -0.35945785530E+02  0.22678677950E+02  0.47787273393E+02  0.20000010709E+02 0.  0.
        -12    1    1    2    0    0  0.87864178735E+01  0.35945785530E+02 -0.22678677950E+02  0.43400726607E+02  0.00000000000E+00 0.  1.
         11    1    3    3    0    0 -0.81290427746E+01 -0.17341065783E+02  0.20810057568E+02  0.28281661817E+02  0.51100000000E-03 0. -1.
        -11    1    3    3    0    0 -0.17578025237E+01 -0.75125512479E+01  0.30502724971E+01  0.82965329224E+01  0.51100000000E-03 0.  1.
         12    1    3    3    0    0  0.11004274247E+01 -0.11092168500E+02 -0.11816521151E+01  0.11209078654E+02  0.00000000000E+00 0. -1.
</event>
<event>
 7    1  0.3062695E-010  0.4778727E+02  0.7816164E-02  0.1312668E+00
        -11   -1    0    0    0    0  0.00000000000E+00  0.00000000000E+00  0.45593999997E+02  0.45594000000E+02  0.51100000000E-03 0.  1.
         11   -1    0    0    0    0 -0.00000000000E+00 -0.00000000000E+00 -0.45593999997E+02  0.45594000000E+02  0.51100000000E-03 0. -1.
    9900012    2    1    2    0    0 -0.28935753636E+02  0.28472432180E+02 -0.15351432472E+02  0.47787266001E+02  0.19999977004E+02 0.  0.
        -12    1    1    2    0    0  0.28935753636E+02 -0.28472432180E+02  0.15351432472E+02  0.43400733999E+02  0.00000000000E+00 0.  1.
         11    1    3    3    0    0 -0.24440378292E+02  0.25788452108E+02 -0.10844668491E+02  0.37148124961E+02  0.51100000000E-03 0. -1.
        -11    1    3    3    0    0 -0.26966466230E+01  0.47399703100E+01 -0.54877539877E+01  0.77365797120E+01  0.51100000000E-03 0.  1.
         12    1    3    3    0    0 -0.17987287209E+01 -0.20559902377E+01  0.98099000672E+00  0.29025613279E+01  0.00000000000E+00 0. -1.
</event>
<event>
 7    1  0.3062695E-010  0.4778727E+02  0.7816164E-02  0.1312668E+00
        -11   -1    0    0    0    0  0.00000000000E+00  0.00000000000E+00  0.45593999997E+02  0.45594000000E+02  0.51100000000E-03 0. -1.
         11   -1    0    0    0    0 -0.00000000000E+00 -0.00000000000E+00 -0.45593999997E+02  0.45594000000E+02  0.51100000000E-03 0.  1.
    9900012    2    1    2    0    0 -0.65578829819E+01 -0.69237156846E+01  0.42340048622E+02  0.47787269760E+02  0.19999994143E+02 0.  0.
        -12    1    1    2    0    0  0.65578829819E+01  0.69237156846E+01 -0.42340048622E+02  0.43400730240E+02  0.00000000000E+00 0.  1.
         11    1    3    3    0    0 -0.61267883385E+01 -0.10899015788E+02  0.14334154234E+02  0.19020884794E+02  0.51100000000E-03 0. -1.
        -11    1    3    3    0    0 -0.27061089191E+01  0.26782699020E+01  0.19431557835E+02  0.19801050358E+02  0.51100000000E-03 0.  1.
         12    1    3    3    0    0  0.22750142757E+01  0.12970302011E+01  0.85743365532E+01  0.89653346075E+01  0.00000000000E+00 0. -1.
</event>
<event>
 7    1  0.3069651E-010  0.4778727E+02  0.7816164E-02  0.1312668E+00
        -11   -1    0    0    0    0  0.00000000000E+00  0.00000000000E+00  0.45593999997E+02  0.45594000000E+02  0.51100000000E-03 0. -1.
         11   -1    0    0    0    0 -0.00000000000E+00 -0.00000000000E+00 -0.45593999997E+02  0.45594000000E+02  0.51100000000E-03 0.  1.
    9900012    2    1    2    0    0 -0.30222448193E+02  0.13948508808E+02  0.27850782841E+02  0.47787269850E+02  0.19999994554E+02 0.  0.
        -12    1    1    2    0    0  0.30222448193E+02 -0.13948508808E+02 -0.27850782841E+02  0.43400730150E+02  0.00000000000E+00 0.  1.
         11    1    3    3    0    0 -0.17394784761E+02  0.67239579292E+01  0.69336698873E+01  0.19896379708E+02  0.51100000000E-03 0. -1.
        -11    1    3    3    0    0 -0.99750725438E+01  0.11007466159E+00  0.15762049729E+02  0.18653589483E+02  0.51100000000E-03 0.  1.
        -12    1    3    3    0    0 -0.28525908878E+01  0.71144762167E+01  0.51550632245E+01  0.92373006587E+01  0.00000000000E+00 0.  1.
</event>
<event>
 7    1  0.3062695E-010  0.4778730E+02  0.7816164E-02  0.1312668E+00
        -11   -1    0    0    0    0  0.00000000000E+00  0.00000000000E+00  0.45593999997E+02  0.45594000000E+02  0.51100000000E-03 0.  1.
         11   -1    0    0    0    0 -0.00000000000E+00 -0.00000000000E+00 -0.45593999997E+02  0.45594000000E+02  0.51100000000E-03 0. -1.
    9900012    2    1    2    0    0 -0.27411331198E+02  0.94264725633E+01 -0.32301411841E+02  0.47787301043E+02  0.20000136776E+02 0.  0.
        -12    1    1    2    0    0  0.27411331198E+02 -0.94264725633E+01  0.32301411841E+02  0.43400698957E+02  0.00000000000E+00 0.  1.
         11    1    3    3    0    0 -0.56888920832E+01  0.17997386807E+01 -0.17308201303E+02  0.18307823056E+02  0.51100000000E-03 0. -1.
        -11    1    3    3    0    0 -0.22640126706E+02  0.66393176383E+01 -0.15269258514E+02  0.28103489673E+02  0.51100000000E-03 0.  1.
        -12    1    3    3    0    0  0.91768759134E+00  0.98741624433E+00  0.27604797617E+00  0.13759883139E+01  0.00000000000E+00 0.  1.
</event>
<event>
 7    1  0.3062695E-010  0.4778727E+02  0.7816164E-02  0.1312668E+00
        -11   -1    0    0    0    0  0.00000000000E+00  0.00000000000E+00  0.45593999997E+02  0.45594000000E+02  0.51100000000E-03 0. -1.
         11   -1    0    0    0    0 -0.00000000000E+00 -0.00000000000E+00 -0.45593999997E+02  0.45594000000E+02  0.51100000000E-03 0.  1.
    9900012    2    1    2    0    0 -0.41019017795E+02 -0.86605030531E+01  0.11227612166E+02  0.47787269488E+02  0.19999992904E+02 0.  0.
        -12    1    1    2    0    0  0.41019017795E+02  0.86605030531E+01 -0.11227612166E+02  0.43400730512E+02  0.00000000000E+00 0.  1.
         11    1    3    3    0    0 -0.10905368836E+02 -0.20081967481E+01  0.24538952897E+01  0.11357003390E+02  0.51100000000E-03 0. -1.
        -11    1    3    3    0    0 -0.15555475948E+02 -0.71635250837E+01 -0.33833694968E+01  0.17456692499E+02  0.51100000000E-03 0.  1.
        -12    1    3    3    0    0 -0.14558173011E+02  0.51121877874E+00  0.12157086373E+02  0.18973573600E+02  0.00000000000E+00 0.  1.
</event>
<event>
 7    1  0.3062695E-010  0.4778727E+02  0.7816164E-02  0.1312668E+00
        -11   -1    0    0    0    0  0.00000000000E+00  0.00000000000E+00  0.45593999997E+02  0.45594000000E+02  0.51100000000E-03 0.  1.
         11   -1    0    0    0    0 -0.00000000000E+00 -0.00000000000E+00 -0.45593999997E+02  0.45594000000E+02  0.51100000000E-03 0. -1.
    9900012    2    1    2    0    0  0.13274162677E+02  0.39192570216E+02 -0.13090536697E+02  0.47787272979E+02  0.20000008822E+02 0.  0.
        -12    1    1    2    0    0 -0.13274162677E+02 -0.39192570216E+02  0.13090536697E+02  0.43400727021E+02  0.00000000000E+00 0.  1.
         11    1    3    3    0    0  0.18166736056E+02  0.34326281001E+02 -0.10363599829E+02  0.40196120062E+02  0.51100000000E-03 0. -1.
        -11    1    3    3    0    0 -0.22969133105E+01  0.15664886751E+01 -0.17351046081E+01  0.32772375238E+01  0.51100000000E-03 0.  1.
         12    1    3    3    0    0 -0.25956600689E+01  0.32998005397E+01 -0.99183225989E+00  0.43139153940E+01  0.00000000000E+00 0. -1.
</event>
<event>
 7    1  0.3062695E-010  0.4778728E+02  0.7816164E-02  0.1312668E+00
        -11   -1    0    0    0    0  0.00000000000E+00  0.00000000000E+00  0.45593999997E+02  0.45594000000E+02  0.51100000000E-03 0.  1.
         11   -1    0    0    0    0 -0.00000000000E+00 -0.00000000000E+00 -0.45593999997E+02  0.45594000000E+02  0.51100000000E-03 0. -1.
    9900012    2    1    2    0    0 -0.24326198644E+02  0.94097820477E+00 -0.35930116048E+02  0.47787278581E+02  0.20000034363E+02 0.  0.
        -12    1    1    2    0    0  0.24326198644E+02 -0.94097820477E+00  0.35930116048E+02  0.43400721419E+02  0.00000000000E+00 0.  1.
         11    1    3    3    0    0 -0.96837380938E+01  0.58400395963E+01 -0.25778102308E+02  0.28149447682E+02  0.51100000000E-03 0. -1.
        -11    1    3    3    0    0 -0.85501079142E+01 -0.54365817423E+01 -0.86928745360E+01  0.13350162334E+02  0.51100000000E-03 0.  1.
         12    1    3    3    0    0 -0.60923526355E+01  0.53752035074E+00 -0.14591392041E+01  0.62876685647E+01  0.00000000000E+00 0. -1.
</event>
<event>
 7    1  0.3062695E-010  0.4778727E+02  0.7816164E-02  0.1312668E+00
        -11   -1    0    0    0    0  0.00000000000E+00  0.00000000000E+00  0.45593999997E+02  0.45594000000E+02  0.51100000000E-03 0. -1.
         11   -1    0    0    0    0 -0.00000000000E+00 -0.00000000000E+00 -0.45593999997E+02  0.45594000000E+02  0.51100000000E-03 0.  1.
    9900012    2    1    2    0    0  0.39359209796E+02  0.13618086923E+02  0.12207525286E+02  0.47787270043E+02  0.19999995435E+02 0.  0.
        -12    1    1    2    0    0 -0.39359209796E+02 -0.13618086923E+02 -0.12207525286E+02  0.43400729957E+02  0.00000000000E+00 0.  1.
         11    1    3    3    0    0  0.66529521501E+00  0.66208891869E+01  0.16611031414E+01  0.68584295036E+01  0.51100000000E-03 0.  1.
        -11    1    3    3    0    0  0.21420653123E+02  0.53739148937E+01  0.43687331464E+01  0.22512422594E+02  0.51100000000E-03 0. -1.
        -12    1    3    3    0    0  0.17273261458E+02  0.16232828422E+01  0.61776889981E+01  0.18416417946E+02  0.00000000000E+00 0.  1.
</event>
<event>
 7    1  0.3062695E-010  0.4778728E+02  0.7816164E-02  0.1312668E+00
        -11   -1    0    0    0    0  0.00000000000E+00  0.00000000000E+00  0.45593999997E+02  0.45594000000E+02  0.51100000000E-03 0.  1.
         11   -1    0    0    0    0 -0.00000000000E+00 -0.00000000000E+00 -0.45593999997E+02  0.45594000000E+02  0.51100000000E-03 0. -1.
    9900012    2    1    2    0    0 -0.21172049674E+02 -0.25394799700E+02 -0.28115313592E+02  0.47787281140E+02  0.20000046029E+02 0.  0.
        -12    1    1    2    0    0  0.21172049674E+02  0.25394799700E+02  0.28115313592E+02  0.43400718860E+02  0.00000000000E+00 0.  1.
         11    1    3    3    0    0 -0.97802961530E+01 -0.18972456651E+02 -0.20876368926E+02  0.29856843169E+02  0.51100000000E-03 0. -1.
        -11    1    3    3    0    0 -0.10072986030E+02 -0.49472538587E+01 -0.86404306343E+00  0.11255529263E+02  0.51100000000E-03 0.  1.
        -12    1    3    3    0    0 -0.13187674903E+01 -0.14750891897E+01 -0.63749016031E+01  0.66749087080E+01  0.00000000000E+00 0.  1.
</event>
<event>
 7    1  0.3062695E-010  0.4778727E+02  0.7816164E-02  0.1312668E+00
        -11   -1    0    0    0    0  0.00000000000E+00  0.00000000000E+00  0.45593999997E+02  0.45594000000E+02  0.51100000000E-03 0.  1.
         11   -1    0    0    0    0 -0.00000000000E+00 -0.00000000000E+00 -0.45593999997E+02  0.45594000000E+02  0.51100000000E-03 0. -1.
    9900012    2    1    2    0    0 -0.14642281563E+02 -0.21003180890E+02 -0.35044162361E+02  0.47787270369E+02  0.19999996922E+02 0.  0.
        -12    1    1    2    0    0  0.14642281563E+02  0.21003180890E+02  0.35044162361E+02  0.43400729631E+02  0.00000000000E+00 0.  1.
         11    1    3    3    0    0 -0.83402070299E+01 -0.24255607193E+01 -0.22578760806E+02  0.24191792780E+02  0.51100000000E-03 0.  1.
        -11    1    3    3    0    0 -0.55299356443E+01 -0.16987364325E+02 -0.12539128643E+02  0.21826142177E+02  0.51100000000E-03 0. -1.
        -12    1    3    3    0    0 -0.77213888913E+00 -0.15902558454E+01  0.73727087780E-01  0.17693354124E+01  0.00000000000E+00 0.  1.
</event>
<event>
 7    1  0.3062695E-010  0.4778726E+02  0.7816164E-02  0.1312668E+00
        -11   -1    0    0    0    0  0.00000000000E+00  0.00000000000E+00  0.45593999997E+02  0.45594000000E+02  0.51100000000E-03 0. -1.
         11   -1    0    0    0    0 -0.00000000000E+00 -0.00000000000E+00 -0.45593999997E+02  0.45594000000E+02  0.51100000000E-03 0.  1.
    9900012    2    1    2    0    0  0.13454975742E+02  0.27569985454E+02  0.30699905315E+02  0.47787255115E+02  0.19999927373E+02 0.  0.
        -12    1    1    2    0    0 -0.13454975742E+02 -0.27569985454E+02 -0.30699905315E+02  0.43400744885E+02  0.00000000000E+00 0.  1.
         11    1    3    3    0    0  0.14401351141E+01  0.15669884671E+02  0.53539799526E+01  0.16621804245E+02  0.51100000000E-03 0. -1.
        -11    1    3    3    0    0  0.70214653488E+01  0.10267695636E+02  0.14430847211E+02  0.19051926433E+02  0.51100000000E-03 0.  1.
         12    1    3    3    0    0  0.49933752795E+01  0.16324051466E+01  0.10915078152E+02  0.12113524438E+02  0.00000000000E+00 0. -1.
</event>
<event>
 7    1  0.3062695E-010  0.4778727E+02  0.7816164E-02  0.1312668E+00
        -11   -1    0    0    0    0  0.00000000000E+00  0.00000000000E+00  0.45593999997E+02  0.45594000000E+02  0.51100000000E-03 0. -1.
         11   -1    0    0    0    0 -0.00000000000E+00 -0.00000000000E+00 -0.45593999997E+02  0.45594000000E+02  0.51100000000E-03 0.  1.
    9900012    2    1    2    0    0 -0.79781710030E+01 -0.42651492475E+02 -0.90681412966E+00  0.47787270343E+02  0.19999996803E+02 0.  0.
        -12    1    1    2    0    0  0.79781710030E+01  0.42651492475E+02  0.90681412966E+00  0.43400729657E+02  0.00000000000E+00 0.  1.
         11    1    3    3    0    0 -0.12384541440E+01 -0.77917897311E+01  0.31970766872E+01  0.85127583947E+01  0.51100000000E-03 0. -1.
        -11    1    3    3    0    0 -0.92954980144E+01 -0.28743890418E+02  0.19840088346E+01  0.30274639734E+02  0.51100000000E-03 0.  1.
        -12    1    3    3    0    0  0.25557811554E+01 -0.61158123255E+01 -0.60878996515E+01  0.89998722148E+01  0.00000000000E+00 0.  1.
</event>
<event>
 7    1  0.3062695E-010  0.4778727E+02  0.7816164E-02  0.1312668E+00
        -11   -1    0    0    0    0  0.00000000000E+00  0.00000000000E+00  0.45593999997E+02  0.45594000000E+02  0.51100000000E-03 0. -1.
         11   -1    0    0    0    0 -0.00000000000E+00 -0.00000000000E+00 -0.45593999997E+02  0.45594000000E+02  0.51100000000E-03 0.  1.
    9900012    2    1    2    0    0  0.32093298805E+01 -0.42384871124E+02  0.87661908509E+01  0.47787271889E+02  0.20000003852E+02 0.  0.
        -12    1    1    2    0    0 -0.32093298805E+01  0.42384871124E+02 -0.87661908509E+01  0.43400728111E+02  0.00000000000E+00 0.  1.
         11    1    3    3    0    0  0.47135817008E+01 -0.14624118422E+02 -0.74377796531E+00  0.15382974290E+02  0.51100000000E-03 0. -1.
        -11    1    3    3    0    0 -0.14311224831E+01 -0.27482647754E+02  0.11910408791E+02  0.29986694999E+02  0.51100000000E-03 0.  1.
        -12    1    3    3    0    0 -0.73129337240E-01 -0.27810494795E+00 -0.24004399748E+01  0.24176026006E+01  0.00000000000E+00 0.  1.
</event>
<event>
 7    1  0.3062695E-010  0.4778727E+02  0.7816164E-02  0.1312668E+00
        -11   -1    0    0    0    0  0.00000000000E+00  0.00000000000E+00  0.45593999997E+02  0.45594000000E+02  0.51100000000E-03 0.  1.
         11   -1    0    0    0    0 -0.00000000000E+00 -0.00000000000E+00 -0.45593999997E+02  0.45594000000E+02  0.51100000000E-03 0. -1.
    9900012    2    1    2    0    0  0.22311471709E+02 -0.36603482115E+02 -0.67828193883E+01  0.47787270610E+02  0.19999998018E+02 0.  0.
        -12    1    1    2    0    0 -0.22311471709E+02  0.36603482115E+02  0.67828193883E+01  0.43400729390E+02  0.00000000000E+00 0.  1.
         11    1    3    3    0    0  0.16695036875E+02 -0.26520837933E+02  0.51214651760E+00  0.31342325939E+02  0.51100000000E-03 0. -1.
        -11    1    3    3    0    0  0.47295735903E+01 -0.11656338700E+02 -0.50295978792E+01  0.13547544181E+02  0.51100000000E-03 0.  1.
         12    1    3    3    0    0  0.88686124362E+00  0.15736945186E+01 -0.22653680268E+01  0.28974004901E+01  0.00000000000E+00 0. -1.
</event>
<event>
 7    1  0.3062695E-010  0.4778727E+02  0.7816164E-02  0.1312668E+00
        -11   -1    0    0    0    0  0.00000000000E+00  0.00000000000E+00  0.45593999997E+02  0.45594000000E+02  0.51100000000E-03 0. -1.
         11   -1    0    0    0    0 -0.00000000000E+00 -0.00000000000E+00 -0.45593999997E+02  0.45594000000E+02  0.51100000000E-03 0.  1.
    9900012    2    1    2    0    0  0.12794114925E+02  0.29902940501E+02  0.28735834430E+02  0.47787269503E+02  0.19999992970E+02 0.  0.
        -12    1    1    2    0    0 -0.12794114925E+02 -0.29902940501E+02 -0.28735834430E+02  0.43400730497E+02  0.00000000000E+00 0.  1.
         11    1    3    3    0    0  0.12089566379E+01  0.19660478192E+02  0.15305331795E+02  0.24944922539E+02  0.51100000000E-03 0. -1.
        -11    1    3    3    0    0 -0.10974382914E+01 -0.87203248356E+00  0.21659933908E+00  0.14183536197E+01  0.51100000000E-03 0.  1.
         12    1    3    3    0    0  0.12682596578E+02  0.11114494793E+02  0.13213903296E+02  0.21423993343E+02  0.00000000000E+00 0. -1.
</event>
<event>
 7    1  0.3062695E-010  0.4778727E+02  0.7816164E-02  0.1312668E+00
        -11   -1    0    0    0    0  0.00000000000E+00  0.00000000000E+00  0.45593999997E+02  0.45594000000E+02  0.51100000000E-03 0.  1.
         11   -1    0    0    0    0 -0.00000000000E+00 -0.00000000000E+00 -0.45593999997E+02  0.45594000000E+02  0.51100000000E-03 0. -1.
    9900012    2    1    2    0    0  0.84651666847E+01 -0.41437411521E+02  0.97419381702E+01  0.47787268671E+02  0.19999989178E+02 0.  0.
        -12    1    1    2    0    0 -0.84651666847E+01  0.41437411521E+02 -0.97419381702E+01  0.43400731329E+02  0.00000000000E+00 0.  1.
         11    1    3    3    0    0 -0.69931735873E+00 -0.17020518665E+02  0.40558089202E+01  0.17511044705E+02  0.51100000000E-03 0. -1.
        -11    1    3    3    0    0  0.11585284081E+02 -0.24415510375E+02  0.39837633958E+01  0.27316777357E+02  0.51100000000E-03 0.  1.
        -12    1    3    3    0    0 -0.24208000373E+01 -0.13824814027E-02  0.17023658542E+01  0.29594466093E+01  0.00000000000E+00 0.  1.
</event>
<event>
 7    1  0.3062695E-010  0.4778727E+02  0.7816164E-02  0.1312668E+00
        -11   -1    0    0    0    0  0.00000000000E+00  0.00000000000E+00  0.45593999997E+02  0.45594000000E+02  0.51100000000E-03 0.  1.
         11   -1    0    0    0    0 -0.00000000000E+00 -0.00000000000E+00 -0.45593999997E+02  0.45594000000E+02  0.51100000000E-03 0. -1.
    9900012    2    1    2    0    0  0.76403472989E+01  0.90144398597E+01 -0.41761086381E+02  0.47787269954E+02  0.19999995028E+02 0.  0.
        -12    1    1    2    0    0 -0.76403472989E+01 -0.90144398597E+01  0.41761086381E+02  0.43400730046E+02  0.00000000000E+00 0.  1.
         11    1    3    3    0    0  0.64718346760E+01  0.42064450859E+01 -0.39776547180E+02  0.40518545509E+02  0.51100000000E-03 0. -1.
        -11    1    3    3    0    0  0.22563861282E+01  0.16573900326E+01  0.81499040376E+00  0.29158926076E+01  0.51100000000E-03 0.  1.
        -12    1    3    3    0    0 -0.10878735052E+01  0.31506047412E+01 -0.27995296042E+01  0.43528318373E+01  0.00000000000E+00 0.  1.
</event>
<event>
 7    1  0.3062695E-010  0.4778727E+02  0.7816164E-02  0.1312668E+00
        -11   -1    0    0    0    0  0.00000000000E+00  0.00000000000E+00  0.45593999997E+02  0.45594000000E+02  0.51100000000E-03 0.  1.
         11   -1    0    0    0    0 -0.00000000000E+00 -0.00000000000E+00 -0.45593999997E+02  0.45594000000E+02  0.51100000000E-03 0. -1.
    9900012    2    1    2    0    0 -0.31423196638E+01  0.43009059816E+02  0.48959222072E+01  0.47787268976E+02  0.19999990570E+02 0.  0.
        -12    1    1    2    0    0  0.31423196638E+01 -0.43009059816E+02 -0.48959222072E+01  0.43400731024E+02  0.00000000000E+00 0.  1.
         11    1    3    3    0    0  0.73638403575E+01  0.10981306939E+02  0.35887665601E+01  0.13700163962E+02  0.51100000000E-03 0.  1.
        -11    1    3    3    0    0 -0.69441667125E+01  0.25788522695E+02 -0.36942852367E+00  0.26709658025E+02  0.51100000000E-03 0. -1.
        -12    1    3    3    0    0 -0.35619933088E+01  0.62392301821E+01  0.16765841708E+01  0.73774469893E+01  0.00000000000E+00 0.  1.
</event>
<event>
 7    1  0.3602327E-010  0.4778728E+02  0.7816164E-02  0.1312668E+00
        -11   -1    0    0    0    0  0.00000000000E+00  0.00000000000E+00  0.45593999997E+02  0.45594000000E+02  0.51100000000E-03 0.  1.
         11   -1    0    0    0    0 -0.00000000000E+00 -0.00000000000E+00 -0.45593999997E+02  0.45594000000E+02  0.51100000000E-03 0. -1.
    9900012    2    1    2    0    0 -0.28553055314E+02  0.85647417532E+01 -0.31543475024E+02  0.47787278973E+02  0.20000036149E+02 0.  0.
        -12    1    1    2    0    0  0.28553055314E+02 -0.85647417532E+01  0.31543475024E+02  0.43400721027E+02  0.00000000000E+00 0.  1.
         11    1    3    3    0    0 -0.14222838427E+02  0.25310667772E+01 -0.16845663514E+02  0.22191705916E+02  0.51100000000E-03 0. -1.
        -11    1    3    3    0    0 -0.72252101615E+01  0.44428479510E+01  0.75293616987E+00  0.85152494344E+01  0.51100000000E-03 0.  1.
        -12    1    3    3    0    0 -0.71050067252E+01  0.15908270250E+01 -0.15450747680E+02  0.17080323623E+02  0.00000000000E+00 0.  1.
</event>
<event>
 7    1  0.3062695E-010  0.4778727E+02  0.7816164E-02  0.1312668E+00
        -11   -1    0    0    0    0  0.00000000000E+00  0.00000000000E+00  0.45593999997E+02  0.45594000000E+02  0.51100000000E-03 0. -1.
         11   -1    0    0    0    0 -0.00000000000E+00 -0.00000000000E+00 -0.45593999997E+02  0.45594000000E+02  0.51100000000E-03 0.  1.
    9900012    2    1    2    0    0  0.10765904824E+02  0.41607619108E+02  0.60435728038E+01  0.47787269053E+02  0.19999990919E+02 0.  0.
        -12    1    1    2    0    0 -0.10765904824E+02 -0.41607619108E+02 -0.60435728038E+01  0.43400730947E+02  0.00000000000E+00 0.  1.
         11    1    3    3    0    0  0.20866284128E+00 -0.15851453574E+01  0.34619476055E+00  0.16358719568E+01  0.51100000000E-03 0. -1.
        -11    1    3    3    0    0  0.28089095251E+01  0.18526301514E+02 -0.27781048617E+01  0.18942853201E+02  0.51100000000E-03 0.  1.
         12    1    3    3    0    0  0.77483324573E+01  0.24666462951E+02  0.84754829050E+01  0.27208543895E+02  0.00000000000E+00 0. -1.
</event>
<event>
 7    1  0.3062695E-010  0.4778727E+02  0.7816164E-02  0.1312668E+00
        -11   -1    0    0    0    0  0.00000000000E+00  0.00000000000E+00  0.45593999997E+02  0.45594000000E+02  0.51100000000E-03 0.  1.
         11   -1    0    0    0    0 -0.00000000000E+00 -0.00000000000E+00 -0.45593999997E+02  0.45594000000E+02  0.51100000000E-03 0. -1.
    9900012    2    1    2    0    0  0.27113392528E+02  0.33866505054E+02 -0.12436712022E+01  0.47787274925E+02  0.20000017695E+02 0.  0.
        -12    1    1    2    0    0 -0.27113392528E+02 -0.33866505054E+02  0.12436712022E+01  0.43400725075E+02  0.00000000000E+00 0.  1.
         11    1    3    3    0    0  0.10067301108E+02  0.22786069677E+02  0.33810894481E+01  0.25139357371E+02  0.51100000000E-03 0. -1.
        -11    1    3    3    0    0  0.43436166814E+01 -0.10543457040E+01  0.47588495218E-01  0.44700017522E+01  0.51100000000E-03 0.  1.
         12    1    3    3    0    0  0.12702474739E+02  0.12134781081E+02 -0.46723491455E+01  0.18177915802E+02  0.00000000000E+00 0. -1.
</event>
<event>
 7    1  0.3062695E-010  0.4778726E+02  0.7816164E-02  0.1312668E+00
        -11   -1    0    0    0    0  0.00000000000E+00  0.00000000000E+00  0.45593999997E+02  0.45594000000E+02  0.51100000000E-03 0. -1.
         11   -1    0    0    0    0 -0.00000000000E+00 -0.00000000000E+00 -0.45593999997E+02  0.45594000000E+02  0.51100000000E-03 0.  1.
    9900012    2    1    2    0    0  0.68851394813E+01 -0.42633578370E+02 -0.43124236535E+01  0.47787260973E+02  0.19999954080E+02 0.  0.
        -12    1    1    2    0    0 -0.68851394813E+01  0.42633578370E+02  0.43124236535E+01  0.43400739027E+02  0.00000000000E+00 0.  1.
         11    1    3    3    0    0  0.67042218813E+01 -0.30723831536E+02 -0.76105044337E+01  0.32354600806E+02  0.51100000000E-03 0. -1.
        -11    1    3    3    0    0 -0.10530069030E+01 -0.17523353221E+01  0.46806022160E+01  0.51075963020E+01  0.51100000000E-03 0.  1.
        -12    1    3    3    0    0  0.12339245030E+01 -0.10157411512E+02 -0.13825214358E+01  0.10325063865E+02  0.00000000000E+00 0.  1.
</event>
<event>
 7    1  0.3062695E-010  0.4778722E+02  0.7816164E-02  0.1312668E+00
        -11   -1    0    0    0    0  0.00000000000E+00  0.00000000000E+00  0.45593999997E+02  0.45594000000E+02  0.51100000000E-03 0.  1.
         11   -1    0    0    0    0 -0.00000000000E+00 -0.00000000000E+00 -0.45593999997E+02  0.45594000000E+02  0.51100000000E-03 0. -1.
    9900012    2    1    2    0    0  0.66774062077E+00 -0.14551608175E+02 -0.40883154959E+02  0.47787221926E+02  0.19999776046E+02 0.  0.
        -12    1    1    2    0    0 -0.66774062077E+00  0.14551608175E+02  0.40883154959E+02  0.43400778074E+02  0.00000000000E+00 0.  1.
         11    1    3    3    0    0  0.40339337395E+01  0.28056009126E+01 -0.75728258402E+01  0.90272758550E+01  0.51100000000E-03 0. -1.
        -11    1    3    3    0    0  0.23744056783E+01 -0.51621380020E+01 -0.57692913537E+01  0.80975424705E+01  0.51100000000E-03 0.  1.
         12    1    3    3    0    0 -0.57405987969E+01 -0.12195071086E+02 -0.27541037766E+02  0.30662403600E+02  0.00000000000E+00 0. -1.
</event>
<event>
 7    1  0.3062695E-010  0.4778728E+02  0.7816164E-02  0.1312668E+00
        -11   -1    0    0    0    0  0.00000000000E+00  0.00000000000E+00  0.45593999997E+02  0.45594000000E+02  0.51100000000E-03 0.  1.
         11   -1    0    0    0    0 -0.00000000000E+00 -0.00000000000E+00 -0.45593999997E+02  0.45594000000E+02  0.51100000000E-03 0. -1.
    9900012    2    1    2    0    0  0.22761912940E+02  0.23674290219E+02 -0.28373331091E+02  0.47787278632E+02  0.20000034596E+02 0.  0.
        -12    1    1    2    0    0 -0.22761912940E+02 -0.23674290219E+02  0.28373331091E+02  0.43400721368E+02  0.00000000000E+00 0.  1.
         11    1    3    3    0    0  0.14064014670E+02  0.11095992647E+02 -0.24151853284E+02  0.30070410352E+02  0.51100000000E-03 0. -1.
        -11    1    3    3    0    0  0.19584029828E+01  0.81102909920E-01  0.14389313607E+01  0.24315516953E+01  0.51100000000E-03 0.  1.
         12    1    3    3    0    0  0.67394952875E+01  0.12497194662E+02 -0.56604091674E+01  0.15285316585E+02  0.00000000000E+00 0. -1.
</event>
<event>
 7    1  0.3062695E-010  0.4778728E+02  0.7816164E-02  0.1312668E+00
        -11   -1    0    0    0    0  0.00000000000E+00  0.00000000000E+00  0.45593999997E+02  0.45594000000E+02  0.51100000000E-03 0.  1.
         11   -1    0    0    0    0 -0.00000000000E+00 -0.00000000000E+00 -0.45593999997E+02  0.45594000000E+02  0.51100000000E-03 0. -1.
    9900012    2    1    2    0    0  0.15158747423E+02  0.11897104830E+02 -0.38888216425E+02  0.47787284528E+02  0.20000061478E+02 0.  0.
        -12    1    1    2    0    0 -0.15158747423E+02 -0.11897104830E+02  0.38888216425E+02  0.43400715472E+02  0.00000000000E+00 0.  1.
         11    1    3    3    0    0  0.11049332695E+02  0.10879209692E+02 -0.13760280382E+02  0.20731383769E+02  0.51100000000E-03 0. -1.
        -11    1    3    3    0    0 -0.59548762220E+00  0.33262519521E+01 -0.37627301517E+01  0.50573408045E+01  0.51100000000E-03 0.  1.
         12    1    3    3    0    0  0.47049023500E+01 -0.23083568144E+01 -0.21365205891E+02  0.21998559955E+02  0.00000000000E+00 0. -1.
</event>
<event>
 7    1  0.3062695E-010  0.4778727E+02  0.7816164E-02  0.1312668E+00
        -11   -1    0    0    0    0  0.00000000000E+00  0.00000000000E+00  0.45593999997E+02  0.45594000000E+02  0.51100000000E-03 0.  1.
         11   -1    0    0    0    0 -0.00000000000E+00 -0.00000000000E+00 -0.45593999997E+02  0.45594000000E+02  0.51100000000E-03 0. -1.
    9900012    2    1    2    0    0 -0.28954900966E+02  0.12398441058E+02 -0.29858265489E+02  0.47787266727E+02  0.19999980316E+02 0.  0.
        -12    1    1    2    0    0  0.28954900966E+02 -0.12398441058E+02  0.29858265489E+02  0.43400733273E+02  0.00000000000E+00 0.  1.
         11    1    3    3    0    0 -0.13363208564E+02 -0.11640863273E+01 -0.77654326651E+01  0.15499431759E+02  0.51100000000E-03 0. -1.
        -11    1    3    3    0    0 -0.14988853623E+02  0.15142397532E+02 -0.18117744936E+02  0.27968028492E+02  0.51100000000E-03 0.  1.
        -12    1    3    3    0    0 -0.60283877898E+00 -0.15798701467E+01 -0.39750878876E+01  0.43198064757E+01  0.00000000000E+00 0.  1.
</event>
<event>
 7    1  0.3062695E-010  0.4778727E+02  0.7816164E-02  0.1312668E+00
        -11   -1    0    0    0    0  0.00000000000E+00  0.00000000000E+00  0.45593999997E+02  0.45594000000E+02  0.51100000000E-03 0.  1.
         11   -1    0    0    0    0 -0.00000000000E+00 -0.00000000000E+00 -0.45593999997E+02  0.45594000000E+02  0.51100000000E-03 0. -1.
    9900012    2    1    2    0    0 -0.60475188127E+01  0.69335628662E+01 -0.42414340159E+02  0.47787273867E+02  0.20000012868E+02 0.  0.
        -12    1    1    2    0    0  0.60475188127E+01 -0.69335628662E+01  0.42414340159E+02  0.43400726133E+02  0.00000000000E+00 0.  1.
         11    1    3    3    0    0 -0.11310042085E+02 -0.24764367555E+00 -0.22835530549E+02  0.25484109462E+02  0.51100000000E-03 0. -1.
        -11    1    3    3    0    0  0.22405697182E+01  0.72955385087E+01 -0.13302253629E+02  0.15336068162E+02  0.51100000000E-03 0.  1.
        -12    1    3    3    0    0  0.30219535540E+01 -0.11433196695E+00 -0.62765559806E+01  0.69670962430E+01  0.00000000000E+00 0.  1.
</event>
<event>
 7    1  0.3062695E-010  0.4778728E+02  0.7816164E-02  0.1312668E+00
        -11   -1    0    0    0    0  0.00000000000E+00  0.00000000000E+00  0.45593999997E+02  0.45594000000E+02  0.51100000000E-03 0. -1.
         11   -1    0    0    0    0 -0.00000000000E+00 -0.00000000000E+00 -0.45593999997E+02  0.45594000000E+02  0.51100000000E-03 0.  1.
    9900012    2    1    2    0    0  0.38279793400E+02  0.20430798474E+02 -0.92874111567E+00  0.47787278012E+02  0.20000031766E+02 0.  0.
        -12    1    1    2    0    0 -0.38279793400E+02 -0.20430798474E+02  0.92874111567E+00  0.43400721988E+02  0.00000000000E+00 0.  1.
         11    1    3    3    0    0  0.10664813678E+01 -0.20005496853E+00  0.13451385796E-01  0.10851662081E+01  0.51100000000E-03 0. -1.
        -11    1    3    3    0    0  0.28841096436E+02  0.96352444838E+01 -0.76272650353E+01  0.31349991261E+02  0.51100000000E-03 0.  1.
        -12    1    3    3    0    0  0.83722155964E+01  0.10995608958E+02  0.66850725339E+01  0.15352120542E+02  0.00000000000E+00 0.  1.
</event>
<event>
 7    1  0.3062695E-010  0.4778727E+02  0.7816164E-02  0.1312668E+00
        -11   -1    0    0    0    0  0.00000000000E+00  0.00000000000E+00  0.45593999997E+02  0.45594000000E+02  0.51100000000E-03 0.  1.
         11   -1    0    0    0    0 -0.00000000000E+00 -0.00000000000E+00 -0.45593999997E+02  0.45594000000E+02  0.51100000000E-03 0. -1.
    9900012    2    1    2    0    0  0.34384680497E+02 -0.24256703335E+02 -0.10626821120E+02  0.47787271473E+02  0.20000001952E+02 0.  0.
        -12    1    1    2    0    0 -0.34384680497E+02  0.24256703335E+02  0.10626821120E+02  0.43400728527E+02  0.00000000000E+00 0.  1.
         11    1    3    3    0    0  0.49761536956E+01 -0.29722441301E+01 -0.75637757075E+01  0.95292730041E+01  0.51100000000E-03 0. -1.
        -11    1    3    3    0    0  0.10393460146E+02 -0.12886608869E+02  0.24907214698E+01  0.16741935242E+02  0.51100000000E-03 0.  1.
         12    1    3    3    0    0  0.19015066655E+02 -0.83978503357E+01 -0.55537668822E+01  0.21516063226E+02  0.00000000000E+00 0. -1.
</event>
<event>
 7    1  0.3062695E-010  0.4778727E+02  0.7816164E-02  0.1312668E+00
        -11   -1    0    0    0    0  0.00000000000E+00  0.00000000000E+00  0.45593999997E+02  0.45594000000E+02  0.51100000000E-03 0.  1.
         11   -1    0    0    0    0 -0.00000000000E+00 -0.00000000000E+00 -0.45593999997E+02  0.45594000000E+02  0.51100000000E-03 0. -1.
    9900012    2    1    2    0    0  0.18186172118E+01 -0.43333088740E+02 -0.15998378248E+01  0.47787269253E+02  0.19999991831E+02 0.  0.
        -12    1    1    2    0    0 -0.18186172118E+01  0.43333088740E+02  0.15998378248E+01  0.43400730747E+02  0.00000000000E+00 0.  1.
         11    1    3    3    0    0 -0.13585556321E+01 -0.40314679582E+02 -0.12930014056E+01  0.40358281878E+02  0.51100000000E-03 0. -1.
        -11    1    3    3    0    0 -0.10536350245E+01 -0.26913368169E+01  0.88263133493E+00  0.30219991664E+01  0.51100000000E-03 0.  1.
         12    1    3    3    0    0  0.42308078684E+01 -0.32707234115E+00 -0.11894677541E+01  0.44069882089E+01  0.00000000000E+00 0. -1.
</event>
<event>
 7    1  0.3062695E-010  0.4778723E+02  0.7816164E-02  0.1312668E+00
        -11   -1    0    0    0    0  0.00000000000E+00  0.00000000000E+00  0.45593999997E+02  0.45594000000E+02  0.51100000000E-03 0. -1.
         11   -1    0    0    0    0 -0.00000000000E+00 -0.00000000000E+00 -0.45593999997E+02  0.45594000000E+02  0.51100000000E-03 0.  1.
    9900012    2    1    2    0    0 -0.18771976523E+02 -0.20835911118E+02  0.33122571746E+02  0.47787227498E+02  0.19999801455E+02 0.  0.
        -12    1    1    2    0    0  0.18771976523E+02  0.20835911118E+02 -0.33122571746E+02  0.43400772502E+02  0.00000000000E+00 0.  1.
         11    1    3    3    0    0 -0.47887843781E+01  0.16564200578E+01  0.79425180881E+01  0.94212407394E+01  0.51100000000E-03 0. -1.
        -11    1    3    3    0    0 -0.54368012961E+01 -0.16835161332E+01  0.90282958902E+01  0.10672542427E+02  0.51100000000E-03 0.  1.
         12    1    3    3    0    0 -0.85463908486E+01 -0.20808815043E+02  0.16151757767E+02  0.27693444332E+02  0.00000000000E+00 0. -1.
</event>
<event>
 7    1  0.3062695E-010  0.4778727E+02  0.7816164E-02  0.1312668E+00
        -11   -1    0    0    0    0  0.00000000000E+00  0.00000000000E+00  0.45593999997E+02  0.45594000000E+02  0.51100000000E-03 0. -1.
         11   -1    0    0    0    0 -0.00000000000E+00 -0.00000000000E+00 -0.45593999997E+02  0.45594000000E+02  0.51100000000E-03 0.  1.
    9900012    2    1    2    0    0  0.23573389183E+02  0.21819066461E+02  0.29186415313E+02  0.47787272154E+02  0.20000005059E+02 0.  0.
        -12    1    1    2    0    0 -0.23573389183E+02 -0.21819066461E+02 -0.29186415313E+02  0.43400727846E+02  0.00000000000E+00 0.  1.
         11    1    3    3    0    0  0.12013205312E+02  0.15145430819E+02  0.17176633863E+02  0.25859967666E+02  0.51100000000E-03 0. -1.
        -11    1    3    3    0    0  0.14025101554E+01  0.76862302638E+01  0.31987754052E+01  0.84425905241E+01  0.51100000000E-03 0.  1.
         12    1    3    3    0    0  0.10157673716E+02 -0.10125946223E+01  0.88110060445E+01  0.13484713964E+02  0.00000000000E+00 0. -1.
</event>
<event>
 7    1  0.3942283E-010  0.4778730E+02  0.7816164E-02  0.1312668E+00
        -11   -1    0    0    0    0  0.00000000000E+00  0.00000000000E+00  0.45593999997E+02  0.45594000000E+02  0.51100000000E-03 0. -1.
         11   -1    0    0    0    0 -0.00000000000E+00 -0.00000000000E+00 -0.45593999997E+02  0.45594000000E+02  0.51100000000E-03 0.  1.
    9900012    2    1    2    0    0  0.27726696537E+02 -0.29584385833E+02  0.15479503847E+02  0.47787301557E+02  0.20000139120E+02 0.  0.
        -12    1    1    2    0    0 -0.27726696537E+02  0.29584385833E+02 -0.15479503847E+02  0.43400698443E+02  0.00000000000E+00 0.  1.
         11    1    3    3    0    0  0.21784784318E+02 -0.20568898787E+02  0.11855994986E+02  0.32221437623E+02  0.51100000000E-03 0. -1.
        -11    1    3    3    0    0  0.38487196118E+01 -0.14377204253E+01 -0.31592478765E+01  0.51827145472E+01  0.51100000000E-03 0.  1.
        -12    1    3    3    0    0  0.20931926071E+01 -0.75777666209E+01  0.67827567369E+01  0.10383149387E+02  0.00000000000E+00 0.  1.
</event>
<event>
 7    1  0.3062695E-010  0.4778728E+02  0.7816164E-02  0.1312668E+00
        -11   -1    0    0    0    0  0.00000000000E+00  0.00000000000E+00  0.45593999997E+02  0.45594000000E+02  0.51100000000E-03 0.  1.
         11   -1    0    0    0    0 -0.00000000000E+00 -0.00000000000E+00 -0.45593999997E+02  0.45594000000E+02  0.51100000000E-03 0. -1.
    9900012    2    1    2    0    0 -0.22842625722E+02  0.21122020374E+02 -0.30260484250E+02  0.47787283398E+02  0.20000056325E+02 0.  0.
        -12    1    1    2    0    0  0.22842625722E+02 -0.21122020374E+02  0.30260484250E+02  0.43400716602E+02  0.00000000000E+00 0.  1.
         11    1    3    3    0    0 -0.47820237363E+01  0.14136111690E+02 -0.21385313891E+02  0.26077366723E+02  0.51100000000E-03 0. -1.
        -11    1    3    3    0    0 -0.80509068679E+01  0.35105909049E+01 -0.17902115500E+01  0.89636046070E+01  0.51100000000E-03 0.  1.
         12    1    3    3    0    0 -0.10009695118E+02  0.34753177794E+01 -0.70849588085E+01  0.12746312068E+02  0.00000000000E+00 0. -1.
</event>
<event>
 7    1  0.3062695E-010  0.4778727E+02  0.7816164E-02  0.1312668E+00
        -11   -1    0    0    0    0  0.00000000000E+00  0.00000000000E+00  0.45593999997E+02  0.45594000000E+02  0.51100000000E-03 0.  1.
         11   -1    0    0    0    0 -0.00000000000E+00 -0.00000000000E+00 -0.45593999997E+02  0.45594000000E+02  0.51100000000E-03 0. -1.
    9900012    2    1    2    0    0  0.18605992033E+02  0.10066719230E+02 -0.37895928703E+02  0.47787272035E+02  0.20000004518E+02 0.  0.
        -12    1    1    2    0    0 -0.18605992033E+02 -0.10066719230E+02  0.37895928703E+02  0.43400727965E+02  0.00000000000E+00 0.  1.
         11    1    3    3    0    0  0.12587190907E+01  0.95685764427E+01 -0.14162665421E+02  0.17138352341E+02  0.51100000000E-03 0. -1.
        -11    1    3    3    0    0  0.12032456217E+02 -0.37328505875E+01 -0.15602946684E+02  0.20054079924E+02  0.51100000000E-03 0.  1.
         12    1    3    3    0    0  0.53148167254E+01  0.42309933749E+01 -0.81303165986E+01  0.10594839770E+02  0.00000000000E+00 0. -1.
</event>
<event>
 7    1  0.3062695E-010  0.4778727E+02  0.7816164E-02  0.1312668E+00
        -11   -1    0    0    0    0  0.00000000000E+00  0.00000000000E+00  0.45593999997E+02  0.45594000000E+02  0.51100000000E-03 0. -1.
         11   -1    0    0    0    0 -0.00000000000E+00 -0.00000000000E+00 -0.45593999997E+02  0.45594000000E+02  0.51100000000E-03 0.  1.
    9900012    2    1    2    0    0 -0.51742787525E+01  0.20283003989E+02  0.38019070271E+02  0.47787272867E+02  0.20000008308E+02 0.  0.
        -12    1    1    2    0    0  0.51742787525E+01 -0.20283003989E+02 -0.38019070271E+02  0.43400727133E+02  0.00000000000E+00 0.  1.
         11    1    3    3    0    0  0.14778901568E+01  0.42136482023E+00  0.65502294737E+01  0.67280914118E+01  0.51100000000E-03 0. -1.
        -11    1    3    3    0    0 -0.45198763299E+01  0.55733797313E+01  0.23477652900E+02  0.24549786753E+02  0.51100000000E-03 0.  1.
        -12    1    3    3    0    0 -0.21322925794E+01  0.14288259438E+02  0.79911878969E+01  0.16509394702E+02  0.00000000000E+00 0.  1.
</event>
<event>
 7    1  0.3062695E-010  0.4778727E+02  0.7816164E-02  0.1312668E+00
        -11   -1    0    0    0    0  0.00000000000E+00  0.00000000000E+00  0.45593999997E+02  0.45594000000E+02  0.51100000000E-03 0. -1.
         11   -1    0    0    0    0 -0.00000000000E+00 -0.00000000000E+00 -0.45593999997E+02  0.45594000000E+02  0.51100000000E-03 0.  1.
    9900012    2    1    2    0    0 -0.31781699915E+02 -0.18352671078E+02  0.23167357145E+02  0.47787269335E+02  0.19999992205E+02 0.  0.
        -12    1    1    2    0    0  0.31781699915E+02  0.18352671078E+02 -0.23167357145E+02  0.43400730665E+02  0.00000000000E+00 0.  1.
         11    1    3    3    0    0  0.50895630707E+00  0.10055777757E+01 -0.11356842609E-02  0.11270424732E+01  0.51100000000E-03 0.  1.
        -11    1    3    3    0    0 -0.32106563169E+02 -0.15830881583E+02  0.23913934848E+02  0.43050255405E+02  0.51100000000E-03 0. -1.
        -12    1    3    3    0    0 -0.18409305250E+00 -0.35273672712E+01 -0.74544201860E+00  0.36099714571E+01  0.00000000000E+00 0.  1.
</event>
<event>
 7    1  0.3062695E-010  0.4778727E+02  0.7816164E-02  0.1312668E+00
        -11   -1    0    0    0    0  0.00000000000E+00  0.00000000000E+00  0.45593999997E+02  0.45594000000E+02  0.51100000000E-03 0.  1.
         11   -1    0    0    0    0 -0.00000000000E+00 -0.00000000000E+00 -0.45593999997E+02  0.45594000000E+02  0.51100000000E-03 0. -1.
    9900012    2    1    2    0    0  0.21812858380E+02 -0.20395801920E+02 -0.31493392440E+02  0.47787270813E+02  0.19999998943E+02 0.  0.
        -12    1    1    2    0    0 -0.21812858380E+02  0.20395801920E+02  0.31493392440E+02  0.43400729187E+02  0.00000000000E+00 0.  1.
         11    1    3    3    0    0 -0.13564418968E+01  0.18874311367E+00 -0.68684358898E+01  0.70036397977E+01  0.51100000000E-03 0. -1.
        -11    1    3    3    0    0  0.23478018029E+02 -0.18353373402E+02 -0.24408874163E+02  0.38520861672E+02  0.51100000000E-03 0.  1.
        -12    1    3    3    0    0 -0.30871775292E+00 -0.22311716316E+01 -0.21608238705E+00  0.22627693428E+01  0.00000000000E+00 0.  1.
</event>
<event>
 7    1  0.3062695E-010  0.4778727E+02  0.7816164E-02  0.1312668E+00
        -11   -1    0    0    0    0  0.00000000000E+00  0.00000000000E+00  0.45593999997E+02  0.45594000000E+02  0.51100000000E-03 0.  1.
         11   -1    0    0    0    0 -0.00000000000E+00 -0.00000000000E+00 -0.45593999997E+02  0.45594000000E+02  0.51100000000E-03 0. -1.
    9900012    2    1    2    0    0 -0.13261225627E+02 -0.16317926913E+02 -0.37966939891E+02  0.47787269953E+02  0.19999995025E+02 0.  0.
        -12    1    1    2    0    0  0.13261225627E+02  0.16317926913E+02  0.37966939891E+02  0.43400730047E+02  0.00000000000E+00 0.  1.
         11    1    3    3    0    0 -0.22925470748E+00 -0.98582395178E+01 -0.10274434350E+02  0.14240837250E+02  0.51100000000E-03 0. -1.
        -11    1    3    3    0    0 -0.11160496867E+02  0.10324539148E+01 -0.16087565596E+02  0.19606948219E+02  0.51100000000E-03 0.  1.
        -12    1    3    3    0    0 -0.18714740530E+01 -0.74921413099E+01 -0.11604939946E+02  0.13939484484E+02  0.00000000000E+00 0.  1.
</event>
<event>
 7    1  0.3062695E-010  0.4778730E+02  0.7816164E-02  0.1312668E+00
        -11   -1    0    0    0    0  0.00000000000E+00  0.00000000000E+00  0.45593999997E+02  0.45594000000E+02  0.51100000000E-03 0. -1.
         11   -1    0    0    0    0 -0.00000000000E+00 -0.00000000000E+00 -0.45593999997E+02  0.45594000000E+02  0.51100000000E-03 0.  1.
    9900012    2    1    2    0    0  0.33129905451E+02 -0.27988780094E+02  0.16303174353E+01  0.47787304369E+02  0.20000151939E+02 0.  0.
        -12    1    1    2    0    0 -0.33129905451E+02  0.27988780094E+02 -0.16303174353E+01  0.43400695631E+02  0.00000000000E+00 0.  1.
         11    1    3    3    0    0  0.60446826920E+01 -0.74985035262E+01 -0.35023260953E+01  0.10248513664E+02  0.51100000000E-03 0. -1.
        -11    1    3    3    0    0  0.20454744195E+02 -0.15943051106E+02  0.10384088683E+02  0.27935760893E+02  0.51100000000E-03 0.  1.
        -12    1    3    3    0    0  0.66304785636E+01 -0.45472254618E+01 -0.52514451522E+01  0.96030298119E+01  0.00000000000E+00 0.  1.
</event>
<event>
 7    1  0.3062695E-010  0.4778726E+02  0.7816164E-02  0.1312668E+00
        -11   -1    0    0    0    0  0.00000000000E+00  0.00000000000E+00  0.45593999997E+02  0.45594000000E+02  0.51100000000E-03 0.  1.
         11   -1    0    0    0    0 -0.00000000000E+00 -0.00000000000E+00 -0.45593999997E+02  0.45594000000E+02  0.51100000000E-03 0. -1.
    9900012    2    1    2    0    0 -0.21562262169E+02  0.29936446755E+02 -0.22858298652E+02  0.47787264852E+02  0.19999971766E+02 0.  0.
        -12    1    1    2    0    0  0.21562262169E+02 -0.29936446755E+02  0.22858298652E+02  0.43400735148E+02  0.00000000000E+00 0.  1.
         11    1    3    3    0    0 -0.91588603234E+01  0.56725371928E+01  0.38214509054E+00  0.10780001659E+02  0.51100000000E-03 0. -1.
        -11    1    3    3    0    0 -0.47215562313E+01  0.11993185630E+02 -0.16767930728E+02  0.21149304858E+02  0.51100000000E-03 0.  1.
         12    1    3    3    0    0 -0.76818456139E+01  0.12270723932E+02 -0.64725130143E+01  0.15857958335E+02  0.00000000000E+00 0. -1.
</event>
<event>
 7    1  0.3062695E-010  0.4778727E+02  0.7816164E-02  0.1312668E+00
        -11   -1    0    0    0    0  0.00000000000E+00  0.00000000000E+00  0.45593999997E+02  0.45594000000E+02  0.51100000000E-03 0.  1.
         11   -1    0    0    0    0 -0.00000000000E+00 -0.00000000000E+00 -0.45593999997E+02  0.45594000000E+02  0.51100000000E-03 0. -1.
    9900012    2    1    2    0    0  0.23274643517E+01  0.27299337593E+02 -0.33659354674E+02  0.47787273273E+02  0.20000010161E+02 0.  0.
        -12    1    1    2    0    0 -0.23274643517E+01 -0.27299337593E+02  0.33659354674E+02  0.43400726727E+02  0.00000000000E+00 0.  1.
         11    1    3    3    0    0  0.37668721051E+01  0.12301719067E+01 -0.85782011134E+00  0.40544424994E+01  0.51100000000E-03 0.  1.
        -11    1    3    3    0    0  0.27816978281E+01  0.11291088129E+01 -0.69210184750E+01  0.75440855318E+01  0.51100000000E-03 0. -1.
         12    1    3    3    0    0 -0.42211055815E+01  0.24940056874E+02 -0.25880516088E+02  0.36188745242E+02  0.00000000000E+00 0. -1.
</event>
<event>
 7    1  0.3062695E-010  0.4778727E+02  0.7816164E-02  0.1312668E+00
        -11   -1    0    0    0    0  0.00000000000E+00  0.00000000000E+00  0.45593999997E+02  0.45594000000E+02  0.51100000000E-03 0.  1.
         11   -1    0    0    0    0 -0.00000000000E+00 -0.00000000000E+00 -0.45593999997E+02  0.45594000000E+02  0.51100000000E-03 0. -1.
    9900012    2    1    2    0    0  0.66771628373E+01  0.21561592185E+01 -0.42829774820E+02  0.47787272618E+02  0.20000007176E+02 0.  0.
        -12    1    1    2    0    0 -0.66771628373E+01 -0.21561592185E+01  0.42829774820E+02  0.43400727382E+02  0.00000000000E+00 0.  1.
         11    1    3    3    0    0  0.45946567483E+01  0.23076470170E+01 -0.14867515201E+02  0.15731468905E+02  0.51100000000E-03 0. -1.
        -11    1    3    3    0    0 -0.38515303644E+01 -0.14523934005E+01 -0.76302076191E+00  0.41863986530E+01  0.51100000000E-03 0.  1.
        -12    1    3    3    0    0  0.59340364534E+01  0.13009056019E+01 -0.27199238857E+02  0.27869405060E+02  0.00000000000E+00 0.  1.
</event>
<event>
 7    1  0.3062695E-010  0.4778725E+02  0.7816164E-02  0.1312668E+00
        -11   -1    0    0    0    0  0.00000000000E+00  0.00000000000E+00  0.45593999997E+02  0.45594000000E+02  0.51100000000E-03 0. -1.
         11   -1    0    0    0    0 -0.00000000000E+00 -0.00000000000E+00 -0.45593999997E+02  0.45594000000E+02  0.51100000000E-03 0.  1.
    9900012    2    1    2    0    0  0.25951039881E+02 -0.24274686424E+02  0.24918027331E+02  0.47787251643E+02  0.19999911540E+02 0.  0.
        -12    1    1    2    0    0 -0.25951039881E+02  0.24274686424E+02 -0.24918027331E+02  0.43400748357E+02  0.00000000000E+00 0.  1.
         11    1    3    3    0    0  0.11860170350E+02 -0.15971729915E+02  0.14082359922E+02  0.24373605774E+02  0.51100000000E-03 0. -1.
        -11    1    3    3    0    0 -0.10596801338E+01  0.20057491328E+01  0.21838599133E+01  0.31488404139E+01  0.51100000000E-03 0.  1.
        -12    1    3    3    0    0  0.15150549665E+02 -0.10308705642E+02  0.86518074956E+01  0.20264805455E+02  0.00000000000E+00 0.  1.
</event>
<event>
 7    1  0.3062695E-010  0.4778727E+02  0.7816164E-02  0.1312668E+00
        -11   -1    0    0    0    0  0.00000000000E+00  0.00000000000E+00  0.45593999997E+02  0.45594000000E+02  0.51100000000E-03 0. -1.
         11   -1    0    0    0    0 -0.00000000000E+00 -0.00000000000E+00 -0.45593999997E+02  0.45594000000E+02  0.51100000000E-03 0.  1.
    9900012    2    1    2    0    0  0.29252134301E+02 -0.50228646328E+01  0.31665548910E+02  0.47787268231E+02  0.19999987172E+02 0.  0.
        -12    1    1    2    0    0 -0.29252134301E+02  0.50228646328E+01 -0.31665548910E+02  0.43400731769E+02  0.00000000000E+00 0.  1.
         11    1    3    3    0    0  0.71392706025E+01 -0.73080612490E+01  0.46181039283E+01  0.11211771854E+02  0.51100000000E-03 0.  1.
        -11    1    3    3    0    0  0.22519923455E+02  0.35704654865E+01  0.23333131093E+02  0.32624073674E+02  0.51100000000E-03 0. -1.
        -12    1    3    3    0    0 -0.40705975599E+00 -0.12852688704E+01  0.37143138891E+01  0.39514227033E+01  0.00000000000E+00 0.  1.
</event>
<event>
 7    1  0.3062695E-010  0.4778727E+02  0.7816164E-02  0.1312668E+00
        -11   -1    0    0    0    0  0.00000000000E+00  0.00000000000E+00  0.45593999997E+02  0.45594000000E+02  0.51100000000E-03 0.  1.
         11   -1    0    0    0    0 -0.00000000000E+00 -0.00000000000E+00 -0.45593999997E+02  0.45594000000E+02  0.51100000000E-03 0. -1.
    9900012    2    1    2    0    0  0.21688008605E+02 -0.20176692922E+02 -0.31719935670E+02  0.47787274505E+02  0.20000015780E+02 0.  0.
        -12    1    1    2    0    0 -0.21688008605E+02  0.20176692922E+02  0.31719935670E+02  0.43400725495E+02  0.00000000000E+00 0.  1.
         11    1    3    3    0    0  0.19471016283E+02 -0.70151343599E+01 -0.20386865946E+02  0.29050936104E+02  0.51100000000E-03 0. -1.
        -11    1    3    3    0    0 -0.18066595161E+01 -0.61428415502E+01 -0.72547959471E+01  0.96762898579E+01  0.51100000000E-03 0.  1.
        -12    1    3    3    0    0  0.40236518386E+01 -0.70187170114E+01 -0.40782737774E+01  0.90600485434E+01  0.00000000000E+00 0.  1.
</event>
<event>
 7    1  0.3062695E-010  0.4778727E+02  0.7816164E-02  0.1312668E+00
        -11   -1    0    0    0    0  0.00000000000E+00  0.00000000000E+00  0.45593999997E+02  0.45594000000E+02  0.51100000000E-03 0.  1.
         11   -1    0    0    0    0 -0.00000000000E+00 -0.00000000000E+00 -0.45593999997E+02  0.45594000000E+02  0.51100000000E-03 0. -1.
    9900012    2    1    2    0    0 -0.11796627587E+02 -0.33408071176E+02 -0.25067176620E+02  0.47787274363E+02  0.20000015130E+02 0.  0.
        -12    1    1    2    0    0  0.11796627587E+02  0.33408071176E+02  0.25067176620E+02  0.43400725637E+02  0.00000000000E+00 0.  1.
         11    1    3    3    0    0 -0.32370235389E+01 -0.18194265411E+02 -0.19254270242E+01  0.18580013045E+02  0.51100000000E-03 0. -1.
        -11    1    3    3    0    0 -0.59667274433E+01 -0.10390090911E+02 -0.18433159199E+02  0.21984930835E+02  0.51100000000E-03 0.  1.
         12    1    3    3    0    0 -0.25928766046E+01 -0.48237148544E+01 -0.47085903968E+01  0.72223304831E+01  0.00000000000E+00 0. -1.
</event>
<event>
 7    1  0.3062695E-010  0.4778727E+02  0.7816164E-02  0.1312668E+00
        -11   -1    0    0    0    0  0.00000000000E+00  0.00000000000E+00  0.45593999997E+02  0.45594000000E+02  0.51100000000E-03 0. -1.
         11   -1    0    0    0    0 -0.00000000000E+00 -0.00000000000E+00 -0.45593999997E+02  0.45594000000E+02  0.51100000000E-03 0.  1.
    9900012    2    1    2    0    0 -0.25439318850E+02  0.28480049639E+02  0.20624037636E+02  0.47787273054E+02  0.20000009164E+02 0.  0.
        -12    1    1    2    0    0  0.25439318850E+02 -0.28480049639E+02 -0.20624037636E+02  0.43400726946E+02  0.00000000000E+00 0.  1.
         11    1    3    3    0    0 -0.83730075467E+01  0.14855562912E+02  0.15644893465E+02  0.23142119535E+02  0.51100000000E-03 0. -1.
        -11    1    3    3    0    0 -0.43331566786E+01 -0.12691735404E+01  0.13907749113E+01  0.47245426648E+01  0.51100000000E-03 0.  1.
         12    1    3    3    0    0 -0.12733154624E+02  0.14893660268E+02  0.35883692604E+01  0.19920610854E+02  0.00000000000E+00 0. -1.
</event>
<event>
 7    1  0.3062695E-010  0.4778728E+02  0.7816164E-02  0.1312668E+00
        -11   -1    0    0    0    0  0.00000000000E+00  0.00000000000E+00  0.45593999997E+02  0.45594000000E+02  0.51100000000E-03 0.  1.
         11   -1    0    0    0    0 -0.00000000000E+00 -0.00000000000E+00 -0.45593999997E+02  0.45594000000E+02  0.51100000000E-03 0. -1.
    9900012    2    1    2    0    0  0.20422989815E+02 -0.11997126061E+02 -0.36367476352E+02  0.47787275549E+02  0.20000020536E+02 0.  0.
        -12    1    1    2    0    0 -0.20422989815E+02  0.11997126061E+02  0.36367476352E+02  0.43400724451E+02  0.00000000000E+00 0.  1.
         11    1    3    3    0    0  0.13083692598E+02 -0.15854613594E+01 -0.11534960001E+02  0.17514337048E+02  0.51100000000E-03 0. -1.
        -11    1    3    3    0    0  0.36217989234E+01 -0.11253827363E+02 -0.11835734206E+02  0.16728737615E+02  0.51100000000E-03 0.  1.
        -12    1    3    3    0    0  0.37174982937E+01  0.84216266119E+00 -0.12996782145E+02  0.13544200886E+02  0.00000000000E+00 0.  1.
</event>
<event>
 7    1  0.3062695E-010  0.4778727E+02  0.7816164E-02  0.1312668E+00
        -11   -1    0    0    0    0  0.00000000000E+00  0.00000000000E+00  0.45593999997E+02  0.45594000000E+02  0.51100000000E-03 0.  1.
         11   -1    0    0    0    0 -0.00000000000E+00 -0.00000000000E+00 -0.45593999997E+02  0.45594000000E+02  0.51100000000E-03 0. -1.
    9900012    2    1    2    0    0 -0.25385579379E+00  0.37252572591E+02 -0.22266664910E+02  0.47787274504E+02  0.20000015773E+02 0.  0.
        -12    1    1    2    0    0  0.25385579379E+00 -0.37252572591E+02  0.22266664910E+02  0.43400725496E+02  0.00000000000E+00 0.  1.
         11    1    3    3    0    0  0.73457889784E+00  0.45801800508E+01 -0.98626254417E+01  0.10899038321E+02  0.51100000000E-03 0. -1.
        -11    1    3    3    0    0 -0.60400633797E+01  0.22888158474E+02 -0.94430426514E+01  0.25485706165E+02  0.51100000000E-03 0.  1.
        -12    1    3    3    0    0  0.50516286880E+01  0.97842340659E+01 -0.29609968170E+01  0.11402530018E+02  0.00000000000E+00 0.  1.
</event>
<event>
 7    1  0.3062695E-010  0.4778728E+02  0.7816164E-02  0.1312668E+00
        -11   -1    0    0    0    0  0.00000000000E+00  0.00000000000E+00  0.45593999997E+02  0.45594000000E+02  0.51100000000E-03 0.  1.
         11   -1    0    0    0    0 -0.00000000000E+00 -0.00000000000E+00 -0.45593999997E+02  0.45594000000E+02  0.51100000000E-03 0. -1.
    9900012    2    1    2    0    0 -0.15389325261E+01 -0.15907980442E+02 -0.40350842779E+02  0.47787278024E+02  0.20000031821E+02 0.  0.
        -12    1    1    2    0    0  0.15389325261E+01  0.15907980442E+02  0.40350842779E+02  0.43400721976E+02  0.00000000000E+00 0.  1.
         11    1    3    3    0    0  0.63822567816E+00 -0.52450244278E+01 -0.99585129287E+01  0.11273402028E+02  0.51100000000E-03 0. -1.
        -11    1    3    3    0    0 -0.91567538106E+01 -0.84214121685E+01 -0.22716037798E+02  0.25899511516E+02  0.51100000000E-03 0.  1.
        -12    1    3    3    0    0  0.69795956064E+01 -0.22415438459E+01 -0.76762920528E+01  0.10614364480E+02  0.00000000000E+00 0.  1.
</event>
<event>
 7    1  0.3062695E-010  0.4778727E+02  0.7816164E-02  0.1312668E+00
        -11   -1    0    0    0    0  0.00000000000E+00  0.00000000000E+00  0.45593999997E+02  0.45594000000E+02  0.51100000000E-03 0. -1.
         11   -1    0    0    0    0 -0.00000000000E+00 -0.00000000000E+00 -0.45593999997E+02  0.45594000000E+02  0.51100000000E-03 0.  1.
    9900012    2    1    2    0    0  0.30167056762E+02 -0.34402633750E+01  0.31011876771E+02  0.47787271589E+02  0.20000002482E+02 0.  0.
        -12    1    1    2    0    0 -0.30167056762E+02  0.34402633750E+01 -0.31011876771E+02  0.43400728411E+02  0.00000000000E+00 0.  1.
         11    1    3    3    0    0  0.11739607037E+02 -0.84173093594E+01  0.21288580775E+02  0.25726895303E+02  0.51100000000E-03 0. -1.
        -11    1    3    3    0    0  0.62349197214E+01  0.34511337108E+01  0.15216237053E+01  0.72869669125E+01  0.51100000000E-03 0.  1.
         12    1    3    3    0    0  0.12192530004E+02  0.15259122736E+01  0.82016722900E+01  0.14773409374E+02  0.00000000000E+00 0. -1.
</event>
<event>
 7    1  0.3062695E-010  0.4778727E+02  0.7816164E-02  0.1312668E+00
        -11   -1    0    0    0    0  0.00000000000E+00  0.00000000000E+00  0.45593999997E+02  0.45594000000E+02  0.51100000000E-03 0. -1.
         11   -1    0    0    0    0 -0.00000000000E+00 -0.00000000000E+00 -0.45593999997E+02  0.45594000000E+02  0.51100000000E-03 0.  1.
    9900012    2    1    2    0    0 -0.30039650600E+02  0.16541776523E+02  0.26600980800E+02  0.47787272377E+02  0.20000006075E+02 0.  0.
        -12    1    1    2    0    0  0.30039650600E+02 -0.16541776523E+02 -0.26600980800E+02  0.43400727623E+02  0.00000000000E+00 0.  1.
         11    1    3    3    0    0 -0.13779718643E+02 -0.59553982905E+00  0.99364498897E+01  0.16999069099E+02  0.51100000000E-03 0. -1.
        -11    1    3    3    0    0 -0.16946162203E+02  0.16566640589E+02  0.17581779293E+02  0.29508387912E+02  0.51100000000E-03 0.  1.
        -12    1    3    3    0    0  0.68623024565E+00  0.57067576291E+00 -0.91724838209E+00  0.12798153659E+01  0.00000000000E+00 0.  1.
</event>
<event>
 7    1  0.3062695E-010  0.4778727E+02  0.7816164E-02  0.1312668E+00
        -11   -1    0    0    0    0  0.00000000000E+00  0.00000000000E+00  0.45593999997E+02  0.45594000000E+02  0.51100000000E-03 0. -1.
         11   -1    0    0    0    0 -0.00000000000E+00 -0.00000000000E+00 -0.45593999997E+02  0.45594000000E+02  0.51100000000E-03 0.  1.
    9900012    2    1    2    0    0  0.34095387480E+02 -0.26230882018E+02  0.57505091356E+01  0.47787274497E+02  0.20000015743E+02 0.  0.
        -12    1    1    2    0    0 -0.34095387480E+02  0.26230882018E+02 -0.57505091356E+01  0.43400725503E+02  0.00000000000E+00 0.  1.
         11    1    3    3    0    0 -0.21035528633E+01 -0.21615170877E+01 -0.14471033962E-01  0.30161731451E+01  0.51100000000E-03 0. -1.
        -11    1    3    3    0    0  0.57802511221E+01 -0.81696538182E+01  0.23366116688E+01  0.10276881866E+02  0.51100000000E-03 0.  1.
         12    1    3    3    0    0  0.30418689221E+02 -0.15899711112E+02  0.34283685008E+01  0.34494219486E+02  0.00000000000E+00 0. -1.
</event>
<event>
 7    1  0.3062695E-010  0.4778727E+02  0.7816164E-02  0.1312668E+00
        -11   -1    0    0    0    0  0.00000000000E+00  0.00000000000E+00  0.45593999997E+02  0.45594000000E+02  0.51100000000E-03 0.  1.
         11   -1    0    0    0    0 -0.00000000000E+00 -0.00000000000E+00 -0.45593999997E+02  0.45594000000E+02  0.51100000000E-03 0. -1.
    9900012    2    1    2    0    0  0.17001249002E+02 -0.90938077797E+01 -0.38882943149E+02  0.47787273329E+02  0.20000010418E+02 0.  0.
        -12    1    1    2    0    0 -0.17001249002E+02  0.90938077797E+01  0.38882943149E+02  0.43400726671E+02  0.00000000000E+00 0.  1.
         11    1    3    3    0    0  0.63269475808E+00 -0.66416246358E+01 -0.12872494628E+02  0.14498710242E+02  0.51100000000E-03 0. -1.
        -11    1    3    3    0    0  0.71354973978E+01  0.38286791767E+01 -0.17384857034E+02  0.19178304454E+02  0.51100000000E-03 0.  1.
         12    1    3    3    0    0  0.92330568466E+01 -0.62808623206E+01 -0.86255914866E+01  0.14110258634E+02  0.00000000000E+00 0. -1.
</event>
<event>
 7    1  0.3062695E-010  0.4778727E+02  0.7816164E-02  0.1312668E+00
        -11   -1    0    0    0    0  0.00000000000E+00  0.00000000000E+00  0.45593999997E+02  0.45594000000E+02  0.51100000000E-03 0. -1.
         11   -1    0    0    0    0 -0.00000000000E+00 -0.00000000000E+00 -0.45593999997E+02  0.45594000000E+02  0.51100000000E-03 0.  1.
    9900012    2    1    2    0    0 -0.19554094757E+02 -0.38558550583E+02 -0.38077421794E+01  0.47787270221E+02  0.19999996246E+02 0.  0.
        -12    1    1    2    0    0  0.19554094757E+02  0.38558550583E+02  0.38077421794E+01  0.43400729779E+02  0.00000000000E+00 0.  1.
         11    1    3    3    0    0 -0.18644494691E+01 -0.75601610780E+01 -0.27195799798E+01  0.82479283990E+01  0.51100000000E-03 0. -1.
        -11    1    3    3    0    0 -0.51886979942E+01 -0.15843409250E+01 -0.49531763523E+01  0.73462016906E+01  0.51100000000E-03 0.  1.
        -12    1    3    3    0    0 -0.12500947293E+02 -0.29414048580E+02  0.38650141528E+01  0.32193140131E+02  0.00000000000E+00 0.  1.
</event>
<event>
 7    1  0.3062695E-010  0.4778726E+02  0.7816164E-02  0.1312668E+00
        -11   -1    0    0    0    0  0.00000000000E+00  0.00000000000E+00  0.45593999997E+02  0.45594000000E+02  0.51100000000E-03 0.  1.
         11   -1    0    0    0    0 -0.00000000000E+00 -0.00000000000E+00 -0.45593999997E+02  0.45594000000E+02  0.51100000000E-03 0. -1.
    9900012    2    1    2    0    0 -0.12748354499E+02 -0.41428054890E+02  0.21954635404E+01  0.47787258825E+02  0.19999944287E+02 0.  0.
        -12    1    1    2    0    0  0.12748354499E+02  0.41428054890E+02 -0.21954635404E+01  0.43400741175E+02  0.00000000000E+00 0.  1.
         11    1    3    3    0    0 -0.68154797126E+01 -0.91836707109E+01 -0.55270205127E+01  0.12701910386E+02  0.51100000000E-03 0. -1.
        -11    1    3    3    0    0  0.16424380651E+01 -0.17641662630E+02  0.50089593550E+01  0.18412374568E+02  0.51100000000E-03 0.  1.
         12    1    3    3    0    0 -0.75753128511E+01 -0.14602721549E+02  0.27135246982E+01  0.16672973871E+02  0.00000000000E+00 0. -1.
</event>
<event>
 7    1  0.3062695E-010  0.4778727E+02  0.7816164E-02  0.1312668E+00
        -11   -1    0    0    0    0  0.00000000000E+00  0.00000000000E+00  0.45593999997E+02  0.45594000000E+02  0.51100000000E-03 0. -1.
         11   -1    0    0    0    0 -0.00000000000E+00 -0.00000000000E+00 -0.45593999997E+02  0.45594000000E+02  0.51100000000E-03 0.  1.
    9900012    2    1    2    0    0  0.40984429809E+02 -0.14164876814E+02 -0.18043746904E+01  0.47787274315E+02  0.20000014913E+02 0.  0.
        -12    1    1    2    0    0 -0.40984429809E+02  0.14164876814E+02  0.18043746904E+01  0.43400725685E+02  0.00000000000E+00 0.  1.
         11    1    3    3    0    0  0.27967671260E+02 -0.10026878386E+02  0.37434008403E+01  0.29945650368E+02  0.51100000000E-03 0. -1.
        -11    1    3    3    0    0  0.72526084827E+01 -0.16576538382E+01 -0.81618801342E+01  0.11043750886E+02  0.51100000000E-03 0.  1.
        -12    1    3    3    0    0  0.57641500663E+01 -0.24803445899E+01  0.26141046034E+01  0.67978730607E+01  0.00000000000E+00 0.  1.
</event>
<event>
 7    1  0.3062695E-010  0.4778727E+02  0.7816164E-02  0.1312668E+00
        -11   -1    0    0    0    0  0.00000000000E+00  0.00000000000E+00  0.45593999997E+02  0.45594000000E+02  0.51100000000E-03 0.  1.
         11   -1    0    0    0    0 -0.00000000000E+00 -0.00000000000E+00 -0.45593999997E+02  0.45594000000E+02  0.51100000000E-03 0. -1.
    9900012    2    1    2    0    0 -0.11228559550E+01  0.41945628074E+02 -0.11087236807E+02  0.47787270282E+02  0.19999996523E+02 0.  0.
        -12    1    1    2    0    0  0.11228559550E+01 -0.41945628074E+02  0.11087236807E+02  0.43400729718E+02  0.00000000000E+00 0.  1.
         11    1    3    3    0    0 -0.71124999242E+01  0.20329074382E+02 -0.10142700262E+02  0.23806160742E+02  0.51100000000E-03 0. -1.
        -11    1    3    3    0    0  0.76683030952E+01  0.16123837163E+02 -0.25052176116E+01  0.18029340330E+02  0.51100000000E-03 0.  1.
        -12    1    3    3    0    0 -0.16786591260E+01  0.54927165298E+01  0.15606810662E+01  0.59517692099E+01  0.00000000000E+00 0.  1.
</event>
<event>
 7    1  0.3062695E-010  0.4778727E+02  0.7816164E-02  0.1312668E+00
        -11   -1    0    0    0    0  0.00000000000E+00  0.00000000000E+00  0.45593999997E+02  0.45594000000E+02  0.51100000000E-03 0.  1.
         11   -1    0    0    0    0 -0.00000000000E+00 -0.00000000000E+00 -0.45593999997E+02  0.45594000000E+02  0.51100000000E-03 0. -1.
    9900012    2    1    2    0    0  0.34287832134E+02  0.20503941258E+02  0.16957490387E+02  0.47787268211E+02  0.19999987083E+02 0.  0.
        -12    1    1    2    0    0 -0.34287832134E+02 -0.20503941258E+02 -0.16957490387E+02  0.43400731789E+02  0.00000000000E+00 0.  1.
         11    1    3    3    0    0  0.18729479042E+02  0.15324415055E+02  0.42340375937E+01  0.24567420634E+02  0.51100000000E-03 0. -1.
        -11    1    3    3    0    0  0.92109696368E+01 -0.24145873550E+01  0.64717064411E+01  0.11513260974E+02  0.51100000000E-03 0.  1.
         12    1    3    3    0    0  0.63473834546E+01  0.75941135582E+01  0.62517463522E+01  0.11706586604E+02  0.00000000000E+00 0. -1.
</event>
<event>
 7    1  0.3062695E-010  0.4778729E+02  0.7816164E-02  0.1312668E+00
        -11   -1    0    0    0    0  0.00000000000E+00  0.00000000000E+00  0.45593999997E+02  0.45594000000E+02  0.51100000000E-03 0.  1.
         11   -1    0    0    0    0 -0.00000000000E+00 -0.00000000000E+00 -0.45593999997E+02  0.45594000000E+02  0.51100000000E-03 0. -1.
    9900012    2    1    2    0    0  0.26213890600E+02  0.29667828471E+02 -0.17784091868E+02  0.47787285372E+02  0.20000065326E+02 0.  0.
        -12    1    1    2    0    0 -0.26213890600E+02 -0.29667828471E+02  0.17784091868E+02  0.43400714628E+02  0.00000000000E+00 0.  1.
         11    1    3    3    0    0  0.24557551276E+02  0.19378290006E+02 -0.19335947169E+02  0.36775947322E+02  0.51100000000E-03 0. -1.
        -11    1    3    3    0    0  0.10711418916E+01  0.54111761455E+01  0.24169168563E+01  0.60224297074E+01  0.51100000000E-03 0.  1.
        -12    1    3    3    0    0  0.58519743245E+00  0.48783623200E+01 -0.86506155583E+00  0.49889083431E+01  0.00000000000E+00 0.  1.
</event>
<event>
 7    1  0.3062695E-010  0.4778727E+02  0.7816164E-02  0.1312668E+00
        -11   -1    0    0    0    0  0.00000000000E+00  0.00000000000E+00  0.45593999997E+02  0.45594000000E+02  0.51100000000E-03 0.  1.
         11   -1    0    0    0    0 -0.00000000000E+00 -0.00000000000E+00 -0.45593999997E+02  0.45594000000E+02  0.51100000000E-03 0. -1.
    9900012    2    1    2    0    0  0.36821575818E+02  0.96865878715E+01 -0.20831817511E+02  0.47787273611E+02  0.20000011703E+02 0.  0.
        -12    1    1    2    0    0 -0.36821575818E+02 -0.96865878715E+01  0.20831817511E+02  0.43400726389E+02  0.00000000000E+00 0.  1.
         11    1    3    3    0    0  0.29435293469E+02  0.34453285065E+01 -0.13008698305E+02  0.32365614809E+02  0.51100000000E-03 0. -1.
        -11    1    3    3    0    0  0.77720482838E+01  0.72564013431E+01 -0.89193621867E+01  0.13878584836E+02  0.51100000000E-03 0.  1.
         12    1    3    3    0    0 -0.38576593475E+00 -0.10151419781E+01  0.10962429810E+01  0.15430739663E+01  0.00000000000E+00 0. -1.
</event>
<event>
 7    1  0.3062695E-010  0.4778727E+02  0.7816164E-02  0.1312668E+00
        -11   -1    0    0    0    0  0.00000000000E+00  0.00000000000E+00  0.45593999997E+02  0.45594000000E+02  0.51100000000E-03 0.  1.
         11   -1    0    0    0    0 -0.00000000000E+00 -0.00000000000E+00 -0.45593999997E+02  0.45594000000E+02  0.51100000000E-03 0. -1.
    9900012    2    1    2    0    0 -0.31657580311E+02  0.28587986026E+02  0.80092380500E+01  0.47787271546E+02  0.20000002288E+02 0.  0.
        -12    1    1    2    0    0  0.31657580311E+02 -0.28587986026E+02 -0.80092380500E+01  0.43400728454E+02  0.00000000000E+00 0.  1.
         11    1    3    3    0    0 -0.23131766900E+02  0.12839892557E+02  0.71379607873E-01  0.26456503475E+02  0.51100000000E-03 0. -1.
        -11    1    3    3    0    0  0.47750772880E+00  0.63634143823E+01  0.47095025365E+01  0.79309816942E+01  0.51100000000E-03 0.  1.
        -12    1    3    3    0    0 -0.90033211397E+01  0.93846790865E+01  0.32283559056E+01  0.13399786377E+02  0.00000000000E+00 0.  1.
</event>
<event>
 7    1  0.3062695E-010  0.4778729E+02  0.7816164E-02  0.1312668E+00
        -11   -1    0    0    0    0  0.00000000000E+00  0.00000000000E+00  0.45593999997E+02  0.45594000000E+02  0.51100000000E-03 0.  1.
         11   -1    0    0    0    0 -0.00000000000E+00 -0.00000000000E+00 -0.45593999997E+02  0.45594000000E+02  0.51100000000E-03 0. -1.
    9900012    2    1    2    0    0  0.27125762671E+02 -0.30181783584E+02 -0.15390736174E+02  0.47787287785E+02  0.20000076328E+02 0.  0.
        -12    1    1    2    0    0 -0.27125762671E+02  0.30181783584E+02  0.15390736174E+02  0.43400712215E+02  0.00000000000E+00 0.  1.
         11    1    3    3    0    0  0.10256579157E+02 -0.73150362710E+01 -0.62875394921E+01  0.14079784259E+02  0.51100000000E-03 0. -1.
        -11    1    3    3    0    0  0.14759149549E+02 -0.25191349816E+02 -0.73326814553E+01  0.30103236015E+02  0.51100000000E-03 0.  1.
        -12    1    3    3    0    0  0.21100339642E+01  0.23246025031E+01 -0.17705152267E+01  0.36042675117E+01  0.00000000000E+00 0.  1.
</event>
<event>
 7    1  0.3062695E-010  0.4778726E+02  0.7816164E-02  0.1312668E+00
        -11   -1    0    0    0    0  0.00000000000E+00  0.00000000000E+00  0.45593999997E+02  0.45594000000E+02  0.51100000000E-03 0. -1.
         11   -1    0    0    0    0 -0.00000000000E+00 -0.00000000000E+00 -0.45593999997E+02  0.45594000000E+02  0.51100000000E-03 0.  1.
    9900012    2    1    2    0    0 -0.43210236315E+02  0.32815421349E+01  0.23940208972E+01  0.47787258333E+02  0.19999942043E+02 0.  0.
        -12    1    1    2    0    0  0.43210236315E+02 -0.32815421349E+01 -0.23940208972E+01  0.43400741667E+02  0.00000000000E+00 0.  1.
         11    1    3    3    0    0 -0.10909671466E+02  0.26167421872E+01  0.45609519104E+01  0.12110761898E+02  0.51100000000E-03 0. -1.
        -11    1    3    3    0    0 -0.21373053976E+02 -0.25536411950E+01 -0.78931829980E+01  0.22926640785E+02  0.51100000000E-03 0.  1.
        -12    1    3    3    0    0 -0.10927510874E+02  0.32184411427E+01  0.57262519848E+01  0.12749855649E+02  0.00000000000E+00 0.  1.
</event>
<event>
 7    1  0.3062695E-010  0.4778727E+02  0.7816164E-02  0.1312668E+00
        -11   -1    0    0    0    0  0.00000000000E+00  0.00000000000E+00  0.45593999997E+02  0.45594000000E+02  0.51100000000E-03 0.  1.
         11   -1    0    0    0    0 -0.00000000000E+00 -0.00000000000E+00 -0.45593999997E+02  0.45594000000E+02  0.51100000000E-03 0. -1.
    9900012    2    1    2    0    0  0.93133886366E+01  0.31590666120E+02 -0.28265065113E+02  0.47787270748E+02  0.19999998647E+02 0.  0.
        -12    1    1    2    0    0 -0.93133886366E+01 -0.31590666120E+02  0.28265065113E+02  0.43400729252E+02  0.00000000000E+00 0.  1.
         11    1    3    3    0    0  0.98745648888E+01  0.22668237994E+02 -0.26391341086E+02  0.36164332291E+02  0.51100000000E-03 0. -1.
        -11    1    3    3    0    0 -0.23538149525E+01  0.82374470843E+01  0.48655889748E+00  0.85809509449E+01  0.51100000000E-03 0.  1.
        -12    1    3    3    0    0  0.17926387002E+01  0.68498104214E+00 -0.23602829246E+01  0.30419875118E+01  0.00000000000E+00 0.  1.
</event>
<event>
 7    1  0.3062695E-010  0.4778727E+02  0.7816164E-02  0.1312668E+00
        -11   -1    0    0    0    0  0.00000000000E+00  0.00000000000E+00  0.45593999997E+02  0.45594000000E+02  0.51100000000E-03 0.  1.
         11   -1    0    0    0    0 -0.00000000000E+00 -0.00000000000E+00 -0.45593999997E+02  0.45594000000E+02  0.51100000000E-03 0. -1.
    9900012    2    1    2    0    0  0.17474661488E+02 -0.17228228595E+02 -0.35797313082E+02  0.47787270991E+02  0.19999999757E+02 0.  0.
        -12    1    1    2    0    0 -0.17474661488E+02  0.17228228595E+02  0.35797313082E+02  0.43400729009E+02  0.00000000000E+00 0.  1.
         11    1    3    3    0    0  0.15475050232E+02 -0.14709338944E+02 -0.21817858595E+02  0.30526394903E+02  0.51100000000E-03 0. -1.
        -11    1    3    3    0    0  0.36806517731E+01  0.26627893402E+01 -0.77696614752E+01  0.90002935644E+01  0.51100000000E-03 0.  1.
         12    1    3    3    0    0 -0.16810405170E+01 -0.51816789910E+01 -0.62097930114E+01  0.82605825236E+01  0.00000000000E+00 0. -1.
</event>
<event>
 7    1  0.3062695E-010  0.4778727E+02  0.7816164E-02  0.1312668E+00
        -11   -1    0    0    0    0  0.00000000000E+00  0.00000000000E+00  0.45593999997E+02  0.45594000000E+02  0.51100000000E-03 0. -1.
         11   -1    0    0    0    0 -0.00000000000E+00 -0.00000000000E+00 -0.45593999997E+02  0.45594000000E+02  0.51100000000E-03 0.  1.
    9900012    2    1    2    0    0 -0.34427579195E+02  0.17443102088E+02  0.19852031987E+02  0.47787271968E+02  0.20000004212E+02 0.  0.
        -12    1    1    2    0    0  0.34427579195E+02 -0.17443102088E+02 -0.19852031987E+02  0.43400728032E+02  0.00000000000E+00 0.  1.
         11    1    3    3    0    0 -0.32289984985E+02  0.10954141004E+02  0.17962781668E+02  0.38539562283E+02  0.51100000000E-03 0. -1.
        -11    1    3    3    0    0 -0.57215280052E+00  0.37367936311E+01 -0.19643152330E+01  0.42602253537E+01  0.51100000000E-03 0.  1.
         12    1    3    3    0    0 -0.15654414099E+01  0.27521674528E+01  0.38535655520E+01  0.49874843317E+01  0.00000000000E+00 0. -1.
</event>
<event>
 7    1  0.3062695E-010  0.4778730E+02  0.7816164E-02  0.1312668E+00
        -11   -1    0    0    0    0  0.00000000000E+00  0.00000000000E+00  0.45593999997E+02  0.45594000000E+02  0.51100000000E-03 0. -1.
         11   -1    0    0    0    0 -0.00000000000E+00 -0.00000000000E+00 -0.45593999997E+02  0.45594000000E+02  0.51100000000E-03 0.  1.
    9900012    2    1    2    0    0  0.34121859495E+01 -0.88665316343E+01  0.42348107597E+02  0.47787301697E+02  0.20000139756E+02 0.  0.
        -12    1    1    2    0    0 -0.34121859495E+01  0.88665316343E+01 -0.42348107597E+02  0.43400698303E+02  0.00000000000E+00 0.  1.
         11    1    3    3    0    0 -0.28755253176E+01 -0.27531926299E+01  0.90344038990E+01  0.98726475467E+01  0.51100000000E-03 0. -1.
        -11    1    3    3    0    0 -0.24262786983E+01 -0.85990947528E+01  0.14487143794E+02  0.17020828254E+02  0.51100000000E-03 0.  1.
        -12    1    3    3    0    0  0.87139899654E+01  0.24857557484E+01  0.18826559904E+02  0.20893825896E+02  0.00000000000E+00 0.  1.
</event>
<event>
 7    1  0.3062695E-010  0.4778727E+02  0.7816164E-02  0.1312668E+00
        -11   -1    0    0    0    0  0.00000000000E+00  0.00000000000E+00  0.45593999997E+02  0.45594000000E+02  0.51100000000E-03 0. -1.
         11   -1    0    0    0    0 -0.00000000000E+00 -0.00000000000E+00 -0.45593999997E+02  0.45594000000E+02  0.51100000000E-03 0.  1.
    9900012    2    1    2    0    0 -0.62250226784E+01  0.40707076579E+02 -0.13704241078E+02  0.47787271728E+02  0.20000003118E+02 0.  0.
        -12    1    1    2    0    0  0.62250226784E+01 -0.40707076579E+02  0.13704241078E+02  0.43400728272E+02  0.00000000000E+00 0.  1.
         11    1    3    3    0    0  0.17792992206E+01  0.38463734610E+01  0.20099306120E+01  0.46904494288E+01  0.51100000000E-03 0. -1.
        -11    1    3    3    0    0 -0.52783183717E+00  0.29615341596E+02 -0.12933901658E+02  0.32320780880E+02  0.51100000000E-03 0.  1.
        -12    1    3    3    0    0 -0.74764900618E+01  0.72453615225E+01 -0.27802700317E+01  0.10776041420E+02  0.00000000000E+00 0.  1.
</event>
<event>
 7    1  0.3062695E-010  0.4778727E+02  0.7816164E-02  0.1312668E+00
        -11   -1    0    0    0    0  0.00000000000E+00  0.00000000000E+00  0.45593999997E+02  0.45594000000E+02  0.51100000000E-03 0.  1.
         11   -1    0    0    0    0 -0.00000000000E+00 -0.00000000000E+00 -0.45593999997E+02  0.45594000000E+02  0.51100000000E-03 0. -1.
    9900012    2    1    2    0    0 -0.43007854285E+02 -0.22606194358E+01 -0.53700817769E+01  0.47787266035E+02  0.19999977159E+02 0.  0.
        -12    1    1    2    0    0  0.43007854285E+02  0.22606194358E+01  0.53700817769E+01  0.43400733965E+02  0.00000000000E+00 0.  1.
         11    1    3    3    0    0 -0.10657590471E+02 -0.12183290211E+01 -0.32399105370E+01  0.11205604883E+02  0.51100000000E-03 0. -1.
        -11    1    3    3    0    0 -0.27998965343E+01 -0.58815689829E+01 -0.11973824049E+01  0.66231411874E+01  0.51100000000E-03 0.  1.
        -12    1    3    3    0    0 -0.29550367280E+02  0.48392785682E+01 -0.93278883490E+00  0.29958519964E+02  0.00000000000E+00 0.  1.
</event>
<event>
 7    1  0.3062695E-010  0.4778727E+02  0.7816164E-02  0.1312668E+00
        -11   -1    0    0    0    0  0.00000000000E+00  0.00000000000E+00  0.45593999997E+02  0.45594000000E+02  0.51100000000E-03 0. -1.
         11   -1    0    0    0    0 -0.00000000000E+00 -0.00000000000E+00 -0.45593999997E+02  0.45594000000E+02  0.51100000000E-03 0.  1.
    9900012    2    1    2    0    0  0.16982412108E+02 -0.32680814383E+01  0.39806288954E+02  0.47787270542E+02  0.19999997707E+02 0.  0.
        -12    1    1    2    0    0 -0.16982412108E+02  0.32680814383E+01 -0.39806288954E+02  0.43400729458E+02  0.00000000000E+00 0.  1.
         11    1    3    3    0    0  0.12054378944E+02 -0.57215187476E+01  0.12406162357E+02  0.18219678735E+02  0.51100000000E-03 0. -1.
        -11    1    3    3    0    0 -0.59741725832E-01  0.34010184381E+01  0.26771296059E+01  0.43286855601E+01  0.51100000000E-03 0.  1.
         12    1    3    3    0    0  0.49877748896E+01 -0.94758112886E+00  0.24722996991E+02  0.25238906247E+02  0.00000000000E+00 0. -1.
</event>
<event>
 7    1  0.3062695E-010  0.4778726E+02  0.7816164E-02  0.1312668E+00
        -11   -1    0    0    0    0  0.00000000000E+00  0.00000000000E+00  0.45593999997E+02  0.45594000000E+02  0.51100000000E-03 0. -1.
         11   -1    0    0    0    0 -0.00000000000E+00 -0.00000000000E+00 -0.45593999997E+02  0.45594000000E+02  0.51100000000E-03 0.  1.
    9900012    2    1    2    0    0  0.14198564147E+02  0.28151986337E+02  0.29824324686E+02  0.47787263813E+02  0.19999967031E+02 0.  0.
        -12    1    1    2    0    0 -0.14198564147E+02 -0.28151986337E+02 -0.29824324686E+02  0.43400736187E+02  0.00000000000E+00 0.  1.
         11    1    3    3    0    0  0.66777162353E+01  0.14768170168E+02  0.11776581030E+02  0.20034435486E+02  0.51100000000E-03 0. -1.
        -11    1    3    3    0    0 -0.11715362440E+01 -0.21775801780E+01  0.52705412691E+01  0.58217658948E+01  0.51100000000E-03 0.  1.
        -12    1    3    3    0    0  0.86923841557E+01  0.15561396347E+02  0.12777202387E+02  0.21931062432E+02  0.00000000000E+00 0.  1.
</event>
<event>
 7    1  0.3839754E-010  0.4778727E+02  0.7816164E-02  0.1312668E+00
        -11   -1    0    0    0    0  0.00000000000E+00  0.00000000000E+00  0.45593999997E+02  0.45594000000E+02  0.51100000000E-03 0. -1.
         11   -1    0    0    0    0 -0.00000000000E+00 -0.00000000000E+00 -0.45593999997E+02  0.45594000000E+02  0.51100000000E-03 0.  1.
    9900012    2    1    2    0    0 -0.42675539322E+02 -0.46867452924E+01 -0.63605360814E+01  0.47787266630E+02  0.19999979872E+02 0.  0.
        -12    1    1    2    0    0  0.42675539322E+02  0.46867452924E+01  0.63605360814E+01  0.43400733370E+02  0.00000000000E+00 0.  1.
         11    1    3    3    0    0 -0.21265763913E+02 -0.41974625193E+01 -0.72366931570E+01  0.22852158202E+02  0.51100000000E-03 0. -1.
        -11    1    3    3    0    0 -0.13823491521E+02  0.47016094497E+01  0.41463974296E+01  0.15178493375E+02  0.51100000000E-03 0.  1.
        -12    1    3    3    0    0 -0.75862838881E+01 -0.51908922228E+01 -0.32702403541E+01  0.97566150520E+01  0.00000000000E+00 0.  1.
</event>
<event>
 7    1  0.3062695E-010  0.4778727E+02  0.7816164E-02  0.1312668E+00
        -11   -1    0    0    0    0  0.00000000000E+00  0.00000000000E+00  0.45593999997E+02  0.45594000000E+02  0.51100000000E-03 0.  1.
         11   -1    0    0    0    0 -0.00000000000E+00 -0.00000000000E+00 -0.45593999997E+02  0.45594000000E+02  0.51100000000E-03 0. -1.
    9900012    2    1    2    0    0  0.19365715700E+02 -0.26802764309E+02 -0.28110567400E+02  0.47787272832E+02  0.20000008149E+02 0.  0.
        -12    1    1    2    0    0 -0.19365715700E+02  0.26802764309E+02  0.28110567400E+02  0.43400727168E+02  0.00000000000E+00 0.  1.
         11    1    3    3    0    0  0.76346820212E-01 -0.24590781372E+01 -0.45586040003E+01  0.51801317372E+01  0.51100000000E-03 0. -1.
        -11    1    3    3    0    0  0.15062868590E+02 -0.12837174025E+02 -0.22991264405E+02  0.30336138289E+02  0.51100000000E-03 0.  1.
        -12    1    3    3    0    0  0.42265002898E+01 -0.11506512147E+02 -0.56069899480E+00  0.12271002805E+02  0.00000000000E+00 0.  1.
</event>
<event>
 7    1  0.3062695E-010  0.4778727E+02  0.7816164E-02  0.1312668E+00
        -11   -1    0    0    0    0  0.00000000000E+00  0.00000000000E+00  0.45593999997E+02  0.45594000000E+02  0.51100000000E-03 0. -1.
         11   -1    0    0    0    0 -0.00000000000E+00 -0.00000000000E+00 -0.45593999997E+02  0.45594000000E+02  0.51100000000E-03 0.  1.
    9900012    2    1    2    0    0  0.25456490425E+02  0.18994324591E+02  0.29577121238E+02  0.47787269912E+02  0.19999994837E+02 0.  0.
        -12    1    1    2    0    0 -0.25456490425E+02 -0.18994324591E+02 -0.29577121238E+02  0.43400730088E+02  0.00000000000E+00 0.  1.
         11    1    3    3    0    0  0.87848140702E+01  0.25561961914E+01  0.20386607975E+02  0.22345489080E+02  0.51100000000E-03 0. -1.
        -11    1    3    3    0    0  0.16478707912E+02  0.15650816512E+02  0.94166924826E+01  0.24600202631E+02  0.51100000000E-03 0.  1.
         12    1    3    3    0    0  0.19296844320E+00  0.78731188816E+00 -0.22617921964E+00  0.84157820118E+00  0.00000000000E+00 0. -1.
</event>
<event>
 7    1  0.3062695E-010  0.4778729E+02  0.7816164E-02  0.1312668E+00
        -11   -1    0    0    0    0  0.00000000000E+00  0.00000000000E+00  0.45593999997E+02  0.45594000000E+02  0.51100000000E-03 0.  1.
         11   -1    0    0    0    0 -0.00000000000E+00 -0.00000000000E+00 -0.45593999997E+02  0.45594000000E+02  0.51100000000E-03 0. -1.
    9900012    2    1    2    0    0 -0.24650026942E+01 -0.21241120079E+02 -0.37767186677E+02  0.47787287909E+02  0.20000076892E+02 0.  0.
        -12    1    1    2    0    0  0.24650026942E+01  0.21241120079E+02  0.37767186677E+02  0.43400712091E+02  0.00000000000E+00 0.  1.
         11    1    3    3    0    0  0.63551707867E+00 -0.15837543161E+02 -0.28906388412E+02  0.32966815840E+02  0.51100000000E-03 0. -1.
        -11    1    3    3    0    0  0.26646041150E+01 -0.51597604315E+01 -0.61053151831E+01  0.84260380101E+01  0.51100000000E-03 0.  1.
         12    1    3    3    0    0 -0.57651238879E+01 -0.24381648646E+00 -0.27554830825E+01  0.63944340594E+01  0.00000000000E+00 0. -1.
</event>
<event>
 7    1  0.3062695E-010  0.4778727E+02  0.7816164E-02  0.1312668E+00
        -11   -1    0    0    0    0  0.00000000000E+00  0.00000000000E+00  0.45593999997E+02  0.45594000000E+02  0.51100000000E-03 0.  1.
         11   -1    0    0    0    0 -0.00000000000E+00 -0.00000000000E+00 -0.45593999997E+02  0.45594000000E+02  0.51100000000E-03 0. -1.
    9900012    2    1    2    0    0  0.40430082599E+02 -0.83964319296E+01  0.13361572452E+02  0.47787271129E+02  0.20000000385E+02 0.  0.
        -12    1    1    2    0    0 -0.40430082599E+02  0.83964319296E+01 -0.13361572452E+02  0.43400728871E+02  0.00000000000E+00 0.  1.
         11    1    3    3    0    0 -0.76078074121E+00  0.24739461823E+01  0.19994083882E+01  0.32706010477E+01  0.51100000000E-03 0. -1.
        -11    1    3    3    0    0  0.22420352039E+02 -0.89931049398E+01  0.56835526414E+01  0.24816343262E+02  0.51100000000E-03 0.  1.
         12    1    3    3    0    0  0.18770511301E+02 -0.18772731722E+01  0.56786114228E+01  0.19700326819E+02  0.00000000000E+00 0. -1.
</event>
<event>
 7    1  0.3062695E-010  0.4778727E+02  0.7816164E-02  0.1312668E+00
        -11   -1    0    0    0    0  0.00000000000E+00  0.00000000000E+00  0.45593999997E+02  0.45594000000E+02  0.51100000000E-03 0. -1.
         11   -1    0    0    0    0 -0.00000000000E+00 -0.00000000000E+00 -0.45593999997E+02  0.45594000000E+02  0.51100000000E-03 0.  1.
    9900012    2    1    2    0    0 -0.43032558540E+02  0.46962724711E+01  0.31252432283E+01  0.47787271724E+02  0.20000003100E+02 0.  0.
        -12    1    1    2    0    0  0.43032558540E+02 -0.46962724711E+01 -0.31252432283E+01  0.43400728276E+02  0.00000000000E+00 0.  1.
         11    1    3    3    0    0 -0.34284415874E+02  0.57890168226E+01  0.61662597059E+01  0.35312273314E+02  0.51100000000E-03 0. -1.
        -11    1    3    3    0    0 -0.66607755070E+01 -0.45035381281E+01 -0.26080869977E+01  0.84528045094E+01  0.51100000000E-03 0.  1.
         12    1    3    3    0    0 -0.20873671591E+01  0.34107937766E+01 -0.43292947993E+00  0.40221939011E+01  0.00000000000E+00 0. -1.
</event>
<event>
 7    1  0.3062695E-010  0.4778726E+02  0.7816164E-02  0.1312668E+00
        -11   -1    0    0    0    0  0.00000000000E+00  0.00000000000E+00  0.45593999997E+02  0.45594000000E+02  0.51100000000E-03 0.  1.
         11   -1    0    0    0    0 -0.00000000000E+00 -0.00000000000E+00 -0.45593999997E+02  0.45594000000E+02  0.51100000000E-03 0. -1.
    9900012    2    1    2    0    0  0.19359842100E+02 -0.19363341097E+02 -0.33673154799E+02  0.47787264768E+02  0.19999971383E+02 0.  0.
        -12    1    1    2    0    0 -0.19359842100E+02  0.19363341097E+02  0.33673154799E+02  0.43400735232E+02  0.00000000000E+00 0.  1.
         11    1    3    3    0    0  0.84677836816E+01 -0.42337999734E+01 -0.11802101707E+02  0.15130037266E+02  0.51100000000E-03 0. -1.
        -11    1    3    3    0    0 -0.39175350470E+01 -0.35935860938E+01 -0.64827966345E+01  0.83837696964E+01  0.51100000000E-03 0.  1.
        -12    1    3    3    0    0  0.14809593465E+02 -0.11535955030E+02 -0.15388256457E+02  0.24273457806E+02  0.00000000000E+00 0.  1.
</event>
<event>
 7    1  0.3062695E-010  0.4778727E+02  0.7816164E-02  0.1312668E+00
        -11   -1    0    0    0    0  0.00000000000E+00  0.00000000000E+00  0.45593999997E+02  0.45594000000E+02  0.51100000000E-03 0. -1.
         11   -1    0    0    0    0 -0.00000000000E+00 -0.00000000000E+00 -0.45593999997E+02  0.45594000000E+02  0.51100000000E-03 0.  1.
    9900012    2    1    2    0    0 -0.81987114349E+01  0.16354284373E+02  0.39356598701E+02  0.47787270193E+02  0.19999996116E+02 0.  0.
        -12    1    1    2    0    0  0.81987114349E+01 -0.16354284373E+02 -0.39356598701E+02  0.43400729807E+02  0.00000000000E+00 0.  1.
         11    1    3    3    0    0 -0.47994753475E+01  0.11938321282E+01  0.18877617203E+02  0.19514728547E+02  0.51100000000E-03 0. -1.
        -11    1    3    3    0    0  0.41935978648E+01  0.58780577573E+01  0.54566945196E+01  0.90505989520E+01  0.51100000000E-03 0.  1.
         12    1    3    3    0    0 -0.75928339522E+01  0.92823944873E+01  0.15022286979E+02  0.19221942693E+02  0.00000000000E+00 0. -1.
</event>
<event>
 7    1  0.3062695E-010  0.4778727E+02  0.7816164E-02  0.1312668E+00
        -11   -1    0    0    0    0  0.00000000000E+00  0.00000000000E+00  0.45593999997E+02  0.45594000000E+02  0.51100000000E-03 0.  1.
         11   -1    0    0    0    0 -0.00000000000E+00 -0.00000000000E+00 -0.45593999997E+02  0.45594000000E+02  0.51100000000E-03 0. -1.
    9900012    2    1    2    0    0  0.15609418683E+02 -0.16257998005E+02 -0.37089710298E+02  0.47787273500E+02  0.20000011195E+02 0.  0.
        -12    1    1    2    0    0 -0.15609418683E+02  0.16257998005E+02  0.37089710298E+02  0.43400726500E+02  0.00000000000E+00 0.  1.
         11    1    3    3    0    0  0.98331117261E+01 -0.10183116551E+02 -0.74530761868E+01  0.15997946550E+02  0.51100000000E-03 0. -1.
        -11    1    3    3    0    0 -0.11512900171E+01  0.10222918777E-01 -0.54958607471E+00  0.12757814570E+01  0.51100000000E-03 0.  1.
         12    1    3    3    0    0  0.69275969738E+01 -0.60851043725E+01 -0.29087048036E+02  0.30513545493E+02  0.00000000000E+00 0. -1.
</event>
<event>
 7    1  0.3062695E-010  0.4778727E+02  0.7816164E-02  0.1312668E+00
        -11   -1    0    0    0    0  0.00000000000E+00  0.00000000000E+00  0.45593999997E+02  0.45594000000E+02  0.51100000000E-03 0.  1.
         11   -1    0    0    0    0 -0.00000000000E+00 -0.00000000000E+00 -0.45593999997E+02  0.45594000000E+02  0.51100000000E-03 0. -1.
    9900012    2    1    2    0    0 -0.67305848488E+01 -0.38792208377E+02 -0.18261634806E+02  0.47787268336E+02  0.19999987653E+02 0.  0.
        -12    1    1    2    0    0  0.67305848488E+01  0.38792208377E+02  0.18261634806E+02  0.43400731664E+02  0.00000000000E+00 0.  1.
         11    1    3    3    0    0  0.25526294592E+01 -0.24156962057E+02 -0.14773140638E+02  0.28430976374E+02  0.51100000000E-03 0. -1.
        -11    1    3    3    0    0 -0.30320629288E+01  0.77793165909E-01 -0.88660514540E+00  0.31599883427E+01  0.51100000000E-03 0.  1.
         12    1    3    3    0    0 -0.62511513792E+01 -0.14713039485E+02 -0.26018890228E+01  0.16196303620E+02  0.00000000000E+00 0. -1.
</event>
<event>
 7    1  0.3062695E-010  0.4778727E+02  0.7816164E-02  0.1312668E+00
        -11   -1    0    0    0    0  0.00000000000E+00  0.00000000000E+00  0.45593999997E+02  0.45594000000E+02  0.51100000000E-03 0.  1.
         11   -1    0    0    0    0 -0.00000000000E+00 -0.00000000000E+00 -0.45593999997E+02  0.45594000000E+02  0.51100000000E-03 0. -1.
    9900012    2    1    2    0    0  0.17528439853E+02  0.33618731795E+02 -0.21122460524E+02  0.47787266484E+02  0.19999979205E+02 0.  0.
        -12    1    1    2    0    0 -0.17528439853E+02 -0.33618731795E+02  0.21122460524E+02  0.43400733516E+02  0.00000000000E+00 0.  1.
         11    1    3    3    0    0  0.94880760021E+01  0.56826211003E+01 -0.47996738458E+00  0.11070055905E+02  0.51100000000E-03 0. -1.
        -11    1    3    3    0    0  0.42271414739E+01  0.19653435347E+02 -0.92607638793E+01  0.22133413516E+02  0.51100000000E-03 0.  1.
        -12    1    3    3    0    0  0.38132223773E+01  0.82826753471E+01 -0.11381729260E+02  0.14583797062E+02  0.00000000000E+00 0.  1.
</event>
<event>
 7    1  0.3062695E-010  0.4778727E+02  0.7816164E-02  0.1312668E+00
        -11   -1    0    0    0    0  0.00000000000E+00  0.00000000000E+00  0.45593999997E+02  0.45594000000E+02  0.51100000000E-03 0. -1.
         11   -1    0    0    0    0 -0.00000000000E+00 -0.00000000000E+00 -0.45593999997E+02  0.45594000000E+02  0.51100000000E-03 0.  1.
    9900012    2    1    2    0    0  0.10653698152E+01  0.14940800301E+02  0.40734027403E+02  0.47787268267E+02  0.19999987337E+02 0.  0.
        -12    1    1    2    0    0 -0.10653698152E+01 -0.14940800301E+02 -0.40734027403E+02  0.43400731733E+02  0.00000000000E+00 0.  1.
         11    1    3    3    0    0 -0.27924509910E+01  0.65068394928E-01  0.20296170974E+02  0.20487473560E+02  0.51100000000E-03 0. -1.
        -11    1    3    3    0    0  0.60203307438E+01  0.59995331632E+01  0.68003390576E+01  0.10885007671E+02  0.51100000000E-03 0.  1.
        -12    1    3    3    0    0 -0.21625099377E+01  0.88761987432E+01  0.13637517372E+02  0.16414787036E+02  0.00000000000E+00 0.  1.
</event>
<event>
 7    1  0.3062695E-010  0.4778727E+02  0.7816164E-02  0.1312668E+00
        -11   -1    0    0    0    0  0.00000000000E+00  0.00000000000E+00  0.45593999997E+02  0.45594000000E+02  0.51100000000E-03 0. -1.
         11   -1    0    0    0    0 -0.00000000000E+00 -0.00000000000E+00 -0.45593999997E+02  0.45594000000E+02  0.51100000000E-03 0.  1.
    9900012    2    1    2    0    0  0.94812888196E+01 -0.11747641098E+02  0.40690553402E+02  0.47787273679E+02  0.20000012011E+02 0.  0.
        -12    1    1    2    0    0 -0.94812888196E+01  0.11747641098E+02 -0.40690553402E+02  0.43400726321E+02  0.00000000000E+00 0.  1.
         11    1    3    3    0    0 -0.18072617935E+01 -0.20482214617E+01  0.29164233584E+01  0.39958643387E+01  0.51100000000E-03 0. -1.
        -11    1    3    3    0    0  0.56895916992E+00 -0.10914260599E+02  0.14678498018E+02  0.18300358010E+02  0.51100000000E-03 0.  1.
         12    1    3    3    0    0  0.10719591443E+02  0.12148409628E+01  0.23095632026E+02  0.25491051330E+02  0.00000000000E+00 0. -1.
</event>
<event>
 7    1  0.3062695E-010  0.4778727E+02  0.7816164E-02  0.1312668E+00
        -11   -1    0    0    0    0  0.00000000000E+00  0.00000000000E+00  0.45593999997E+02  0.45594000000E+02  0.51100000000E-03 0.  1.
         11   -1    0    0    0    0 -0.00000000000E+00 -0.00000000000E+00 -0.45593999997E+02  0.45594000000E+02  0.51100000000E-03 0. -1.
    9900012    2    1    2    0    0 -0.26223031014E+02  0.16597166059E+02 -0.30339903583E+02  0.47787273898E+02  0.20000013010E+02 0.  0.
        -12    1    1    2    0    0  0.26223031014E+02 -0.16597166059E+02  0.30339903583E+02  0.43400726102E+02  0.00000000000E+00 0.  1.
         11    1    3    3    0    0  0.19885504598E-01 -0.29530906232E+01  0.11523614348E+00  0.29554050978E+01  0.51100000000E-03 0. -1.
        -11    1    3    3    0    0 -0.17056171631E+02  0.14659843543E+02 -0.21032024560E+02  0.30792370171E+02  0.51100000000E-03 0.  1.
         12    1    3    3    0    0 -0.91867448872E+01  0.48904131390E+01 -0.94231151672E+01  0.14039498629E+02  0.00000000000E+00 0. -1.
</event>
<event>
 7    1  0.3062695E-010  0.4778727E+02  0.7816164E-02  0.1312668E+00
        -11   -1    0    0    0    0  0.00000000000E+00  0.00000000000E+00  0.45593999997E+02  0.45594000000E+02  0.51100000000E-03 0. -1.
         11   -1    0    0    0    0 -0.00000000000E+00 -0.00000000000E+00 -0.45593999997E+02  0.45594000000E+02  0.51100000000E-03 0.  1.
    9900012    2    1    2    0    0 -0.42646998789E+02 -0.79636421011E+01  0.11989146251E+01  0.47787268468E+02  0.19999988252E+02 0.  0.
        -12    1    1    2    0    0  0.42646998789E+02  0.79636421011E+01 -0.11989146251E+01  0.43400731532E+02  0.00000000000E+00 0.  1.
         11    1    3    3    0    0 -0.38135257413E+02 -0.48701544158E+01  0.56884682334E+01  0.38863542467E+02  0.51100000000E-03 0. -1.
        -11    1    3    3    0    0 -0.47098405742E+01 -0.22141488520E+01 -0.97429608616E+00  0.52947432891E+01  0.51100000000E-03 0.  1.
         12    1    3    3    0    0  0.19809919743E+00 -0.87933883337E+00 -0.35152575221E+01  0.36289827118E+01  0.00000000000E+00 0. -1.
</event>
<event>
 7    1  0.3062695E-010  0.4778727E+02  0.7816164E-02  0.1312668E+00
        -11   -1    0    0    0    0  0.00000000000E+00  0.00000000000E+00  0.45593999997E+02  0.45594000000E+02  0.51100000000E-03 0.  1.
         11   -1    0    0    0    0 -0.00000000000E+00 -0.00000000000E+00 -0.45593999997E+02  0.45594000000E+02  0.51100000000E-03 0. -1.
    9900012    2    1    2    0    0  0.97914580124E+01  0.57147754110E+01 -0.41893818872E+02  0.47787269964E+02  0.19999995073E+02 0.  0.
        -12    1    1    2    0    0 -0.97914580124E+01 -0.57147754110E+01  0.41893818872E+02  0.43400730036E+02  0.00000000000E+00 0.  1.
         11    1    3    3    0    0  0.97177397779E+00  0.61563674016E+01 -0.11108812473E+02  0.12737775280E+02  0.51100000000E-03 0. -1.
        -11    1    3    3    0    0  0.34832237148E+01 -0.68416093712E+01 -0.96520642904E+01  0.12332996861E+02  0.51100000000E-03 0.  1.
        -12    1    3    3    0    0  0.53364603198E+01  0.64000173807E+01 -0.21132942108E+02  0.22716497823E+02  0.00000000000E+00 0.  1.
</event>
<event>
 7    1  0.3062695E-010  0.4778727E+02  0.7816164E-02  0.1312668E+00
        -11   -1    0    0    0    0  0.00000000000E+00  0.00000000000E+00  0.45593999997E+02  0.45594000000E+02  0.51100000000E-03 0.  1.
         11   -1    0    0    0    0 -0.00000000000E+00 -0.00000000000E+00 -0.45593999997E+02  0.45594000000E+02  0.51100000000E-03 0. -1.
    9900012    2    1    2    0    0  0.13235495831E+02 -0.41132912022E+02 -0.40655538045E+01  0.47787268105E+02  0.19999986598E+02 0.  0.
        -12    1    1    2    0    0 -0.13235495831E+02  0.41132912022E+02  0.40655538045E+01  0.43400731895E+02  0.00000000000E+00 0.  1.
         11    1    3    3    0    0  0.10204031130E+02 -0.33164920713E+02 -0.41256272561E+01  0.34943597664E+02  0.51100000000E-03 0. -1.
        -11    1    3    3    0    0  0.49330131021E+00 -0.23118164424E+01  0.45917083537E+01  0.51644580850E+01  0.51100000000E-03 0.  1.
        -12    1    3    3    0    0  0.25381633916E+01 -0.56561748664E+01 -0.45316349020E+01  0.76792123559E+01  0.00000000000E+00 0.  1.
</event>
<event>
 7    1  0.3128484E-010  0.4778727E+02  0.7816164E-02  0.1312668E+00
        -11   -1    0    0    0    0  0.00000000000E+00  0.00000000000E+00  0.45593999997E+02  0.45594000000E+02  0.51100000000E-03 0.  1.
         11   -1    0    0    0    0 -0.00000000000E+00 -0.00000000000E+00 -0.45593999997E+02  0.45594000000E+02  0.51100000000E-03 0. -1.
    9900012    2    1    2    0    0  0.23797808576E+02  0.24359046165E+02 -0.26905842154E+02  0.47787272297E+02  0.20000005711E+02 0.  0.
        -12    1    1    2    0    0 -0.23797808576E+02 -0.24359046165E+02  0.26905842154E+02  0.43400727703E+02  0.00000000000E+00 0.  1.
         11    1    3    3    0    0  0.36946276701E+01  0.62676377316E+01 -0.83002739157E+01  0.11037576894E+02  0.51100000000E-03 0. -1.
        -11    1    3    3    0    0  0.54887694613E+00  0.95933473415E+01 -0.22265169822E+01  0.98636178580E+01  0.51100000000E-03 0.  1.
        -12    1    3    3    0    0  0.19554303960E+02  0.84980610920E+01 -0.16379051256E+02  0.26886077545E+02  0.00000000000E+00 0.  1.
</event>
<event>
 7    1  0.3062695E-010  0.4778727E+02  0.7816164E-02  0.1312668E+00
        -11   -1    0    0    0    0  0.00000000000E+00  0.00000000000E+00  0.45593999997E+02  0.45594000000E+02  0.51100000000E-03 0. -1.
         11   -1    0    0    0    0 -0.00000000000E+00 -0.00000000000E+00 -0.45593999997E+02  0.45594000000E+02  0.51100000000E-03 0.  1.
    9900012    2    1    2    0    0  0.13450282031E+02 -0.11749184881E+02  0.39555910915E+02  0.47787268205E+02  0.19999987052E+02 0.  0.
        -12    1    1    2    0    0 -0.13450282031E+02  0.11749184881E+02 -0.39555910915E+02  0.43400731795E+02  0.00000000000E+00 0.  1.
         11    1    3    3    0    0  0.12356216078E+02 -0.12205802489E+02  0.33087126266E+02  0.37368644811E+02  0.51100000000E-03 0. -1.
        -11    1    3    3    0    0 -0.33419809418E+01  0.14139842958E+01  0.28395179140E+01  0.46077164029E+01  0.51100000000E-03 0.  1.
         12    1    3    3    0    0  0.44360468952E+01 -0.95736668845E+00  0.36292667342E+01  0.58109069912E+01  0.00000000000E+00 0. -1.
</event>
<event>
 7    1  0.3062695E-010  0.4778727E+02  0.7816164E-02  0.1312668E+00
        -11   -1    0    0    0    0  0.00000000000E+00  0.00000000000E+00  0.45593999997E+02  0.45594000000E+02  0.51100000000E-03 0.  1.
         11   -1    0    0    0    0 -0.00000000000E+00 -0.00000000000E+00 -0.45593999997E+02  0.45594000000E+02  0.51100000000E-03 0. -1.
    9900012    2    1    2    0    0  0.19946289306E+01 -0.96026041076E+00 -0.43344232822E+02  0.47787272315E+02  0.20000005793E+02 0.  0.
        -12    1    1    2    0    0 -0.19946289306E+01  0.96026041076E+00  0.43344232822E+02  0.43400727685E+02  0.00000000000E+00 0.  1.
         11    1    3    3    0    0  0.25089626213E-01 -0.66988922767E+01 -0.18887256698E+02  0.20040066194E+02  0.51100000000E-03 0. -1.
        -11    1    3    3    0    0  0.39598577076E+01  0.80218513276E+01 -0.22303565064E+02  0.24030804952E+02  0.51100000000E-03 0.  1.
        -12    1    3    3    0    0 -0.19903184032E+01 -0.22832194617E+01 -0.21534110595E+01  0.37164011688E+01  0.00000000000E+00 0.  1.
</event>
<event>
 7    1  0.3062695E-010  0.4778727E+02  0.7816164E-02  0.1312668E+00
        -11   -1    0    0    0    0  0.00000000000E+00  0.00000000000E+00  0.45593999997E+02  0.45594000000E+02  0.51100000000E-03 0. -1.
         11   -1    0    0    0    0 -0.00000000000E+00 -0.00000000000E+00 -0.45593999997E+02  0.45594000000E+02  0.51100000000E-03 0.  1.
    9900012    2    1    2    0    0 -0.32486972389E+02  0.83238686818E+01  0.27548741201E+02  0.47787270668E+02  0.19999998282E+02 0.  0.
        -12    1    1    2    0    0  0.32486972389E+02 -0.83238686818E+01 -0.27548741201E+02  0.43400729332E+02  0.00000000000E+00 0.  1.
         11    1    3    3    0    0 -0.20974065107E+02  0.68262406236E+01  0.87389117365E+01  0.23725040501E+02  0.51100000000E-03 0. -1.
        -11    1    3    3    0    0  0.10846233974E+01  0.18140957161E+01  0.46452914550E+01  0.51035364351E+01  0.51100000000E-03 0.  1.
        -12    1    3    3    0    0 -0.12597530680E+02 -0.31646765788E+00  0.14164538009E+02  0.18958693732E+02  0.00000000000E+00 0.  1.
</event>
<event>
 7    1  0.3062695E-010  0.4778727E+02  0.7816164E-02  0.1312668E+00
        -11   -1    0    0    0    0  0.00000000000E+00  0.00000000000E+00  0.45593999997E+02  0.45594000000E+02  0.51100000000E-03 0. -1.
         11   -1    0    0    0    0 -0.00000000000E+00 -0.00000000000E+00 -0.45593999997E+02  0.45594000000E+02  0.51100000000E-03 0.  1.
    9900012    2    1    2    0    0 -0.19123055727E+01 -0.43195722305E+02  0.37544267205E+01  0.47787273531E+02  0.20000011335E+02 0.  0.
        -12    1    1    2    0    0  0.19123055727E+01  0.43195722305E+02 -0.37544267205E+01  0.43400726469E+02  0.00000000000E+00 0.  1.
         11    1    3    3    0    0  0.57700788034E+01 -0.11837355110E+02 -0.20285774727E+01  0.13324110185E+02  0.51100000000E-03 0. -1.
        -11    1    3    3    0    0 -0.92811443069E+01 -0.26345499194E+02  0.75115336504E+01  0.28924870016E+02  0.51100000000E-03 0.  1.
        -12    1    3    3    0    0  0.15987599309E+01 -0.50128680015E+01 -0.17285294573E+01  0.55382933293E+01  0.00000000000E+00 0.  1.
</event>
<event>
 7    1  0.3062695E-010  0.4778727E+02  0.7816164E-02  0.1312668E+00
        -11   -1    0    0    0    0  0.00000000000E+00  0.00000000000E+00  0.45593999997E+02  0.45594000000E+02  0.51100000000E-03 0.  1.
         11   -1    0    0    0    0 -0.00000000000E+00 -0.00000000000E+00 -0.45593999997E+02  0.45594000000E+02  0.51100000000E-03 0. -1.
    9900012    2    1    2    0    0 -0.13536830108E+02  0.20106944343E+02 -0.36001224946E+02  0.47787272151E+02  0.20000005047E+02 0.  0.
        -12    1    1    2    0    0  0.13536830108E+02 -0.20106944343E+02  0.36001224946E+02  0.43400727849E+02  0.00000000000E+00 0.  1.
         11    1    3    3    0    0 -0.91578984974E+01  0.11596075533E+02 -0.81451747465E+01  0.16872461129E+02  0.51100000000E-03 0. -1.
        -11    1    3    3    0    0 -0.57624433180E+01  0.75631098213E+01 -0.27632931737E+02  0.29223026876E+02  0.51100000000E-03 0.  1.
        -12    1    3    3    0    0  0.13835117078E+01  0.94775898927E+00 -0.22311846238E+00  0.16917841457E+01  0.00000000000E+00 0.  1.
</event>
<event>
 7    1  0.3062695E-010  0.4778727E+02  0.7816164E-02  0.1312668E+00
        -11   -1    0    0    0    0  0.00000000000E+00  0.00000000000E+00  0.45593999997E+02  0.45594000000E+02  0.51100000000E-03 0.  1.
         11   -1    0    0    0    0 -0.00000000000E+00 -0.00000000000E+00 -0.45593999997E+02  0.45594000000E+02  0.51100000000E-03 0. -1.
    9900012    2    1    2    0    0  0.32024193481E+02  0.15120483897E+02 -0.25088744188E+02  0.47787273206E+02  0.20000009854E+02 0.  0.
        -12    1    1    2    0    0 -0.32024193481E+02 -0.15120483897E+02  0.25088744188E+02  0.43400726794E+02  0.00000000000E+00 0.  1.
         11    1    3    3    0    0  0.43271099605E+01  0.36135967977E+01 -0.29349954339E+01  0.63557974232E+01  0.51100000000E-03 0. -1.
        -11    1    3    3    0    0  0.62089708315E+01  0.95580814071E+01 -0.14706332975E+02  0.18606033129E+02  0.51100000000E-03 0.  1.
        -12    1    3    3    0    0  0.21488112689E+02  0.19488056921E+01 -0.74474157787E+01  0.22825442653E+02  0.00000000000E+00 0.  1.
</event>
<event>
 7    1  0.3062695E-010  0.4778727E+02  0.7816164E-02  0.1312668E+00
        -11   -1    0    0    0    0  0.00000000000E+00  0.00000000000E+00  0.45593999997E+02  0.45594000000E+02  0.51100000000E-03 0.  1.
         11   -1    0    0    0    0 -0.00000000000E+00 -0.00000000000E+00 -0.45593999997E+02  0.45594000000E+02  0.51100000000E-03 0. -1.
    9900012    2    1    2    0    0  0.32661168557E+02 -0.13243940300E+02 -0.25327251794E+02  0.47787267637E+02  0.19999984465E+02 0.  0.
        -12    1    1    2    0    0 -0.32661168557E+02  0.13243940300E+02  0.25327251794E+02  0.43400732363E+02  0.00000000000E+00 0.  1.
         11    1    3    3    0    0  0.21068552582E+02 -0.17191303449E+02 -0.18049094149E+02  0.32637319468E+02  0.51100000000E-03 0. -1.
        -11    1    3    3    0    0  0.73606722441E+01  0.34113422671E+01 -0.19854022332E+01  0.83521598547E+01  0.51100000000E-03 0.  1.
         12    1    3    3    0    0  0.42319437308E+01  0.53602088170E+00 -0.52927554117E+01  0.67977883149E+01  0.00000000000E+00 0. -1.
</event>
<event>
 7    1  0.3062695E-010  0.4778727E+02  0.7816164E-02  0.1312668E+00
        -11   -1    0    0    0    0  0.00000000000E+00  0.00000000000E+00  0.45593999997E+02  0.45594000000E+02  0.51100000000E-03 0.  1.
         11   -1    0    0    0    0 -0.00000000000E+00 -0.00000000000E+00 -0.45593999997E+02  0.45594000000E+02  0.51100000000E-03 0. -1.
    9900012    2    1    2    0    0 -0.38133543790E+02 -0.17749072939E+02 -0.10697023770E+02  0.47787273396E+02  0.20000010722E+02 0.  0.
        -12    1    1    2    0    0  0.38133543790E+02  0.17749072939E+02  0.10697023770E+02  0.43400726604E+02  0.00000000000E+00 0.  1.
         11    1    3    3    0    0 -0.96294494480E+01  0.18429755382E+01 -0.35677217512E+01  0.10433191950E+02  0.51100000000E-03 0. -1.
        -11    1    3    3    0    0 -0.27017337701E+02 -0.19547075602E+02 -0.93936860936E+01  0.34644855892E+02  0.51100000000E-03 0.  1.
        -12    1    3    3    0    0 -0.14867566409E+01 -0.44972875127E-01  0.22643840745E+01  0.27092255546E+01  0.00000000000E+00 0.  1.
</event>
<event>
 7    1  0.3062695E-010  0.4778727E+02  0.7816164E-02  0.1312668E+00
        -11   -1    0    0    0    0  0.00000000000E+00  0.00000000000E+00  0.45593999997E+02  0.45594000000E+02  0.51100000000E-03 0.  1.
         11   -1    0    0    0    0 -0.00000000000E+00 -0.00000000000E+00 -0.45593999997E+02  0.45594000000E+02  0.51100000000E-03 0. -1.
    9900012    2    1    2    0    0 -0.29646236911E+02 -0.56079763824E+01 -0.31197344696E+02  0.47787273299E+02  0.20000010279E+02 0.  0.
        -12    1    1    2    0    0  0.29646236911E+02  0.56079763824E+01  0.31197344696E+02  0.43400726701E+02  0.00000000000E+00 0.  1.
         11    1    3    3    0    0 -0.18088385436E+02 -0.13355564916E+01 -0.27558903682E+02  0.32991916756E+02  0.51100000000E-03 0. -1.
        -11    1    3    3    0    0 -0.45808663841E+01  0.40963986521E+00  0.16281761125E+01  0.48788420104E+01  0.51100000000E-03 0.  1.
        -12    1    3    3    0    0 -0.69769850907E+01 -0.46820597561E+01 -0.52666171273E+01  0.99165145329E+01  0.00000000000E+00 0.  1.
</event>
<event>
 7    1  0.3062695E-010  0.4778727E+02  0.7816164E-02  0.1312668E+00
        -11   -1    0    0    0    0  0.00000000000E+00  0.00000000000E+00  0.45593999997E+02  0.45594000000E+02  0.51100000000E-03 0.  1.
         11   -1    0    0    0    0 -0.00000000000E+00 -0.00000000000E+00 -0.45593999997E+02  0.45594000000E+02  0.51100000000E-03 0. -1.
    9900012    2    1    2    0    0  0.21020283000E+01 -0.18339810648E+02 -0.39279207389E+02  0.47787270620E+02  0.19999998066E+02 0.  0.
        -12    1    1    2    0    0 -0.21020283000E+01  0.18339810648E+02  0.39279207389E+02  0.43400729380E+02  0.00000000000E+00 0.  1.
         11    1    3    3    0    0  0.14332504289E+01 -0.15555251915E+02 -0.14515785128E+02  0.21324354318E+02  0.51100000000E-03 0. -1.
        -11    1    3    3    0    0 -0.21569461032E+01 -0.50928961795E+01 -0.12516861899E+02  0.13684364802E+02  0.51100000000E-03 0.  1.
         12    1    3    3    0    0  0.28257239743E+01  0.23083374461E+01 -0.12246560362E+02  0.12778551500E+02  0.00000000000E+00 0. -1.
</event>
<event>
 7    1  0.3062695E-010  0.4778727E+02  0.7816164E-02  0.1312668E+00
        -11   -1    0    0    0    0  0.00000000000E+00  0.00000000000E+00  0.45593999997E+02  0.45594000000E+02  0.51100000000E-03 0.  1.
         11   -1    0    0    0    0 -0.00000000000E+00 -0.00000000000E+00 -0.45593999997E+02  0.45594000000E+02  0.51100000000E-03 0. -1.
    9900012    2    1    2    0    0  0.33853537861E+02  0.25069072167E+02 -0.10445231857E+02  0.47787271048E+02  0.20000000017E+02 0.  0.
        -12    1    1    2    0    0 -0.33853537861E+02 -0.25069072167E+02  0.10445231857E+02  0.43400728952E+02  0.00000000000E+00 0.  1.
         11    1    3    3    0    0  0.34743709228E+01  0.11561999181E+02 -0.54765660781E+01  0.13256841805E+02  0.51100000000E-03 0. -1.
        -11    1    3    3    0    0  0.10277151679E+01 -0.98144735205E+00  0.11466498346E-01  0.14211154467E+01  0.51100000000E-03 0.  1.
         12    1    3    3    0    0  0.29351451770E+02  0.14488520338E+02 -0.49801322777E+01  0.33109313797E+02  0.00000000000E+00 0. -1.
</event>
<event>
 7    1  0.3062695E-010  0.4778728E+02  0.7816164E-02  0.1312668E+00
        -11   -1    0    0    0    0  0.00000000000E+00  0.00000000000E+00  0.45593999997E+02  0.45594000000E+02  0.51100000000E-03 0. -1.
         11   -1    0    0    0    0 -0.00000000000E+00 -0.00000000000E+00 -0.45593999997E+02  0.45594000000E+02  0.51100000000E-03 0.  1.
    9900012    2    1    2    0    0  0.78604727120E+01  0.42612948847E+02 -0.24438385448E+01  0.47787276648E+02  0.20000025548E+02 0.  0.
        -12    1    1    2    0    0 -0.78604727120E+01 -0.42612948847E+02  0.24438385448E+01  0.43400723352E+02  0.00000000000E+00 0.  1.
         11    1    3    3    0    0  0.50348747155E+01  0.16820964587E+02  0.55411780609E+01  0.18411938182E+02  0.51100000000E-03 0. -1.
        -11    1    3    3    0    0 -0.34447687423E+01  0.17605764572E+02 -0.45657388079E+01  0.18511492348E+02  0.51100000000E-03 0.  1.
         12    1    3    3    0    0  0.62703667388E+01  0.81862196878E+01 -0.34192777978E+01  0.10863846118E+02  0.00000000000E+00 0. -1.
</event>
<event>
 7    1  0.3062695E-010  0.4778727E+02  0.7816164E-02  0.1312668E+00
        -11   -1    0    0    0    0  0.00000000000E+00  0.00000000000E+00  0.45593999997E+02  0.45594000000E+02  0.51100000000E-03 0.  1.
         11   -1    0    0    0    0 -0.00000000000E+00 -0.00000000000E+00 -0.45593999997E+02  0.45594000000E+02  0.51100000000E-03 0. -1.
    9900012    2    1    2    0    0  0.38717771295E+02  0.16444549186E+02  0.10683361562E+02  0.47787271593E+02  0.20000002501E+02 0.  0.
        -12    1    1    2    0    0 -0.38717771295E+02 -0.16444549186E+02 -0.10683361562E+02  0.43400728407E+02  0.00000000000E+00 0.  1.
         11    1    3    3    0    0  0.99710987792E+00  0.51922473936E+01 -0.13703307333E+01  0.54618190820E+01  0.51100000000E-03 0. -1.
        -11    1    3    3    0    0  0.34523656361E+01 -0.99291398205E+00  0.33427022308E+01  0.49069710745E+01  0.51100000000E-03 0.  1.
         12    1    3    3    0    0  0.34268295781E+02  0.12245215774E+02  0.87109900646E+01  0.37418481436E+02  0.00000000000E+00 0. -1.
</event>
<event>
 7    1  0.3062695E-010  0.4778727E+02  0.7816164E-02  0.1312668E+00
        -11   -1    0    0    0    0  0.00000000000E+00  0.00000000000E+00  0.45593999997E+02  0.45594000000E+02  0.51100000000E-03 0.  1.
         11   -1    0    0    0    0 -0.00000000000E+00 -0.00000000000E+00 -0.45593999997E+02  0.45594000000E+02  0.51100000000E-03 0. -1.
    9900012    2    1    2    0    0 -0.36048221804E+02 -0.13529377845E+02 -0.20027605524E+02  0.47787270247E+02  0.19999996362E+02 0.  0.
        -12    1    1    2    0    0  0.36048221804E+02  0.13529377845E+02  0.20027605524E+02  0.43400729753E+02  0.00000000000E+00 0.  1.
         11    1    3    3    0    0 -0.20033014768E+02 -0.10440260366E+02 -0.18500244674E+01  0.22665906291E+02  0.51100000000E-03 0. -1.
        -11    1    3    3    0    0 -0.15772889504E+02 -0.30845258979E+01 -0.15158266212E+02  0.22092337543E+02  0.51100000000E-03 0.  1.
        -12    1    3    3    0    0 -0.24231753179E+00 -0.45915806846E-02 -0.30193148454E+01  0.30290264120E+01  0.00000000000E+00 0.  1.
</event>
<event>
 7    1  0.3062695E-010  0.4778727E+02  0.7816164E-02  0.1312668E+00
        -11   -1    0    0    0    0  0.00000000000E+00  0.00000000000E+00  0.45593999997E+02  0.45594000000E+02  0.51100000000E-03 0.  1.
         11   -1    0    0    0    0 -0.00000000000E+00 -0.00000000000E+00 -0.45593999997E+02  0.45594000000E+02  0.51100000000E-03 0. -1.
    9900012    2    1    2    0    0 -0.32016187471E+02 -0.16705408646E+02 -0.24073141325E+02  0.47787273376E+02  0.20000010629E+02 0.  0.
        -12    1    1    2    0    0  0.32016187471E+02  0.16705408646E+02  0.24073141325E+02  0.43400726624E+02  0.00000000000E+00 0.  1.
         11    1    3    3    0    0 -0.26284338293E+02 -0.15190973663E+02 -0.12138483291E+02  0.32695181559E+02  0.51100000000E-03 0. -1.
        -11    1    3    3    0    0  0.55162126097E+00 -0.14996644594E+01 -0.67772239826E+01  0.69630485190E+01  0.51100000000E-03 0.  1.
         12    1    3    3    0    0 -0.62834704393E+01 -0.14770524080E-01 -0.51574340521E+01  0.81290432974E+01  0.00000000000E+00 0. -1.
</event>
<event>
 7    1  0.4509413E-010  0.4778727E+02  0.7816164E-02  0.1312668E+00
        -11   -1    0    0    0    0  0.00000000000E+00  0.00000000000E+00  0.45593999997E+02  0.45594000000E+02  0.51100000000E-03 0.  1.
         11   -1    0    0    0    0 -0.00000000000E+00 -0.00000000000E+00 -0.45593999997E+02  0.45594000000E+02  0.51100000000E-03 0. -1.
    9900012    2    1    2    0    0  0.31838876606E+02 -0.72160676738E+00 -0.29485394740E+02  0.47787270941E+02  0.19999999529E+02 0.  0.
        -12    1    1    2    0    0 -0.31838876606E+02  0.72160676738E+00  0.29485394740E+02  0.43400729059E+02  0.00000000000E+00 0.  1.
         11    1    3    3    0    0  0.40829528731E+01 -0.26960449421E+00 -0.77243665395E+01  0.87412258549E+01  0.51100000000E-03 0. -1.
        -11    1    3    3    0    0  0.30134300076E+01 -0.62858973421E+01 -0.53617095969E+01  0.87943843371E+01  0.51100000000E-03 0.  1.
        -12    1    3    3    0    0  0.24742493725E+02  0.58338950690E+01 -0.16399318604E+02  0.30251660749E+02  0.00000000000E+00 0.  1.
</event>
<event>
 7    1  0.3062695E-010  0.4778727E+02  0.7816164E-02  0.1312668E+00
        -11   -1    0    0    0    0  0.00000000000E+00  0.00000000000E+00  0.45593999997E+02  0.45594000000E+02  0.51100000000E-03 0.  1.
         11   -1    0    0    0    0 -0.00000000000E+00 -0.00000000000E+00 -0.45593999997E+02  0.45594000000E+02  0.51100000000E-03 0. -1.
    9900012    2    1    2    0    0  0.22470654684E+02  0.13741595726E+02 -0.34494366585E+02  0.47787273034E+02  0.20000009073E+02 0.  0.
        -12    1    1    2    0    0 -0.22470654684E+02 -0.13741595726E+02  0.34494366585E+02  0.43400726966E+02  0.00000000000E+00 0.  1.
         11    1    3    3    0    0  0.13718320718E+02  0.96028891695E+01 -0.30771197493E+02  0.35032476348E+02  0.51100000000E-03 0. -1.
        -11    1    3    3    0    0  0.68552038031E+01  0.35506333889E+01  0.85207157715E+00  0.77670356558E+01  0.51100000000E-03 0.  1.
        -12    1    3    3    0    0  0.18971301632E+01  0.58807316757E+00 -0.45752406698E+01  0.49877610301E+01  0.00000000000E+00 0.  1.
</event>
<event>
 7    1  0.3062695E-010  0.4778727E+02  0.7816164E-02  0.1312668E+00
        -11   -1    0    0    0    0  0.00000000000E+00  0.00000000000E+00  0.45593999997E+02  0.45594000000E+02  0.51100000000E-03 0.  1.
         11   -1    0    0    0    0 -0.00000000000E+00 -0.00000000000E+00 -0.45593999997E+02  0.45594000000E+02  0.51100000000E-03 0. -1.
    9900012    2    1    2    0    0 -0.28377586615E+02 -0.21692570888E+02 -0.24652958959E+02  0.47787269140E+02  0.19999991315E+02 0.  0.
        -12    1    1    2    0    0  0.28377586615E+02  0.21692570888E+02  0.24652958959E+02  0.43400730860E+02  0.00000000000E+00 0.  1.
         11    1    3    3    0    0 -0.21127932412E+02 -0.20276772074E+02 -0.18723261115E+02  0.34757697289E+02  0.51100000000E-03 0. -1.
        -11    1    3    3    0    0 -0.45798774000E+00 -0.39097665209E+00  0.22611718364E+01  0.23399815912E+01  0.51100000000E-03 0.  1.
         12    1    3    3    0    0 -0.67916664623E+01 -0.10248221612E+01 -0.81908696802E+01  0.10689590259E+02  0.00000000000E+00 0. -1.
</event>
<event>
 7    1  0.3062695E-010  0.4778727E+02  0.7816164E-02  0.1312668E+00
        -11   -1    0    0    0    0  0.00000000000E+00  0.00000000000E+00  0.45593999997E+02  0.45594000000E+02  0.51100000000E-03 0. -1.
         11   -1    0    0    0    0 -0.00000000000E+00 -0.00000000000E+00 -0.45593999997E+02  0.45594000000E+02  0.51100000000E-03 0.  1.
    9900012    2    1    2    0    0  0.75128991514E+01 -0.15019254787E+02  0.40020016160E+02  0.47787270035E+02  0.19999995399E+02 0.  0.
        -12    1    1    2    0    0 -0.75128991514E+01  0.15019254787E+02 -0.40020016160E+02  0.43400729965E+02  0.00000000000E+00 0.  1.
         11    1    3    3    0    0 -0.50405871738E+01 -0.27704639164E+01  0.17461912186E+02  0.18384813484E+02  0.51100000000E-03 0. -1.
        -11    1    3    3    0    0  0.13228875847E+02 -0.10562118100E+02  0.21225453467E+02  0.27149242533E+02  0.51100000000E-03 0.  1.
        -12    1    3    3    0    0 -0.67538952228E+00 -0.16866727709E+01  0.13326505061E+01  0.22532140187E+01  0.00000000000E+00 0.  1.
</event>
<event>
 7    1  0.3062695E-010  0.4778727E+02  0.7816164E-02  0.1312668E+00
        -11   -1    0    0    0    0  0.00000000000E+00  0.00000000000E+00  0.45593999997E+02  0.45594000000E+02  0.51100000000E-03 0.  1.
         11   -1    0    0    0    0 -0.00000000000E+00 -0.00000000000E+00 -0.45593999997E+02  0.45594000000E+02  0.51100000000E-03 0. -1.
    9900012    2    1    2    0    0 -0.34361050862E+02 -0.23082540451E+01 -0.26412372173E+02  0.47787271240E+02  0.20000000893E+02 0.  0.
        -12    1    1    2    0    0  0.34361050862E+02  0.23082540451E+01  0.26412372173E+02  0.43400728760E+02  0.00000000000E+00 0.  1.
         11    1    3    3    0    0 -0.80954399323E+01  0.21937904451E+01 -0.66479298462E+01  0.10702515392E+02  0.51100000000E-03 0. -1.
        -11    1    3    3    0    0 -0.76591221126E+01  0.52688742017E+01 -0.18702190935E+01  0.94826634765E+01  0.51100000000E-03 0.  1.
        -12    1    3    3    0    0 -0.18606488817E+02 -0.97709186919E+01 -0.17894223233E+02  0.27602092372E+02  0.00000000000E+00 0.  1.
</event>
<event>
 7    1  0.3062695E-010  0.4778727E+02  0.7816164E-02  0.1312668E+00
        -11   -1    0    0    0    0  0.00000000000E+00  0.00000000000E+00  0.45593999997E+02  0.45594000000E+02  0.51100000000E-03 0.  1.
         11   -1    0    0    0    0 -0.00000000000E+00 -0.00000000000E+00 -0.45593999997E+02  0.45594000000E+02  0.51100000000E-03 0. -1.
    9900012    2    1    2    0    0  0.65400142286E+01  0.47914645791E+01 -0.42636761891E+02  0.47787269781E+02  0.19999994242E+02 0.  0.
        -12    1    1    2    0    0 -0.65400142286E+01 -0.47914645791E+01  0.42636761891E+02  0.43400730219E+02  0.00000000000E+00 0.  1.
         11    1    3    3    0    0  0.15508087627E+00  0.57873344266E+00  0.15705503136E+01  0.16809553904E+01  0.51100000000E-03 0.  1.
        -11    1    3    3    0    0  0.20365110492E+01  0.74183213753E+01 -0.26244862326E+02  0.27349070698E+02  0.51100000000E-03 0. -1.
         12    1    3    3    0    0  0.43484223031E+01 -0.32055902389E+01 -0.17962449879E+02  0.18757243693E+02  0.00000000000E+00 0. -1.
</event>
<event>
 7    1  0.3062695E-010  0.4778727E+02  0.7816164E-02  0.1312668E+00
        -11   -1    0    0    0    0  0.00000000000E+00  0.00000000000E+00  0.45593999997E+02  0.45594000000E+02  0.51100000000E-03 0. -1.
         11   -1    0    0    0    0 -0.00000000000E+00 -0.00000000000E+00 -0.45593999997E+02  0.45594000000E+02  0.51100000000E-03 0.  1.
    9900012    2    1    2    0    0 -0.38097194846E+02  0.68481939884E+01  0.19629801758E+02  0.47787272666E+02  0.20000007395E+02 0.  0.
        -12    1    1    2    0    0  0.38097194846E+02 -0.68481939884E+01 -0.19629801758E+02  0.43400727334E+02  0.00000000000E+00 0.  1.
         11    1    3    3    0    0 -0.22965539169E+01  0.51741212228E+01  0.13549461982E+01  0.58207877287E+01  0.51100000000E-03 0.  1.
        -11    1    3    3    0    0 -0.24629546412E+02 -0.42393236155E+01  0.10365167429E+02  0.27055925733E+02  0.51100000000E-03 0. -1.
         12    1    3    3    0    0 -0.11171094517E+02  0.59133963811E+01  0.79096881301E+01  0.14910559204E+02  0.00000000000E+00 0. -1.
</event>
<event>
 7    1  0.3062695E-010  0.4778721E+02  0.7816164E-02  0.1312668E+00
        -11   -1    0    0    0    0  0.00000000000E+00  0.00000000000E+00  0.45593999997E+02  0.45594000000E+02  0.51100000000E-03 0.  1.
         11   -1    0    0    0    0 -0.00000000000E+00 -0.00000000000E+00 -0.45593999997E+02  0.45594000000E+02  0.51100000000E-03 0. -1.
    9900012    2    1    2    0    0 -0.10365225041E+02  0.26730310510E+02 -0.32583447374E+02  0.47787211609E+02  0.19999729010E+02 0.  0.
        -12    1    1    2    0    0  0.10365225041E+02 -0.26730310510E+02  0.32583447374E+02  0.43400788391E+02  0.00000000000E+00 0.  1.
         11    1    3    3    0    0 -0.90281662442E+01  0.19169364850E+02 -0.11272962434E+02  0.24001083659E+02  0.51100000000E-03 0. -1.
        -11    1    3    3    0    0  0.11508827672E+01 -0.27183670986E-01 -0.92510086481E+01  0.93223618984E+01  0.51100000000E-03 0.  1.
        -12    1    3    3    0    0 -0.24879415639E+01  0.75881293309E+01 -0.12059476292E+02  0.14463766052E+02  0.00000000000E+00 0.  1.
</event>
<event>
 7    1 -0.3062695E-010  0.4778728E+02  0.7816164E-02  0.1312668E+00
        -11   -1    0    0    0    0  0.00000000000E+00  0.00000000000E+00  0.45593999997E+02  0.45594000000E+02  0.51100000000E-03 0.  1.
         11   -1    0    0    0    0 -0.00000000000E+00 -0.00000000000E+00 -0.45593999997E+02  0.45594000000E+02  0.51100000000E-03 0. -1.
    9900012    2    1    2    0    0 -0.81620243410E+01  0.29737619673E+02 -0.30539770806E+02  0.47787282655E+02  0.20000052938E+02 0.  0.
        -12    1    1    2    0    0  0.81620243410E+01 -0.29737619673E+02  0.30539770806E+02  0.43400717345E+02  0.00000000000E+00 0.  1.
         11    1    3    3    0    0  0.19868326539E+01  0.43429809142E+01 -0.13725699934E+02  0.14532853339E+02  0.51100000000E-03 0. -1.
        -11    1    3    3    0    0  0.68325544608E+00  0.66270591545E+01 -0.18296900644E+01  0.69088723418E+01  0.51100000000E-03 0.  1.
         12    1    3    3    0    0 -0.10832112441E+02  0.18767579605E+02 -0.14984380807E+02  0.26345556975E+02  0.00000000000E+00 0. -1.
</event>
<event>
 7    1  0.3062695E-010  0.4778727E+02  0.7816164E-02  0.1312668E+00
        -11   -1    0    0    0    0  0.00000000000E+00  0.00000000000E+00  0.45593999997E+02  0.45594000000E+02  0.51100000000E-03 0.  1.
         11   -1    0    0    0    0 -0.00000000000E+00 -0.00000000000E+00 -0.45593999997E+02  0.45594000000E+02  0.51100000000E-03 0. -1.
    9900012    2    1    2    0    0  0.40622697891E+02 -0.84234150604E+01 -0.12746200058E+02  0.47787272804E+02  0.20000008021E+02 0.  0.
        -12    1    1    2    0    0 -0.40622697891E+02  0.84234150604E+01  0.12746200058E+02  0.43400727196E+02  0.00000000000E+00 0.  1.
         11    1    3    3    0    0  0.17140689772E+02 -0.66497878555E+01  0.33833551551E+01  0.18694117170E+02  0.51100000000E-03 0. -1.
        -11    1    3    3    0    0  0.83028291125E+01 -0.90266531262E+00 -0.90715774483E+01  0.12330664767E+02  0.51100000000E-03 0.  1.
         12    1    3    3    0    0  0.15179179007E+02 -0.87096189236E+00 -0.70579777648E+01  0.16762490867E+02  0.00000000000E+00 0. -1.
</event>
<event>
 7    1  0.3062695E-010  0.4778728E+02  0.7816164E-02  0.1312668E+00
        -11   -1    0    0    0    0  0.00000000000E+00  0.00000000000E+00  0.45593999997E+02  0.45594000000E+02  0.51100000000E-03 0.  1.
         11   -1    0    0    0    0 -0.00000000000E+00 -0.00000000000E+00 -0.45593999997E+02  0.45594000000E+02  0.51100000000E-03 0. -1.
    9900012    2    1    2    0    0 -0.10964593842E+02  0.54966202263E+00 -0.41989264710E+02  0.47787276534E+02  0.20000025029E+02 0.  0.
        -12    1    1    2    0    0  0.10964593842E+02 -0.54966202263E+00  0.41989264710E+02  0.43400723466E+02  0.00000000000E+00 0.  1.
         11    1    3    3    0    0  0.52116000261E+00  0.36093012924E+00  0.42442025797E+00  0.76289653493E+00  0.51100000000E-03 0.  1.
        -11    1    3    3    0    0  0.76398740585E+00  0.14820510215E+01 -0.28061737924E+02  0.28111230631E+02  0.51100000000E-03 0. -1.
        -12    1    3    3    0    0 -0.12249741251E+02 -0.12933191281E+01 -0.14351947044E+02  0.18913149368E+02  0.00000000000E+00 0.  1.
</event>
<event>
 7    1  0.3062695E-010  0.4778722E+02  0.7816164E-02  0.1312668E+00
        -11   -1    0    0    0    0  0.00000000000E+00  0.00000000000E+00  0.45593999997E+02  0.45594000000E+02  0.51100000000E-03 0.  1.
         11   -1    0    0    0    0 -0.00000000000E+00 -0.00000000000E+00 -0.45593999997E+02  0.45594000000E+02  0.51100000000E-03 0. -1.
    9900012    2    1    2    0    0 -0.41818670106E+01 -0.34761059327E+02 -0.25647772039E+02  0.47787222728E+02  0.19999779704E+02 0.  0.
        -12    1    1    2    0    0  0.41818670106E+01  0.34761059327E+02  0.25647772039E+02  0.43400777272E+02  0.00000000000E+00 0.  1.
         11    1    3    3    0    0  0.16127261465E+01 -0.20858763162E+02 -0.23870843895E+02  0.31741236189E+02  0.51100000000E-03 0. -1.
        -11    1    3    3    0    0 -0.53035491426E+01 -0.85097770944E+01 -0.30552808765E+01  0.10482303239E+02  0.51100000000E-03 0.  1.
         12    1    3    3    0    0 -0.49104401455E+00 -0.53925190704E+01  0.12783527322E+01  0.55636832995E+01  0.00000000000E+00 0. -1.
</event>
<event>
 7    1  0.3062695E-010  0.4778728E+02  0.7816164E-02  0.1312668E+00
        -11   -1    0    0    0    0  0.00000000000E+00  0.00000000000E+00  0.45593999997E+02  0.45594000000E+02  0.51100000000E-03 0.  1.
         11   -1    0    0    0    0 -0.00000000000E+00 -0.00000000000E+00 -0.45593999997E+02  0.45594000000E+02  0.51100000000E-03 0. -1.
    9900012    2    1    2    0    0 -0.11851590820E+02 -0.31455000362E+02 -0.27454419665E+02  0.47787280975E+02  0.20000045278E+02 0.  0.
        -12    1    1    2    0    0  0.11851590820E+02  0.31455000362E+02  0.27454419665E+02  0.43400719025E+02  0.00000000000E+00 0.  1.
         11    1    3    3    0    0 -0.11672268680E+02 -0.20795931474E+02 -0.27932943385E+02  0.36728217332E+02  0.51100000000E-03 0. -1.
        -11    1    3    3    0    0 -0.30651939684E+00 -0.92233893583E+01 -0.61638287183E+00  0.92490428425E+01  0.51100000000E-03 0.  1.
         12    1    3    3    0    0  0.12719725668E+00 -0.14356795300E+01  0.10949065914E+01  0.18100208007E+01  0.00000000000E+00 0. -1.
</event>
<event>
 7    1  0.3062695E-010  0.4778727E+02  0.7816164E-02  0.1312668E+00
        -11   -1    0    0    0    0  0.00000000000E+00  0.00000000000E+00  0.45593999997E+02  0.45594000000E+02  0.51100000000E-03 0. -1.
         11   -1    0    0    0    0 -0.00000000000E+00 -0.00000000000E+00 -0.45593999997E+02  0.45594000000E+02  0.51100000000E-03 0.  1.
    9900012    2    1    2    0    0 -0.28277139107E+02  0.32739969565E+02 -0.34815400359E+01  0.47787270464E+02  0.19999997353E+02 0.  0.
        -12    1    1    2    0    0  0.28277139107E+02 -0.32739969565E+02  0.34815400359E+01  0.43400729536E+02  0.00000000000E+00 0.  1.
         11    1    3    3    0    0 -0.14112827987E+02  0.14971352728E+02  0.57980360710E+01  0.21375933637E+02  0.51100000000E-03 0. -1.
        -11    1    3    3    0    0 -0.12208079028E+02  0.79247662481E+01 -0.68449279912E+01  0.16083909758E+02  0.51100000000E-03 0.  1.
        -12    1    3    3    0    0 -0.19562320925E+01  0.98438505889E+01 -0.24346481157E+01  0.10327427069E+02  0.00000000000E+00 0.  1.
</event>
<event>
 7    1  0.3062695E-010  0.4778728E+02  0.7816164E-02  0.1312668E+00
        -11   -1    0    0    0    0  0.00000000000E+00  0.00000000000E+00  0.45593999997E+02  0.45594000000E+02  0.51100000000E-03 0.  1.
         11   -1    0    0    0    0 -0.00000000000E+00 -0.00000000000E+00 -0.45593999997E+02  0.45594000000E+02  0.51100000000E-03 0. -1.
    9900012    2    1    2    0    0 -0.32818350035E+02 -0.16801972979E+02 -0.22896997019E+02  0.47787275726E+02  0.20000021346E+02 0.  0.
        -12    1    1    2    0    0  0.32818350035E+02  0.16801972979E+02  0.22896997019E+02  0.43400724274E+02  0.00000000000E+00 0.  1.
         11    1    3    3    0    0 -0.18370911250E+01  0.10524660737E+01  0.23197448273E+01  0.31406695087E+01  0.51100000000E-03 0. -1.
        -11    1    3    3    0    0 -0.42662782956E+01 -0.65802950517E+01 -0.56592534408E+01  0.96710166596E+01  0.51100000000E-03 0.  1.
         12    1    3    3    0    0 -0.26714980615E+02 -0.11274144001E+02 -0.19557488406E+02  0.34975589558E+02  0.00000000000E+00 0. -1.
</event>
<event>
 7    1  0.3062695E-010  0.4778729E+02  0.7816164E-02  0.1312668E+00
        -11   -1    0    0    0    0  0.00000000000E+00  0.00000000000E+00  0.45593999997E+02  0.45594000000E+02  0.51100000000E-03 0. -1.
         11   -1    0    0    0    0 -0.00000000000E+00 -0.00000000000E+00 -0.45593999997E+02  0.45594000000E+02  0.51100000000E-03 0.  1.
    9900012    2    1    2    0    0  0.28193060357E+02  0.25116327075E+02  0.21399604230E+02  0.47787290337E+02  0.20000087963E+02 0.  0.
        -12    1    1    2    0    0 -0.28193060357E+02 -0.25116327075E+02 -0.21399604230E+02  0.43400709663E+02  0.00000000000E+00 0.  1.
         11    1    3    3    0    0  0.77760508250E+01  0.10278092241E+02  0.15584218467E+02  0.20223105895E+02  0.51100000000E-03 0.  1.
        -11    1    3    3    0    0  0.98417378220E+01  0.84338259835E+01 -0.17364121612E+01  0.13076863214E+02  0.51100000000E-03 0. -1.
         12    1    3    3    0    0  0.10575271710E+02  0.64044088502E+01  0.75517979236E+01  0.14487321228E+02  0.00000000000E+00 0. -1.
</event>
<event>
 7    1  0.3062695E-010  0.4778727E+02  0.7816164E-02  0.1312668E+00
        -11   -1    0    0    0    0  0.00000000000E+00  0.00000000000E+00  0.45593999997E+02  0.45594000000E+02  0.51100000000E-03 0.  1.
         11   -1    0    0    0    0 -0.00000000000E+00 -0.00000000000E+00 -0.45593999997E+02  0.45594000000E+02  0.51100000000E-03 0. -1.
    9900012    2    1    2    0    0 -0.74976296949E+00  0.12163676521E+02 -0.41654606541E+02  0.47787269394E+02  0.19999992475E+02 0.  0.
        -12    1    1    2    0    0  0.74976296949E+00 -0.12163676521E+02  0.41654606541E+02  0.43400730606E+02  0.00000000000E+00 0.  1.
         11    1    3    3    0    0  0.28609727459E+01  0.13781241990E+02 -0.31456352046E+02  0.34461716152E+02  0.51100000000E-03 0. -1.
        -11    1    3    3    0    0 -0.40906909141E+01  0.12879377137E+01 -0.93089198059E+01  0.10249318217E+02  0.51100000000E-03 0.  1.
         12    1    3    3    0    0  0.47995519869E+00 -0.29055031823E+01 -0.88933468922E+00  0.30762350243E+01  0.00000000000E+00 0. -1.
</event>
<event>
 7    1  0.3662555E-010  0.4778727E+02  0.7816164E-02  0.1312668E+00
        -11   -1    0    0    0    0  0.00000000000E+00  0.00000000000E+00  0.45593999997E+02  0.45594000000E+02  0.51100000000E-03 0.  1.
         11   -1    0    0    0    0 -0.00000000000E+00 -0.00000000000E+00 -0.45593999997E+02  0.45594000000E+02  0.51100000000E-03 0. -1.
    9900012    2    1    2    0    0 -0.26714644746E+02  0.26163062736E+02 -0.22032813389E+02  0.47787274644E+02  0.20000016412E+02 0.  0.
        -12    1    1    2    0    0  0.26714644746E+02 -0.26163062736E+02  0.22032813389E+02  0.43400725356E+02  0.00000000000E+00 0.  1.
         11    1    3    3    0    0 -0.15372771240E+02  0.89141711932E+01 -0.17428165221E+02  0.24890268920E+02  0.51100000000E-03 0. -1.
        -11    1    3    3    0    0 -0.41631439221E+01  0.13587633973E+02 -0.16181747626E+01  0.14302938653E+02  0.51100000000E-03 0.  1.
        -12    1    3    3    0    0 -0.71787295831E+01  0.36612575698E+01 -0.29864734046E+01  0.85940670708E+01  0.00000000000E+00 0.  1.
</event>
<event>
 7    1  0.3062695E-010  0.4778728E+02  0.7816164E-02  0.1312668E+00
        -11   -1    0    0    0    0  0.00000000000E+00  0.00000000000E+00  0.45593999997E+02  0.45594000000E+02  0.51100000000E-03 0.  1.
         11   -1    0    0    0    0 -0.00000000000E+00 -0.00000000000E+00 -0.45593999997E+02  0.45594000000E+02  0.51100000000E-03 0. -1.
    9900012    2    1    2    0    0 -0.16235615045E+02  0.13651550543E+02 -0.37863740262E+02  0.47787275873E+02  0.20000022014E+02 0.  0.
        -12    1    1    2    0    0  0.16235615045E+02 -0.13651550543E+02  0.37863740262E+02  0.43400724127E+02  0.00000000000E+00 0.  1.
         11    1    3    3    0    0 -0.12360652297E+02  0.78470762808E+00 -0.16879544634E+02  0.20936105621E+02  0.51100000000E-03 0. -1.
        -11    1    3    3    0    0 -0.58805621967E+01  0.12780424850E+02 -0.15119189771E+02  0.20652122668E+02  0.51100000000E-03 0.  1.
        -12    1    3    3    0    0  0.20055994495E+01  0.86418065023E-01 -0.58650058576E+01  0.61990475836E+01  0.00000000000E+00 0.  1.
</event>
<event>
 7    1  0.3062695E-010  0.4778727E+02  0.7816164E-02  0.1312668E+00
        -11   -1    0    0    0    0  0.00000000000E+00  0.00000000000E+00  0.45593999997E+02  0.45594000000E+02  0.51100000000E-03 0.  1.
         11   -1    0    0    0    0 -0.00000000000E+00 -0.00000000000E+00 -0.45593999997E+02  0.45594000000E+02  0.51100000000E-03 0. -1.
    9900012    2    1    2    0    0 -0.34640694958E+02  0.15569293007E+01 -0.26100218724E+02  0.47787271971E+02  0.20000004225E+02 0.  0.
        -12    1    1    2    0    0  0.34640694958E+02 -0.15569293007E+01  0.26100218724E+02  0.43400728029E+02  0.00000000000E+00 0.  1.
         11    1    3    3    0    0  0.28678909207E+00  0.35372313736E+01 -0.29565680887E+01  0.46190419892E+01  0.51100000000E-03 0. -1.
        -11    1    3    3    0    0 -0.13815850051E+02 -0.57859447301E+01 -0.90307524998E+01  0.17490264722E+02  0.51100000000E-03 0.  1.
        -12    1    3    3    0    0 -0.21111633999E+02  0.38056426572E+01 -0.14112898135E+02  0.25677965260E+02  0.00000000000E+00 0.  1.
</event>
<event>
 7    1  0.3062695E-010  0.4778727E+02  0.7816164E-02  0.1312668E+00
        -11   -1    0    0    0    0  0.00000000000E+00  0.00000000000E+00  0.45593999997E+02  0.45594000000E+02  0.51100000000E-03 0.  1.
         11   -1    0    0    0    0 -0.00000000000E+00 -0.00000000000E+00 -0.45593999997E+02  0.45594000000E+02  0.51100000000E-03 0. -1.
    9900012    2    1    2    0    0 -0.68211242053E+01 -0.41442787182E+02 -0.10935761637E+02  0.47787271580E+02  0.20000002441E+02 0.  0.
        -12    1    1    2    0    0  0.68211242053E+01  0.41442787182E+02  0.10935761637E+02  0.43400728420E+02  0.00000000000E+00 0.  1.
         11    1    3    3    0    0 -0.13689776961E+01 -0.60850086477E+01 -0.10112334579E+02  0.11881108580E+02  0.51100000000E-03 0. -1.
        -11    1    3    3    0    0 -0.34124178188E+01 -0.28120453367E+02  0.12729375465E+00  0.28327031205E+02  0.51100000000E-03 0.  1.
         12    1    3    3    0    0 -0.20397286903E+01 -0.72373251675E+01 -0.95072081235E+00  0.75791317955E+01  0.00000000000E+00 0. -1.
</event>
<event>
 7    1  0.3062695E-010  0.4778727E+02  0.7816164E-02  0.1312668E+00
        -11   -1    0    0    0    0  0.00000000000E+00  0.00000000000E+00  0.45593999997E+02  0.45594000000E+02  0.51100000000E-03 0.  1.
         11   -1    0    0    0    0 -0.00000000000E+00 -0.00000000000E+00 -0.45593999997E+02  0.45594000000E+02  0.51100000000E-03 0. -1.
    9900012    2    1    2    0    0  0.16215162997E+02  0.16826918218E+02 -0.36572487822E+02  0.47787267826E+02  0.19999985327E+02 0.  0.
        -12    1    1    2    0    0 -0.16215162997E+02 -0.16826918218E+02  0.36572487822E+02  0.43400732174E+02  0.00000000000E+00 0.  1.
         11    1    3    3    0    0  0.35461189462E+01  0.83485701661E+01 -0.23200545656E+02  0.24910618266E+02  0.51100000000E-03 0. -1.
        -11    1    3    3    0    0  0.33487490007E+01  0.33586953374E+00  0.13654084524E+01  0.36319786228E+01  0.51100000000E-03 0.  1.
        -12    1    3    3    0    0  0.93202950505E+01  0.81424785182E+01 -0.14737350618E+02  0.19244670938E+02  0.00000000000E+00 0.  1.
</event>
<event>
 7    1  0.3062695E-010  0.4778727E+02  0.7816164E-02  0.1312668E+00
        -11   -1    0    0    0    0  0.00000000000E+00  0.00000000000E+00  0.45593999997E+02  0.45594000000E+02  0.51100000000E-03 0. -1.
         11   -1    0    0    0    0 -0.00000000000E+00 -0.00000000000E+00 -0.45593999997E+02  0.45594000000E+02  0.51100000000E-03 0.  1.
    9900012    2    1    2    0    0  0.12054988593E+01 -0.42726481278E+02  0.75244825856E+01  0.47787271111E+02  0.20000000304E+02 0.  0.
        -12    1    1    2    0    0 -0.12054988593E+01  0.42726481278E+02 -0.75244825856E+01  0.43400728889E+02  0.00000000000E+00 0.  1.
         11    1    3    3    0    0 -0.36925807007E+01 -0.34984670623E+02  0.61388016476E+00  0.35184359877E+02  0.51100000000E-03 0. -1.
        -11    1    3    3    0    0  0.35729743466E+01 -0.41635638744E+01  0.68635368967E+01  0.87868964266E+01  0.51100000000E-03 0.  1.
         12    1    3    3    0    0  0.13251052134E+01 -0.35782467809E+01  0.47065524196E-01  0.38160148080E+01  0.00000000000E+00 0. -1.
</event>
<event>
 7    1  0.3062695E-010  0.4778727E+02  0.7816164E-02  0.1312668E+00
        -11   -1    0    0    0    0  0.00000000000E+00  0.00000000000E+00  0.45593999997E+02  0.45594000000E+02  0.51100000000E-03 0. -1.
         11   -1    0    0    0    0 -0.00000000000E+00 -0.00000000000E+00 -0.45593999997E+02  0.45594000000E+02  0.51100000000E-03 0.  1.
    9900012    2    1    2    0    0 -0.26317554927E+02 -0.13068842166E+02  0.31940804284E+02  0.47787270614E+02  0.19999998039E+02 0.  0.
        -12    1    1    2    0    0  0.26317554927E+02  0.13068842166E+02 -0.31940804284E+02  0.43400729386E+02  0.00000000000E+00 0.  1.
         11    1    3    3    0    0 -0.20185456356E+02  0.30089633828E+00  0.18275911038E+02  0.27231454450E+02  0.51100000000E-03 0. -1.
        -11    1    3    3    0    0 -0.50143925442E+01 -0.10648097347E+02  0.81848628172E+01  0.14335902110E+02  0.51100000000E-03 0.  1.
         12    1    3    3    0    0 -0.11177060264E+01 -0.27216411571E+01  0.54800304286E+01  0.62199140547E+01  0.00000000000E+00 0. -1.
</event>
<event>
 7    1  0.3062695E-010  0.4778727E+02  0.7816164E-02  0.1312668E+00
        -11   -1    0    0    0    0  0.00000000000E+00  0.00000000000E+00  0.45593999997E+02  0.45594000000E+02  0.51100000000E-03 0.  1.
         11   -1    0    0    0    0 -0.00000000000E+00 -0.00000000000E+00 -0.45593999997E+02  0.45594000000E+02  0.51100000000E-03 0. -1.
    9900012    2    1    2    0    0 -0.25511353194E+02 -0.41288674692E+01 -0.34867557057E+02  0.47787271624E+02  0.20000002644E+02 0.  0.
        -12    1    1    2    0    0  0.25511353194E+02  0.41288674692E+01  0.34867557057E+02  0.43400728376E+02  0.00000000000E+00 0.  1.
         11    1    3    3    0    0 -0.13775931273E+02 -0.14620318249E+01 -0.85603601883E+01  0.16284765466E+02  0.51100000000E-03 0. -1.
        -11    1    3    3    0    0 -0.11837282667E+01  0.34408864712E+01 -0.12797896081E+02  0.13305151509E+02  0.51100000000E-03 0.  1.
        -12    1    3    3    0    0 -0.10551693655E+02 -0.61077221155E+01 -0.13509300788E+02  0.18197354649E+02  0.00000000000E+00 0.  1.
</event>
<event>
 7    1  0.3062695E-010  0.4778727E+02  0.7816164E-02  0.1312668E+00
        -11   -1    0    0    0    0  0.00000000000E+00  0.00000000000E+00  0.45593999997E+02  0.45594000000E+02  0.51100000000E-03 0.  1.
         11   -1    0    0    0    0 -0.00000000000E+00 -0.00000000000E+00 -0.45593999997E+02  0.45594000000E+02  0.51100000000E-03 0. -1.
    9900012    2    1    2    0    0 -0.17123850768E+02  0.29623523913E+01 -0.39769606022E+02  0.47787270053E+02  0.19999995478E+02 0.  0.
        -12    1    1    2    0    0  0.17123850768E+02 -0.29623523913E+01  0.39769606022E+02  0.43400729947E+02  0.00000000000E+00 0.  1.
         11    1    3    3    0    0 -0.12503951232E+01 -0.52899565226E+01 -0.14700382666E+02  0.15673173858E+02  0.51100000000E-03 0.  1.
        -11    1    3    3    0    0 -0.56859582934E+01  0.66701338710E+01 -0.66353862894E+01  0.10993141455E+02  0.51100000000E-03 0. -1.
         12    1    3    3    0    0 -0.10187497352E+02  0.15821750428E+01 -0.18433837066E+02  0.21120954740E+02  0.00000000000E+00 0. -1.
</event>
<event>
 7    1  0.3062695E-010  0.4778725E+02  0.7816164E-02  0.1312668E+00
        -11   -1    0    0    0    0  0.00000000000E+00  0.00000000000E+00  0.45593999997E+02  0.45594000000E+02  0.51100000000E-03 0.  1.
         11   -1    0    0    0    0 -0.00000000000E+00 -0.00000000000E+00 -0.45593999997E+02  0.45594000000E+02  0.51100000000E-03 0. -1.
    9900012    2    1    2    0    0  0.33513049197E+02 -0.23198596708E+02 -0.14910580800E+02  0.47787253745E+02  0.19999921125E+02 0.  0.
        -12    1    1    2    0    0 -0.33513049197E+02  0.23198596708E+02  0.14910580800E+02  0.43400746255E+02  0.00000000000E+00 0.  1.
         11    1    3    3    0    0  0.10157788384E+02 -0.80825642421E+01 -0.72808479427E+01  0.14883522991E+02  0.51100000000E-03 0. -1.
        -11    1    3    3    0    0  0.35041431863E+01 -0.11206279112E+02 -0.35247913470E+01  0.12259031989E+02  0.51100000000E-03 0.  1.
        -12    1    3    3    0    0  0.19851117626E+02 -0.39097533540E+01 -0.41049415106E+01  0.20644698765E+02  0.00000000000E+00 0.  1.
</event>
<event>
 7    1  0.3062695E-010  0.4778727E+02  0.7816164E-02  0.1312668E+00
        -11   -1    0    0    0    0  0.00000000000E+00  0.00000000000E+00  0.45593999997E+02  0.45594000000E+02  0.51100000000E-03 0. -1.
         11   -1    0    0    0    0 -0.00000000000E+00 -0.00000000000E+00 -0.45593999997E+02  0.45594000000E+02  0.51100000000E-03 0.  1.
    9900012    2    1    2    0    0  0.17227707211E+02  0.30909566786E+02  0.25128229516E+02  0.47787272664E+02  0.20000007384E+02 0.  0.
        -12    1    1    2    0    0 -0.17227707211E+02 -0.30909566786E+02 -0.25128229516E+02  0.43400727336E+02  0.00000000000E+00 0.  1.
         11    1    3    3    0    0  0.89084577040E+01  0.84780798692E+01  0.15778306576E+02  0.20004834806E+02  0.51100000000E-03 0. -1.
        -11    1    3    3    0    0  0.79411310020E+01  0.10749136414E+02  0.96824768643E+00  0.13399365622E+02  0.51100000000E-03 0.  1.
         12    1    3    3    0    0  0.37811850457E+00  0.11682350503E+02  0.83816752538E+01  0.14383072236E+02  0.00000000000E+00 0. -1.
</event>
<event>
 7    1  0.3062695E-010  0.4778727E+02  0.7816164E-02  0.1312668E+00
        -11   -1    0    0    0    0  0.00000000000E+00  0.00000000000E+00  0.45593999997E+02  0.45594000000E+02  0.51100000000E-03 0. -1.
         11   -1    0    0    0    0 -0.00000000000E+00 -0.00000000000E+00 -0.45593999997E+02  0.45594000000E+02  0.51100000000E-03 0.  1.
    9900012    2    1    2    0    0 -0.25354199131E+02  0.29225330702E+02  0.19663884213E+02  0.47787266014E+02  0.19999977065E+02 0.  0.
        -12    1    1    2    0    0  0.25354199131E+02 -0.29225330702E+02 -0.19663884213E+02  0.43400733986E+02  0.00000000000E+00 0.  1.
         11    1    3    3    0    0  0.26159821307E+01  0.13955052747E+01  0.25409046479E+01  0.39047399620E+01  0.51100000000E-03 0. -1.
        -11    1    3    3    0    0 -0.38493483751E+01  0.47895231143E+01 -0.48481548756E+00  0.61637700228E+01  0.51100000000E-03 0.  1.
         12    1    3    3    0    0 -0.24120832886E+02  0.23040302313E+02  0.17607795053E+02  0.37718756029E+02  0.00000000000E+00 0. -1.
</event>
<event>
 7    1  0.3062695E-010  0.4778730E+02  0.7816164E-02  0.1312668E+00
        -11   -1    0    0    0    0  0.00000000000E+00  0.00000000000E+00  0.45593999997E+02  0.45594000000E+02  0.51100000000E-03 0.  1.
         11   -1    0    0    0    0 -0.00000000000E+00 -0.00000000000E+00 -0.45593999997E+02  0.45594000000E+02  0.51100000000E-03 0. -1.
    9900012    2    1    2    0    0  0.69276726511E+01  0.13394614496E+02 -0.40696594759E+02  0.47787295273E+02  0.20000110467E+02 0.  0.
        -12    1    1    2    0    0 -0.69276726511E+01 -0.13394614496E+02  0.40696594759E+02  0.43400704727E+02  0.00000000000E+00 0.  1.
         11    1    3    3    0    0  0.60381091228E+01  0.13715848525E+02 -0.26044511757E+02  0.30048292056E+02  0.51100000000E-03 0. -1.
        -11    1    3    3    0    0 -0.39508033426E+00 -0.24252914078E+00 -0.15923271787E+02  0.15930018629E+02  0.51100000000E-03 0.  1.
         12    1    3    3    0    0  0.12846438625E+01 -0.78704888018E-01  0.12711887854E+01  0.18089845884E+01  0.00000000000E+00 0. -1.
</event>
<event>
 7    1  0.3062695E-010  0.4778726E+02  0.7816164E-02  0.1312668E+00
        -11   -1    0    0    0    0  0.00000000000E+00  0.00000000000E+00  0.45593999997E+02  0.45594000000E+02  0.51100000000E-03 0. -1.
         11   -1    0    0    0    0 -0.00000000000E+00 -0.00000000000E+00 -0.45593999997E+02  0.45594000000E+02  0.51100000000E-03 0.  1.
    9900012    2    1    2    0    0  0.24525786929E+02  0.22693348473E+02  0.27696964543E+02  0.47787261132E+02  0.19999954804E+02 0.  0.
        -12    1    1    2    0    0 -0.24525786929E+02 -0.22693348473E+02 -0.27696964543E+02  0.43400738868E+02  0.00000000000E+00 0.  1.
         11    1    3    3    0    0  0.94245562201E+01  0.91529225837E+01  0.17382415226E+01  0.13252159659E+02  0.51100000000E-03 0. -1.
        -11    1    3    3    0    0 -0.39738721651E-01 -0.11680645545E+01  0.12726053834E+00  0.11756485339E+01  0.51100000000E-03 0.  1.
         12    1    3    3    0    0  0.15140969431E+02  0.14708490444E+02  0.25831462482E+02  0.33359452939E+02  0.00000000000E+00 0. -1.
</event>
<event>
 7    1  0.3062695E-010  0.4778728E+02  0.7816164E-02  0.1312668E+00
        -11   -1    0    0    0    0  0.00000000000E+00  0.00000000000E+00  0.45593999997E+02  0.45594000000E+02  0.51100000000E-03 0.  1.
         11   -1    0    0    0    0 -0.00000000000E+00 -0.00000000000E+00 -0.45593999997E+02  0.45594000000E+02  0.51100000000E-03 0. -1.
    9900012    2    1    2    0    0 -0.31029573704E+01  0.39965267231E+02 -0.16636463152E+02  0.47787276094E+02  0.20000023024E+02 0.  0.
        -12    1    1    2    0    0  0.31029573704E+01 -0.39965267231E+02  0.16636463152E+02  0.43400723906E+02  0.00000000000E+00 0.  1.
         11    1    3    3    0    0 -0.91306767873E+01  0.24926176294E+02 -0.11158384589E+02  0.28795712703E+02  0.51100000000E-03 0. -1.
        -11    1    3    3    0    0  0.29662550934E+01  0.22662951830E+01  0.16113411064E+01  0.40658558210E+01  0.51100000000E-03 0.  1.
         12    1    3    3    0    0  0.30614643234E+01  0.12772795755E+02 -0.70894196700E+01  0.14925707570E+02  0.00000000000E+00 0. -1.
</event>
<event>
 7    1  0.3062695E-010  0.4778728E+02  0.7816164E-02  0.1312668E+00
        -11   -1    0    0    0    0  0.00000000000E+00  0.00000000000E+00  0.45593999997E+02  0.45594000000E+02  0.51100000000E-03 0.  1.
         11   -1    0    0    0    0 -0.00000000000E+00 -0.00000000000E+00 -0.45593999997E+02  0.45594000000E+02  0.51100000000E-03 0. -1.
    9900012    2    1    2    0    0  0.15926897177E+02 -0.12419209516E+02 -0.38415099491E+02  0.47787277799E+02  0.20000030795E+02 0.  0.
        -12    1    1    2    0    0 -0.15926897177E+02  0.12419209516E+02  0.38415099491E+02  0.43400722201E+02  0.00000000000E+00 0.  1.
         11    1    3    3    0    0  0.85277039221E+01 -0.82677324970E+01 -0.22632970811E+02  0.25560291525E+02  0.51100000000E-03 0. -1.
        -11    1    3    3    0    0 -0.36544017229E+01 -0.23463706533E+01 -0.32836791917E+01  0.54445070016E+01  0.51100000000E-03 0.  1.
        -12    1    3    3    0    0  0.11053594978E+02 -0.18051063656E+01 -0.12498449488E+02  0.16782479272E+02  0.00000000000E+00 0.  1.
</event>
<event>
 7    1  0.3062695E-010  0.4778727E+02  0.7816164E-02  0.1312668E+00
        -11   -1    0    0    0    0  0.00000000000E+00  0.00000000000E+00  0.45593999997E+02  0.45594000000E+02  0.51100000000E-03 0.  1.
         11   -1    0    0    0    0 -0.00000000000E+00 -0.00000000000E+00 -0.45593999997E+02  0.45594000000E+02  0.51100000000E-03 0. -1.
    9900012    2    1    2    0    0 -0.83704985598E+01  0.30287324065E+02 -0.29937199817E+02  0.47787272148E+02  0.20000005032E+02 0.  0.
        -12    1    1    2    0    0  0.83704985598E+01 -0.30287324065E+02  0.29937199817E+02  0.43400727852E+02  0.00000000000E+00 0.  1.
         11    1    3    3    0    0 -0.11745216329E+02  0.14435122581E+02 -0.13325576238E+02  0.22888727638E+02  0.51100000000E-03 0. -1.
        -11    1    3    3    0    0  0.30357980306E+01  0.18487316765E+01 -0.56647098510E+00  0.35992732784E+01  0.51100000000E-03 0.  1.
         12    1    3    3    0    0  0.33891973809E+00  0.14003469808E+02 -0.16045152594E+02  0.21299271232E+02  0.00000000000E+00 0. -1.
</event>
<event>
 7    1  0.3062695E-010  0.4778728E+02  0.7816164E-02  0.1312668E+00
        -11   -1    0    0    0    0  0.00000000000E+00  0.00000000000E+00  0.45593999997E+02  0.45594000000E+02  0.51100000000E-03 0. -1.
         11   -1    0    0    0    0 -0.00000000000E+00 -0.00000000000E+00 -0.45593999997E+02  0.45594000000E+02  0.51100000000E-03 0.  1.
    9900012    2    1    2    0    0 -0.26316385951E+02  0.17504578824E+02  0.29743234532E+02  0.47787280539E+02  0.20000043288E+02 0.  0.
        -12    1    1    2    0    0  0.26316385951E+02 -0.17504578824E+02 -0.29743234532E+02  0.43400719461E+02  0.00000000000E+00 0.  1.
         11    1    3    3    0    0 -0.18975824395E+02  0.14265912341E+02  0.18260767070E+02  0.29950856092E+02  0.51100000000E-03 0. -1.
        -11    1    3    3    0    0 -0.45545454370E+01  0.28270043054E-01  0.12636148340E+02  0.13431936885E+02  0.51100000000E-03 0.  1.
         12    1    3    3    0    0 -0.27860161196E+01  0.32103964394E+01 -0.11536808785E+01  0.44044875623E+01  0.00000000000E+00 0. -1.
</event>
<event>
 7    1  0.3062695E-010  0.4778726E+02  0.7816164E-02  0.1312668E+00
        -11   -1    0    0    0    0  0.00000000000E+00  0.00000000000E+00  0.45593999997E+02  0.45594000000E+02  0.51100000000E-03 0.  1.
         11   -1    0    0    0    0 -0.00000000000E+00 -0.00000000000E+00 -0.45593999997E+02  0.45594000000E+02  0.51100000000E-03 0. -1.
    9900012    2    1    2    0    0 -0.18706497414E+02 -0.36805899844E+02 -0.13379716812E+02  0.47787261172E+02  0.19999954987E+02 0.  0.
        -12    1    1    2    0    0  0.18706497414E+02  0.36805899844E+02  0.13379716812E+02  0.43400738828E+02  0.00000000000E+00 0.  1.
         11    1    3    3    0    0 -0.30284426644E+01 -0.10865561991E+02  0.20960352145E+01  0.11472805509E+02  0.51100000000E-03 0. -1.
        -11    1    3    3    0    0 -0.14120159369E+02 -0.11928029801E+02 -0.11061234033E+02  0.21540837824E+02  0.51100000000E-03 0.  1.
        -12    1    3    3    0    0 -0.15578953801E+01 -0.14012308052E+02 -0.44145179936E+01  0.14773617840E+02  0.00000000000E+00 0.  1.
</event>
<event>
 7    1  0.3062695E-010  0.4778727E+02  0.7816164E-02  0.1312668E+00
        -11   -1    0    0    0    0  0.00000000000E+00  0.00000000000E+00  0.45593999997E+02  0.45594000000E+02  0.51100000000E-03 0.  1.
         11   -1    0    0    0    0 -0.00000000000E+00 -0.00000000000E+00 -0.45593999997E+02  0.45594000000E+02  0.51100000000E-03 0. -1.
    9900012    2    1    2    0    0  0.36692815522E+02  0.17699789949E+02  0.14965904795E+02  0.47787267500E+02  0.19999983841E+02 0.  0.
        -12    1    1    2    0    0 -0.36692815522E+02 -0.17699789949E+02 -0.14965904795E+02  0.43400732500E+02  0.00000000000E+00 0.  1.
         11    1    3    3    0    0  0.15158132972E+02  0.17455711516E+01  0.22244168103E+01  0.15419599354E+02  0.51100000000E-03 0. -1.
        -11    1    3    3    0    0  0.12479063798E+02  0.13882519756E+02  0.13515293329E+02  0.23045922462E+02  0.51100000000E-03 0.  1.
        -12    1    3    3    0    0  0.90556187519E+01  0.20716990415E+01 -0.77380534497E+00  0.93217456847E+01  0.00000000000E+00 0.  1.
</event>
<event>
 7    1  0.3062695E-010  0.4778727E+02  0.7816164E-02  0.1312668E+00
        -11   -1    0    0    0    0  0.00000000000E+00  0.00000000000E+00  0.45593999997E+02  0.45594000000E+02  0.51100000000E-03 0.  1.
         11   -1    0    0    0    0 -0.00000000000E+00 -0.00000000000E+00 -0.45593999997E+02  0.45594000000E+02  0.51100000000E-03 0. -1.
    9900012    2    1    2    0    0 -0.14112907444E+02 -0.29955361995E+02 -0.28055750045E+02  0.47787274437E+02  0.20000015469E+02 0.  0.
        -12    1    1    2    0    0  0.14112907444E+02  0.29955361995E+02  0.28055750045E+02  0.43400725563E+02  0.00000000000E+00 0.  1.
         11    1    3    3    0    0 -0.14948476885E+01 -0.29799873699E+01  0.12272587505E+01  0.35526129312E+01  0.51100000000E-03 0.  1.
        -11    1    3    3    0    0  0.12974475160E+01 -0.91724077650E+01 -0.14586770975E+02  0.17279766260E+02  0.51100000000E-03 0. -1.
        -12    1    3    3    0    0 -0.13915507271E+02 -0.17802966860E+02 -0.14696237821E+02  0.26954895246E+02  0.00000000000E+00 0.  1.
</event>
<event>
 7    1  0.3062695E-010  0.4778727E+02  0.7816164E-02  0.1312668E+00
        -11   -1    0    0    0    0  0.00000000000E+00  0.00000000000E+00  0.45593999997E+02  0.45594000000E+02  0.51100000000E-03 0.  1.
         11   -1    0    0    0    0 -0.00000000000E+00 -0.00000000000E+00 -0.45593999997E+02  0.45594000000E+02  0.51100000000E-03 0. -1.
    9900012    2    1    2    0    0  0.37110734949E+02 -0.16768316870E+02 -0.15008009497E+02  0.47787269037E+02  0.19999990845E+02 0.  0.
        -12    1    1    2    0    0 -0.37110734949E+02  0.16768316870E+02  0.15008009497E+02  0.43400730963E+02  0.00000000000E+00 0.  1.
         11    1    3    3    0    0  0.82431861765E+00 -0.54040055147E+01 -0.12287464893E+01  0.56029095105E+01  0.51100000000E-03 0. -1.
        -11    1    3    3    0    0  0.82760355598E+01 -0.39896757174E+01  0.16988416634E+01  0.93432510496E+01  0.51100000000E-03 0.  1.
         12    1    3    3    0    0  0.28010380771E+02 -0.73746356383E+01 -0.15478104672E+02  0.32841108476E+02  0.00000000000E+00 0. -1.
</event>
<event>
 7    1  0.3062695E-010  0.4778727E+02  0.7816164E-02  0.1312668E+00
        -11   -1    0    0    0    0  0.00000000000E+00  0.00000000000E+00  0.45593999997E+02  0.45594000000E+02  0.51100000000E-03 0.  1.
         11   -1    0    0    0    0 -0.00000000000E+00 -0.00000000000E+00 -0.45593999997E+02  0.45594000000E+02  0.51100000000E-03 0. -1.
    9900012    2    1    2    0    0 -0.39186180238E+02  0.18285436935E+02 -0.37025722450E+01  0.47787274583E+02  0.20000016132E+02 0.  0.
        -12    1    1    2    0    0  0.39186180238E+02 -0.18285436935E+02  0.37025722450E+01  0.43400725417E+02  0.00000000000E+00 0.  1.
         11    1    3    3    0    0 -0.95713753344E+01  0.48619911112E+00 -0.39623028536E+00  0.95919035685E+01  0.51100000000E-03 0. -1.
        -11    1    3    3    0    0 -0.22527946544E+00  0.50932593528E+01  0.24616913622E+01  0.56614456013E+01  0.51100000000E-03 0.  1.
        -12    1    3    3    0    0 -0.29389525438E+02  0.12705978471E+02 -0.57680333218E+01  0.32533925413E+02  0.00000000000E+00 0.  1.
</event>
<event>
 7    1  0.3062695E-010  0.4778727E+02  0.7816164E-02  0.1312668E+00
        -11   -1    0    0    0    0  0.00000000000E+00  0.00000000000E+00  0.45593999997E+02  0.45594000000E+02  0.51100000000E-03 0. -1.
         11   -1    0    0    0    0 -0.00000000000E+00 -0.00000000000E+00 -0.45593999997E+02  0.45594000000E+02  0.51100000000E-03 0.  1.
    9900012    2    1    2    0    0  0.12716586132E+02  0.34332390452E+02 -0.23306621679E+02  0.47787271767E+02  0.20000003296E+02 0.  0.
        -12    1    1    2    0    0 -0.12716586132E+02 -0.34332390452E+02  0.23306621679E+02  0.43400728233E+02  0.00000000000E+00 0.  1.
         11    1    3    3    0    0  0.71523386434E+01  0.76584740399E+01  0.43580106838E+00  0.10487997689E+02  0.51100000000E-03 0. -1.
        -11    1    3    3    0    0 -0.14200573258E+01  0.65486491503E+01 -0.96822750911E+01  0.11774880879E+02  0.51100000000E-03 0.  1.
         12    1    3    3    0    0  0.69843048147E+01  0.20125267262E+02 -0.14060147656E+02  0.25524393200E+02  0.00000000000E+00 0. -1.
</event>
<event>
 7    1  0.3062695E-010  0.4778726E+02  0.7816164E-02  0.1312668E+00
        -11   -1    0    0    0    0  0.00000000000E+00  0.00000000000E+00  0.45593999997E+02  0.45594000000E+02  0.51100000000E-03 0.  1.
         11   -1    0    0    0    0 -0.00000000000E+00 -0.00000000000E+00 -0.45593999997E+02  0.45594000000E+02  0.51100000000E-03 0. -1.
    9900012    2    1    2    0    0  0.30006154623E+02  0.87297301895E+01 -0.30117217428E+02  0.47787259338E+02  0.19999946626E+02 0.  0.
        -12    1    1    2    0    0 -0.30006154623E+02 -0.87297301895E+01  0.30117217428E+02  0.43400740662E+02  0.00000000000E+00 0.  1.
         11    1    3    3    0    0  0.24512772548E+02  0.71592052217E+01 -0.26780701434E+02  0.37004543058E+02  0.51100000000E-03 0. -1.
        -11    1    3    3    0    0  0.16910458168E+00  0.42010861253E+01 -0.61162233671E+00  0.42487413590E+01  0.51100000000E-03 0.  1.
        -12    1    3    3    0    0  0.53242774930E+01 -0.26305611576E+01 -0.27248936574E+01  0.65339749212E+01  0.00000000000E+00 0.  1.
</event>
<event>
 7    1  0.3062695E-010  0.4778727E+02  0.7816164E-02  0.1312668E+00
        -11   -1    0    0    0    0  0.00000000000E+00  0.00000000000E+00  0.45593999997E+02  0.45594000000E+02  0.51100000000E-03 0. -1.
         11   -1    0    0    0    0 -0.00000000000E+00 -0.00000000000E+00 -0.45593999997E+02  0.45594000000E+02  0.51100000000E-03 0.  1.
    9900012    2    1    2    0    0 -0.32471623650E+02  0.24059637382E+02 -0.15822470640E+02  0.47787273387E+02  0.20000010679E+02 0.  0.
        -12    1    1    2    0    0  0.32471623650E+02 -0.24059637382E+02  0.15822470640E+02  0.43400726613E+02  0.00000000000E+00 0.  1.
         11    1    3    3    0    0 -0.26592786499E+02  0.10482188881E+02 -0.86882752097E+01  0.29875386255E+02  0.51100000000E-03 0. -1.
        -11    1    3    3    0    0 -0.23230954669E+01  0.12499364680E+02 -0.55954610625E+01  0.13890287064E+02  0.51100000000E-03 0.  1.
        -12    1    3    3    0    0 -0.35557416839E+01  0.10780838212E+01 -0.15387343679E+01  0.40216000675E+01  0.00000000000E+00 0.  1.
</event>
<event>
 7    1  0.3062695E-010  0.4778728E+02  0.7816164E-02  0.1312668E+00
        -11   -1    0    0    0    0  0.00000000000E+00  0.00000000000E+00  0.45593999997E+02  0.45594000000E+02  0.51100000000E-03 0.  1.
         11   -1    0    0    0    0 -0.00000000000E+00 -0.00000000000E+00 -0.45593999997E+02  0.45594000000E+02  0.51100000000E-03 0. -1.
    9900012    2    1    2    0    0  0.36751086051E+02 -0.31363347231E+01 -0.22872338121E+02  0.47787276820E+02  0.20000026332E+02 0.  0.
        -12    1    1    2    0    0 -0.36751086051E+02  0.31363347231E+01  0.22872338121E+02  0.43400723180E+02  0.00000000000E+00 0.  1.
         11    1    3    3    0    0  0.21929686128E+02 -0.30044430398E+01 -0.20884711720E+02  0.30432038964E+02  0.51100000000E-03 0. -1.
        -11    1    3    3    0    0  0.12024029163E+02 -0.59808520933E+00  0.22587285354E+01  0.12248952531E+02  0.51100000000E-03 0.  1.
        -12    1    3    3    0    0  0.27973707600E+01  0.46619352600E+00 -0.42463549364E+01  0.51062853248E+01  0.00000000000E+00 0.  1.
</event>
<event>
 7    1  0.3062695E-010  0.4778727E+02  0.7816164E-02  0.1312668E+00
        -11   -1    0    0    0    0  0.00000000000E+00  0.00000000000E+00  0.45593999997E+02  0.45594000000E+02  0.51100000000E-03 0. -1.
         11   -1    0    0    0    0 -0.00000000000E+00 -0.00000000000E+00 -0.45593999997E+02  0.45594000000E+02  0.51100000000E-03 0.  1.
    9900012    2    1    2    0    0 -0.33505512432E+01  0.38779802532E+02  0.19196977343E+02  0.47787271698E+02  0.20000002981E+02 0.  0.
        -12    1    1    2    0    0  0.33505512432E+01 -0.38779802532E+02 -0.19196977343E+02  0.43400728302E+02  0.00000000000E+00 0.  1.
         11    1    3    3    0    0  0.44184589726E+01  0.24513843893E+01  0.48355942742E+01  0.69939286072E+01  0.51100000000E-03 0. -1.
        -11    1    3    3    0    0 -0.54581950409E+01  0.81782840819E+01  0.50487787967E+01  0.11052890628E+02  0.51100000000E-03 0.  1.
         12    1    3    3    0    0 -0.23108151749E+01  0.28150134060E+02  0.93126042723E+01  0.29740452463E+02  0.00000000000E+00 0. -1.
</event>
<event>
 7    1  0.3062695E-010  0.4778727E+02  0.7816164E-02  0.1312668E+00
        -11   -1    0    0    0    0  0.00000000000E+00  0.00000000000E+00  0.45593999997E+02  0.45594000000E+02  0.51100000000E-03 0.  1.
         11   -1    0    0    0    0 -0.00000000000E+00 -0.00000000000E+00 -0.45593999997E+02  0.45594000000E+02  0.51100000000E-03 0. -1.
    9900012    2    1    2    0    0 -0.41057404538E+02 -0.94591168780E+01  0.10413358286E+02  0.47787269703E+02  0.19999993885E+02 0.  0.
        -12    1    1    2    0    0  0.41057404538E+02  0.94591168780E+01 -0.10413358286E+02  0.43400730297E+02  0.00000000000E+00 0.  1.
         11    1    3    3    0    0 -0.19317689544E+02 -0.29960777822E+01 -0.45843410761E+00  0.19554021926E+02  0.51100000000E-03 0. -1.
        -11    1    3    3    0    0 -0.16672536230E+01 -0.57315569733E+01  0.23776403788E+01  0.64252357166E+01  0.51100000000E-03 0.  1.
        -12    1    3    3    0    0 -0.20072461371E+02 -0.73148212256E+00  0.84941520150E+01  0.21808012061E+02  0.00000000000E+00 0.  1.
</event>
<event>
 7    1  0.3062695E-010  0.4778727E+02  0.7816164E-02  0.1312668E+00
        -11   -1    0    0    0    0  0.00000000000E+00  0.00000000000E+00  0.45593999997E+02  0.45594000000E+02  0.51100000000E-03 0.  1.
         11   -1    0    0    0    0 -0.00000000000E+00 -0.00000000000E+00 -0.45593999997E+02  0.45594000000E+02  0.51100000000E-03 0. -1.
    9900012    2    1    2    0    0 -0.20605694270E+02  0.20928310720E+02 -0.31953630895E+02  0.47787270129E+02  0.19999995826E+02 0.  0.
        -12    1    1    2    0    0  0.20605694270E+02 -0.20928310720E+02  0.31953630895E+02  0.43400729871E+02  0.00000000000E+00 0.  1.
         11    1    3    3    0    0 -0.17809747600E+02  0.16225386610E+02 -0.26603385620E+02  0.35891369533E+02  0.51100000000E-03 0. -1.
        -11    1    3    3    0    0  0.31693116125E+01  0.17621207669E+01 -0.49150351608E+00  0.36593963521E+01  0.51100000000E-03 0.  1.
        -12    1    3    3    0    0 -0.59652582826E+01  0.29408033431E+01 -0.48587417591E+01  0.82365042441E+01  0.00000000000E+00 0.  1.
</event>
<event>
 7    1  0.3750116E-010  0.4778727E+02  0.7816164E-02  0.1312668E+00
        -11   -1    0    0    0    0  0.00000000000E+00  0.00000000000E+00  0.45593999997E+02  0.45594000000E+02  0.51100000000E-03 0.  1.
         11   -1    0    0    0    0 -0.00000000000E+00 -0.00000000000E+00 -0.45593999997E+02  0.45594000000E+02  0.51100000000E-03 0. -1.
    9900012    2    1    2    0    0  0.38126907576E+02  0.15209002198E+02 -0.14094257799E+02  0.47787274982E+02  0.20000017951E+02 0.  0.
        -12    1    1    2    0    0 -0.38126907576E+02 -0.15209002198E+02  0.14094257799E+02  0.43400725018E+02  0.00000000000E+00 0.  1.
         11    1    3    3    0    0  0.28345028267E+02  0.12843858810E+02 -0.11891400000E+02  0.33313821918E+02  0.51100000000E-03 0. -1.
        -11    1    3    3    0    0  0.52364380853E+01 -0.35453885818E+01  0.91871974820E+00  0.63901572949E+01  0.51100000000E-03 0.  1.
        -12    1    3    3    0    0  0.45454412247E+01  0.59105319704E+01 -0.31215775470E+01  0.80832957685E+01  0.00000000000E+00 0.  1.
</event>
<event>
 7    1  0.3062695E-010  0.4778728E+02  0.7816164E-02  0.1312668E+00
        -11   -1    0    0    0    0  0.00000000000E+00  0.00000000000E+00  0.45593999997E+02  0.45594000000E+02  0.51100000000E-03 0.  1.
         11   -1    0    0    0    0 -0.00000000000E+00 -0.00000000000E+00 -0.45593999997E+02  0.45594000000E+02  0.51100000000E-03 0. -1.
    9900012    2    1    2    0    0  0.10721454542E+02 -0.30795076291E+02 -0.28641510970E+02  0.47787280399E+02  0.20000042652E+02 0.  0.
        -12    1    1    2    0    0 -0.10721454542E+02  0.30795076291E+02  0.28641510970E+02  0.43400719601E+02  0.00000000000E+00 0.  1.
         11    1    3    3    0    0  0.56278403306E+01 -0.84020155793E+01 -0.16977461445E+02  0.19761089291E+02  0.51100000000E-03 0. -1.
        -11    1    3    3    0    0  0.62030217506E+01 -0.11979256887E+02 -0.17462204238E+01  0.13602549777E+02  0.51100000000E-03 0.  1.
        -12    1    3    3    0    0 -0.11094075395E+01 -0.10413803824E+02 -0.99178291003E+01  0.14423641331E+02  0.00000000000E+00 0.  1.
</event>
<event>
 7    1  0.3062695E-010  0.4778728E+02  0.7816164E-02  0.1312668E+00
        -11   -1    0    0    0    0  0.00000000000E+00  0.00000000000E+00  0.45593999997E+02  0.45594000000E+02  0.51100000000E-03 0.  1.
         11   -1    0    0    0    0 -0.00000000000E+00 -0.00000000000E+00 -0.45593999997E+02  0.45594000000E+02  0.51100000000E-03 0. -1.
    9900012    2    1    2    0    0  0.15990235912E+02 -0.94340666677E+00 -0.40336646583E+02  0.47787277446E+02  0.20000029187E+02 0.  0.
        -12    1    1    2    0    0 -0.15990235912E+02  0.94340666677E+00  0.40336646583E+02  0.43400722554E+02  0.00000000000E+00 0.  1.
         11    1    3    3    0    0  0.11376495204E+02 -0.28990227590E+00 -0.27600613168E+02  0.29854690317E+02  0.51100000000E-03 0. -1.
        -11    1    3    3    0    0  0.39200275366E+01 -0.50227955018E+01 -0.26155356956E+01  0.68873883132E+01  0.51100000000E-03 0.  1.
        -12    1    3    3    0    0  0.69371317133E+00  0.43692911110E+01 -0.10120497720E+02  0.11045198816E+02  0.00000000000E+00 0.  1.
</event>
<event>
 7    1  0.3062695E-010  0.4778727E+02  0.7816164E-02  0.1312668E+00
        -11   -1    0    0    0    0  0.00000000000E+00  0.00000000000E+00  0.45593999997E+02  0.45594000000E+02  0.51100000000E-03 0.  1.
         11   -1    0    0    0    0 -0.00000000000E+00 -0.00000000000E+00 -0.45593999997E+02  0.45594000000E+02  0.51100000000E-03 0. -1.
    9900012    2    1    2    0    0 -0.34553911903E+02 -0.25373413416E+02  0.67705293701E+01  0.47787274152E+02  0.20000014169E+02 0.  0.
        -12    1    1    2    0    0  0.34553911903E+02  0.25373413416E+02 -0.67705293701E+01  0.43400725848E+02  0.00000000000E+00 0.  1.
         11    1    3    3    0    0 -0.59358449091E+01 -0.45450416556E+01 -0.23485317136E+01  0.78362784475E+01  0.51100000000E-03 0. -1.
        -11    1    3    3    0    0  0.67523328054E+00  0.62839876186E+00 -0.18094921735E+01  0.20310310618E+01  0.51100000000E-03 0.  1.
        -12    1    3    3    0    0 -0.29293300275E+02 -0.21456770522E+02  0.10928553257E+02  0.37919964643E+02  0.00000000000E+00 0.  1.
</event>
<event>
 7    1  0.3062695E-010  0.4778727E+02  0.7816164E-02  0.1312668E+00
        -11   -1    0    0    0    0  0.00000000000E+00  0.00000000000E+00  0.45593999997E+02  0.45594000000E+02  0.51100000000E-03 0.  1.
         11   -1    0    0    0    0 -0.00000000000E+00 -0.00000000000E+00 -0.45593999997E+02  0.45594000000E+02  0.51100000000E-03 0. -1.
    9900012    2    1    2    0    0  0.16141155130E+02  0.30565587916E+02 -0.26245601015E+02  0.47787266985E+02  0.19999981493E+02 0.  0.
        -12    1    1    2    0    0 -0.16141155130E+02 -0.30565587916E+02  0.26245601015E+02  0.43400733015E+02  0.00000000000E+00 0.  1.
         11    1    3    3    0    0  0.98364003412E+01  0.22831491839E+02 -0.13831036892E+02  0.28448714787E+02  0.51100000000E-03 0. -1.
        -11    1    3    3    0    0  0.55834734195E+01 -0.12776577416E+01 -0.56677280563E+01  0.80579604313E+01  0.51100000000E-03 0.  1.
        -12    1    3    3    0    0  0.72128136887E+00  0.90117538194E+01 -0.67468360667E+01  0.11280591768E+02  0.00000000000E+00 0.  1.
</event>
<event>
 7    1  0.3062695E-010  0.4778727E+02  0.7816164E-02  0.1312668E+00
        -11   -1    0    0    0    0  0.00000000000E+00  0.00000000000E+00  0.45593999997E+02  0.45594000000E+02  0.51100000000E-03 0.  1.
         11   -1    0    0    0    0 -0.00000000000E+00 -0.00000000000E+00 -0.45593999997E+02  0.45594000000E+02  0.51100000000E-03 0. -1.
    9900012    2    1    2    0    0  0.23530059897E+02 -0.32451104694E+02 -0.16639877052E+02  0.47787269327E+02  0.19999992170E+02 0.  0.
        -12    1    1    2    0    0 -0.23530059897E+02  0.32451104694E+02  0.16639877052E+02  0.43400730673E+02  0.00000000000E+00 0.  1.
         11    1    3    3    0    0 -0.60133083650E+00 -0.21277241733E+01  0.79388034411E+00  0.23492669483E+01  0.51100000000E-03 0.  1.
        -11    1    3    3    0    0  0.13591636568E+02 -0.78704972202E+01 -0.11106087200E+01  0.15745182218E+02  0.51100000000E-03 0. -1.
        -12    1    3    3    0    0  0.10539754165E+02 -0.22452883300E+02 -0.16323148677E+02  0.29692820160E+02  0.00000000000E+00 0.  1.
</event>
<event>
 7    1  0.3062695E-010  0.4778727E+02  0.7816164E-02  0.1312668E+00
        -11   -1    0    0    0    0  0.00000000000E+00  0.00000000000E+00  0.45593999997E+02  0.45594000000E+02  0.51100000000E-03 0.  1.
         11   -1    0    0    0    0 -0.00000000000E+00 -0.00000000000E+00 -0.45593999997E+02  0.45594000000E+02  0.51100000000E-03 0. -1.
    9900012    2    1    2    0    0 -0.68140255812E+01 -0.57523621580E+01 -0.42474732682E+02  0.47787268077E+02  0.19999986471E+02 0.  0.
        -12    1    1    2    0    0  0.68140255812E+01  0.57523621580E+01  0.42474732682E+02  0.43400731923E+02  0.00000000000E+00 0.  1.
         11    1    3    3    0    0 -0.18865098307E+01  0.13550443294E+01 -0.20833475327E+02  0.20962556116E+02  0.51100000000E-03 0. -1.
        -11    1    3    3    0    0  0.40419517920E+01 -0.42999377911E+01 -0.50998841348E+01  0.77997216454E+01  0.51100000000E-03 0.  1.
        -12    1    3    3    0    0 -0.89694675425E+01 -0.28074686963E+01 -0.16541373221E+02  0.19024990316E+02  0.00000000000E+00 0.  1.
</event>
<event>
 7    1  0.3062695E-010  0.4778726E+02  0.7816164E-02  0.1312668E+00
        -11   -1    0    0    0    0  0.00000000000E+00  0.00000000000E+00  0.45593999997E+02  0.45594000000E+02  0.51100000000E-03 0.  1.
         11   -1    0    0    0    0 -0.00000000000E+00 -0.00000000000E+00 -0.45593999997E+02  0.45594000000E+02  0.51100000000E-03 0. -1.
    9900012    2    1    2    0    0  0.42086270484E+02  0.42154130648E+01  0.97262566407E+01  0.47787263385E+02  0.19999965075E+02 0.  0.
        -12    1    1    2    0    0 -0.42086270484E+02 -0.42154130648E+01 -0.97262566407E+01  0.43400736615E+02  0.00000000000E+00 0.  1.
         11    1    3    3    0    0  0.68291475655E+01  0.40334745726E+01 -0.15436658550E+01  0.80801657243E+01  0.51100000000E-03 0. -1.
        -11    1    3    3    0    0  0.25138157028E+02 -0.32923318586E+01  0.13581421549E+02  0.28761456837E+02  0.51100000000E-03 0.  1.
        -12    1    3    3    0    0  0.10118965890E+02  0.34742703508E+01 -0.23114990536E+01  0.10945640823E+02  0.00000000000E+00 0.  1.
</event>
<event>
 7    1  0.3062695E-010  0.4778727E+02  0.7816164E-02  0.1312668E+00
        -11   -1    0    0    0    0  0.00000000000E+00  0.00000000000E+00  0.45593999997E+02  0.45594000000E+02  0.51100000000E-03 0.  1.
         11   -1    0    0    0    0 -0.00000000000E+00 -0.00000000000E+00 -0.45593999997E+02  0.45594000000E+02  0.51100000000E-03 0. -1.
    9900012    2    1    2    0    0  0.21500786236E+02  0.37572021608E+02  0.31117331692E+01  0.47787268442E+02  0.19999988134E+02 0.  0.
        -12    1    1    2    0    0 -0.21500786236E+02 -0.37572021608E+02 -0.31117331692E+01  0.43400731558E+02  0.00000000000E+00 0.  1.
         11    1    3    3    0    0  0.44979469872E+00  0.69198728995E+01 -0.48254702548E+01  0.84482021554E+01  0.51100000000E-03 0. -1.
        -11    1    3    3    0    0  0.46371148258E+00  0.29173308983E+01  0.33963385183E+01  0.45012180020E+01  0.51100000000E-03 0.  1.
         12    1    3    3    0    0  0.20587280054E+02  0.27734817810E+02  0.45408649057E+01  0.34837848285E+02  0.00000000000E+00 0. -1.
</event>
<event>
 7    1  0.3062695E-010  0.4778727E+02  0.7816164E-02  0.1312668E+00
        -11   -1    0    0    0    0  0.00000000000E+00  0.00000000000E+00  0.45593999997E+02  0.45594000000E+02  0.51100000000E-03 0. -1.
         11   -1    0    0    0    0 -0.00000000000E+00 -0.00000000000E+00 -0.45593999997E+02  0.45594000000E+02  0.51100000000E-03 0.  1.
    9900012    2    1    2    0    0  0.16207299653E+02  0.35214916234E+02 -0.19515544447E+02  0.47787270024E+02  0.19999995348E+02 0.  0.
        -12    1    1    2    0    0 -0.16207299653E+02 -0.35214916234E+02  0.19515544447E+02  0.43400729976E+02  0.00000000000E+00 0.  1.
         11    1    3    3    0    0 -0.23715157413E+01  0.63170322678E+01 -0.83253236932E+01  0.10716342587E+02  0.51100000000E-03 0. -1.
        -11    1    3    3    0    0  0.81021669672E+01  0.88761386958E+01 -0.75223953150E+01  0.14178059784E+02  0.51100000000E-03 0.  1.
         12    1    3    3    0    0  0.10476648427E+02  0.20021745270E+02 -0.36678254389E+01  0.22892867653E+02  0.00000000000E+00 0. -1.
</event>
<event>
 7    1  0.3062695E-010  0.4778727E+02  0.7816164E-02  0.1312668E+00
        -11   -1    0    0    0    0  0.00000000000E+00  0.00000000000E+00  0.45593999997E+02  0.45594000000E+02  0.51100000000E-03 0.  1.
         11   -1    0    0    0    0 -0.00000000000E+00 -0.00000000000E+00 -0.45593999997E+02  0.45594000000E+02  0.51100000000E-03 0. -1.
    9900012    2    1    2    0    0 -0.37195945750E+02  0.21735434290E+02 -0.52588885054E+01  0.47787269680E+02  0.19999993779E+02 0.  0.
        -12    1    1    2    0    0  0.37195945750E+02 -0.21735434290E+02  0.52588885054E+01  0.43400730320E+02  0.00000000000E+00 0.  1.
         11    1    3    3    0    0 -0.22295379071E+02  0.12001374057E+02 -0.10231763618E+02  0.27309446977E+02  0.51100000000E-03 0. -1.
        -11    1    3    3    0    0 -0.63222671726E+01  0.90021898995E+01  0.44049627079E+01  0.11849649020E+02  0.51100000000E-03 0.  1.
        -12    1    3    3    0    0 -0.85782995060E+01  0.73187033335E+00  0.56791240511E+00  0.86281736827E+01  0.00000000000E+00 0.  1.
</event>
<event>
 7    1  0.3062695E-010  0.4778726E+02  0.7816164E-02  0.1312668E+00
        -11   -1    0    0    0    0  0.00000000000E+00  0.00000000000E+00  0.45593999997E+02  0.45594000000E+02  0.51100000000E-03 0.  1.
         11   -1    0    0    0    0 -0.00000000000E+00 -0.00000000000E+00 -0.45593999997E+02  0.45594000000E+02  0.51100000000E-03 0. -1.
    9900012    2    1    2    0    0  0.23729063198E+02  0.30895639859E+02 -0.19131518862E+02  0.47787262489E+02  0.19999960991E+02 0.  0.
        -12    1    1    2    0    0 -0.23729063198E+02 -0.30895639859E+02  0.19131518862E+02  0.43400737511E+02  0.00000000000E+00 0.  1.
         11    1    3    3    0    0  0.22404890668E+02  0.20737366106E+02 -0.15422372549E+02  0.34203319344E+02  0.51100000000E-03 0. -1.
        -11    1    3    3    0    0 -0.21980794884E+01  0.75311912078E+01 -0.18246220352E-01  0.78454271797E+01  0.51100000000E-03 0.  1.
        -12    1    3    3    0    0  0.35222520183E+01  0.26270825453E+01 -0.36909000935E+01  0.57385159650E+01  0.00000000000E+00 0.  1.
</event>
<event>
 7    1  0.3062695E-010  0.4778727E+02  0.7816164E-02  0.1312668E+00
        -11   -1    0    0    0    0  0.00000000000E+00  0.00000000000E+00  0.45593999997E+02  0.45594000000E+02  0.51100000000E-03 0.  1.
         11   -1    0    0    0    0 -0.00000000000E+00 -0.00000000000E+00 -0.45593999997E+02  0.45594000000E+02  0.51100000000E-03 0. -1.
    9900012    2    1    2    0    0  0.55284997117E+01  0.31799835205E+02 -0.29014293677E+02  0.47787273443E+02  0.20000010937E+02 0.  0.
        -12    1    1    2    0    0 -0.55284997117E+01 -0.31799835205E+02  0.29014293677E+02  0.43400726557E+02  0.00000000000E+00 0.  1.
         11    1    3    3    0    0  0.96508704121E+01  0.16021990174E+02 -0.20359542492E+02  0.27646960766E+02  0.51100000000E-03 0. -1.
        -11    1    3    3    0    0 -0.27569742278E+01  0.15935604194E+02 -0.92629990544E+01  0.18637262129E+02  0.51100000000E-03 0.  1.
         12    1    3    3    0    0 -0.13653964725E+01 -0.15775916281E+00  0.60824786980E+00  0.15030505486E+01  0.00000000000E+00 0. -1.
</event>
<event>
 7    1  0.3062695E-010  0.4778727E+02  0.7816164E-02  0.1312668E+00
        -11   -1    0    0    0    0  0.00000000000E+00  0.00000000000E+00  0.45593999997E+02  0.45594000000E+02  0.51100000000E-03 0.  1.
         11   -1    0    0    0    0 -0.00000000000E+00 -0.00000000000E+00 -0.45593999997E+02  0.45594000000E+02  0.51100000000E-03 0. -1.
    9900012    2    1    2    0    0  0.25618515927E+02 -0.20361666810E+01 -0.34973835294E+02  0.47787268575E+02  0.19999988742E+02 0.  0.
        -12    1    1    2    0    0 -0.25618515927E+02  0.20361666810E+01  0.34973835294E+02  0.43400731425E+02  0.00000000000E+00 0.  1.
         11    1    3    3    0    0  0.68745026422E+01  0.66565022132E+01 -0.14231192446E+02  0.17149187940E+02  0.51100000000E-03 0. -1.
        -11    1    3    3    0    0  0.72384210799E+01 -0.42363888772E+01 -0.27598437803E+01  0.88294092895E+01  0.51100000000E-03 0.  1.
         12    1    3    3    0    0  0.11505592205E+02 -0.44562800169E+01 -0.17982799068E+02  0.21808671346E+02  0.00000000000E+00 0. -1.
</event>
<event>
 7    1  0.3062695E-010  0.4778727E+02  0.7816164E-02  0.1312668E+00
        -11   -1    0    0    0    0  0.00000000000E+00  0.00000000000E+00  0.45593999997E+02  0.45594000000E+02  0.51100000000E-03 0.  1.
         11   -1    0    0    0    0 -0.00000000000E+00 -0.00000000000E+00 -0.45593999997E+02  0.45594000000E+02  0.51100000000E-03 0. -1.
    9900012    2    1    2    0    0 -0.22313706315E+01 -0.42262854494E+02 -0.96174515385E+01  0.47787271216E+02  0.20000000784E+02 0.  0.
        -12    1    1    2    0    0  0.22313706315E+01  0.42262854494E+02  0.96174515385E+01  0.43400728784E+02  0.00000000000E+00 0.  1.
         11    1    3    3    0    0  0.21476186121E+01 -0.24571695778E+01  0.33920590358E+01  0.47070173997E+01  0.51100000000E-03 0. -1.
        -11    1    3    3    0    0 -0.11092721867E+01 -0.71139263107E+01  0.11732939060E+01  0.72948647136E+01  0.51100000000E-03 0.  1.
         12    1    3    3    0    0 -0.32697170569E+01 -0.32691758605E+02 -0.14182804480E+02  0.35785389103E+02  0.00000000000E+00 0. -1.
</event>
<event>
 7    1  0.3062695E-010  0.4778727E+02  0.7816164E-02  0.1312668E+00
        -11   -1    0    0    0    0  0.00000000000E+00  0.00000000000E+00  0.45593999997E+02  0.45594000000E+02  0.51100000000E-03 0. -1.
         11   -1    0    0    0    0 -0.00000000000E+00 -0.00000000000E+00 -0.45593999997E+02  0.45594000000E+02  0.51100000000E-03 0.  1.
    9900012    2    1    2    0    0  0.34213908381E+02 -0.80612587785E+01  0.25456780861E+02  0.47787272914E+02  0.20000008525E+02 0.  0.
        -12    1    1    2    0    0 -0.34213908381E+02  0.80612587785E+01 -0.25456780861E+02  0.43400727086E+02  0.00000000000E+00 0.  1.
         11    1    3    3    0    0  0.71226178572E+01 -0.23553801760E+01 -0.27041973721E+01  0.79744708039E+01  0.51100000000E-03 0.  1.
        -11    1    3    3    0    0  0.25520023561E+02 -0.64854581026E+01  0.26971897832E+02  0.37693713564E+02  0.51100000000E-03 0. -1.
        -12    1    3    3    0    0  0.15712669627E+01  0.77957950014E+00  0.11890804013E+01  0.21190885460E+01  0.00000000000E+00 0.  1.
</event>
<event>
 7    1  0.3062695E-010  0.4778727E+02  0.7816164E-02  0.1312668E+00
        -11   -1    0    0    0    0  0.00000000000E+00  0.00000000000E+00  0.45593999997E+02  0.45594000000E+02  0.51100000000E-03 0.  1.
         11   -1    0    0    0    0 -0.00000000000E+00 -0.00000000000E+00 -0.45593999997E+02  0.45594000000E+02  0.51100000000E-03 0. -1.
    9900012    2    1    2    0    0  0.21910005896E+02  0.15190952772E+02 -0.34246313872E+02  0.47787269381E+02  0.19999992414E+02 0.  0.
        -12    1    1    2    0    0 -0.21910005896E+02 -0.15190952772E+02  0.34246313872E+02  0.43400730619E+02  0.00000000000E+00 0.  1.
         11    1    3    3    0    0  0.21806118224E+01  0.12919700377E+02 -0.10968822242E+02  0.17087679403E+02  0.51100000000E-03 0. -1.
        -11    1    3    3    0    0  0.10940425288E+02  0.18065064318E+01 -0.14667150245E+02  0.18386997241E+02  0.51100000000E-03 0.  1.
         12    1    3    3    0    0  0.87889687860E+01  0.46474596299E+00 -0.86103413850E+01  0.12312592737E+02  0.00000000000E+00 0. -1.
</event>
<event>
 7    1  0.3062695E-010  0.4778727E+02  0.7816164E-02  0.1312668E+00
        -11   -1    0    0    0    0  0.00000000000E+00  0.00000000000E+00  0.45593999997E+02  0.45594000000E+02  0.51100000000E-03 0.  1.
         11   -1    0    0    0    0 -0.00000000000E+00 -0.00000000000E+00 -0.45593999997E+02  0.45594000000E+02  0.51100000000E-03 0. -1.
    9900012    2    1    2    0    0 -0.25644669147E+02  0.16195338980E+02 -0.31043283801E+02  0.47787268100E+02  0.19999986573E+02 0.  0.
        -12    1    1    2    0    0  0.25644669147E+02 -0.16195338980E+02  0.31043283801E+02  0.43400731900E+02  0.00000000000E+00 0.  1.
         11    1    3    3    0    0 -0.22799701526E+02  0.12471411716E+02 -0.24275182450E+02  0.35561875416E+02  0.51100000000E-03 0. -1.
        -11    1    3    3    0    0 -0.63828455564E+00 -0.25305085947E+01 -0.45257189849E+01  0.52242715773E+01  0.51100000000E-03 0.  1.
         12    1    3    3    0    0 -0.22066830651E+01  0.62544358595E+01 -0.22423823661E+01  0.70011211064E+01  0.00000000000E+00 0. -1.
</event>
<event>
 7    1  0.3062695E-010  0.4778727E+02  0.7816164E-02  0.1312668E+00
        -11   -1    0    0    0    0  0.00000000000E+00  0.00000000000E+00  0.45593999997E+02  0.45594000000E+02  0.51100000000E-03 0. -1.
         11   -1    0    0    0    0 -0.00000000000E+00 -0.00000000000E+00 -0.45593999997E+02  0.45594000000E+02  0.51100000000E-03 0.  1.
    9900012    2    1    2    0    0 -0.36920067424E+02  0.18928351402E+02  0.12737705437E+02  0.47787274140E+02  0.20000014112E+02 0.  0.
        -12    1    1    2    0    0  0.36920067424E+02 -0.18928351402E+02 -0.12737705437E+02  0.43400725860E+02  0.00000000000E+00 0.  1.
         11    1    3    3    0    0 -0.12597780551E+02  0.75512146671E+01 -0.13969693685E+01  0.14753861916E+02  0.51100000000E-03 0. -1.
        -11    1    3    3    0    0 -0.10036055190E+01 -0.79278573051E+00  0.50436927347E+01  0.52033229686E+01  0.51100000000E-03 0.  1.
        -12    1    3    3    0    0 -0.23318681355E+02  0.12169922465E+02  0.90909820710E+01  0.27830089255E+02  0.00000000000E+00 0.  1.
</event>
<event>
 7    1  0.3062695E-010  0.4778727E+02  0.7816164E-02  0.1312668E+00
        -11   -1    0    0    0    0  0.00000000000E+00  0.00000000000E+00  0.45593999997E+02  0.45594000000E+02  0.51100000000E-03 0.  1.
         11   -1    0    0    0    0 -0.00000000000E+00 -0.00000000000E+00 -0.45593999997E+02  0.45594000000E+02  0.51100000000E-03 0. -1.
    9900012    2    1    2    0    0 -0.76678410118E-02  0.11837688149E+01 -0.43384581343E+02  0.47787271139E+02  0.20000000429E+02 0.  0.
        -12    1    1    2    0    0  0.76678410118E-02 -0.11837688149E+01  0.43384581343E+02  0.43400728861E+02  0.00000000000E+00 0.  1.
         11    1    3    3    0    0 -0.66461406034E+00 -0.59275347034E+01 -0.89504122091E+01  0.10755801155E+02  0.51100000000E-03 0. -1.
        -11    1    3    3    0    0  0.31455089169E+01  0.65102760624E+01 -0.33554164784E+02  0.34324333866E+02  0.51100000000E-03 0.  1.
        -12    1    3    3    0    0 -0.24885626976E+01  0.60102745591E+00 -0.88000435016E+00  0.27071361176E+01  0.00000000000E+00 0.  1.
</event>
<event>
 7    1  0.3062695E-010  0.4778727E+02  0.7816164E-02  0.1312668E+00
        -11   -1    0    0    0    0  0.00000000000E+00  0.00000000000E+00  0.45593999997E+02  0.45594000000E+02  0.51100000000E-03 0. -1.
         11   -1    0    0    0    0 -0.00000000000E+00 -0.00000000000E+00 -0.45593999997E+02  0.45594000000E+02  0.51100000000E-03 0.  1.
    9900012    2    1    2    0    0 -0.10619953117E+02  0.35771735913E+02  0.22163553793E+02  0.47787267158E+02  0.19999982281E+02 0.  0.
        -12    1    1    2    0    0  0.10619953117E+02 -0.35771735913E+02 -0.22163553793E+02  0.43400732842E+02  0.00000000000E+00 0.  1.
         11    1    3    3    0    0 -0.28701137732E+01  0.24076037954E+02  0.77327412545E+01  0.25449723853E+02  0.51100000000E-03 0. -1.
        -11    1    3    3    0    0  0.23602556910E+00 -0.52126571678E+00  0.48382992335E+01  0.48720186526E+01  0.51100000000E-03 0.  1.
         12    1    3    3    0    0 -0.79858649129E+01  0.12216963676E+02  0.95925133054E+01  0.17465524653E+02  0.00000000000E+00 0. -1.
</event>
<event>
 7    1  0.3062695E-010  0.4778727E+02  0.7816164E-02  0.1312668E+00
        -11   -1    0    0    0    0  0.00000000000E+00  0.00000000000E+00  0.45593999997E+02  0.45594000000E+02  0.51100000000E-03 0.  1.
         11   -1    0    0    0    0 -0.00000000000E+00 -0.00000000000E+00 -0.45593999997E+02  0.45594000000E+02  0.51100000000E-03 0. -1.
    9900012    2    1    2    0    0  0.22605366010E+02  0.15314938390E+02 -0.33735346244E+02  0.47787268479E+02  0.19999988304E+02 0.  0.
        -12    1    1    2    0    0 -0.22605366010E+02 -0.15314938390E+02  0.33735346244E+02  0.43400731521E+02  0.00000000000E+00 0.  1.
         11    1    3    3    0    0  0.14696406989E+02  0.11834402722E+02 -0.31770193902E+02  0.36951085059E+02  0.51100000000E-03 0. -1.
        -11    1    3    3    0    0  0.72089131108E+01  0.49306162374E+01 -0.25888105469E+01  0.91094096970E+01  0.51100000000E-03 0.  1.
         12    1    3    3    0    0  0.70004591090E+00 -0.14500805691E+01  0.62365820546E+00  0.17267737233E+01  0.00000000000E+00 0. -1.
</event>
<event>
 7    1  0.3062695E-010  0.4778727E+02  0.7816164E-02  0.1312668E+00
        -11   -1    0    0    0    0  0.00000000000E+00  0.00000000000E+00  0.45593999997E+02  0.45594000000E+02  0.51100000000E-03 0.  1.
         11   -1    0    0    0    0 -0.00000000000E+00 -0.00000000000E+00 -0.45593999997E+02  0.45594000000E+02  0.51100000000E-03 0. -1.
    9900012    2    1    2    0    0  0.52703305101E+01 -0.32175735614E+02 -0.28645576669E+02  0.47787269492E+02  0.19999992920E+02 0.  0.
        -12    1    1    2    0    0 -0.52703305101E+01  0.32175735614E+02  0.28645576669E+02  0.43400730508E+02  0.00000000000E+00 0.  1.
         11    1    3    3    0    0 -0.30900471789E+01 -0.71019510240E+00  0.10573559657E+01  0.33422702689E+01  0.51100000000E-03 0.  1.
        -11    1    3    3    0    0  0.53740981843E+01 -0.20542318308E+02 -0.15546354551E+02  0.26316476072E+02  0.51100000000E-03 0. -1.
        -12    1    3    3    0    0  0.29862795047E+01 -0.10923222204E+02 -0.14156578084E+02  0.18128523151E+02  0.00000000000E+00 0.  1.
</event>
<event>
 7    1  0.3062695E-010  0.4778727E+02  0.7816164E-02  0.1312668E+00
        -11   -1    0    0    0    0  0.00000000000E+00  0.00000000000E+00  0.45593999997E+02  0.45594000000E+02  0.51100000000E-03 0.  1.
         11   -1    0    0    0    0 -0.00000000000E+00 -0.00000000000E+00 -0.45593999997E+02  0.45594000000E+02  0.51100000000E-03 0. -1.
    9900012    2    1    2    0    0 -0.23071391909E+02 -0.34579070676E+02 -0.12474853939E+02  0.47787271501E+02  0.20000002082E+02 0.  0.
        -12    1    1    2    0    0  0.23071391909E+02  0.34579070676E+02  0.12474853939E+02  0.43400728499E+02  0.00000000000E+00 0.  1.
         11    1    3    3    0    0 -0.13064072926E+02 -0.74608778748E+01  0.24389614777E+00  0.15046401087E+02  0.51100000000E-03 0. -1.
        -11    1    3    3    0    0 -0.87825016217E+01 -0.23439748769E+02 -0.13971744423E+02  0.28666422860E+02  0.51100000000E-03 0.  1.
        -12    1    3    3    0    0 -0.12248173608E+01 -0.36784440322E+01  0.12529943362E+01  0.40744475542E+01  0.00000000000E+00 0.  1.
</event>
<event>
 7    1  0.3062695E-010  0.4778727E+02  0.7816164E-02  0.1312668E+00
        -11   -1    0    0    0    0  0.00000000000E+00  0.00000000000E+00  0.45593999997E+02  0.45594000000E+02  0.51100000000E-03 0. -1.
         11   -1    0    0    0    0 -0.00000000000E+00 -0.00000000000E+00 -0.45593999997E+02  0.45594000000E+02  0.51100000000E-03 0.  1.
    9900012    2    1    2    0    0 -0.39065721618E+01  0.39125807701E+01  0.43047107758E+02  0.47787273270E+02  0.20000010149E+02 0.  0.
        -12    1    1    2    0    0  0.39065721618E+01 -0.39125807701E+01 -0.43047107758E+02  0.43400726730E+02  0.00000000000E+00 0.  1.
         11    1    3    3    0    0  0.19498723682E+01 -0.47362641189E+01  0.68938991912E+01  0.85883669214E+01  0.51100000000E-03 0. -1.
        -11    1    3    3    0    0 -0.31775865275E+01 -0.13507177398E+01  0.33886016419E+01  0.48377800592E+01  0.51100000000E-03 0.  1.
         12    1    3    3    0    0 -0.26788580025E+01  0.99995626288E+01  0.32764606925E+02  0.34361126290E+02  0.00000000000E+00 0. -1.
</event>
<event>
 7    1  0.3062695E-010  0.4778727E+02  0.7816164E-02  0.1312668E+00
        -11   -1    0    0    0    0  0.00000000000E+00  0.00000000000E+00  0.45593999997E+02  0.45594000000E+02  0.51100000000E-03 0. -1.
         11   -1    0    0    0    0 -0.00000000000E+00 -0.00000000000E+00 -0.45593999997E+02  0.45594000000E+02  0.51100000000E-03 0.  1.
    9900012    2    1    2    0    0  0.33399082971E+02  0.27278404222E+02 -0.49003348006E+01  0.47787270037E+02  0.19999995406E+02 0.  0.
        -12    1    1    2    0    0 -0.33399082971E+02 -0.27278404222E+02  0.49003348006E+01  0.43400729963E+02  0.00000000000E+00 0.  1.
         11    1    3    3    0    0  0.21644807863E+02  0.23567978889E+02  0.19223008832E+00  0.31999754515E+02  0.51100000000E-03 0. -1.
        -11    1    3    3    0    0  0.59908340948E+01 -0.22539136340E+01 -0.80618519815E+00  0.64513684328E+01  0.51100000000E-03 0.  1.
         12    1    3    3    0    0  0.57634410127E+01  0.59643389672E+01 -0.42863796907E+01  0.93361470895E+01  0.00000000000E+00 0. -1.
</event>
<event>
 7    1  0.3062695E-010  0.4778727E+02  0.7816164E-02  0.1312668E+00
        -11   -1    0    0    0    0  0.00000000000E+00  0.00000000000E+00  0.45593999997E+02  0.45594000000E+02  0.51100000000E-03 0.  1.
         11   -1    0    0    0    0 -0.00000000000E+00 -0.00000000000E+00 -0.45593999997E+02  0.45594000000E+02  0.51100000000E-03 0. -1.
    9900012    2    1    2    0    0  0.15010905465E+02 -0.35381831993E+02 -0.20159917812E+02  0.47787267238E+02  0.19999982647E+02 0.  0.
        -12    1    1    2    0    0 -0.15010905465E+02  0.35381831993E+02  0.20159917812E+02  0.43400732762E+02  0.00000000000E+00 0.  1.
         11    1    3    3    0    0  0.47459899539E+01 -0.95420786932E+01 -0.13292944563E+02  0.17037548587E+02  0.51100000000E-03 0.  1.
        -11    1    3    3    0    0  0.24067512318E+01 -0.19936163228E+02 -0.36650966071E+01  0.20412642875E+02  0.51100000000E-03 0. -1.
        -12    1    3    3    0    0  0.78581642797E+01 -0.59035900711E+01 -0.32018766426E+01  0.10337075776E+02  0.00000000000E+00 0.  1.
</event>
<event>
 7    1 -0.3062695E-010  0.4778728E+02  0.7816164E-02  0.1312668E+00
        -11   -1    0    0    0    0  0.00000000000E+00  0.00000000000E+00  0.45593999997E+02  0.45594000000E+02  0.51100000000E-03 0. -1.
         11   -1    0    0    0    0 -0.00000000000E+00 -0.00000000000E+00 -0.45593999997E+02  0.45594000000E+02  0.51100000000E-03 0.  1.
    9900012    2    1    2    0    0 -0.28205606673E+02 -0.20340481603E+02  0.25967892926E+02  0.47787275321E+02  0.20000019499E+02 0.  0.
        -12    1    1    2    0    0  0.28205606673E+02  0.20340481603E+02 -0.25967892926E+02  0.43400724679E+02  0.00000000000E+00 0.  1.
         11    1    3    3    0    0 -0.11255638887E+02 -0.77877433836E+01  0.87974234430E+01  0.16270618097E+02  0.51100000000E-03 0. -1.
        -11    1    3    3    0    0 -0.86795945507E+01  0.17199930703E+01  0.19261437842E+01  0.90555931813E+01  0.51100000000E-03 0.  1.
        -12    1    3    3    0    0 -0.82703732355E+01 -0.14272731290E+02  0.15244325699E+02  0.22461064043E+02  0.00000000000E+00 0.  1.
</event>
<event>
 7    1  0.3062695E-010  0.4778728E+02  0.7816164E-02  0.1312668E+00
        -11   -1    0    0    0    0  0.00000000000E+00  0.00000000000E+00  0.45593999997E+02  0.45594000000E+02  0.51100000000E-03 0.  1.
         11   -1    0    0    0    0 -0.00000000000E+00 -0.00000000000E+00 -0.45593999997E+02  0.45594000000E+02  0.51100000000E-03 0. -1.
    9900012    2    1    2    0    0 -0.12768021740E+02 -0.41461223112E+02  0.12518674134E+01  0.47787279117E+02  0.20000036807E+02 0.  0.
        -12    1    1    2    0    0  0.12768021740E+02  0.41461223112E+02 -0.12518674134E+01  0.43400720883E+02  0.00000000000E+00 0.  1.
         11    1    3    3    0    0 -0.11255329355E+02 -0.36108167711E+02 -0.35193079688E+01  0.37985098963E+02  0.51100000000E-03 0. -1.
        -11    1    3    3    0    0 -0.45675795022E-01 -0.63253934965E+01  0.49513790440E+01  0.80329847418E+01  0.51100000000E-03 0.  1.
         12    1    3    3    0    0 -0.14670165900E+01  0.97233809566E+00 -0.18020366178E+00  0.17691954124E+01  0.00000000000E+00 0. -1.
</event>
<event>
 7    1  0.3062695E-010  0.4778727E+02  0.7816164E-02  0.1312668E+00
        -11   -1    0    0    0    0  0.00000000000E+00  0.00000000000E+00  0.45593999997E+02  0.45594000000E+02  0.51100000000E-03 0. -1.
         11   -1    0    0    0    0 -0.00000000000E+00 -0.00000000000E+00 -0.45593999997E+02  0.45594000000E+02  0.51100000000E-03 0.  1.
    9900012    2    1    2    0    0 -0.14721068661E+01 -0.18416720662E+02  0.39271879746E+02  0.47787271465E+02  0.20000001917E+02 0.  0.
        -12    1    1    2    0    0  0.14721068661E+01  0.18416720662E+02 -0.39271879746E+02  0.43400728535E+02  0.00000000000E+00 0.  1.
         11    1    3    3    0    0  0.58702861224E+01 -0.44858730180E+01  0.14342865250E+02  0.16133849502E+02  0.51100000000E-03 0. -1.
        -11    1    3    3    0    0 -0.83016344545E+01 -0.15274478146E+02  0.24318140453E+02  0.29893122497E+02  0.51100000000E-03 0.  1.
        -12    1    3    3    0    0  0.95924146599E+00  0.13436305020E+01  0.61087404324E+00  0.17602994668E+01  0.00000000000E+00 0.  1.
</event>
<event>
 7    1  0.3062695E-010  0.4778724E+02  0.7816164E-02  0.1312668E+00
        -11   -1    0    0    0    0  0.00000000000E+00  0.00000000000E+00  0.45593999997E+02  0.45594000000E+02  0.51100000000E-03 0. -1.
         11   -1    0    0    0    0 -0.00000000000E+00 -0.00000000000E+00 -0.45593999997E+02  0.45594000000E+02  0.51100000000E-03 0.  1.
    9900012    2    1    2    0    0 -0.21784861858E+02  0.28125422512E+02  0.24859735736E+02  0.47787238964E+02  0.19999853733E+02 0.  0.
        -12    1    1    2    0    0  0.21784861858E+02 -0.28125422512E+02 -0.24859735736E+02  0.43400761036E+02  0.00000000000E+00 0.  1.
         11    1    3    3    0    0 -0.13724678124E+02  0.98242167851E+01  0.13847103694E+02  0.21831727051E+02  0.51100000000E-03 0. -1.
        -11    1    3    3    0    0 -0.49433612079E+01  0.19322837032E+02  0.10768423671E+02  0.22666446559E+02  0.51100000000E-03 0.  1.
        -12    1    3    3    0    0 -0.31168225257E+01 -0.10216313049E+01  0.24420837162E+00  0.32890653549E+01  0.00000000000E+00 0.  1.
</event>
<event>
 7    1  0.3062695E-010  0.4778727E+02  0.7816164E-02  0.1312668E+00
        -11   -1    0    0    0    0  0.00000000000E+00  0.00000000000E+00  0.45593999997E+02  0.45594000000E+02  0.51100000000E-03 0. -1.
         11   -1    0    0    0    0 -0.00000000000E+00 -0.00000000000E+00 -0.45593999997E+02  0.45594000000E+02  0.51100000000E-03 0.  1.
    9900012    2    1    2    0    0 -0.24217511968E+01  0.22472819100E+02  0.37050381453E+02  0.47787271400E+02  0.20000001621E+02 0.  0.
        -12    1    1    2    0    0  0.24217511968E+01 -0.22472819100E+02 -0.37050381453E+02  0.43400728600E+02  0.00000000000E+00 0.  1.
         11    1    3    3    0    0 -0.14764354027E+01  0.55994647036E+01  0.15579879558E+00  0.57929388044E+01  0.51100000000E-03 0. -1.
        -11    1    3    3    0    0  0.22969956399E+01  0.27531834480E+01  0.17687803355E+01  0.39980985737E+01  0.51100000000E-03 0.  1.
         12    1    3    3    0    0 -0.32423114341E+01  0.14120170949E+02  0.35125802322E+02  0.37996234022E+02  0.00000000000E+00 0. -1.
</event>
<event>
 7    1  0.3062695E-010  0.4778724E+02  0.7816164E-02  0.1312668E+00
        -11   -1    0    0    0    0  0.00000000000E+00  0.00000000000E+00  0.45593999997E+02  0.45594000000E+02  0.51100000000E-03 0.  1.
         11   -1    0    0    0    0 -0.00000000000E+00 -0.00000000000E+00 -0.45593999997E+02  0.45594000000E+02  0.51100000000E-03 0. -1.
    9900012    2    1    2    0    0  0.30864763341E+02 -0.15414668636E+02 -0.26332118833E+02  0.47787238400E+02  0.19999851158E+02 0.  0.
        -12    1    1    2    0    0 -0.30864763341E+02  0.15414668636E+02  0.26332118833E+02  0.43400761600E+02  0.00000000000E+00 0.  1.
         11    1    3    3    0    0  0.17657619815E+02 -0.13133237058E+02 -0.19056959096E+02  0.29110842369E+02  0.51100000000E-03 0. -1.
        -11    1    3    3    0    0  0.11351450984E+02  0.25649932109E+01 -0.67669290848E+01  0.13462019132E+02  0.51100000000E-03 0.  1.
         12    1    3    3    0    0  0.18556925422E+01 -0.48464247888E+01 -0.50823065156E+00  0.52143768985E+01  0.00000000000E+00 0. -1.
</event>
<event>
 7    1  0.3062695E-010  0.4778728E+02  0.7816164E-02  0.1312668E+00
        -11   -1    0    0    0    0  0.00000000000E+00  0.00000000000E+00  0.45593999997E+02  0.45594000000E+02  0.51100000000E-03 0. -1.
         11   -1    0    0    0    0 -0.00000000000E+00 -0.00000000000E+00 -0.45593999997E+02  0.45594000000E+02  0.51100000000E-03 0.  1.
    9900012    2    1    2    0    0  0.33381980833E+02 -0.23416047945E+02 -0.14864549449E+02  0.47787276780E+02  0.20000026149E+02 0.  0.
        -12    1    1    2    0    0 -0.33381980833E+02  0.23416047945E+02  0.14864549449E+02  0.43400723220E+02  0.00000000000E+00 0.  1.
         11    1    3    3    0    0  0.14088235776E+02 -0.14422168848E+02 -0.56855140061E+01  0.20947611113E+02  0.51100000000E-03 0. -1.
        -11    1    3    3    0    0  0.17446623581E+02 -0.25370749944E+01 -0.96663165314E+01  0.20106195549E+02  0.51100000000E-03 0.  1.
         12    1    3    3    0    0  0.18471214762E+01 -0.64568041028E+01  0.48728108830E+00  0.67334701179E+01  0.00000000000E+00 0. -1.
</event>
<event>
 7    1  0.3062695E-010  0.4778727E+02  0.7816164E-02  0.1312668E+00
        -11   -1    0    0    0    0  0.00000000000E+00  0.00000000000E+00  0.45593999997E+02  0.45594000000E+02  0.51100000000E-03 0.  1.
         11   -1    0    0    0    0 -0.00000000000E+00 -0.00000000000E+00 -0.45593999997E+02  0.45594000000E+02  0.51100000000E-03 0. -1.
    9900012    2    1    2    0    0 -0.11824948101E+02 -0.34870344606E+02 -0.22975052798E+02  0.47787269803E+02  0.19999994341E+02 0.  0.
        -12    1    1    2    0    0  0.11824948101E+02  0.34870344606E+02  0.22975052798E+02  0.43400730197E+02  0.00000000000E+00 0.  1.
         11    1    3    3    0    0  0.34562640492E+01 -0.90146980689E+01 -0.46559099454E+01  0.10718583868E+02  0.51100000000E-03 0. -1.
        -11    1    3    3    0    0 -0.51261708592E+01 -0.12442036971E+01 -0.11816089758E+01  0.54057257192E+01  0.51100000000E-03 0.  1.
         12    1    3    3    0    0 -0.10155041291E+02 -0.24611442840E+02 -0.17137533877E+02  0.31662960216E+02  0.00000000000E+00 0. -1.
</event>
<event>
 7    1  0.3062695E-010  0.4778727E+02  0.7816164E-02  0.1312668E+00
        -11   -1    0    0    0    0  0.00000000000E+00  0.00000000000E+00  0.45593999997E+02  0.45594000000E+02  0.51100000000E-03 0.  1.
         11   -1    0    0    0    0 -0.00000000000E+00 -0.00000000000E+00 -0.45593999997E+02  0.45594000000E+02  0.51100000000E-03 0. -1.
    9900012    2    1    2    0    0  0.71100587990E+01 -0.28006079929E+02 -0.32384095346E+02  0.47787273272E+02  0.20000010157E+02 0.  0.
        -12    1    1    2    0    0 -0.71100587990E+01  0.28006079929E+02  0.32384095346E+02  0.43400726728E+02  0.00000000000E+00 0.  1.
         11    1    3    3    0    0 -0.33999082852E+01 -0.22256579978E+02 -0.21667470394E+02  0.31247303918E+02  0.51100000000E-03 0. -1.
        -11    1    3    3    0    0 -0.68137538616E-01 -0.82691144566E+00 -0.25190946058E+00  0.86711239212E+00  0.51100000000E-03 0.  1.
         12    1    3    3    0    0  0.10578104623E+02 -0.49225885054E+01 -0.10464715492E+02  0.15672856962E+02  0.00000000000E+00 0. -1.
</event>
<event>
 7    1  0.3062695E-010  0.4778727E+02  0.7816164E-02  0.1312668E+00
        -11   -1    0    0    0    0  0.00000000000E+00  0.00000000000E+00  0.45593999997E+02  0.45594000000E+02  0.51100000000E-03 0. -1.
         11   -1    0    0    0    0 -0.00000000000E+00 -0.00000000000E+00 -0.45593999997E+02  0.45594000000E+02  0.51100000000E-03 0.  1.
    9900012    2    1    2    0    0  0.17629745690E+02 -0.33109018668E+02 -0.21831359229E+02  0.47787270789E+02  0.19999998834E+02 0.  0.
        -12    1    1    2    0    0 -0.17629745690E+02  0.33109018668E+02  0.21831359229E+02  0.43400729211E+02  0.00000000000E+00 0.  1.
         11    1    3    3    0    0  0.83859016501E+01 -0.33717344231E+01 -0.11446925429E+01  0.91105576549E+01  0.51100000000E-03 0. -1.
        -11    1    3    3    0    0  0.19370145470E+01 -0.10277923457E+01  0.50805045853E+00  0.22508882670E+01  0.51100000000E-03 0.  1.
         12    1    3    3    0    0  0.73068294930E+01 -0.28709491899E+02 -0.21194717145E+02  0.36425824867E+02  0.00000000000E+00 0. -1.
</event>
<event>
 7    1  0.3490767E-010  0.4778727E+02  0.7816164E-02  0.1312668E+00
        -11   -1    0    0    0    0  0.00000000000E+00  0.00000000000E+00  0.45593999997E+02  0.45594000000E+02  0.51100000000E-03 0. -1.
         11   -1    0    0    0    0 -0.00000000000E+00 -0.00000000000E+00 -0.45593999997E+02  0.45594000000E+02  0.51100000000E-03 0.  1.
    9900012    2    1    2    0    0  0.37035503071E+02  0.15678645742E+02  0.16314868215E+02  0.47787270226E+02  0.19999996269E+02 0.  0.
        -12    1    1    2    0    0 -0.37035503071E+02 -0.15678645742E+02 -0.16314868215E+02  0.43400729774E+02  0.00000000000E+00 0.  1.
         11    1    3    3    0    0  0.88241122931E+01  0.22374064197E+01  0.27072584530E+01  0.94973782614E+01  0.51100000000E-03 0. -1.
        -11    1    3    3    0    0  0.27231003838E+02  0.58964917762E+01  0.12725943831E+02  0.30630798748E+02  0.51100000000E-03 0.  1.
        -12    1    3    3    0    0  0.98038693955E+00  0.75447475460E+01  0.88166593119E+00  0.76590932165E+01  0.00000000000E+00 0.  1.
</event>
<event>
 7    1  0.3062695E-010  0.4778727E+02  0.7816164E-02  0.1312668E+00
        -11   -1    0    0    0    0  0.00000000000E+00  0.00000000000E+00  0.45593999997E+02  0.45594000000E+02  0.51100000000E-03 0. -1.
         11   -1    0    0    0    0 -0.00000000000E+00 -0.00000000000E+00 -0.45593999997E+02  0.45594000000E+02  0.51100000000E-03 0.  1.
    9900012    2    1    2    0    0 -0.24631545495E+02  0.31625766732E+02  0.16634933323E+02  0.47787272339E+02  0.20000005902E+02 0.  0.
        -12    1    1    2    0    0  0.24631545495E+02 -0.31625766732E+02 -0.16634933323E+02  0.43400727661E+02  0.00000000000E+00 0.  1.
         11    1    3    3    0    0 -0.75014245418E+01  0.15663249413E+02  0.16743740772E+02  0.24123880443E+02  0.51100000000E-03 0. -1.
        -11    1    3    3    0    0 -0.15343440419E+00  0.44212585924E+00 -0.46352584345E+00  0.65869102048E+00  0.51100000000E-03 0.  1.
         12    1    3    3    0    0 -0.16976686549E+02  0.15520391460E+02  0.35471839483E+00  0.23004700876E+02  0.00000000000E+00 0. -1.
</event>
<event>
 7    1  0.3062695E-010  0.4778727E+02  0.7816164E-02  0.1312668E+00
        -11   -1    0    0    0    0  0.00000000000E+00  0.00000000000E+00  0.45593999997E+02  0.45594000000E+02  0.51100000000E-03 0. -1.
         11   -1    0    0    0    0 -0.00000000000E+00 -0.00000000000E+00 -0.45593999997E+02  0.45594000000E+02  0.51100000000E-03 0.  1.
    9900012    2    1    2    0    0 -0.53481430740E+01  0.13020055440E+02  0.41054831935E+02  0.47787266098E+02  0.19999977446E+02 0.  0.
        -12    1    1    2    0    0  0.53481430740E+01 -0.13020055440E+02 -0.41054831935E+02  0.43400733902E+02  0.00000000000E+00 0.  1.
         11    1    3    3    0    0 -0.55716614084E+01  0.27742960324E+01  0.12447635604E+02  0.13917031354E+02  0.51100000000E-03 0. -1.
        -11    1    3    3    0    0  0.76803658364E+00 -0.31304466295E+00 -0.16348973141E+01  0.18332393852E+01  0.51100000000E-03 0.  1.
         12    1    3    3    0    0 -0.54451824923E+00  0.10558804071E+02  0.30242093645E+02  0.32036995358E+02  0.00000000000E+00 0. -1.
</event>
<event>
 7    1  0.3062695E-010  0.4778727E+02  0.7816164E-02  0.1312668E+00
        -11   -1    0    0    0    0  0.00000000000E+00  0.00000000000E+00  0.45593999997E+02  0.45594000000E+02  0.51100000000E-03 0.  1.
         11   -1    0    0    0    0 -0.00000000000E+00 -0.00000000000E+00 -0.45593999997E+02  0.45594000000E+02  0.51100000000E-03 0. -1.
    9900012    2    1    2    0    0 -0.10885849640E+01 -0.22443555815E+01 -0.43328986198E+02  0.47787271963E+02  0.20000004190E+02 0.  0.
        -12    1    1    2    0    0  0.10885849640E+01  0.22443555815E+01  0.43328986198E+02  0.43400728037E+02  0.00000000000E+00 0.  1.
         11    1    3    3    0    0 -0.20106056556E+01  0.83888216938E+00  0.11794883548E+01  0.24773880271E+01  0.51100000000E-03 0.  1.
        -11    1    3    3    0    0  0.29626578126E+00 -0.36194435816E+01 -0.44314816223E+02  0.44463367871E+02  0.51100000000E-03 0. -1.
         12    1    3    3    0    0  0.62575491036E+00  0.53620583074E+00 -0.19365832933E+00  0.84651606558E+00  0.00000000000E+00 0. -1.
</event>
<event>
 7    1  0.3062695E-010  0.4778727E+02  0.7816164E-02  0.1312668E+00
        -11   -1    0    0    0    0  0.00000000000E+00  0.00000000000E+00  0.45593999997E+02  0.45594000000E+02  0.51100000000E-03 0.  1.
         11   -1    0    0    0    0 -0.00000000000E+00 -0.00000000000E+00 -0.45593999997E+02  0.45594000000E+02  0.51100000000E-03 0. -1.
    9900012    2    1    2    0    0 -0.25595615048E+02  0.13644778302E+02 -0.32284796997E+02  0.47787267267E+02  0.19999982776E+02 0.  0.
        -12    1    1    2    0    0  0.25595615048E+02 -0.13644778302E+02  0.32284796997E+02  0.43400732733E+02  0.00000000000E+00 0.  1.
         11    1    3    3    0    0 -0.19520692005E+02  0.92142394683E+01 -0.28735149962E+02  0.35939789495E+02  0.51100000000E-03 0. -1.
        -11    1    3    3    0    0 -0.52892834422E+01  0.53541752504E+01  0.57514644305E+00  0.75481458409E+01  0.51100000000E-03 0.  1.
         12    1    3    3    0    0 -0.78563960073E+00 -0.92363641633E+00 -0.41247934782E+01  0.42993319306E+01  0.00000000000E+00 0. -1.
</event>
<event>
 7    1  0.3062695E-010  0.4778727E+02  0.7816164E-02  0.1312668E+00
        -11   -1    0    0    0    0  0.00000000000E+00  0.00000000000E+00  0.45593999997E+02  0.45594000000E+02  0.51100000000E-03 0.  1.
         11   -1    0    0    0    0 -0.00000000000E+00 -0.00000000000E+00 -0.45593999997E+02  0.45594000000E+02  0.51100000000E-03 0. -1.
    9900012    2    1    2    0    0  0.42356523678E+02  0.32108862332E+01 -0.89015890541E+01  0.47787272170E+02  0.20000005134E+02 0.  0.
        -12    1    1    2    0    0 -0.42356523678E+02 -0.32108862332E+01  0.89015890541E+01  0.43400727830E+02  0.00000000000E+00 0.  1.
         11    1    3    3    0    0  0.92882063446E+01  0.25744676403E+01 -0.43004375496E+01  0.10554260946E+02  0.51100000000E-03 0. -1.
        -11    1    3    3    0    0  0.14281668156E+02 -0.13740373805E+01 -0.10110654417E+02  0.17552189523E+02  0.51100000000E-03 0.  1.
        -12    1    3    3    0    0  0.18786649177E+02  0.20104559735E+01  0.55095029125E+01  0.19680821702E+02  0.00000000000E+00 0.  1.
</event>
<event>
 7    1  0.3062695E-010  0.4778727E+02  0.7816164E-02  0.1312668E+00
        -11   -1    0    0    0    0  0.00000000000E+00  0.00000000000E+00  0.45593999997E+02  0.45594000000E+02  0.51100000000E-03 0. -1.
         11   -1    0    0    0    0 -0.00000000000E+00 -0.00000000000E+00 -0.45593999997E+02  0.45594000000E+02  0.51100000000E-03 0.  1.
    9900012    2    1    2    0    0 -0.28284004685E+02  0.29033827697E+02  0.15513700266E+02  0.47787274572E+02  0.20000016083E+02 0.  0.
        -12    1    1    2    0    0  0.28284004685E+02 -0.29033827697E+02 -0.15513700266E+02  0.43400725428E+02  0.00000000000E+00 0.  1.
         11    1    3    3    0    0 -0.11523065817E+02  0.79325812316E+01 -0.20800288048E+01  0.14143316828E+02  0.51100000000E-03 0. -1.
        -11    1    3    3    0    0 -0.13762756203E+02  0.14018152401E+02  0.16912942858E+02  0.25922378198E+02  0.51100000000E-03 0.  1.
        -12    1    3    3    0    0 -0.29981826647E+01  0.70830940642E+01  0.68078621259E+00  0.77215795457E+01  0.00000000000E+00 0.  1.
</event>
<event>
 7    1  0.3062695E-010  0.4778728E+02  0.7816164E-02  0.1312668E+00
        -11   -1    0    0    0    0  0.00000000000E+00  0.00000000000E+00  0.45593999997E+02  0.45594000000E+02  0.51100000000E-03 0.  1.
         11   -1    0    0    0    0 -0.00000000000E+00 -0.00000000000E+00 -0.45593999997E+02  0.45594000000E+02  0.51100000000E-03 0. -1.
    9900012    2    1    2    0    0 -0.43347654733E+02 -0.83418107846E+00  0.19766423172E+01  0.47787284064E+02  0.20000059362E+02 0.  0.
        -12    1    1    2    0    0  0.43347654733E+02  0.83418107846E+00 -0.19766423172E+01  0.43400715936E+02  0.00000000000E+00 0.  1.
         11    1    3    3    0    0 -0.30273102840E+02 -0.32598792678E-01 -0.33526229773E+01  0.30458199214E+02  0.51100000000E-03 0. -1.
        -11    1    3    3    0    0 -0.10635184613E+02  0.22842167090E+01  0.21857952612E+00  0.10879916130E+02  0.51100000000E-03 0.  1.
         12    1    3    3    0    0 -0.24393672794E+01 -0.30857989947E+01  0.51106857685E+01  0.64491687204E+01  0.00000000000E+00 0. -1.
</event>
<event>
 7    1  0.3062695E-010  0.4778732E+02  0.7816164E-02  0.1312668E+00
        -11   -1    0    0    0    0  0.00000000000E+00  0.00000000000E+00  0.45593999997E+02  0.45594000000E+02  0.51100000000E-03 0.  1.
         11   -1    0    0    0    0 -0.00000000000E+00 -0.00000000000E+00 -0.45593999997E+02  0.45594000000E+02  0.51100000000E-03 0. -1.
    9900012    2    1    2    0    0  0.28870033913E+02  0.11781537925E+02 -0.30188338859E+02  0.47787316859E+02  0.20000208888E+02 0.  0.
        -12    1    1    2    0    0 -0.28870033913E+02 -0.11781537925E+02  0.30188338859E+02  0.43400683141E+02  0.00000000000E+00 0.  1.
         11    1    3    3    0    0  0.18145442622E+02  0.56697163874E+01 -0.85860486584E+01  0.20859602194E+02  0.51100000000E-03 0. -1.
        -11    1    3    3    0    0  0.36007267574E+01  0.52325803645E+01 -0.30717744338E+01  0.70555601397E+01  0.51100000000E-03 0.  1.
         12    1    3    3    0    0  0.71238645342E+01  0.87924117289E+00 -0.18530515766E+02  0.19872154526E+02  0.00000000000E+00 0. -1.
</event>
<event>
 7    1  0.3062695E-010  0.4778727E+02  0.7816164E-02  0.1312668E+00
        -11   -1    0    0    0    0  0.00000000000E+00  0.00000000000E+00  0.45593999997E+02  0.45594000000E+02  0.51100000000E-03 0.  1.
         11   -1    0    0    0    0 -0.00000000000E+00 -0.00000000000E+00 -0.45593999997E+02  0.45594000000E+02  0.51100000000E-03 0. -1.
    9900012    2    1    2    0    0 -0.13333101523E+02  0.10730648044E+02 -0.39883641213E+02  0.47787271434E+02  0.20000001777E+02 0.  0.
        -12    1    1    2    0    0  0.13333101523E+02 -0.10730648044E+02  0.39883641213E+02  0.43400728566E+02  0.00000000000E+00 0.  1.
         11    1    3    3    0    0 -0.80933145083E+01  0.56762663921E+01 -0.36227503720E+02  0.37552014140E+02  0.51100000000E-03 0. -1.
        -11    1    3    3    0    0  0.13785561802E+01  0.95569704305E+00 -0.12340207289E+01  0.20824460138E+01  0.51100000000E-03 0.  1.
         12    1    3    3    0    0 -0.66183431944E+01  0.40986846089E+01 -0.24221167636E+01  0.81528112807E+01  0.00000000000E+00 0. -1.
</event>
<event>
 7    1  0.3062695E-010  0.4778727E+02  0.7816164E-02  0.1312668E+00
        -11   -1    0    0    0    0  0.00000000000E+00  0.00000000000E+00  0.45593999997E+02  0.45594000000E+02  0.51100000000E-03 0.  1.
         11   -1    0    0    0    0 -0.00000000000E+00 -0.00000000000E+00 -0.45593999997E+02  0.45594000000E+02  0.51100000000E-03 0. -1.
    9900012    2    1    2    0    0 -0.93842590354E+01  0.34850477688E+02 -0.24104013007E+02  0.47787267797E+02  0.19999985194E+02 0.  0.
        -12    1    1    2    0    0  0.93842590354E+01 -0.34850477688E+02  0.24104013007E+02  0.43400732203E+02  0.00000000000E+00 0.  1.
         11    1    3    3    0    0 -0.88466451525E+01  0.13186712194E+02 -0.17964027396E+01  0.15980599864E+02  0.51100000000E-03 0. -1.
        -11    1    3    3    0    0  0.14741911902E+01  0.18892556601E+02 -0.16818820391E+02  0.25337218754E+02  0.51100000000E-03 0.  1.
         12    1    3    3    0    0 -0.20118050731E+01  0.27712088930E+01 -0.54887898760E+01  0.64694491793E+01  0.00000000000E+00 0. -1.
</event>
<event>
 7    1  0.3062695E-010  0.4778727E+02  0.7816164E-02  0.1312668E+00
        -11   -1    0    0    0    0  0.00000000000E+00  0.00000000000E+00  0.45593999997E+02  0.45594000000E+02  0.51100000000E-03 0. -1.
         11   -1    0    0    0    0 -0.00000000000E+00 -0.00000000000E+00 -0.45593999997E+02  0.45594000000E+02  0.51100000000E-03 0.  1.
    9900012    2    1    2    0    0 -0.22035055947E+02  0.12674086578E+02  0.35177373848E+02  0.47787265075E+02  0.19999972783E+02 0.  0.
        -12    1    1    2    0    0  0.22035055947E+02 -0.12674086578E+02 -0.35177373848E+02  0.43400734925E+02  0.00000000000E+00 0.  1.
         11    1    3    3    0    0 -0.15354161715E+02 -0.41398221626E+00  0.10128317143E+02  0.18398491015E+02  0.51100000000E-03 0. -1.
        -11    1    3    3    0    0 -0.67536271190E+01  0.12786044598E+02  0.22017314439E+02  0.26341156980E+02  0.51100000000E-03 0.  1.
        -12    1    3    3    0    0  0.72732887050E-01  0.30202419667E+00  0.30317422670E+01  0.30476170792E+01  0.00000000000E+00 0.  1.
</event>
<event>
 7    1  0.3078069E-010  0.4778727E+02  0.7816164E-02  0.1312668E+00
        -11   -1    0    0    0    0  0.00000000000E+00  0.00000000000E+00  0.45593999997E+02  0.45594000000E+02  0.51100000000E-03 0.  1.
         11   -1    0    0    0    0 -0.00000000000E+00 -0.00000000000E+00 -0.45593999997E+02  0.45594000000E+02  0.51100000000E-03 0. -1.
    9900012    2    1    2    0    0 -0.34434919642E+02 -0.20533843921E+02 -0.16619900620E+02  0.47787268053E+02  0.19999986359E+02 0.  0.
        -12    1    1    2    0    0  0.34434919642E+02  0.20533843921E+02  0.16619900620E+02  0.43400731947E+02  0.00000000000E+00 0.  1.
         11    1    3    3    0    0 -0.16137712763E+02 -0.71185777489E+01 -0.11265669807E+02  0.20928813604E+02  0.51100000000E-03 0. -1.
        -11    1    3    3    0    0 -0.16857951839E+02 -0.15742164394E+02 -0.30202657778E+01  0.23262164251E+02  0.51100000000E-03 0.  1.
        -12    1    3    3    0    0 -0.14392550399E+01  0.23268982214E+01 -0.23339650353E+01  0.35962901981E+01  0.00000000000E+00 0.  1.
</event>
<event>
 7    1  0.3062695E-010  0.4778727E+02  0.7816164E-02  0.1312668E+00
        -11   -1    0    0    0    0  0.00000000000E+00  0.00000000000E+00  0.45593999997E+02  0.45594000000E+02  0.51100000000E-03 0.  1.
         11   -1    0    0    0    0 -0.00000000000E+00 -0.00000000000E+00 -0.45593999997E+02  0.45594000000E+02  0.51100000000E-03 0. -1.
    9900012    2    1    2    0    0 -0.29841054777E+02  0.19183434605E+02 -0.25002608360E+02  0.47787272607E+02  0.20000007124E+02 0.  0.
        -12    1    1    2    0    0  0.29841054777E+02 -0.19183434605E+02  0.25002608360E+02  0.43400727393E+02  0.00000000000E+00 0.  1.
         11    1    3    3    0    0 -0.20676396862E+02  0.30855016457E+01 -0.11043953383E+02  0.23643236119E+02  0.51100000000E-03 0. -1.
        -11    1    3    3    0    0 -0.24608814585E+01  0.70672450858E+01 -0.20398256185E+01  0.77564669451E+01  0.51100000000E-03 0.  1.
         12    1    3    3    0    0 -0.67037764569E+01  0.90306878736E+01 -0.11918829358E+02  0.16387569543E+02  0.00000000000E+00 0. -1.
</event>
<event>
 7    1  0.3062695E-010  0.4778727E+02  0.7816164E-02  0.1312668E+00
        -11   -1    0    0    0    0  0.00000000000E+00  0.00000000000E+00  0.45593999997E+02  0.45594000000E+02  0.51100000000E-03 0.  1.
         11   -1    0    0    0    0 -0.00000000000E+00 -0.00000000000E+00 -0.45593999997E+02  0.45594000000E+02  0.51100000000E-03 0. -1.
    9900012    2    1    2    0    0 -0.41392532410E+02  0.37833254856E+01 -0.12488710785E+02  0.47787272033E+02  0.20000004506E+02 0.  0.
        -12    1    1    2    0    0  0.41392532410E+02 -0.37833254856E+01  0.12488710785E+02  0.43400727967E+02  0.00000000000E+00 0.  1.
         11    1    3    3    0    0 -0.98372471226E+01  0.92714678354E+01 -0.70173947185E+01  0.15230737857E+02  0.51100000000E-03 0. -1.
        -11    1    3    3    0    0 -0.30387543338E+02 -0.49812981797E+01 -0.49860207927E+01  0.31194174541E+02  0.51100000000E-03 0.  1.
         12    1    3    3    0    0 -0.11677419486E+01 -0.50684417007E+00 -0.48529527360E+00  0.13623596345E+01  0.00000000000E+00 0. -1.
</event>
<event>
 7    1  0.3062695E-010  0.4778730E+02  0.7816164E-02  0.1312668E+00
        -11   -1    0    0    0    0  0.00000000000E+00  0.00000000000E+00  0.45593999997E+02  0.45594000000E+02  0.51100000000E-03 0.  1.
         11   -1    0    0    0    0 -0.00000000000E+00 -0.00000000000E+00 -0.45593999997E+02  0.45594000000E+02  0.51100000000E-03 0. -1.
    9900012    2    1    2    0    0  0.16680150274E+02 -0.12181086314E+02 -0.38170862858E+02  0.47787296685E+02  0.20000116903E+02 0.  0.
        -12    1    1    2    0    0 -0.16680150274E+02  0.12181086314E+02  0.38170862858E+02  0.43400703315E+02  0.00000000000E+00 0.  1.
         11    1    3    3    0    0  0.30652319896E+01  0.29490407232E+01 -0.18843756695E+02  0.19317858447E+02  0.51100000000E-03 0. -1.
        -11    1    3    3    0    0  0.76684282981E+01 -0.11020490241E+02 -0.14588621898E+02  0.19826343255E+02  0.51100000000E-03 0.  1.
         12    1    3    3    0    0  0.59464899860E+01 -0.41096367955E+01 -0.47384842650E+01  0.86430949824E+01  0.00000000000E+00 0. -1.
</event>
<event>
 7    1  0.3812623E-010  0.4778727E+02  0.7816164E-02  0.1312668E+00
        -11   -1    0    0    0    0  0.00000000000E+00  0.00000000000E+00  0.45593999997E+02  0.45594000000E+02  0.51100000000E-03 0.  1.
         11   -1    0    0    0    0 -0.00000000000E+00 -0.00000000000E+00 -0.45593999997E+02  0.45594000000E+02  0.51100000000E-03 0. -1.
    9900012    2    1    2    0    0 -0.35723706656E+02 -0.57028564121E+01 -0.23977434269E+02  0.47787272557E+02  0.20000006895E+02 0.  0.
        -12    1    1    2    0    0  0.35723706656E+02  0.57028564121E+01  0.23977434269E+02  0.43400727443E+02  0.00000000000E+00 0.  1.
         11    1    3    3    0    0 -0.19264678092E+02 -0.12213370135E+01 -0.86189221681E+01  0.21140134949E+02  0.51100000000E-03 0. -1.
        -11    1    3    3    0    0 -0.28436773312E+01 -0.73251999074E+01 -0.51809173690E+01  0.94120645712E+01  0.51100000000E-03 0.  1.
        -12    1    3    3    0    0 -0.13615351233E+02  0.28436805088E+01 -0.10177594732E+02  0.17235073036E+02  0.00000000000E+00 0.  1.
</event>
<event>
 7    1  0.3062695E-010  0.4778726E+02  0.7816164E-02  0.1312668E+00
        -11   -1    0    0    0    0  0.00000000000E+00  0.00000000000E+00  0.45593999997E+02  0.45594000000E+02  0.51100000000E-03 0.  1.
         11   -1    0    0    0    0 -0.00000000000E+00 -0.00000000000E+00 -0.45593999997E+02  0.45594000000E+02  0.51100000000E-03 0. -1.
    9900012    2    1    2    0    0 -0.17832536047E+02  0.33449725052E+02 -0.21136247260E+02  0.47787258116E+02  0.19999941052E+02 0.  0.
        -12    1    1    2    0    0  0.17832536047E+02 -0.33449725052E+02  0.21136247260E+02  0.43400741884E+02  0.00000000000E+00 0.  1.
         11    1    3    3    0    0 -0.10527415195E+02  0.12224463433E+02 -0.66574655902E+01  0.17452387380E+02  0.51100000000E-03 0. -1.
        -11    1    3    3    0    0 -0.42004767929E+01  0.12625725111E+02 -0.11316372652E+00  0.13306605358E+02  0.51100000000E-03 0.  1.
        -12    1    3    3    0    0 -0.31046440587E+01  0.85995365075E+01 -0.14365617943E+02  0.17028265377E+02  0.00000000000E+00 0.  1.
</event>
<event>
 7    1  0.3062695E-010  0.4778727E+02  0.7816164E-02  0.1312668E+00
        -11   -1    0    0    0    0  0.00000000000E+00  0.00000000000E+00  0.45593999997E+02  0.45594000000E+02  0.51100000000E-03 0. -1.
         11   -1    0    0    0    0 -0.00000000000E+00 -0.00000000000E+00 -0.45593999997E+02  0.45594000000E+02  0.51100000000E-03 0.  1.
    9900012    2    1    2    0    0  0.34214003943E+02  0.21209219915E+02  0.16223262048E+02  0.47787270666E+02  0.19999998275E+02 0.  0.
        -12    1    1    2    0    0 -0.34214003943E+02 -0.21209219915E+02 -0.16223262048E+02  0.43400729334E+02  0.00000000000E+00 0.  1.
         11    1    3    3    0    0  0.29593543990E+02  0.13833222637E+02  0.46475266401E+01  0.32995990643E+02  0.51100000000E-03 0. -1.
        -11    1    3    3    0    0  0.10440859617E+01  0.44705770716E-01  0.14853416984E+01  0.18161371984E+01  0.51100000000E-03 0.  1.
         12    1    3    3    0    0  0.35763739918E+01  0.73312915078E+01  0.10090393709E+02  0.12975142824E+02  0.00000000000E+00 0. -1.
</event>
<event>
 7    1  0.3062695E-010  0.4778727E+02  0.7816164E-02  0.1312668E+00
        -11   -1    0    0    0    0  0.00000000000E+00  0.00000000000E+00  0.45593999997E+02  0.45594000000E+02  0.51100000000E-03 0.  1.
         11   -1    0    0    0    0 -0.00000000000E+00 -0.00000000000E+00 -0.45593999997E+02  0.45594000000E+02  0.51100000000E-03 0. -1.
    9900012    2    1    2    0    0 -0.15275395181E+02  0.30161233751E+02 -0.27213703616E+02  0.47787269778E+02  0.19999994226E+02 0.  0.
        -12    1    1    2    0    0  0.15275395181E+02 -0.30161233751E+02  0.27213703616E+02  0.43400730222E+02  0.00000000000E+00 0.  1.
         11    1    3    3    0    0 -0.14862210357E+02  0.12587405841E+02 -0.20868460562E+02  0.28545064879E+02  0.51100000000E-03 0. -1.
        -11    1    3    3    0    0  0.60830054709E+00  0.20024392099E+01  0.57704771680E+00  0.21708930590E+01  0.51100000000E-03 0.  1.
         12    1    3    3    0    0 -0.10214853709E+01  0.15571388700E+02 -0.69222907710E+01  0.17071311840E+02  0.00000000000E+00 0. -1.
</event>
<event>
 7    1  0.3062695E-010  0.4778728E+02  0.7816164E-02  0.1312668E+00
        -11   -1    0    0    0    0  0.00000000000E+00  0.00000000000E+00  0.45593999997E+02  0.45594000000E+02  0.51100000000E-03 0.  1.
         11   -1    0    0    0    0 -0.00000000000E+00 -0.00000000000E+00 -0.45593999997E+02  0.45594000000E+02  0.51100000000E-03 0. -1.
    9900012    2    1    2    0    0 -0.21086833892E+02  0.32924268661E+02 -0.18840384399E+02  0.47787284398E+02  0.20000060885E+02 0.  0.
        -12    1    1    2    0    0  0.21086833892E+02 -0.32924268661E+02  0.18840384399E+02  0.43400715602E+02  0.00000000000E+00 0.  1.
         11    1    3    3    0    0 -0.13233780209E+02  0.70876812855E+01 -0.67064197045E+01  0.16442147978E+02  0.51100000000E-03 0. -1.
        -11    1    3    3    0    0 -0.63669679298E+01  0.58899080207E+01 -0.19084933622E+01  0.88809709089E+01  0.51100000000E-03 0.  1.
         12    1    3    3    0    0 -0.14860857533E+01  0.19946679354E+02 -0.10225471333E+02  0.22464165511E+02  0.00000000000E+00 0. -1.
</event>
<event>
 7    1  0.3062695E-010  0.4778727E+02  0.7816164E-02  0.1312668E+00
        -11   -1    0    0    0    0  0.00000000000E+00  0.00000000000E+00  0.45593999997E+02  0.45594000000E+02  0.51100000000E-03 0.  1.
         11   -1    0    0    0    0 -0.00000000000E+00 -0.00000000000E+00 -0.45593999997E+02  0.45594000000E+02  0.51100000000E-03 0. -1.
    9900012    2    1    2    0    0  0.34355589479E+02  0.21262097682E+02 -0.15850552563E+02  0.47787270250E+02  0.19999996378E+02 0.  0.
        -12    1    1    2    0    0 -0.34355589479E+02 -0.21262097682E+02  0.15850552563E+02  0.43400729750E+02  0.00000000000E+00 0.  1.
         11    1    3    3    0    0  0.13496618950E+02  0.18008398874E+02 -0.28857255017E+01  0.22688952488E+02  0.51100000000E-03 0. -1.
        -11    1    3    3    0    0  0.20954272440E+02  0.30797354002E+01 -0.12500185967E+02  0.24593107837E+02  0.51100000000E-03 0.  1.
         12    1    3    3    0    0 -0.95301910438E-01  0.17396340689E+00 -0.46464109420E+00  0.50520992418E+00  0.00000000000E+00 0. -1.
</event>
<event>
 7    1  0.4254487E-010  0.4778728E+02  0.7816164E-02  0.1312668E+00
        -11   -1    0    0    0    0  0.00000000000E+00  0.00000000000E+00  0.45593999997E+02  0.45594000000E+02  0.51100000000E-03 0. -1.
         11   -1    0    0    0    0 -0.00000000000E+00 -0.00000000000E+00 -0.45593999997E+02  0.45594000000E+02  0.51100000000E-03 0.  1.
    9900012    2    1    2    0    0 -0.16069288260E+02 -0.35663229585E+02 -0.18802522539E+02  0.47787276233E+02  0.20000023657E+02 0.  0.
        -12    1    1    2    0    0  0.16069288260E+02  0.35663229585E+02  0.18802522539E+02  0.43400723767E+02  0.00000000000E+00 0.  1.
         11    1    3    3    0    0 -0.70050838629E+01 -0.16163403982E+02 -0.14585298196E+02  0.22870455875E+02  0.51100000000E-03 0. -1.
        -11    1    3    3    0    0  0.23735971110E+01 -0.57965158940E+01  0.94802457281E+00  0.63350067567E+01  0.51100000000E-03 0.  1.
        -12    1    3    3    0    0 -0.11437801508E+02 -0.13703309710E+02 -0.51652489157E+01  0.18581813601E+02  0.00000000000E+00 0.  1.
</event>
<event>
 7    1  0.3062695E-010  0.4778727E+02  0.7816164E-02  0.1312668E+00
        -11   -1    0    0    0    0  0.00000000000E+00  0.00000000000E+00  0.45593999997E+02  0.45594000000E+02  0.51100000000E-03 0.  1.
         11   -1    0    0    0    0 -0.00000000000E+00 -0.00000000000E+00 -0.45593999997E+02  0.45594000000E+02  0.51100000000E-03 0. -1.
    9900012    2    1    2    0    0 -0.40888765439E+01  0.19722384979E+02 -0.38443885820E+02  0.47787265702E+02  0.19999975643E+02 0.  0.
        -12    1    1    2    0    0  0.40888765439E+01 -0.19722384979E+02  0.38443885820E+02  0.43400734298E+02  0.00000000000E+00 0.  1.
         11    1    3    3    0    0 -0.35105793278E+01  0.40360823061E+01 -0.24709356355E+02  0.25281740828E+02  0.51100000000E-03 0. -1.
        -11    1    3    3    0    0  0.17514815539E+01  0.13994015370E+02 -0.13646487429E+02  0.19624647085E+02  0.51100000000E-03 0.  1.
         12    1    3    3    0    0 -0.23297787699E+01  0.16922873032E+01 -0.88042036338E-01  0.28808777887E+01  0.00000000000E+00 0. -1.
</event>
<event>
 7    1  0.3062695E-010  0.4778728E+02  0.7816164E-02  0.1312668E+00
        -11   -1    0    0    0    0  0.00000000000E+00  0.00000000000E+00  0.45593999997E+02  0.45594000000E+02  0.51100000000E-03 0.  1.
         11   -1    0    0    0    0 -0.00000000000E+00 -0.00000000000E+00 -0.45593999997E+02  0.45594000000E+02  0.51100000000E-03 0. -1.
    9900012    2    1    2    0    0 -0.24954602268E+01  0.18167011387E+02 -0.39336427455E+02  0.47787283998E+02  0.20000059062E+02 0.  0.
        -12    1    1    2    0    0  0.24954602268E+01 -0.18167011387E+02  0.39336427455E+02  0.43400716002E+02  0.00000000000E+00 0.  1.
         11    1    3    3    0    0 -0.38073230781E+01  0.16053682940E+02 -0.18812266817E+02  0.25022346573E+02  0.51100000000E-03 0. -1.
        -11    1    3    3    0    0 -0.82624047054E+00 -0.31377125504E+01 -0.32844885488E+01  0.46169014125E+01  0.51100000000E-03 0.  1.
         12    1    3    3    0    0  0.21381033219E+01  0.52510409981E+01 -0.17239672090E+02  0.18148036013E+02  0.00000000000E+00 0. -1.
</event>
<event>
 7    1  0.3062695E-010  0.4778727E+02  0.7816164E-02  0.1312668E+00
        -11   -1    0    0    0    0  0.00000000000E+00  0.00000000000E+00  0.45593999997E+02  0.45594000000E+02  0.51100000000E-03 0.  1.
         11   -1    0    0    0    0 -0.00000000000E+00 -0.00000000000E+00 -0.45593999997E+02  0.45594000000E+02  0.51100000000E-03 0. -1.
    9900012    2    1    2    0    0 -0.28481473296E+02 -0.53960286829E+01 -0.32300341875E+02  0.47787268072E+02  0.19999986446E+02 0.  0.
        -12    1    1    2    0    0  0.28481473296E+02  0.53960286829E+01  0.32300341875E+02  0.43400731928E+02  0.00000000000E+00 0.  1.
         11    1    3    3    0    0 -0.18468116935E+02 -0.43034440767E+01 -0.25359881998E+02  0.31665668937E+02  0.51100000000E-03 0. -1.
        -11    1    3    3    0    0 -0.80129160904E+01 -0.20347328459E+01  0.57539452704E+00  0.82872215579E+01  0.51100000000E-03 0.  1.
        -12    1    3    3    0    0 -0.20004402709E+01  0.94214823983E+00 -0.75158544044E+01  0.78343775765E+01  0.00000000000E+00 0.  1.
</event>
<event>
 7    1  0.3062695E-010  0.4778727E+02  0.7816164E-02  0.1312668E+00
        -11   -1    0    0    0    0  0.00000000000E+00  0.00000000000E+00  0.45593999997E+02  0.45594000000E+02  0.51100000000E-03 0.  1.
         11   -1    0    0    0    0 -0.00000000000E+00 -0.00000000000E+00 -0.45593999997E+02  0.45594000000E+02  0.51100000000E-03 0. -1.
    9900012    2    1    2    0    0  0.16606211210E+02 -0.70449921818E+01 -0.39474364268E+02  0.47787267287E+02  0.19999982870E+02 0.  0.
        -12    1    1    2    0    0 -0.16606211210E+02  0.70449921818E+01  0.39474364268E+02  0.43400732713E+02  0.00000000000E+00 0.  1.
         11    1    3    3    0    0  0.45928915362E+01 -0.44928624968E+01 -0.10244361953E+02  0.12092452943E+02  0.51100000000E-03 0. -1.
        -11    1    3    3    0    0 -0.23145931757E+01 -0.54034420033E+01 -0.84239803129E+01  0.10272194100E+02  0.51100000000E-03 0.  1.
        -12    1    3    3    0    0  0.14327912850E+02  0.28513123183E+01 -0.20806022002E+02  0.25422620245E+02  0.00000000000E+00 0.  1.
</event>
<event>
 7    1  0.3062695E-010  0.4778727E+02  0.7816164E-02  0.1312668E+00
        -11   -1    0    0    0    0  0.00000000000E+00  0.00000000000E+00  0.45593999997E+02  0.45594000000E+02  0.51100000000E-03 0.  1.
         11   -1    0    0    0    0 -0.00000000000E+00 -0.00000000000E+00 -0.45593999997E+02  0.45594000000E+02  0.51100000000E-03 0. -1.
    9900012    2    1    2    0    0  0.11063945518E+02 -0.31267897666E+02 -0.27991623835E+02  0.47787270515E+02  0.19999997587E+02 0.  0.
        -12    1    1    2    0    0 -0.11063945518E+02  0.31267897666E+02  0.27991623835E+02  0.43400729485E+02  0.00000000000E+00 0.  1.
         11    1    3    3    0    0  0.51521594963E+01 -0.23697152036E+02 -0.24034463147E+02  0.34143157164E+02  0.51100000000E-03 0. -1.
        -11    1    3    3    0    0  0.69121701220E+01 -0.43395710380E+01  0.34824179232E+00  0.81689194632E+01  0.51100000000E-03 0.  1.
        -12    1    3    3    0    0 -0.10003841004E+01 -0.32311745924E+01 -0.43054024804E+01  0.54751938882E+01  0.00000000000E+00 0.  1.
</event>
<event>
 7    1  0.3062695E-010  0.4778727E+02  0.7816164E-02  0.1312668E+00
        -11   -1    0    0    0    0  0.00000000000E+00  0.00000000000E+00  0.45593999997E+02  0.45594000000E+02  0.51100000000E-03 0.  1.
         11   -1    0    0    0    0 -0.00000000000E+00 -0.00000000000E+00 -0.45593999997E+02  0.45594000000E+02  0.51100000000E-03 0. -1.
    9900012    2    1    2    0    0 -0.34931456794E+02  0.11346046876E+02 -0.23123234523E+02  0.47787269266E+02  0.19999991893E+02 0.  0.
        -12    1    1    2    0    0  0.34931456794E+02 -0.11346046876E+02  0.23123234523E+02  0.43400730734E+02  0.00000000000E+00 0.  1.
         11    1    3    3    0    0 -0.11238268744E+02  0.53988023264E+01 -0.57613112827E+01  0.13734571667E+02  0.51100000000E-03 0. -1.
        -11    1    3    3    0    0 -0.15308993169E+02  0.85808466288E+01 -0.18127920413E+02  0.25231284142E+02  0.51100000000E-03 0.  1.
        -12    1    3    3    0    0 -0.83841948809E+01 -0.26336020796E+01  0.76599717268E+00  0.88214134572E+01  0.00000000000E+00 0.  1.
</event>
<event>
 7    1  0.3062695E-010  0.4778727E+02  0.7816164E-02  0.1312668E+00
        -11   -1    0    0    0    0  0.00000000000E+00  0.00000000000E+00  0.45593999997E+02  0.45594000000E+02  0.51100000000E-03 0.  1.
         11   -1    0    0    0    0 -0.00000000000E+00 -0.00000000000E+00 -0.45593999997E+02  0.45594000000E+02  0.51100000000E-03 0. -1.
    9900012    2    1    2    0    0  0.81463896496E+01  0.86188987123E+01 -0.41748939492E+02  0.47787273877E+02  0.20000012915E+02 0.  0.
        -12    1    1    2    0    0 -0.81463896496E+01 -0.86188987123E+01  0.41748939492E+02  0.43400726123E+02  0.00000000000E+00 0.  1.
         11    1    3    3    0    0  0.33180129376E+01 -0.11968776627E+01 -0.13032600847E+02  0.13501496624E+02  0.51100000000E-03 0. -1.
        -11    1    3    3    0    0  0.13603195491E+01 -0.38667407630E+01 -0.10275208818E+02  0.11062642990E+02  0.51100000000E-03 0.  1.
        -12    1    3    3    0    0  0.34680571629E+01  0.13682517138E+02 -0.18441129826E+02  0.23223134263E+02  0.00000000000E+00 0.  1.
</event>
<event>
 7    1  0.3062695E-010  0.4778727E+02  0.7816164E-02  0.1312668E+00
        -11   -1    0    0    0    0  0.00000000000E+00  0.00000000000E+00  0.45593999997E+02  0.45594000000E+02  0.51100000000E-03 0.  1.
         11   -1    0    0    0    0 -0.00000000000E+00 -0.00000000000E+00 -0.45593999997E+02  0.45594000000E+02  0.51100000000E-03 0. -1.
    9900012    2    1    2    0    0  0.29085094355E+02 -0.14974817269E+02 -0.28520796773E+02  0.47787265969E+02  0.19999976859E+02 0.  0.
        -12    1    1    2    0    0 -0.29085094355E+02  0.14974817269E+02  0.28520796773E+02  0.43400734031E+02  0.00000000000E+00 0.  1.
         11    1    3    3    0    0  0.23283013313E+01 -0.57072839191E+01 -0.14787443385E+01  0.63388296950E+01  0.51100000000E-03 0. -1.
        -11    1    3    3    0    0  0.20951041026E+02 -0.51394975870E+01 -0.26687448914E+02  0.34315892606E+02  0.51100000000E-03 0.  1.
        -12    1    3    3    0    0  0.58057519983E+01 -0.41280357625E+01 -0.35460351984E+00  0.71325436682E+01  0.00000000000E+00 0.  1.
</event>
<event>
 7    1  0.3062695E-010  0.4778727E+02  0.7816164E-02  0.1312668E+00
        -11   -1    0    0    0    0  0.00000000000E+00  0.00000000000E+00  0.45593999997E+02  0.45594000000E+02  0.51100000000E-03 0.  1.
         11   -1    0    0    0    0 -0.00000000000E+00 -0.00000000000E+00 -0.45593999997E+02  0.45594000000E+02  0.51100000000E-03 0. -1.
    9900012    2    1    2    0    0  0.35673523396E+02  0.21617937171E+02 -0.11986991534E+02  0.47787269072E+02  0.19999991007E+02 0.  0.
        -12    1    1    2    0    0 -0.35673523396E+02 -0.21617937171E+02  0.11986991534E+02  0.43400730928E+02  0.00000000000E+00 0.  1.
         11    1    3    3    0    0  0.11310862980E+02  0.46166140155E+01 -0.12771528151E+02  0.17673728467E+02  0.51100000000E-03 0. -1.
        -11    1    3    3    0    0  0.23707904979E+02  0.16950751132E+02  0.71858370154E-01  0.29144431481E+02  0.51100000000E-03 0.  1.
        -12    1    3    3    0    0  0.65475543676E+00  0.50572023755E-01  0.71267824733E+00  0.96910912480E+00  0.00000000000E+00 0.  1.
</event>
<event>
 7    1  0.3062695E-010  0.4778727E+02  0.7816164E-02  0.1312668E+00
        -11   -1    0    0    0    0  0.00000000000E+00  0.00000000000E+00  0.45593999997E+02  0.45594000000E+02  0.51100000000E-03 0.  1.
         11   -1    0    0    0    0 -0.00000000000E+00 -0.00000000000E+00 -0.45593999997E+02  0.45594000000E+02  0.51100000000E-03 0. -1.
    9900012    2    1    2    0    0  0.18808198498E+02  0.11788213825E+02 -0.37294942831E+02  0.47787273316E+02  0.20000010355E+02 0.  0.
        -12    1    1    2    0    0 -0.18808198498E+02 -0.11788213825E+02  0.37294942831E+02  0.43400726684E+02  0.00000000000E+00 0.  1.
         11    1    3    3    0    0  0.38813066235E+01  0.11028979117E+02 -0.21667269523E+02  0.24620590779E+02  0.51100000000E-03 0. -1.
        -11    1    3    3    0    0  0.65039842475E+01 -0.34802825918E+01 -0.90204939338E+01  0.11652617263E+02  0.51100000000E-03 0.  1.
        -12    1    3    3    0    0  0.84229076272E+01  0.42395172996E+01 -0.66071793745E+01  0.11514065273E+02  0.00000000000E+00 0.  1.
</event>
<event>
 7    1  0.3062695E-010  0.4778727E+02  0.7816164E-02  0.1312668E+00
        -11   -1    0    0    0    0  0.00000000000E+00  0.00000000000E+00  0.45593999997E+02  0.45594000000E+02  0.51100000000E-03 0.  1.
         11   -1    0    0    0    0 -0.00000000000E+00 -0.00000000000E+00 -0.45593999997E+02  0.45594000000E+02  0.51100000000E-03 0. -1.
    9900012    2    1    2    0    0  0.21274390342E+02  0.37315393068E+02 -0.62116933802E+01  0.47787269835E+02  0.19999994485E+02 0.  0.
        -12    1    1    2    0    0 -0.21274390342E+02 -0.37315393068E+02  0.62116933802E+01  0.43400730165E+02  0.00000000000E+00 0.  1.
         11    1    3    3    0    0  0.82643033693E+01  0.32554621774E+01  0.80793108706E+00  0.89190524761E+01  0.51100000000E-03 0. -1.
        -11    1    3    3    0    0  0.11808184970E+02  0.24704124131E+02 -0.97222846423E+01  0.29055977015E+02  0.51100000000E-03 0.  1.
         12    1    3    3    0    0  0.12019020022E+01  0.93558067592E+01  0.27026601750E+01  0.98122403436E+01  0.00000000000E+00 0. -1.
</event>
<event>
 7    1  0.3062695E-010  0.4778727E+02  0.7816164E-02  0.1312668E+00
        -11   -1    0    0    0    0  0.00000000000E+00  0.00000000000E+00  0.45593999997E+02  0.45594000000E+02  0.51100000000E-03 0.  1.
         11   -1    0    0    0    0 -0.00000000000E+00 -0.00000000000E+00 -0.45593999997E+02  0.45594000000E+02  0.51100000000E-03 0. -1.
    9900012    2    1    2    0    0  0.28104901272E+02  0.19781544196E+02 -0.26503366009E+02  0.47787269867E+02  0.19999994632E+02 0.  0.
        -12    1    1    2    0    0 -0.28104901272E+02 -0.19781544196E+02  0.26503366009E+02  0.43400730133E+02  0.00000000000E+00 0.  1.
         11    1    3    3    0    0  0.73276627299E+01  0.62031031542E+01 -0.17281103042E+01  0.97549728503E+01  0.51100000000E-03 0. -1.
        -11    1    3    3    0    0  0.19556262554E+02  0.89272760455E+01 -0.25294358194E+02  0.33195605423E+02  0.51100000000E-03 0.  1.
        -12    1    3    3    0    0  0.12209759881E+01  0.46511649959E+01  0.51910248923E+00  0.48366915942E+01  0.00000000000E+00 0.  1.
</event>
<event>
 7    1  0.3830662E-010  0.4778727E+02  0.7816164E-02  0.1312668E+00
        -11   -1    0    0    0    0  0.00000000000E+00  0.00000000000E+00  0.45593999997E+02  0.45594000000E+02  0.51100000000E-03 0. -1.
         11   -1    0    0    0    0 -0.00000000000E+00 -0.00000000000E+00 -0.45593999997E+02  0.45594000000E+02  0.51100000000E-03 0.  1.
    9900012    2    1    2    0    0 -0.17308988145E+01 -0.17966630009E+01  0.43328964796E+02  0.47787271907E+02  0.20000003935E+02 0.  0.
        -12    1    1    2    0    0  0.17308988145E+01  0.17966630009E+01 -0.43328964796E+02  0.43400728093E+02  0.00000000000E+00 0.  1.
         11    1    3    3    0    0  0.39934687297E+00  0.36728681886E+00  0.33182812853E+02  0.33187248253E+02  0.51100000000E-03 0. -1.
        -11    1    3    3    0    0  0.83343907021E+00 -0.57680916797E+01  0.54286116864E+01  0.79646297724E+01  0.51100000000E-03 0.  1.
        -12    1    3    3    0    0 -0.29636847576E+01  0.36041418599E+01  0.47175402571E+01  0.66353938818E+01  0.00000000000E+00 0.  1.
</event>
<event>
 7    1  0.3062695E-010  0.4778727E+02  0.7816164E-02  0.1312668E+00
        -11   -1    0    0    0    0  0.00000000000E+00  0.00000000000E+00  0.45593999997E+02  0.45594000000E+02  0.51100000000E-03 0.  1.
         11   -1    0    0    0    0 -0.00000000000E+00 -0.00000000000E+00 -0.45593999997E+02  0.45594000000E+02  0.51100000000E-03 0. -1.
    9900012    2    1    2    0    0 -0.12703424819E+02 -0.20049168342E+02 -0.36335618191E+02  0.47787270713E+02  0.19999998487E+02 0.  0.
        -12    1    1    2    0    0  0.12703424819E+02  0.20049168342E+02  0.36335618191E+02  0.43400729287E+02  0.00000000000E+00 0.  1.
         11    1    3    3    0    0 -0.60904761513E+01 -0.21528933140E+02 -0.31158254382E+02  0.38359166810E+02  0.51100000000E-03 0. -1.
        -11    1    3    3    0    0 -0.30110117142E+01 -0.10161486710E+01 -0.35218187310E+01  0.47436227822E+01  0.51100000000E-03 0.  1.
         12    1    3    3    0    0 -0.36019369538E+01  0.24959134694E+01 -0.16555450777E+01  0.46844811207E+01  0.00000000000E+00 0. -1.
</event>
<event>
 7    1  0.3062695E-010  0.4778727E+02  0.7816164E-02  0.1312668E+00
        -11   -1    0    0    0    0  0.00000000000E+00  0.00000000000E+00  0.45593999997E+02  0.45594000000E+02  0.51100000000E-03 0. -1.
         11   -1    0    0    0    0 -0.00000000000E+00 -0.00000000000E+00 -0.45593999997E+02  0.45594000000E+02  0.51100000000E-03 0.  1.
    9900012    2    1    2    0    0  0.14618283306E+02 -0.27856827924E+01  0.40769713066E+02  0.47787265687E+02  0.19999975572E+02 0.  0.
        -12    1    1    2    0    0 -0.14618283306E+02  0.27856827924E+01 -0.40769713066E+02  0.43400734313E+02  0.00000000000E+00 0.  1.
         11    1    3    3    0    0  0.97135691085E+01  0.39984583427E+01  0.26183422382E+02  0.28211924817E+02  0.51100000000E-03 0. -1.
        -11    1    3    3    0    0 -0.14027337065E+01 -0.43846123677E+01  0.11019147004E+02  0.11942114068E+02  0.51100000000E-03 0.  1.
         12    1    3    3    0    0  0.63074479044E+01 -0.23995287674E+01  0.35671436798E+01  0.76332268017E+01  0.00000000000E+00 0. -1.
</event>
<event>
 7    1  0.3062695E-010  0.4778727E+02  0.7816164E-02  0.1312668E+00
        -11   -1    0    0    0    0  0.00000000000E+00  0.00000000000E+00  0.45593999997E+02  0.45594000000E+02  0.51100000000E-03 0.  1.
         11   -1    0    0    0    0 -0.00000000000E+00 -0.00000000000E+00 -0.45593999997E+02  0.45594000000E+02  0.51100000000E-03 0. -1.
    9900012    2    1    2    0    0  0.20756807072E+02 -0.33999253195E+02 -0.17228737116E+02  0.47787266824E+02  0.19999980756E+02 0.  0.
        -12    1    1    2    0    0 -0.20756807072E+02  0.33999253195E+02  0.17228737116E+02  0.43400733176E+02  0.00000000000E+00 0.  1.
         11    1    3    3    0    0  0.10910165239E+01 -0.50562691157E+01 -0.76933260512E+01  0.92705685056E+01  0.51100000000E-03 0. -1.
        -11    1    3    3    0    0  0.11969063327E+02 -0.24787029151E+02 -0.31886405903E+01  0.27709614219E+02  0.51100000000E-03 0.  1.
        -12    1    3    3    0    0  0.76967272210E+01 -0.41559549280E+01 -0.63467704744E+01  0.10807084100E+02  0.00000000000E+00 0.  1.
</event>
<event>
 7    1  0.3062695E-010  0.4778727E+02  0.7816164E-02  0.1312668E+00
        -11   -1    0    0    0    0  0.00000000000E+00  0.00000000000E+00  0.45593999997E+02  0.45594000000E+02  0.51100000000E-03 0.  1.
         11   -1    0    0    0    0 -0.00000000000E+00 -0.00000000000E+00 -0.45593999997E+02  0.45594000000E+02  0.51100000000E-03 0. -1.
    9900012    2    1    2    0    0 -0.43495531348E+01 -0.24385412042E+01 -0.43113317695E+02  0.47787271223E+02  0.20000000816E+02 0.  0.
        -12    1    1    2    0    0  0.43495531348E+01  0.24385412042E+01  0.43113317695E+02  0.43400728777E+02  0.00000000000E+00 0.  1.
         11    1    3    3    0    0 -0.13377483104E+00 -0.25009861633E+01 -0.22088646119E+02  0.22230184775E+02  0.51100000000E-03 0. -1.
        -11    1    3    3    0    0 -0.46397900719E+01  0.51483305421E+01 -0.45026380356E+01  0.82647872823E+01  0.51100000000E-03 0.  1.
        -12    1    3    3    0    0  0.42401176813E+00 -0.50858855830E+01 -0.16522033540E+02  0.17292299166E+02  0.00000000000E+00 0.  1.
</event>
<event>
 7    1  0.3515583E-010  0.4778727E+02  0.7816164E-02  0.1312668E+00
        -11   -1    0    0    0    0  0.00000000000E+00  0.00000000000E+00  0.45593999997E+02  0.45594000000E+02  0.51100000000E-03 0.  1.
         11   -1    0    0    0    0 -0.00000000000E+00 -0.00000000000E+00 -0.45593999997E+02  0.45594000000E+02  0.51100000000E-03 0. -1.
    9900012    2    1    2    0    0  0.21709877002E+02  0.31855630203E+02 -0.19937982820E+02  0.47787273117E+02  0.20000009448E+02 0.  0.
        -12    1    1    2    0    0 -0.21709877002E+02 -0.31855630203E+02  0.19937982820E+02  0.43400726883E+02  0.00000000000E+00 0.  1.
         11    1    3    3    0    0  0.99842166021E+01  0.19417907660E+02 -0.12599098380E+02  0.25208669130E+02  0.51100000000E-03 0. -1.
        -11    1    3    3    0    0  0.39866542148E+01 -0.19199441474E+01 -0.39244716032E+01  0.59144801110E+01  0.51100000000E-03 0.  1.
        -12    1    3    3    0    0  0.77390061854E+01  0.14357666690E+02 -0.34144128368E+01  0.16664123876E+02  0.00000000000E+00 0.  1.
</event>
<event>
 7    1  0.3062695E-010  0.4778727E+02  0.7816164E-02  0.1312668E+00
        -11   -1    0    0    0    0  0.00000000000E+00  0.00000000000E+00  0.45593999997E+02  0.45594000000E+02  0.51100000000E-03 0.  1.
         11   -1    0    0    0    0 -0.00000000000E+00 -0.00000000000E+00 -0.45593999997E+02  0.45594000000E+02  0.51100000000E-03 0. -1.
    9900012    2    1    2    0    0  0.37442575966E+01  0.13053939061E+02 -0.41221336843E+02  0.47787269579E+02  0.19999993318E+02 0.  0.
        -12    1    1    2    0    0 -0.37442575966E+01 -0.13053939061E+02  0.41221336843E+02  0.43400730421E+02  0.00000000000E+00 0.  1.
         11    1    3    3    0    0  0.24129403024E+01  0.40005928006E+00 -0.16891139632E+02  0.17067305782E+02  0.51100000000E-03 0. -1.
        -11    1    3    3    0    0 -0.58235380706E+01  0.52511465026E+01 -0.67475355515E+01  0.10344920083E+02  0.51100000000E-03 0.  1.
        -12    1    3    3    0    0  0.71548553648E+01  0.74027332789E+01 -0.17582661659E+02  0.20375043713E+02  0.00000000000E+00 0.  1.
</event>
<event>
 7    1  0.3062695E-010  0.4778727E+02  0.7816164E-02  0.1312668E+00
        -11   -1    0    0    0    0  0.00000000000E+00  0.00000000000E+00  0.45593999997E+02  0.45594000000E+02  0.51100000000E-03 0.  1.
         11   -1    0    0    0    0 -0.00000000000E+00 -0.00000000000E+00 -0.45593999997E+02  0.45594000000E+02  0.51100000000E-03 0. -1.
    9900012    2    1    2    0    0  0.33110516029E+02 -0.25365596915E+02 -0.11995970666E+02  0.47787273154E+02  0.20000009617E+02 0.  0.
        -12    1    1    2    0    0 -0.33110516029E+02  0.25365596915E+02  0.11995970666E+02  0.43400726846E+02  0.00000000000E+00 0.  1.
         11    1    3    3    0    0  0.11379028002E+02 -0.10631757099E+02 -0.10186139796E+02  0.18608438449E+02  0.51100000000E-03 0. -1.
        -11    1    3    3    0    0  0.19443668901E+02 -0.10391929129E+02  0.30684455674E+01  0.22259016371E+02  0.51100000000E-03 0.  1.
        -12    1    3    3    0    0  0.22878191249E+01 -0.43419106874E+01 -0.48782764380E+01  0.69198183337E+01  0.00000000000E+00 0.  1.
</event>
<event>
 7    1  0.4165823E-010  0.4778727E+02  0.7816164E-02  0.1312668E+00
        -11   -1    0    0    0    0  0.00000000000E+00  0.00000000000E+00  0.45593999997E+02  0.45594000000E+02  0.51100000000E-03 0.  1.
         11   -1    0    0    0    0 -0.00000000000E+00 -0.00000000000E+00 -0.45593999997E+02  0.45594000000E+02  0.51100000000E-03 0. -1.
    9900012    2    1    2    0    0  0.32745349102E+02 -0.26624998991E+00 -0.28483230442E+02  0.47787271973E+02  0.20000004234E+02 0.  0.
        -12    1    1    2    0    0 -0.32745349102E+02  0.26624998991E+00  0.28483230442E+02  0.43400728027E+02  0.00000000000E+00 0.  1.
         11    1    3    3    0    0  0.93925148517E+01  0.33489575974E+01 -0.62254391878E+01  0.11755464498E+02  0.51100000000E-03 0. -1.
        -11    1    3    3    0    0  0.17214830356E+02 -0.45550370096E+01 -0.62673039865E+01  0.18877972504E+02  0.51100000000E-03 0.  1.
        -12    1    3    3    0    0  0.61380038939E+01  0.93982942230E+00 -0.15990487268E+02  0.17153834971E+02  0.00000000000E+00 0.  1.
</event>
<event>
 7    1  0.3062695E-010  0.4778727E+02  0.7816164E-02  0.1312668E+00
        -11   -1    0    0    0    0  0.00000000000E+00  0.00000000000E+00  0.45593999997E+02  0.45594000000E+02  0.51100000000E-03 0.  1.
         11   -1    0    0    0    0 -0.00000000000E+00 -0.00000000000E+00 -0.45593999997E+02  0.45594000000E+02  0.51100000000E-03 0. -1.
    9900012    2    1    2    0    0 -0.82903726034E+00  0.27089870732E+02 -0.33898007515E+02  0.47787270599E+02  0.19999997967E+02 0.  0.
        -12    1    1    2    0    0  0.82903726034E+00 -0.27089870732E+02  0.33898007515E+02  0.43400729401E+02  0.00000000000E+00 0.  1.
         11    1    3    3    0    0  0.51249887499E+01  0.20298349407E+02 -0.28593764151E+02  0.35438564403E+02  0.51100000000E-03 0. -1.
        -11    1    3    3    0    0 -0.30235311582E+01  0.46268729664E+00  0.70915171333E+00  0.31398593301E+01  0.51100000000E-03 0.  1.
        -12    1    3    3    0    0 -0.29304948520E+01  0.63288340283E+01 -0.60133950773E+01  0.92088468654E+01  0.00000000000E+00 0.  1.
</event>
<event>
 7    1  0.3062695E-010  0.4778727E+02  0.7816164E-02  0.1312668E+00
        -11   -1    0    0    0    0  0.00000000000E+00  0.00000000000E+00  0.45593999997E+02  0.45594000000E+02  0.51100000000E-03 0.  1.
         11   -1    0    0    0    0 -0.00000000000E+00 -0.00000000000E+00 -0.45593999997E+02  0.45594000000E+02  0.51100000000E-03 0. -1.
    9900012    2    1    2    0    0  0.11087054623E+02  0.18388903715E+02 -0.37716695856E+02  0.47787266062E+02  0.19999977283E+02 0.  0.
        -12    1    1    2    0    0 -0.11087054623E+02 -0.18388903715E+02  0.37716695856E+02  0.43400733938E+02  0.00000000000E+00 0.  1.
         11    1    3    3    0    0  0.15915099126E+02  0.16987168510E+02 -0.27204765637E+02  0.35804378891E+02  0.51100000000E-03 0. -1.
        -11    1    3    3    0    0 -0.25738143791E+01  0.88809212950E+00 -0.84748521743E+01  0.89014800863E+01  0.51100000000E-03 0.  1.
         12    1    3    3    0    0 -0.22542301240E+01  0.51364307630E+00 -0.20370780451E+01  0.30814070850E+01  0.00000000000E+00 0. -1.
</event>
<event>
 7    1  0.3062695E-010  0.4778728E+02  0.7816164E-02  0.1312668E+00
        -11   -1    0    0    0    0  0.00000000000E+00  0.00000000000E+00  0.45593999997E+02  0.45594000000E+02  0.51100000000E-03 0.  1.
         11   -1    0    0    0    0 -0.00000000000E+00 -0.00000000000E+00 -0.45593999997E+02  0.45594000000E+02  0.51100000000E-03 0. -1.
    9900012    2    1    2    0    0  0.33461110815E+02  0.18688402834E+02 -0.20364670143E+02  0.47787284251E+02  0.20000060215E+02 0.  0.
        -12    1    1    2    0    0 -0.33461110815E+02 -0.18688402834E+02  0.20364670143E+02  0.43400715749E+02  0.00000000000E+00 0.  1.
         11    1    3    3    0    0  0.31138471350E+02  0.22114389436E+02 -0.17623170111E+02  0.42062177109E+02  0.51100000000E-03 0. -1.
        -11    1    3    3    0    0 -0.71024805510E-01 -0.21575351069E+01 -0.51681248279E+00  0.22197066617E+01  0.51100000000E-03 0.  1.
         12    1    3    3    0    0  0.23936642708E+01 -0.12684514949E+01 -0.22246875491E+01  0.35054004803E+01  0.00000000000E+00 0. -1.
</event>
<event>
 7    1  0.3062695E-010  0.4778727E+02  0.7816164E-02  0.1312668E+00
        -11   -1    0    0    0    0  0.00000000000E+00  0.00000000000E+00  0.45593999997E+02  0.45594000000E+02  0.51100000000E-03 0.  1.
         11   -1    0    0    0    0 -0.00000000000E+00 -0.00000000000E+00 -0.45593999997E+02  0.45594000000E+02  0.51100000000E-03 0. -1.
    9900012    2    1    2    0    0 -0.23506033801E+02 -0.25267324263E+02  0.26318281191E+02  0.47787271604E+02  0.20000002551E+02 0.  0.
        -12    1    1    2    0    0  0.23506033801E+02  0.25267324263E+02 -0.26318281191E+02  0.43400728396E+02  0.00000000000E+00 0.  1.
         11    1    3    3    0    0 -0.20205201673E+02 -0.24234823588E+02  0.22399594036E+02  0.38695202057E+02  0.51100000000E-03 0. -1.
        -11    1    3    3    0    0 -0.13408707837E+01 -0.12904110553E+00 -0.22135116113E+01  0.25911811940E+01  0.51100000000E-03 0.  1.
         12    1    3    3    0    0 -0.19599613436E+01 -0.90345956976E+00  0.61321987667E+01  0.65008883529E+01  0.00000000000E+00 0. -1.
</event>
<event>
 7    1  0.3062695E-010  0.4778727E+02  0.7816164E-02  0.1312668E+00
        -11   -1    0    0    0    0  0.00000000000E+00  0.00000000000E+00  0.45593999997E+02  0.45594000000E+02  0.51100000000E-03 0. -1.
         11   -1    0    0    0    0 -0.00000000000E+00 -0.00000000000E+00 -0.45593999997E+02  0.45594000000E+02  0.51100000000E-03 0.  1.
    9900012    2    1    2    0    0  0.22639468716E+02  0.34138140556E+02 -0.14341041850E+02  0.47787266531E+02  0.19999979420E+02 0.  0.
        -12    1    1    2    0    0 -0.22639468716E+02 -0.34138140556E+02  0.14341041850E+02  0.43400733469E+02  0.00000000000E+00 0.  1.
         11    1    3    3    0    0 -0.50330939551E+00 -0.44354726729E+00 -0.38087892479E+01  0.38674190776E+01  0.51100000000E-03 0. -1.
        -11    1    3    3    0    0  0.11580076987E+02  0.10720569766E+02 -0.66396626138E+01  0.17120570055E+02  0.51100000000E-03 0.  1.
         12    1    3    3    0    0  0.11562701124E+02  0.23861118058E+02 -0.38925899880E+01  0.26799277398E+02  0.00000000000E+00 0. -1.
</event>
<event>
 7    1  0.3062695E-010  0.4778727E+02  0.7816164E-02  0.1312668E+00
        -11   -1    0    0    0    0  0.00000000000E+00  0.00000000000E+00  0.45593999997E+02  0.45594000000E+02  0.51100000000E-03 0.  1.
         11   -1    0    0    0    0 -0.00000000000E+00 -0.00000000000E+00 -0.45593999997E+02  0.45594000000E+02  0.51100000000E-03 0. -1.
    9900012    2    1    2    0    0  0.65696961005E+01 -0.15607051380E+02 -0.39961007034E+02  0.47787273707E+02  0.20000012140E+02 0.  0.
        -12    1    1    2    0    0 -0.65696961005E+01  0.15607051380E+02  0.39961007034E+02  0.43400726293E+02  0.00000000000E+00 0.  1.
         11    1    3    3    0    0 -0.33839239340E+01 -0.10668473044E+02 -0.24602806001E+02  0.27028971894E+02  0.51100000000E-03 0. -1.
        -11    1    3    3    0    0  0.89563736082E+01 -0.24193748432E+01 -0.15478877311E+02  0.18046208630E+02  0.51100000000E-03 0.  1.
         12    1    3    3    0    0  0.99724642629E+00 -0.25192034920E+01  0.12067627825E+00  0.27120931829E+01  0.00000000000E+00 0. -1.
</event>
<event>
 7    1  0.3062695E-010  0.4778727E+02  0.7816164E-02  0.1312668E+00
        -11   -1    0    0    0    0  0.00000000000E+00  0.00000000000E+00  0.45593999997E+02  0.45594000000E+02  0.51100000000E-03 0.  1.
         11   -1    0    0    0    0 -0.00000000000E+00 -0.00000000000E+00 -0.45593999997E+02  0.45594000000E+02  0.51100000000E-03 0. -1.
    9900012    2    1    2    0    0  0.30318676556E+00  0.33550747039E+01 -0.43269792507E+02  0.47787269682E+02  0.19999993790E+02 0.  0.
        -12    1    1    2    0    0 -0.30318676556E+00 -0.33550747039E+01  0.43269792507E+02  0.43400730318E+02  0.00000000000E+00 0.  1.
         11    1    3    3    0    0  0.43575848385E+01  0.41572747672E+01 -0.38056921221E+01  0.71242383385E+01  0.51100000000E-03 0.  1.
        -11    1    3    3    0    0 -0.23047173580E+01  0.23637279014E+01 -0.33677093077E+02  0.33838521393E+02  0.51100000000E-03 0. -1.
        -12    1    3    3    0    0 -0.17496807150E+01 -0.31659279646E+01 -0.57870073078E+01  0.68245099503E+01  0.00000000000E+00 0.  1.
</event>
<event>
 7    1  0.3062695E-010  0.4778727E+02  0.7816164E-02  0.1312668E+00
        -11   -1    0    0    0    0  0.00000000000E+00  0.00000000000E+00  0.45593999997E+02  0.45594000000E+02  0.51100000000E-03 0. -1.
         11   -1    0    0    0    0 -0.00000000000E+00 -0.00000000000E+00 -0.45593999997E+02  0.45594000000E+02  0.51100000000E-03 0.  1.
    9900012    2    1    2    0    0  0.30958448637E+02 -0.22501386788E+02  0.20466688512E+02  0.47787270882E+02  0.19999999257E+02 0.  0.
        -12    1    1    2    0    0 -0.30958448637E+02  0.22501386788E+02 -0.20466688512E+02  0.43400729118E+02  0.00000000000E+00 0.  1.
         11    1    3    3    0    0  0.61488981539E+01 -0.11912062078E+02  0.11509966754E+02  0.17668772068E+02  0.51100000000E-03 0.  1.
        -11    1    3    3    0    0  0.19581766642E+02 -0.60256661708E+01  0.25001466311E+01  0.20639887865E+02  0.51100000000E-03 0. -1.
         12    1    3    3    0    0  0.52277838407E+01 -0.45636585385E+01  0.64565751273E+01  0.94786109486E+01  0.00000000000E+00 0. -1.
</event>
<event>
 7    1  0.3062695E-010  0.4778727E+02  0.7816164E-02  0.1312668E+00
        -11   -1    0    0    0    0  0.00000000000E+00  0.00000000000E+00  0.45593999997E+02  0.45594000000E+02  0.51100000000E-03 0.  1.
         11   -1    0    0    0    0 -0.00000000000E+00 -0.00000000000E+00 -0.45593999997E+02  0.45594000000E+02  0.51100000000E-03 0. -1.
    9900012    2    1    2    0    0  0.32688584732E+02 -0.19067366853E+01 -0.28485856750E+02  0.47787271304E+02  0.20000001184E+02 0.  0.
        -12    1    1    2    0    0 -0.32688584732E+02  0.19067366853E+01  0.28485856750E+02  0.43400728696E+02  0.00000000000E+00 0.  1.
         11    1    3    3    0    0  0.21636701957E+02  0.61134987085E+01 -0.95712813727E+01  0.24436267420E+02  0.51100000000E-03 0. -1.
        -11    1    3    3    0    0  0.65650060885E+01 -0.51374755176E+01 -0.12201622089E+02  0.14777433522E+02  0.51100000000E-03 0.  1.
         12    1    3    3    0    0  0.44868766860E+01 -0.28827598762E+01 -0.67129532885E+01  0.85735703621E+01  0.00000000000E+00 0. -1.
</event>
<event>
 7    1  0.3062695E-010  0.4778727E+02  0.7816164E-02  0.1312668E+00
        -11   -1    0    0    0    0  0.00000000000E+00  0.00000000000E+00  0.45593999997E+02  0.45594000000E+02  0.51100000000E-03 0.  1.
         11   -1    0    0    0    0 -0.00000000000E+00 -0.00000000000E+00 -0.45593999997E+02  0.45594000000E+02  0.51100000000E-03 0. -1.
    9900012    2    1    2    0    0 -0.16581311320E+02  0.71284915160E+01 -0.39469835877E+02  0.47787271659E+02  0.20000002801E+02 0.  0.
        -12    1    1    2    0    0  0.16581311320E+02 -0.71284915160E+01  0.39469835877E+02  0.43400728341E+02  0.00000000000E+00 0.  1.
         11    1    3    3    0    0 -0.76300680859E+01  0.68714202865E+01 -0.54758108106E+01  0.11636960945E+02  0.51100000000E-03 0. -1.
        -11    1    3    3    0    0 -0.43044156969E+01 -0.71894043352E+00 -0.44705729907E+01  0.62474709255E+01  0.51100000000E-03 0.  1.
         12    1    3    3    0    0 -0.46468275375E+01  0.97601166306E+00 -0.29523452076E+02  0.29902839788E+02  0.00000000000E+00 0. -1.
</event>
<event>
 7    1  0.3062695E-010  0.4778727E+02  0.7816164E-02  0.1312668E+00
        -11   -1    0    0    0    0  0.00000000000E+00  0.00000000000E+00  0.45593999997E+02  0.45594000000E+02  0.51100000000E-03 0.  1.
         11   -1    0    0    0    0 -0.00000000000E+00 -0.00000000000E+00 -0.45593999997E+02  0.45594000000E+02  0.51100000000E-03 0. -1.
    9900012    2    1    2    0    0  0.24101983719E+01 -0.20481748322E+02 -0.38187851363E+02  0.47787273483E+02  0.20000011116E+02 0.  0.
        -12    1    1    2    0    0 -0.24101983719E+01  0.20481748322E+02  0.38187851363E+02  0.43400726517E+02  0.00000000000E+00 0.  1.
         11    1    3    3    0    0 -0.13311387990E+01 -0.16583219544E+02 -0.28664404682E+02  0.33142468179E+02  0.51100000000E-03 0. -1.
        -11    1    3    3    0    0  0.69209610685E+01 -0.36710177743E+01 -0.58272432347E+01  0.97638536239E+01  0.51100000000E-03 0.  1.
         12    1    3    3    0    0 -0.31796238975E+01 -0.22751100403E+00 -0.36962034457E+01  0.48809516796E+01  0.00000000000E+00 0. -1.
</event>
<event>
 7    1  0.3062695E-010  0.4778728E+02  0.7816164E-02  0.1312668E+00
        -11   -1    0    0    0    0  0.00000000000E+00  0.00000000000E+00  0.45593999997E+02  0.45594000000E+02  0.51100000000E-03 0. -1.
         11   -1    0    0    0    0 -0.00000000000E+00 -0.00000000000E+00 -0.45593999997E+02  0.45594000000E+02  0.51100000000E-03 0.  1.
    9900012    2    1    2    0    0 -0.42722219732E+02 -0.71211173754E+01 -0.27792919411E+01  0.47787276098E+02  0.20000023042E+02 0.  0.
        -12    1    1    2    0    0  0.42722219732E+02  0.71211173754E+01  0.27792919411E+01  0.43400723902E+02  0.00000000000E+00 0.  1.
         11    1    3    3    0    0 -0.17616531124E+02  0.48505343987E+01 -0.22104132359E+01  0.18405319332E+02  0.51100000000E-03 0. -1.
        -11    1    3    3    0    0 -0.46933213316E+01 -0.66811491836E+01 -0.13744911549E+01  0.82797491346E+01  0.51100000000E-03 0.  1.
        -12    1    3    3    0    0 -0.20412367277E+02 -0.52905025904E+01  0.80561244972E+00  0.21102207631E+02  0.00000000000E+00 0.  1.
</event>
<event>
 7    1  0.3062695E-010  0.4778727E+02  0.7816164E-02  0.1312668E+00
        -11   -1    0    0    0    0  0.00000000000E+00  0.00000000000E+00  0.45593999997E+02  0.45594000000E+02  0.51100000000E-03 0.  1.
         11   -1    0    0    0    0 -0.00000000000E+00 -0.00000000000E+00 -0.45593999997E+02  0.45594000000E+02  0.51100000000E-03 0. -1.
    9900012    2    1    2    0    0  0.82093829139E+01 -0.24897966620E+02 -0.34587867003E+02  0.47787271280E+02  0.20000001075E+02 0.  0.
        -12    1    1    2    0    0 -0.82093829139E+01  0.24897966620E+02  0.34587867003E+02  0.43400728720E+02  0.00000000000E+00 0.  1.
         11    1    3    3    0    0 -0.13699348974E+01 -0.11051505573E+02 -0.52212343279E+01  0.12299340845E+02  0.51100000000E-03 0. -1.
        -11    1    3    3    0    0  0.66663710913E+01 -0.14307577192E+01 -0.13564862486E+02  0.15181998080E+02  0.51100000000E-03 0.  1.
        -12    1    3    3    0    0  0.29129467201E+01 -0.12415703327E+02 -0.15801770189E+02  0.20305932355E+02  0.00000000000E+00 0.  1.
</event>
<event>
 7    1  0.3062695E-010  0.4778727E+02  0.7816164E-02  0.1312668E+00
        -11   -1    0    0    0    0  0.00000000000E+00  0.00000000000E+00  0.45593999997E+02  0.45594000000E+02  0.51100000000E-03 0.  1.
         11   -1    0    0    0    0 -0.00000000000E+00 -0.00000000000E+00 -0.45593999997E+02  0.45594000000E+02  0.51100000000E-03 0. -1.
    9900012    2    1    2    0    0 -0.11992997431E+02 -0.38406624225E+02 -0.16270294050E+02  0.47787271432E+02  0.20000001769E+02 0.  0.
        -12    1    1    2    0    0  0.11992997431E+02  0.38406624225E+02  0.16270294050E+02  0.43400728568E+02  0.00000000000E+00 0.  1.
         11    1    3    3    0    0 -0.12924841056E+02 -0.31883831942E+02 -0.54673134630E+01  0.34835639400E+02  0.51100000000E-03 0. -1.
        -11    1    3    3    0    0  0.64786602003E+00 -0.14049732283E+01 -0.48766659915E+01  0.51162048049E+01  0.51100000000E-03 0.  1.
         12    1    3    3    0    0  0.28397760581E+00 -0.51178190544E+01 -0.59263145953E+01  0.78354272275E+01  0.00000000000E+00 0. -1.
</event>
<event>
 7    1  0.3062695E-010  0.4778727E+02  0.7816164E-02  0.1312668E+00
        -11   -1    0    0    0    0  0.00000000000E+00  0.00000000000E+00  0.45593999997E+02  0.45594000000E+02  0.51100000000E-03 0.  1.
         11   -1    0    0    0    0 -0.00000000000E+00 -0.00000000000E+00 -0.45593999997E+02  0.45594000000E+02  0.51100000000E-03 0. -1.
    9900012    2    1    2    0    0  0.83998600465E+01 -0.27612651310E+02 -0.32413077150E+02  0.47787265772E+02  0.19999975963E+02 0.  0.
        -12    1    1    2    0    0 -0.83998600465E+01  0.27612651310E+02  0.32413077150E+02  0.43400734228E+02  0.00000000000E+00 0.  1.
         11    1    3    3    0    0  0.78491989490E+01 -0.13310329239E+02 -0.21974042078E+02  0.26863233500E+02  0.51100000000E-03 0. -1.
        -11    1    3    3    0    0  0.22099370649E+00  0.36179916187E+00  0.17822744172E+01  0.18320041515E+01  0.51100000000E-03 0.  1.
         12    1    3    3    0    0  0.32966739101E+00 -0.14664121233E+02 -0.12221309489E+02  0.19092028121E+02  0.00000000000E+00 0. -1.
</event>
<event>
 7    1  0.3062695E-010  0.4778727E+02  0.7816164E-02  0.1312668E+00
        -11   -1    0    0    0    0  0.00000000000E+00  0.00000000000E+00  0.45593999997E+02  0.45594000000E+02  0.51100000000E-03 0.  1.
         11   -1    0    0    0    0 -0.00000000000E+00 -0.00000000000E+00 -0.45593999997E+02  0.45594000000E+02  0.51100000000E-03 0. -1.
    9900012    2    1    2    0    0  0.37048352599E+02 -0.21935827364E+02  0.54646589357E+01  0.47787269018E+02  0.19999990761E+02 0.  0.
        -12    1    1    2    0    0 -0.37048352599E+02  0.21935827364E+02 -0.54646589357E+01  0.43400730982E+02  0.00000000000E+00 0.  1.
         11    1    3    3    0    0  0.11345774583E+02 -0.80054434120E+01  0.56847128674E+00  0.13897369714E+02  0.51100000000E-03 0. -1.
        -11    1    3    3    0    0  0.10403480712E+02  0.28702635169E+01  0.21164783005E+01  0.10997740870E+02  0.51100000000E-03 0.  1.
        -12    1    3    3    0    0  0.15299097304E+02 -0.16800647469E+02  0.27797093484E+01  0.22892158434E+02  0.00000000000E+00 0.  1.
</event>
<event>
 7    1  0.3062695E-010  0.4778727E+02  0.7816164E-02  0.1312668E+00
        -11   -1    0    0    0    0  0.00000000000E+00  0.00000000000E+00  0.45593999997E+02  0.45594000000E+02  0.51100000000E-03 0. -1.
         11   -1    0    0    0    0 -0.00000000000E+00 -0.00000000000E+00 -0.45593999997E+02  0.45594000000E+02  0.51100000000E-03 0.  1.
    9900012    2    1    2    0    0  0.24498211604E+02  0.18459211162E+02  0.30703722429E+02  0.47787269367E+02  0.19999992351E+02 0.  0.
        -12    1    1    2    0    0 -0.24498211604E+02 -0.18459211162E+02 -0.30703722429E+02  0.43400730633E+02  0.00000000000E+00 0.  1.
         11    1    3    3    0    0  0.11920558081E+02  0.13791414050E+02  0.15306687225E+02  0.23803308184E+02  0.51100000000E-03 0. -1.
        -11    1    3    3    0    0  0.36445293135E+01 -0.55630030677E+00  0.12791884187E+02  0.13312564188E+02  0.51100000000E-03 0.  1.
         12    1    3    3    0    0  0.89331242093E+01  0.52240974190E+01  0.26051510165E+01  0.10671396994E+02  0.00000000000E+00 0. -1.
</event>
<event>
 7    1  0.3062695E-010  0.4778727E+02  0.7816164E-02  0.1312668E+00
        -11   -1    0    0    0    0  0.00000000000E+00  0.00000000000E+00  0.45593999997E+02  0.45594000000E+02  0.51100000000E-03 0.  1.
         11   -1    0    0    0    0 -0.00000000000E+00 -0.00000000000E+00 -0.45593999997E+02  0.45594000000E+02  0.51100000000E-03 0. -1.
    9900012    2    1    2    0    0  0.54885625671E+01 -0.40680721804E+02 -0.14091763972E+02  0.47787271234E+02  0.20000000866E+02 0.  0.
        -12    1    1    2    0    0 -0.54885625671E+01  0.40680721804E+02  0.14091763972E+02  0.43400728766E+02  0.00000000000E+00 0.  1.
         11    1    3    3    0    0  0.79726154018E+01 -0.15834492348E+02 -0.95353527600E+01  0.20129994952E+02  0.51100000000E-03 0. -1.
        -11    1    3    3    0    0 -0.32298348851E+01 -0.24686210866E+02 -0.63624921954E+01  0.25696734180E+02  0.51100000000E-03 0.  1.
         12    1    3    3    0    0  0.74578205048E+00 -0.16001859003E+00  0.18060809836E+01  0.19605421024E+01  0.00000000000E+00 0. -1.
</event>
<event>
 7    1  0.3062695E-010  0.4778727E+02  0.7816164E-02  0.1312668E+00
        -11   -1    0    0    0    0  0.00000000000E+00  0.00000000000E+00  0.45593999997E+02  0.45594000000E+02  0.51100000000E-03 0.  1.
         11   -1    0    0    0    0 -0.00000000000E+00 -0.00000000000E+00 -0.45593999997E+02  0.45594000000E+02  0.51100000000E-03 0. -1.
    9900012    2    1    2    0    0  0.17506930864E+02  0.20200009319E+01 -0.39661701487E+02  0.47787267324E+02  0.19999983036E+02 0.  0.
        -12    1    1    2    0    0 -0.17506930864E+02 -0.20200009319E+01  0.39661701487E+02  0.43400732676E+02  0.00000000000E+00 0.  1.
         11    1    3    3    0    0  0.99492207489E+01  0.28022143591E+01 -0.46089798524E+01  0.11317336010E+02  0.51100000000E-03 0. -1.
        -11    1    3    3    0    0  0.42373225801E+01 -0.37148685566E+01 -0.20040394148E+02  0.20817601901E+02  0.51100000000E-03 0.  1.
         12    1    3    3    0    0  0.33203875348E+01  0.29326551295E+01 -0.15012327486E+02  0.15652329413E+02  0.00000000000E+00 0. -1.
</event>
<event>
 7    1  0.3062695E-010  0.4778728E+02  0.7816164E-02  0.1312668E+00
        -11   -1    0    0    0    0  0.00000000000E+00  0.00000000000E+00  0.45593999997E+02  0.45594000000E+02  0.51100000000E-03 0. -1.
         11   -1    0    0    0    0 -0.00000000000E+00 -0.00000000000E+00 -0.45593999997E+02  0.45594000000E+02  0.51100000000E-03 0.  1.
    9900012    2    1    2    0    0  0.23169140878E+02  0.23244155292E+02  0.28399346572E+02  0.47787277310E+02  0.20000028568E+02 0.  0.
        -12    1    1    2    0    0 -0.23169140878E+02 -0.23244155292E+02 -0.28399346572E+02  0.43400722690E+02  0.00000000000E+00 0.  1.
         11    1    3    3    0    0  0.36617796080E+01  0.37017637088E+00  0.40753447392E+01  0.54912744830E+01  0.51100000000E-03 0. -1.
        -11    1    3    3    0    0  0.40431011492E+01  0.63804505205E+01  0.16879641006E+02  0.18492676835E+02  0.51100000000E-03 0.  1.
        -12    1    3    3    0    0  0.15464260120E+02  0.16493528401E+02  0.74443608268E+01  0.23803325992E+02  0.00000000000E+00 0.  1.
</event>
<event>
 7    1  0.3062695E-010  0.4778727E+02  0.7816164E-02  0.1312668E+00
        -11   -1    0    0    0    0  0.00000000000E+00  0.00000000000E+00  0.45593999997E+02  0.45594000000E+02  0.51100000000E-03 0. -1.
         11   -1    0    0    0    0 -0.00000000000E+00 -0.00000000000E+00 -0.45593999997E+02  0.45594000000E+02  0.51100000000E-03 0.  1.
    9900012    2    1    2    0    0 -0.14063717484E+02  0.28875549610E+02  0.29189681180E+02  0.47787274175E+02  0.20000014274E+02 0.  0.
        -12    1    1    2    0    0  0.14063717484E+02 -0.28875549610E+02 -0.29189681180E+02  0.43400725825E+02  0.00000000000E+00 0.  1.
         11    1    3    3    0    0 -0.40224480251E+01  0.48832101085E+01  0.72903824366E+00  0.63684634018E+01  0.51100000000E-03 0. -1.
        -11    1    3    3    0    0  0.37216640156E+01  0.90043285397E+01  0.92689468111E+01  0.13447754115E+02  0.51100000000E-03 0.  1.
        -12    1    3    3    0    0 -0.13762933474E+02  0.14988010962E+02  0.19191696125E+02  0.27971056658E+02  0.00000000000E+00 0.  1.
</event>
<event>
 7    1  0.3812657E-010  0.4778727E+02  0.7816164E-02  0.1312668E+00
        -11   -1    0    0    0    0  0.00000000000E+00  0.00000000000E+00  0.45593999997E+02  0.45594000000E+02  0.51100000000E-03 0.  1.
         11   -1    0    0    0    0 -0.00000000000E+00 -0.00000000000E+00 -0.45593999997E+02  0.45594000000E+02  0.51100000000E-03 0. -1.
    9900012    2    1    2    0    0 -0.20396638620E+02  0.19815183036E+02 -0.32786565404E+02  0.47787271702E+02  0.20000002998E+02 0.  0.
        -12    1    1    2    0    0  0.20396638620E+02 -0.19815183036E+02  0.32786565404E+02  0.43400728298E+02  0.00000000000E+00 0.  1.
         11    1    3    3    0    0 -0.80728316694E+01  0.84667569161E+01 -0.92519004477E+01  0.14914900134E+02  0.51100000000E-03 0. -1.
        -11    1    3    3    0    0 -0.13373716146E+02  0.25466068128E+01 -0.10908230776E+02  0.17445084945E+02  0.51100000000E-03 0.  1.
        -12    1    3    3    0    0  0.10499091954E+01  0.88018193075E+01 -0.12626434181E+02  0.15427286623E+02  0.00000000000E+00 0.  1.
</event>
<event>
 7    1  0.3062695E-010  0.4778727E+02  0.7816164E-02  0.1312668E+00
        -11   -1    0    0    0    0  0.00000000000E+00  0.00000000000E+00  0.45593999997E+02  0.45594000000E+02  0.51100000000E-03 0.  1.
         11   -1    0    0    0    0 -0.00000000000E+00 -0.00000000000E+00 -0.45593999997E+02  0.45594000000E+02  0.51100000000E-03 0. -1.
    9900012    2    1    2    0    0 -0.32300068645E+01  0.99018931454E+01 -0.42132444129E+02  0.47787270968E+02  0.19999999651E+02 0.  0.
        -12    1    1    2    0    0  0.32300068645E+01 -0.99018931454E+01  0.42132444129E+02  0.43400729032E+02  0.00000000000E+00 0.  1.
         11    1    3    3    0    0  0.57045773478E+01  0.10124814040E+02 -0.23483448025E+02  0.26201648678E+02  0.51100000000E-03 0. -1.
        -11    1    3    3    0    0 -0.62120547364E+01  0.27822359148E+01 -0.11277501110E+02  0.13172414064E+02  0.51100000000E-03 0.  1.
         12    1    3    3    0    0 -0.27225294760E+01 -0.30051568091E+01 -0.73714949944E+01  0.84132082256E+01  0.00000000000E+00 0. -1.
</event>
<event>
 7    1  0.3062695E-010  0.4778727E+02  0.7816164E-02  0.1312668E+00
        -11   -1    0    0    0    0  0.00000000000E+00  0.00000000000E+00  0.45593999997E+02  0.45594000000E+02  0.51100000000E-03 0.  1.
         11   -1    0    0    0    0 -0.00000000000E+00 -0.00000000000E+00 -0.45593999997E+02  0.45594000000E+02  0.51100000000E-03 0. -1.
    9900012    2    1    2    0    0 -0.10506403669E+02  0.20506355391E+02 -0.36779456228E+02  0.47787268095E+02  0.19999986551E+02 0.  0.
        -12    1    1    2    0    0  0.10506403669E+02 -0.20506355391E+02  0.36779456228E+02  0.43400731905E+02  0.00000000000E+00 0.  1.
         11    1    3    3    0    0 -0.10887915539E+02  0.21330026618E+02 -0.30359959051E+02  0.38668383133E+02  0.51100000000E-03 0. -1.
        -11    1    3    3    0    0 -0.26361296502E+01 -0.16811926298E+01 -0.20457564316E+01  0.37364030604E+01  0.51100000000E-03 0.  1.
        -12    1    3    3    0    0  0.30176415209E+01  0.85752140295E+00 -0.43737407457E+01  0.53824819011E+01  0.00000000000E+00 0.  1.
</event>
<event>
 7    1  0.3062695E-010  0.4778727E+02  0.7816164E-02  0.1312668E+00
        -11   -1    0    0    0    0  0.00000000000E+00  0.00000000000E+00  0.45593999997E+02  0.45594000000E+02  0.51100000000E-03 0.  1.
         11   -1    0    0    0    0 -0.00000000000E+00 -0.00000000000E+00 -0.45593999997E+02  0.45594000000E+02  0.51100000000E-03 0. -1.
    9900012    2    1    2    0    0 -0.26572654329E+01  0.71151989863E+01 -0.42730975358E+02  0.47787269923E+02  0.19999994885E+02 0.  0.
        -12    1    1    2    0    0  0.26572654329E+01 -0.71151989863E+01  0.42730975358E+02  0.43400730077E+02  0.00000000000E+00 0.  1.
         11    1    3    3    0    0  0.62984855251E+01  0.53756057554E-01 -0.97382702140E+01  0.11597746188E+02  0.51100000000E-03 0. -1.
        -11    1    3    3    0    0 -0.16649069842E+01 -0.10626697094E+01 -0.68987145070E+00  0.20921532107E+01  0.51100000000E-03 0.  1.
         12    1    3    3    0    0 -0.72908439739E+01  0.81241126382E+01 -0.32302833693E+02  0.34097370524E+02  0.00000000000E+00 0. -1.
</event>
<event>
 7    1  0.4136301E-010  0.4778727E+02  0.7816164E-02  0.1312668E+00
        -11   -1    0    0    0    0  0.00000000000E+00  0.00000000000E+00  0.45593999997E+02  0.45594000000E+02  0.51100000000E-03 0. -1.
         11   -1    0    0    0    0 -0.00000000000E+00 -0.00000000000E+00 -0.45593999997E+02  0.45594000000E+02  0.51100000000E-03 0.  1.
    9900012    2    1    2    0    0 -0.10948967549E+02 -0.28613626449E+02  0.30740915239E+02  0.47787269837E+02  0.19999994497E+02 0.  0.
        -12    1    1    2    0    0  0.10948967549E+02  0.28613626449E+02 -0.30740915239E+02  0.43400730163E+02  0.00000000000E+00 0.  1.
         11    1    3    3    0    0 -0.47372473466E+01 -0.13983020699E+02  0.14955626351E+02  0.21015164527E+02  0.51100000000E-03 0. -1.
        -11    1    3    3    0    0  0.68506517486E-01 -0.10902415208E+02  0.18772618485E+01  0.11063067514E+02  0.51100000000E-03 0.  1.
        -12    1    3    3    0    0 -0.62802267200E+01 -0.37281905419E+01  0.13908027039E+02  0.15709037797E+02  0.00000000000E+00 0.  1.
</event>
<event>
 7    1  0.3062695E-010  0.4778727E+02  0.7816164E-02  0.1312668E+00
        -11   -1    0    0    0    0  0.00000000000E+00  0.00000000000E+00  0.45593999997E+02  0.45594000000E+02  0.51100000000E-03 0.  1.
         11   -1    0    0    0    0 -0.00000000000E+00 -0.00000000000E+00 -0.45593999997E+02  0.45594000000E+02  0.51100000000E-03 0. -1.
    9900012    2    1    2    0    0 -0.34803425576E+02 -0.21149958511E+02 -0.15000812267E+02  0.47787267915E+02  0.19999985731E+02 0.  0.
        -12    1    1    2    0    0  0.34803425576E+02  0.21149958511E+02  0.15000812267E+02  0.43400732085E+02  0.00000000000E+00 0.  1.
         11    1    3    3    0    0 -0.25094073269E+02 -0.17935712073E+02 -0.20899678987E+01  0.30915534070E+02  0.51100000000E-03 0. -1.
        -11    1    3    3    0    0 -0.33192953605E+01 -0.21940619280E+01 -0.72685178694E+01  0.82863129143E+01  0.51100000000E-03 0.  1.
         12    1    3    3    0    0 -0.63900569474E+01 -0.10201845094E+01 -0.56423264990E+01  0.85854209300E+01  0.00000000000E+00 0. -1.
</event>
<event>
 7    1  0.3062695E-010  0.4778727E+02  0.7816164E-02  0.1312668E+00
        -11   -1    0    0    0    0  0.00000000000E+00  0.00000000000E+00  0.45593999997E+02  0.45594000000E+02  0.51100000000E-03 0. -1.
         11   -1    0    0    0    0 -0.00000000000E+00 -0.00000000000E+00 -0.45593999997E+02  0.45594000000E+02  0.51100000000E-03 0.  1.
    9900012    2    1    2    0    0 -0.25552974970E+02  0.16668365301E+02  0.30868012611E+02  0.47787272653E+02  0.20000007335E+02 0.  0.
        -12    1    1    2    0    0  0.25552974970E+02 -0.16668365301E+02 -0.30868012611E+02  0.43400727347E+02  0.00000000000E+00 0.  1.
         11    1    3    3    0    0 -0.81770158215E+01  0.13208888518E+02  0.18823704647E+02  0.24406355330E+02  0.51100000000E-03 0. -1.
        -11    1    3    3    0    0 -0.10092541831E+02 -0.27299335208E+01  0.68939386677E+01  0.12523511019E+02  0.51100000000E-03 0.  1.
        -12    1    3    3    0    0 -0.72834173182E+01  0.61894103042E+01  0.51503692971E+01  0.10857406304E+02  0.00000000000E+00 0.  1.
</event>
<event>
 7    1  0.3062695E-010  0.4778727E+02  0.7816164E-02  0.1312668E+00
        -11   -1    0    0    0    0  0.00000000000E+00  0.00000000000E+00  0.45593999997E+02  0.45594000000E+02  0.51100000000E-03 0. -1.
         11   -1    0    0    0    0 -0.00000000000E+00 -0.00000000000E+00 -0.45593999997E+02  0.45594000000E+02  0.51100000000E-03 0.  1.
    9900012    2    1    2    0    0  0.60391198586E+01 -0.35610458114E+02  0.24063414301E+02  0.47787267246E+02  0.19999982681E+02 0.  0.
        -12    1    1    2    0    0 -0.60391198586E+01  0.35610458114E+02 -0.24063414301E+02  0.43400732754E+02  0.00000000000E+00 0.  1.
         11    1    3    3    0    0 -0.14517310334E+01 -0.33687587635E+01  0.48386772220E+01  0.60719730005E+01  0.51100000000E-03 0. -1.
        -11    1    3    3    0    0 -0.11224560324E+01 -0.22911377907E+02  0.17601590844E+02  0.28913788158E+02  0.51100000000E-03 0.  1.
        -12    1    3    3    0    0  0.86133069244E+01 -0.93303214435E+01  0.16231462356E+01  0.12801506088E+02  0.00000000000E+00 0.  1.
</event>
<event>
 7    1  0.3062695E-010  0.4778728E+02  0.7816164E-02  0.1312668E+00
        -11   -1    0    0    0    0  0.00000000000E+00  0.00000000000E+00  0.45593999997E+02  0.45594000000E+02  0.51100000000E-03 0.  1.
         11   -1    0    0    0    0 -0.00000000000E+00 -0.00000000000E+00 -0.45593999997E+02  0.45594000000E+02  0.51100000000E-03 0. -1.
    9900012    2    1    2    0    0  0.41570682473E+02 -0.11050303086E+02 -0.57785673110E+01  0.47787277889E+02  0.20000031206E+02 0.  0.
        -12    1    1    2    0    0 -0.41570682473E+02  0.11050303086E+02  0.57785673110E+01  0.43400722111E+02  0.00000000000E+00 0.  1.
         11    1    3    3    0    0  0.17589020528E+02 -0.76908815110E+01  0.43160802133E+01  0.19676174684E+02  0.51100000000E-03 0. -1.
        -11    1    3    3    0    0  0.18376047694E+02 -0.57059508041E+01 -0.10678692736E+02  0.22006169186E+02  0.51100000000E-03 0.  1.
        -12    1    3    3    0    0  0.56056142515E+01  0.23465292290E+01  0.58404521158E+00  0.61049340184E+01  0.00000000000E+00 0.  1.
</event>
<event>
 7    1  0.3062695E-010  0.4778728E+02  0.7816164E-02  0.1312668E+00
        -11   -1    0    0    0    0  0.00000000000E+00  0.00000000000E+00  0.45593999997E+02  0.45594000000E+02  0.51100000000E-03 0.  1.
         11   -1    0    0    0    0 -0.00000000000E+00 -0.00000000000E+00 -0.45593999997E+02  0.45594000000E+02  0.51100000000E-03 0. -1.
    9900012    2    1    2    0    0  0.38503311862E+02 -0.19957248259E+02 -0.16810950405E+01  0.47787275778E+02  0.20000021584E+02 0.  0.
        -12    1    1    2    0    0 -0.38503311862E+02  0.19957248259E+02  0.16810950405E+01  0.43400724222E+02  0.00000000000E+00 0.  1.
         11    1    3    3    0    0  0.22488871469E+02 -0.15301458469E+02 -0.45738298957E+01  0.27582673754E+02  0.51100000000E-03 0. -1.
        -11    1    3    3    0    0  0.98810618871E+01 -0.48352220225E+00  0.66193680864E+01  0.11903159743E+02  0.51100000000E-03 0.  1.
        -12    1    3    3    0    0  0.61333785056E+01 -0.41722675872E+01 -0.37266332312E+01  0.83014422815E+01  0.00000000000E+00 0.  1.
</event>
<event>
 7    1  0.3062695E-010  0.4778727E+02  0.7816164E-02  0.1312668E+00
        -11   -1    0    0    0    0  0.00000000000E+00  0.00000000000E+00  0.45593999997E+02  0.45594000000E+02  0.51100000000E-03 0.  1.
         11   -1    0    0    0    0 -0.00000000000E+00 -0.00000000000E+00 -0.45593999997E+02  0.45594000000E+02  0.51100000000E-03 0. -1.
    9900012    2    1    2    0    0  0.80635551014E+01 -0.37897222740E+02 -0.19555127208E+02  0.47787269448E+02  0.19999992723E+02 0.  0.
        -12    1    1    2    0    0 -0.80635551014E+01  0.37897222740E+02  0.19555127208E+02  0.43400730552E+02  0.00000000000E+00 0.  1.
         11    1    3    3    0    0  0.46775392743E+01 -0.14511873130E+02 -0.63282245898E+01  0.16508187730E+02  0.51100000000E-03 0. -1.
        -11    1    3    3    0    0  0.41064901604E+01 -0.24120175627E+02 -0.15375135563E+02  0.28897074723E+02  0.51100000000E-03 0.  1.
        -12    1    3    3    0    0 -0.72047433328E+00  0.73482601708E+00  0.21482329447E+01  0.23820069951E+01  0.00000000000E+00 0.  1.
</event>
<event>
 7    1  0.3062695E-010  0.4778728E+02  0.7816164E-02  0.1312668E+00
        -11   -1    0    0    0    0  0.00000000000E+00  0.00000000000E+00  0.45593999997E+02  0.45594000000E+02  0.51100000000E-03 0. -1.
         11   -1    0    0    0    0 -0.00000000000E+00 -0.00000000000E+00 -0.45593999997E+02  0.45594000000E+02  0.51100000000E-03 0.  1.
    9900012    2    1    2    0    0 -0.18639759620E+02 -0.26364541953E+02  0.29001594832E+02  0.47787283256E+02  0.20000055678E+02 0.  0.
        -12    1    1    2    0    0  0.18639759620E+02  0.26364541953E+02 -0.29001594832E+02  0.43400716744E+02  0.00000000000E+00 0.  1.
         11    1    3    3    0    0 -0.41878952044E+01 -0.80768112777E+00  0.45388197639E+01  0.62282983356E+01  0.51100000000E-03 0. -1.
        -11    1    3    3    0    0 -0.13087380468E+02 -0.15097550968E+02  0.23678339165E+02  0.30981919221E+02  0.51100000000E-03 0.  1.
        -12    1    3    3    0    0 -0.13644839472E+01 -0.10459309857E+02  0.78443590358E+00  0.10577065699E+02  0.00000000000E+00 0.  1.
</event>
<event>
 7    1  0.3062695E-010  0.4778726E+02  0.7816164E-02  0.1312668E+00
        -11   -1    0    0    0    0  0.00000000000E+00  0.00000000000E+00  0.45593999997E+02  0.45594000000E+02  0.51100000000E-03 0. -1.
         11   -1    0    0    0    0 -0.00000000000E+00 -0.00000000000E+00 -0.45593999997E+02  0.45594000000E+02  0.51100000000E-03 0.  1.
    9900012    2    1    2    0    0 -0.67156483315E+01  0.78353704217E-01  0.42877945734E+02  0.47787259198E+02  0.19999945988E+02 0.  0.
        -12    1    1    2    0    0  0.67156483315E+01 -0.78353704217E-01 -0.42877945734E+02  0.43400740802E+02  0.00000000000E+00 0.  1.
         11    1    3    3    0    0  0.46860169958E+01 -0.55515905942E+00  0.16772507083E+02  0.17423660665E+02  0.51100000000E-03 0. -1.
        -11    1    3    3    0    0  0.68882771987E+00 -0.27486929615E+01  0.34745449130E+01  0.44835543086E+01  0.51100000000E-03 0.  1.
         12    1    3    3    0    0 -0.12090493047E+02  0.33822057252E+01  0.22630893738E+02  0.25880044225E+02  0.00000000000E+00 0. -1.
</event>
<event>
 7    1  0.3062695E-010  0.4778727E+02  0.7816164E-02  0.1312668E+00
        -11   -1    0    0    0    0  0.00000000000E+00  0.00000000000E+00  0.45593999997E+02  0.45594000000E+02  0.51100000000E-03 0.  1.
         11   -1    0    0    0    0 -0.00000000000E+00 -0.00000000000E+00 -0.45593999997E+02  0.45594000000E+02  0.51100000000E-03 0. -1.
    9900012    2    1    2    0    0 -0.14153609149E+02  0.25402129785E+02 -0.32218482131E+02  0.47787269126E+02  0.19999991255E+02 0.  0.
        -12    1    1    2    0    0  0.14153609149E+02 -0.25402129785E+02  0.32218482131E+02  0.43400730874E+02  0.00000000000E+00 0.  1.
         11    1    3    3    0    0 -0.24472216574E+01  0.87662500284E+01 -0.55632335421E+01  0.10667033379E+02  0.51100000000E-03 0. -1.
        -11    1    3    3    0    0  0.47530221902E+00  0.95061387260E+00  0.19945561008E+01  0.22600515999E+01  0.51100000000E-03 0.  1.
        -12    1    3    3    0    0 -0.12181689711E+02  0.15685265884E+02 -0.28649804689E+02  0.34860184148E+02  0.00000000000E+00 0.  1.
</event>
<event>
 7    1  0.3062695E-010  0.4778728E+02  0.7816164E-02  0.1312668E+00
        -11   -1    0    0    0    0  0.00000000000E+00  0.00000000000E+00  0.45593999997E+02  0.45594000000E+02  0.51100000000E-03 0. -1.
         11   -1    0    0    0    0 -0.00000000000E+00 -0.00000000000E+00 -0.45593999997E+02  0.45594000000E+02  0.51100000000E-03 0.  1.
    9900012    2    1    2    0    0 -0.24045367381E+01  0.37240236611E+02  0.22158649795E+02  0.47787276728E+02  0.20000025913E+02 0.  0.
        -12    1    1    2    0    0  0.24045367381E+01 -0.37240236611E+02 -0.22158649795E+02  0.43400723272E+02  0.00000000000E+00 0.  1.
         11    1    3    3    0    0 -0.76769889909E-01  0.64032464913E+01  0.47486334693E+01  0.79722631248E+01  0.51100000000E-03 0. -1.
        -11    1    3    3    0    0  0.32810426512E+01  0.16640187320E+02  0.17744900515E+02  0.24546742543E+02  0.51100000000E-03 0.  1.
        -12    1    3    3    0    0 -0.56088094994E+01  0.14196802800E+02 -0.33488418879E+00  0.15268271060E+02  0.00000000000E+00 0.  1.
</event>
<event>
 7    1  0.3062695E-010  0.4778727E+02  0.7816164E-02  0.1312668E+00
        -11   -1    0    0    0    0  0.00000000000E+00  0.00000000000E+00  0.45593999997E+02  0.45594000000E+02  0.51100000000E-03 0.  1.
         11   -1    0    0    0    0 -0.00000000000E+00 -0.00000000000E+00 -0.45593999997E+02  0.45594000000E+02  0.51100000000E-03 0. -1.
    9900012    2    1    2    0    0  0.29324247804E+02  0.34582416065E+00 -0.31993626526E+02  0.47787271413E+02  0.20000001679E+02 0.  0.
        -12    1    1    2    0    0 -0.29324247804E+02 -0.34582416065E+00  0.31993626526E+02  0.43400728587E+02  0.00000000000E+00 0.  1.
         11    1    3    3    0    0  0.17359950985E+02  0.55384499953E+01 -0.22499796600E+02  0.28953120278E+02  0.51100000000E-03 0. -1.
        -11    1    3    3    0    0  0.37865031131E+01 -0.68720139533E+01 -0.54837026130E+01  0.95725219357E+01  0.51100000000E-03 0.  1.
        -12    1    3    3    0    0  0.81777937059E+01  0.16793881187E+01 -0.40101273133E+01  0.92616291989E+01  0.00000000000E+00 0.  1.
</event>
<event>
 7    1  0.3062695E-010  0.4778727E+02  0.7816164E-02  0.1312668E+00
        -11   -1    0    0    0    0  0.00000000000E+00  0.00000000000E+00  0.45593999997E+02  0.45594000000E+02  0.51100000000E-03 0.  1.
         11   -1    0    0    0    0 -0.00000000000E+00 -0.00000000000E+00 -0.45593999997E+02  0.45594000000E+02  0.51100000000E-03 0. -1.
    9900012    2    1    2    0    0  0.30303910077E+02 -0.14704817140E+02 -0.27369047474E+02  0.47787269906E+02  0.19999994808E+02 0.  0.
        -12    1    1    2    0    0 -0.30303910077E+02  0.14704817140E+02  0.27369047474E+02  0.43400730094E+02  0.00000000000E+00 0.  1.
         11    1    3    3    0    0  0.11620708875E+02 -0.64847516959E+01 -0.21296537394E+02  0.25112454769E+02  0.51100000000E-03 0. -1.
        -11    1    3    3    0    0  0.15722178625E+02 -0.58744387122E+01 -0.16592113088E+01  0.16865613340E+02  0.51100000000E-03 0.  1.
        -12    1    3    3    0    0  0.29610225771E+01 -0.23456267323E+01 -0.44132987717E+01  0.58092017970E+01  0.00000000000E+00 0.  1.
</event>
<event>
 7    1  0.3062695E-010  0.4778727E+02  0.7816164E-02  0.1312668E+00
        -11   -1    0    0    0    0  0.00000000000E+00  0.00000000000E+00  0.45593999997E+02  0.45594000000E+02  0.51100000000E-03 0. -1.
         11   -1    0    0    0    0 -0.00000000000E+00 -0.00000000000E+00 -0.45593999997E+02  0.45594000000E+02  0.51100000000E-03 0.  1.
    9900012    2    1    2    0    0 -0.37038279321E+02 -0.44610239332E+01  0.22178557383E+02  0.47787271007E+02  0.19999999828E+02 0.  0.
        -12    1    1    2    0    0  0.37038279321E+02  0.44610239332E+01 -0.22178557383E+02  0.43400728993E+02  0.00000000000E+00 0.  1.
         11    1    3    3    0    0  0.56913241538E-01 -0.39658886009E+00  0.16313511130E+01  0.16798299187E+01  0.51100000000E-03 0. -1.
        -11    1    3    3    0    0 -0.15938205304E+02 -0.37081537597E+01 -0.35042077821E+00  0.16367638425E+02  0.51100000000E-03 0.  1.
        -12    1    3    3    0    0 -0.21156987258E+02 -0.35628131343E+00  0.20897627048E+02  0.29739802663E+02  0.00000000000E+00 0.  1.
</event>
<event>
 7    1  0.3062695E-010  0.4778726E+02  0.7816164E-02  0.1312668E+00
        -11   -1    0    0    0    0  0.00000000000E+00  0.00000000000E+00  0.45593999997E+02  0.45594000000E+02  0.51100000000E-03 0. -1.
         11   -1    0    0    0    0 -0.00000000000E+00 -0.00000000000E+00 -0.45593999997E+02  0.45594000000E+02  0.51100000000E-03 0.  1.
    9900012    2    1    2    0    0  0.37572957297E+02  0.21150662734E+02  0.49544302857E+01  0.47787262292E+02  0.19999960094E+02 0.  0.
        -12    1    1    2    0    0 -0.37572957297E+02 -0.21150662734E+02 -0.49544302857E+01  0.43400737708E+02  0.00000000000E+00 0.  1.
         11    1    3    3    0    0  0.28961313855E+02  0.83649904315E+01  0.47445009798E+01  0.30516242477E+02  0.51100000000E-03 0. -1.
        -11    1    3    3    0    0 -0.58258676209E+00  0.47228003407E+01  0.14624001887E+01  0.49782391432E+01  0.51100000000E-03 0.  1.
         12    1    3    3    0    0  0.91942302047E+01  0.80628719620E+01 -0.12524708828E+01  0.12292780672E+02  0.00000000000E+00 0. -1.
</event>
<event>
 7    1  0.3062695E-010  0.4778728E+02  0.7816164E-02  0.1312668E+00
        -11   -1    0    0    0    0  0.00000000000E+00  0.00000000000E+00  0.45593999997E+02  0.45594000000E+02  0.51100000000E-03 0. -1.
         11   -1    0    0    0    0 -0.00000000000E+00 -0.00000000000E+00 -0.45593999997E+02  0.45594000000E+02  0.51100000000E-03 0.  1.
    9900012    2    1    2    0    0 -0.41569036033E+02 -0.52527767831E+01 -0.11315761713E+02  0.47787275538E+02  0.20000020488E+02 0.  0.
        -12    1    1    2    0    0  0.41569036033E+02  0.52527767831E+01  0.11315761713E+02  0.43400724462E+02  0.00000000000E+00 0.  1.
         11    1    3    3    0    0 -0.11500109768E+02  0.16047560668E+01  0.33221595660E+01  0.12077438104E+02  0.51100000000E-03 0. -1.
        -11    1    3    3    0    0 -0.11157086468E+02 -0.39991847496E+01 -0.11140529518E+02  0.16266082974E+02  0.51100000000E-03 0.  1.
         12    1    3    3    0    0 -0.18911839797E+02 -0.28583481004E+01 -0.34973917615E+01  0.19443754460E+02  0.00000000000E+00 0. -1.
</event>
<event>
 7    1  0.3062695E-010  0.4778727E+02  0.7816164E-02  0.1312668E+00
        -11   -1    0    0    0    0  0.00000000000E+00  0.00000000000E+00  0.45593999997E+02  0.45594000000E+02  0.51100000000E-03 0.  1.
         11   -1    0    0    0    0 -0.00000000000E+00 -0.00000000000E+00 -0.45593999997E+02  0.45594000000E+02  0.51100000000E-03 0. -1.
    9900012    2    1    2    0    0 -0.11624001538E+02  0.31505020148E+02 -0.27494355310E+02  0.47787270972E+02  0.19999999670E+02 0.  0.
        -12    1    1    2    0    0  0.11624001538E+02 -0.31505020148E+02  0.27494355310E+02  0.43400729028E+02  0.00000000000E+00 0.  1.
         11    1    3    3    0    0 -0.82906238906E+01  0.92143299095E+01 -0.88298243433E+01  0.15218545212E+02  0.51100000000E-03 0. -1.
        -11    1    3    3    0    0 -0.57376943679E+01  0.35246012374E+01 -0.12382174137E+01  0.68466877515E+01  0.51100000000E-03 0.  1.
        -12    1    3    3    0    0  0.24043167203E+01  0.18766089001E+02 -0.17426313553E+02  0.25722038009E+02  0.00000000000E+00 0.  1.
</event>
<event>
 7    1  0.3062695E-010  0.4778727E+02  0.7816164E-02  0.1312668E+00
        -11   -1    0    0    0    0  0.00000000000E+00  0.00000000000E+00  0.45593999997E+02  0.45594000000E+02  0.51100000000E-03 0. -1.
         11   -1    0    0    0    0 -0.00000000000E+00 -0.00000000000E+00 -0.45593999997E+02  0.45594000000E+02  0.51100000000E-03 0.  1.
    9900012    2    1    2    0    0  0.18111817741E+02  0.32712644712E+02  0.22033339629E+02  0.47787272804E+02  0.20000008022E+02 0.  0.
        -12    1    1    2    0    0 -0.18111817741E+02 -0.32712644712E+02 -0.22033339629E+02  0.43400727196E+02  0.00000000000E+00 0.  1.
         11    1    3    3    0    0 -0.85913296562E+00 -0.16505333023E+01  0.19719221635E+01  0.27112445324E+01  0.51100000000E-03 0. -1.
        -11    1    3    3    0    0  0.18889546134E+02  0.28223912360E+02  0.15034375732E+02  0.37140767843E+02  0.51100000000E-03 0.  1.
         12    1    3    3    0    0  0.81404572901E-01  0.61392656546E+01  0.50270417329E+01  0.79352604284E+01  0.00000000000E+00 0. -1.
</event>
<event>
 7    1  0.3062695E-010  0.4778727E+02  0.7816164E-02  0.1312668E+00
        -11   -1    0    0    0    0  0.00000000000E+00  0.00000000000E+00  0.45593999997E+02  0.45594000000E+02  0.51100000000E-03 0.  1.
         11   -1    0    0    0    0 -0.00000000000E+00 -0.00000000000E+00 -0.45593999997E+02  0.45594000000E+02  0.51100000000E-03 0. -1.
    9900012    2    1    2    0    0 -0.22013801961E+02 -0.36943665659E+02 -0.58465000361E+01  0.47787268765E+02  0.19999989605E+02 0.  0.
        -12    1    1    2    0    0  0.22013801961E+02  0.36943665659E+02  0.58465000361E+01  0.43400731235E+02  0.00000000000E+00 0.  1.
         11    1    3    3    0    0 -0.13511355831E+02 -0.12953517832E+02  0.17044291132E+01  0.18795090834E+02  0.51100000000E-03 0.  1.
        -11    1    3    3    0    0 -0.66916649942E+01 -0.23103379326E+02 -0.32882200101E+01  0.24276674150E+02  0.51100000000E-03 0. -1.
        -12    1    3    3    0    0 -0.18107811363E+01 -0.88676850053E+00 -0.42627091391E+01  0.47155037803E+01  0.00000000000E+00 0.  1.
</event>
<event>
 7    1  0.3062695E-010  0.4778728E+02  0.7816164E-02  0.1312668E+00
        -11   -1    0    0    0    0  0.00000000000E+00  0.00000000000E+00  0.45593999997E+02  0.45594000000E+02  0.51100000000E-03 0.  1.
         11   -1    0    0    0    0 -0.00000000000E+00 -0.00000000000E+00 -0.45593999997E+02  0.45594000000E+02  0.51100000000E-03 0. -1.
    9900012    2    1    2    0    0 -0.13646700712E+02 -0.10758671633E+00 -0.41199258456E+02  0.47787275208E+02  0.20000018981E+02 0.  0.
        -12    1    1    2    0    0  0.13646700712E+02  0.10758671633E+00  0.41199258456E+02  0.43400724792E+02  0.00000000000E+00 0.  1.
         11    1    3    3    0    0 -0.68630872212E+01 -0.56034667802E+01 -0.45729198613E+01  0.99705768379E+01  0.51100000000E-03 0.  1.
        -11    1    3    3    0    0 -0.33883266833E+01  0.49075314562E+01 -0.22677550344E+02  0.23448580183E+02  0.51100000000E-03 0. -1.
        -12    1    3    3    0    0 -0.33952868070E+01  0.58834860760E+00 -0.13948788250E+02  0.14368118187E+02  0.00000000000E+00 0.  1.
</event>
<event>
 7    1  0.3514040E-010  0.4778727E+02  0.7816164E-02  0.1312668E+00
        -11   -1    0    0    0    0  0.00000000000E+00  0.00000000000E+00  0.45593999997E+02  0.45594000000E+02  0.51100000000E-03 0.  1.
         11   -1    0    0    0    0 -0.00000000000E+00 -0.00000000000E+00 -0.45593999997E+02  0.45594000000E+02  0.51100000000E-03 0. -1.
    9900012    2    1    2    0    0  0.34693619817E+02 -0.31624319735E+01 -0.25883876293E+02  0.47787270928E+02  0.19999999470E+02 0.  0.
        -12    1    1    2    0    0 -0.34693619817E+02  0.31624319735E+01  0.25883876293E+02  0.43400729072E+02  0.00000000000E+00 0.  1.
         11    1    3    3    0    0  0.30134462111E+02  0.33062707393E+01 -0.21340188091E+02  0.37073182504E+02  0.51100000000E-03 0. -1.
        -11    1    3    3    0    0  0.55200651379E+01 -0.64807787332E+01 -0.47246466209E+01  0.97362157982E+01  0.51100000000E-03 0.  1.
        -12    1    3    3    0    0 -0.96090743209E+00  0.12076020394E-01  0.18095841898E+00  0.97787262602E+00  0.00000000000E+00 0.  1.
</event>
<event>
 7    1  0.4152705E-010  0.4778727E+02  0.7816164E-02  0.1312668E+00
        -11   -1    0    0    0    0  0.00000000000E+00  0.00000000000E+00  0.45593999997E+02  0.45594000000E+02  0.51100000000E-03 0. -1.
         11   -1    0    0    0    0 -0.00000000000E+00 -0.00000000000E+00 -0.45593999997E+02  0.45594000000E+02  0.51100000000E-03 0.  1.
    9900012    2    1    2    0    0  0.33913492414E+02  0.16133076883E+02 -0.21753665413E+02  0.47787273090E+02  0.20000009326E+02 0.  0.
        -12    1    1    2    0    0 -0.33913492414E+02 -0.16133076883E+02  0.21753665413E+02  0.43400726910E+02  0.00000000000E+00 0.  1.
         11    1    3    3    0    0  0.25262552985E+02  0.10319370615E+02 -0.12114001288E+02  0.29856909094E+02  0.51100000000E-03 0. -1.
        -11    1    3    3    0    0 -0.18590933658E-01 -0.25509424851E+01 -0.81616835567E-01  0.25523155671E+01  0.51100000000E-03 0.  1.
        -12    1    3    3    0    0  0.86695303625E+01  0.83646487533E+01 -0.95580472898E+01  0.15378048428E+02  0.00000000000E+00 0.  1.
</event>
<event>
 7    1  0.3062695E-010  0.4778727E+02  0.7816164E-02  0.1312668E+00
        -11   -1    0    0    0    0  0.00000000000E+00  0.00000000000E+00  0.45593999997E+02  0.45594000000E+02  0.51100000000E-03 0.  1.
         11   -1    0    0    0    0 -0.00000000000E+00 -0.00000000000E+00 -0.45593999997E+02  0.45594000000E+02  0.51100000000E-03 0. -1.
    9900012    2    1    2    0    0 -0.29123871217E+02  0.60233379779E+01 -0.31609221515E+02  0.47787270054E+02  0.19999995485E+02 0.  0.
        -12    1    1    2    0    0  0.29123871217E+02 -0.60233379779E+01  0.31609221515E+02  0.43400729946E+02  0.00000000000E+00 0.  1.
         11    1    3    3    0    0 -0.20839242477E+02  0.66744516911E+01 -0.24787859048E+02  0.33064486823E+02  0.51100000000E-03 0. -1.
        -11    1    3    3    0    0 -0.15637499261E+01  0.28271304886E+01  0.14243370482E+01  0.35308238300E+01  0.51100000000E-03 0.  1.
        -12    1    3    3    0    0 -0.67208788139E+01 -0.34782442018E+01 -0.82456995144E+01  0.11191959401E+02  0.00000000000E+00 0.  1.
</event>
<event>
 7    1  0.3062695E-010  0.4778726E+02  0.7816164E-02  0.1312668E+00
        -11   -1    0    0    0    0  0.00000000000E+00  0.00000000000E+00  0.45593999997E+02  0.45594000000E+02  0.51100000000E-03 0.  1.
         11   -1    0    0    0    0 -0.00000000000E+00 -0.00000000000E+00 -0.45593999997E+02  0.45594000000E+02  0.51100000000E-03 0. -1.
    9900012    2    1    2    0    0  0.19056131645E+02 -0.30853752487E+02  0.23843947140E+02  0.47787262552E+02  0.19999961280E+02 0.  0.
        -12    1    1    2    0    0 -0.19056131645E+02  0.30853752487E+02 -0.23843947140E+02  0.43400737448E+02  0.00000000000E+00 0.  1.
         11    1    3    3    0    0  0.14989598774E+02 -0.20112692761E+02  0.22339744809E+02  0.33589770465E+02  0.51100000000E-03 0. -1.
        -11    1    3    3    0    0  0.32980661224E+01 -0.25493996263E+01 -0.26913730729E+01  0.49618714091E+01  0.51100000000E-03 0.  1.
        -12    1    3    3    0    0  0.76846674918E+00 -0.81916601001E+01  0.41955754031E+01  0.92356206777E+01  0.00000000000E+00 0.  1.
</event>
<event>
 7    1  0.3062695E-010  0.4778727E+02  0.7816164E-02  0.1312668E+00
        -11   -1    0    0    0    0  0.00000000000E+00  0.00000000000E+00  0.45593999997E+02  0.45594000000E+02  0.51100000000E-03 0.  1.
         11   -1    0    0    0    0 -0.00000000000E+00 -0.00000000000E+00 -0.45593999997E+02  0.45594000000E+02  0.51100000000E-03 0. -1.
    9900012    2    1    2    0    0  0.16964151439E+02 -0.17546667340E+02 -0.35888092094E+02  0.47787272783E+02  0.20000007928E+02 0.  0.
        -12    1    1    2    0    0 -0.16964151439E+02  0.17546667340E+02  0.35888092094E+02  0.43400727217E+02  0.00000000000E+00 0.  1.
         11    1    3    3    0    0  0.97191823596E+01 -0.68175016626E+01 -0.16436139268E+02  0.20275293067E+02  0.51100000000E-03 0. -1.
        -11    1    3    3    0    0 -0.26400480736E+01  0.15211295443E+01 -0.89015913393E+00  0.31742829846E+01  0.51100000000E-03 0.  1.
        -12    1    3    3    0    0  0.98850171528E+01 -0.12250295221E+02 -0.18561793692E+02  0.24337696731E+02  0.00000000000E+00 0.  1.
</event>
<event>
 7    1  0.3062695E-010  0.4778727E+02  0.7816164E-02  0.1312668E+00
        -11   -1    0    0    0    0  0.00000000000E+00  0.00000000000E+00  0.45593999997E+02  0.45594000000E+02  0.51100000000E-03 0.  1.
         11   -1    0    0    0    0 -0.00000000000E+00 -0.00000000000E+00 -0.45593999997E+02  0.45594000000E+02  0.51100000000E-03 0. -1.
    9900012    2    1    2    0    0 -0.34275184687E+02 -0.23175364841E+02 -0.13104859480E+02  0.47787272324E+02  0.20000005833E+02 0.  0.
        -12    1    1    2    0    0  0.34275184687E+02  0.23175364841E+02  0.13104859480E+02  0.43400727676E+02  0.00000000000E+00 0.  1.
         11    1    3    3    0    0 -0.30543324748E+02 -0.15017773958E+02 -0.36264093688E+01  0.34228337186E+02  0.51100000000E-03 0. -1.
        -11    1    3    3    0    0 -0.15955749414E+01 -0.70843335430E+01 -0.65580308434E+01  0.97847539543E+01  0.51100000000E-03 0.  1.
        -12    1    3    3    0    0 -0.21362849969E+01 -0.10732573395E+01 -0.29204192679E+01  0.37741811834E+01  0.00000000000E+00 0.  1.
</event>
<event>
 7    1  0.3062695E-010  0.4778727E+02  0.7816164E-02  0.1312668E+00
        -11   -1    0    0    0    0  0.00000000000E+00  0.00000000000E+00  0.45593999997E+02  0.45594000000E+02  0.51100000000E-03 0.  1.
         11   -1    0    0    0    0 -0.00000000000E+00 -0.00000000000E+00 -0.45593999997E+02  0.45594000000E+02  0.51100000000E-03 0. -1.
    9900012    2    1    2    0    0  0.14482735119E+02  0.33084940289E+01 -0.40779006568E+02  0.47787272749E+02  0.20000007772E+02 0.  0.
        -12    1    1    2    0    0 -0.14482735119E+02 -0.33084940289E+01  0.40779006568E+02  0.43400727251E+02  0.00000000000E+00 0.  1.
         11    1    3    3    0    0  0.16446997272E+02  0.92318387739E+00 -0.22017073830E+02  0.27497409478E+02  0.51100000000E-03 0. -1.
        -11    1    3    3    0    0 -0.41089893829E+01  0.29808865968E+01 -0.95785885869E+01  0.10840610602E+02  0.51100000000E-03 0.  1.
        -12    1    3    3    0    0  0.21447272302E+01 -0.59557644529E+00 -0.91833441512E+01  0.94492526685E+01  0.00000000000E+00 0.  1.
</event>
<event>
 7    1  0.3062695E-010  0.4778729E+02  0.7816164E-02  0.1312668E+00
        -11   -1    0    0    0    0  0.00000000000E+00  0.00000000000E+00  0.45593999997E+02  0.45594000000E+02  0.51100000000E-03 0. -1.
         11   -1    0    0    0    0 -0.00000000000E+00 -0.00000000000E+00 -0.45593999997E+02  0.45594000000E+02  0.51100000000E-03 0.  1.
    9900012    2    1    2    0    0  0.28016081340E+02  0.10674526711E+02  0.31381132129E+02  0.47787288164E+02  0.20000078056E+02 0.  0.
        -12    1    1    2    0    0 -0.28016081340E+02 -0.10674526711E+02 -0.31381132129E+02  0.43400711836E+02  0.00000000000E+00 0.  1.
         11    1    3    3    0    0  0.11383919898E+02 -0.25674869154E+00  0.34669703888E+01  0.11902917125E+02  0.51100000000E-03 0. -1.
        -11    1    3    3    0    0  0.43120477690E+01  0.90128559977E+01  0.14020059244E+02  0.17215905166E+02  0.51100000000E-03 0.  1.
         12    1    3    3    0    0  0.12320113672E+02  0.19184194045E+01  0.13894102496E+02  0.18668465874E+02  0.00000000000E+00 0. -1.
</event>
<event>
 7    1  0.3062695E-010  0.4778728E+02  0.7816164E-02  0.1312668E+00
        -11   -1    0    0    0    0  0.00000000000E+00  0.00000000000E+00  0.45593999997E+02  0.45594000000E+02  0.51100000000E-03 0. -1.
         11   -1    0    0    0    0 -0.00000000000E+00 -0.00000000000E+00 -0.45593999997E+02  0.45594000000E+02  0.51100000000E-03 0.  1.
    9900012    2    1    2    0    0  0.83214613202E+01  0.42089327356E+02 -0.65471146557E+01  0.47787275281E+02  0.20000019316E+02 0.  0.
        -12    1    1    2    0    0 -0.83214613202E+01 -0.42089327356E+02  0.65471146557E+01  0.43400724719E+02  0.00000000000E+00 0.  1.
         11    1    3    3    0    0  0.29303795249E+01  0.17419736406E+00  0.22865439298E+01  0.37209880792E+01  0.51100000000E-03 0. -1.
        -11    1    3    3    0    0 -0.17545064623E+01  0.13246316635E+02 -0.50262460741E+01  0.14276076043E+02  0.51100000000E-03 0.  1.
         12    1    3    3    0    0  0.71455882575E+01  0.28668813357E+02 -0.38074125114E+01  0.29790211159E+02  0.00000000000E+00 0. -1.
</event>
<event>
 7    1  0.3062695E-010  0.4778727E+02  0.7816164E-02  0.1312668E+00
        -11   -1    0    0    0    0  0.00000000000E+00  0.00000000000E+00  0.45593999997E+02  0.45594000000E+02  0.51100000000E-03 0. -1.
         11   -1    0    0    0    0 -0.00000000000E+00 -0.00000000000E+00 -0.45593999997E+02  0.45594000000E+02  0.51100000000E-03 0.  1.
    9900012    2    1    2    0    0  0.22144256675E+02 -0.12775261165E+02  0.35072036078E+02  0.47787272862E+02  0.20000008285E+02 0.  0.
        -12    1    1    2    0    0 -0.22144256675E+02  0.12775261165E+02 -0.35072036078E+02  0.43400727138E+02  0.00000000000E+00 0.  1.
         11    1    3    3    0    0  0.52249929628E+01 -0.11608566945E+02  0.16052919259E+02  0.20487937792E+02  0.51100000000E-03 0. -1.
        -11    1    3    3    0    0  0.15694276538E+02  0.22563746445E+01  0.14379628268E+02  0.21405028661E+02  0.51100000000E-03 0.  1.
        -12    1    3    3    0    0  0.12249871739E+01 -0.34230688643E+01  0.46394885512E+01  0.58943064090E+01  0.00000000000E+00 0.  1.
</event>
<event>
 7    1  0.3062695E-010  0.4778727E+02  0.7816164E-02  0.1312668E+00
        -11   -1    0    0    0    0  0.00000000000E+00  0.00000000000E+00  0.45593999997E+02  0.45594000000E+02  0.51100000000E-03 0.  1.
         11   -1    0    0    0    0 -0.00000000000E+00 -0.00000000000E+00 -0.45593999997E+02  0.45594000000E+02  0.51100000000E-03 0. -1.
    9900012    2    1    2    0    0 -0.22846400095E+02  0.34110692681E+02 -0.14075721836E+02  0.47787270770E+02  0.19999998749E+02 0.  0.
        -12    1    1    2    0    0  0.22846400095E+02 -0.34110692681E+02  0.14075721836E+02  0.43400729230E+02  0.00000000000E+00 0.  1.
         11    1    3    3    0    0 -0.43665944334E+01  0.17773553700E+02  0.16469097612E+01  0.18376035212E+02  0.51100000000E-03 0.  1.
        -11    1    3    3    0    0 -0.14730109299E+02  0.11743669879E+02 -0.12985307019E+02  0.22880299405E+02  0.51100000000E-03 0. -1.
         12    1    3    3    0    0 -0.37496963625E+01  0.45934691017E+01 -0.27373245780E+01  0.65309361538E+01  0.00000000000E+00 0. -1.
</event>
<event>
 7    1  0.3062695E-010  0.4778726E+02  0.7816164E-02  0.1312668E+00
        -11   -1    0    0    0    0  0.00000000000E+00  0.00000000000E+00  0.45593999997E+02  0.45594000000E+02  0.51100000000E-03 0.  1.
         11   -1    0    0    0    0 -0.00000000000E+00 -0.00000000000E+00 -0.45593999997E+02  0.45594000000E+02  0.51100000000E-03 0. -1.
    9900012    2    1    2    0    0 -0.28437845988E+02  0.28028624890E+02 -0.17009083837E+02  0.47787264630E+02  0.19999970754E+02 0.  0.
        -12    1    1    2    0    0  0.28437845988E+02 -0.28028624890E+02  0.17009083837E+02  0.43400735370E+02  0.00000000000E+00 0.  1.
         11    1    3    3    0    0 -0.29906239684E+01  0.71827903920E+01 -0.26317221071E+01  0.82135419306E+01  0.51100000000E-03 0. -1.
        -11    1    3    3    0    0 -0.10431514001E+02  0.14776879922E+02 -0.26159171072E+00  0.18089806385E+02  0.51100000000E-03 0.  1.
        -12    1    3    3    0    0 -0.15015708018E+02  0.60689545764E+01 -0.14115770019E+02  0.21483916314E+02  0.00000000000E+00 0.  1.
</event>
<event>
 7    1  0.3062695E-010  0.4778726E+02  0.7816164E-02  0.1312668E+00
        -11   -1    0    0    0    0  0.00000000000E+00  0.00000000000E+00  0.45593999997E+02  0.45594000000E+02  0.51100000000E-03 0.  1.
         11   -1    0    0    0    0 -0.00000000000E+00 -0.00000000000E+00 -0.45593999997E+02  0.45594000000E+02  0.51100000000E-03 0. -1.
    9900012    2    1    2    0    0  0.40478705042E+02 -0.13491644348E+02 -0.79419184622E+01  0.47787261550E+02  0.19999956713E+02 0.  0.
        -12    1    1    2    0    0 -0.40478705042E+02  0.13491644348E+02  0.79419184622E+01  0.43400738450E+02  0.00000000000E+00 0.  1.
         11    1    3    3    0    0  0.26256432465E+02 -0.61529354178E+01 -0.88812130301E+01  0.28392513189E+02  0.51100000000E-03 0. -1.
        -11    1    3    3    0    0  0.13231977914E+02 -0.96260795663E+01  0.23497388951E+01  0.16530817296E+02  0.51100000000E-03 0.  1.
         12    1    3    3    0    0  0.99029466377E+00  0.22873706363E+01 -0.14104443272E+01  0.28639310657E+01  0.00000000000E+00 0. -1.
</event>
<event>
 7    1  0.3062695E-010  0.4778727E+02  0.7816164E-02  0.1312668E+00
        -11   -1    0    0    0    0  0.00000000000E+00  0.00000000000E+00  0.45593999997E+02  0.45594000000E+02  0.51100000000E-03 0.  1.
         11   -1    0    0    0    0 -0.00000000000E+00 -0.00000000000E+00 -0.45593999997E+02  0.45594000000E+02  0.51100000000E-03 0. -1.
    9900012    2    1    2    0    0  0.11419509849E+02 -0.41066806756E+02 -0.81691774967E+01  0.47787270936E+02  0.19999999507E+02 0.  0.
        -12    1    1    2    0    0 -0.11419509849E+02  0.41066806756E+02  0.81691774967E+01  0.43400729064E+02  0.00000000000E+00 0.  1.
         11    1    3    3    0    0 -0.20569260414E+01 -0.75022031619E+00  0.80534381682E+00  0.23328853781E+01  0.51100000000E-03 0. -1.
        -11    1    3    3    0    0  0.14622003204E+02 -0.37291074269E+02 -0.11122787860E+02  0.41570946680E+02  0.51100000000E-03 0.  1.
        -12    1    3    3    0    0 -0.11455673137E+01 -0.30255121707E+01  0.21482665468E+01  0.38834388783E+01  0.00000000000E+00 0.  1.
</event>
<event>
 7    1  0.3062695E-010  0.4778727E+02  0.7816164E-02  0.1312668E+00
        -11   -1    0    0    0    0  0.00000000000E+00  0.00000000000E+00  0.45593999997E+02  0.45594000000E+02  0.51100000000E-03 0.  1.
         11   -1    0    0    0    0 -0.00000000000E+00 -0.00000000000E+00 -0.45593999997E+02  0.45594000000E+02  0.51100000000E-03 0. -1.
    9900012    2    1    2    0    0  0.26250260373E+02 -0.12630491473E+02 -0.32171694653E+02  0.47787269345E+02  0.19999992253E+02 0.  0.
        -12    1    1    2    0    0 -0.26250260373E+02  0.12630491473E+02  0.32171694653E+02  0.43400730655E+02  0.00000000000E+00 0.  1.
         11    1    3    3    0    0  0.19095141446E+02 -0.26526218817E+01 -0.13016620032E+02  0.23261410684E+02  0.51100000000E-03 0. -1.
        -11    1    3    3    0    0  0.36607936975E+01 -0.79627446706E+01 -0.56405996341E+01  0.10422239571E+02  0.51100000000E-03 0.  1.
         12    1    3    3    0    0  0.34943252290E+01 -0.20151249205E+01 -0.13514474987E+02  0.14103619090E+02  0.00000000000E+00 0. -1.
</event>
<event>
 7    1  0.3062695E-010  0.4778727E+02  0.7816164E-02  0.1312668E+00
        -11   -1    0    0    0    0  0.00000000000E+00  0.00000000000E+00  0.45593999997E+02  0.45594000000E+02  0.51100000000E-03 0. -1.
         11   -1    0    0    0    0 -0.00000000000E+00 -0.00000000000E+00 -0.45593999997E+02  0.45594000000E+02  0.51100000000E-03 0.  1.
    9900012    2    1    2    0    0  0.22433873851E+02  0.34603926224E+02  0.13524516369E+02  0.47787274786E+02  0.20000017061E+02 0.  0.
        -12    1    1    2    0    0 -0.22433873851E+02 -0.34603926224E+02 -0.13524516369E+02  0.43400725214E+02  0.00000000000E+00 0.  1.
         11    1    3    3    0    0  0.20074963970E+02  0.29749392119E+02  0.14463322647E+02  0.38693904069E+02  0.51100000000E-03 0. -1.
        -11    1    3    3    0    0 -0.19315001977E+01  0.25018396709E+01  0.16415598143E+01  0.35615465233E+01  0.51100000000E-03 0.  1.
         12    1    3    3    0    0  0.42904100789E+01  0.23526944335E+01 -0.25803660926E+01  0.55318241940E+01  0.00000000000E+00 0. -1.
</event>
<event>
 7    1  0.3062695E-010  0.4778727E+02  0.7816164E-02  0.1312668E+00
        -11   -1    0    0    0    0  0.00000000000E+00  0.00000000000E+00  0.45593999997E+02  0.45594000000E+02  0.51100000000E-03 0.  1.
         11   -1    0    0    0    0 -0.00000000000E+00 -0.00000000000E+00 -0.45593999997E+02  0.45594000000E+02  0.51100000000E-03 0. -1.
    9900012    2    1    2    0    0 -0.42247630347E+01 -0.58458449990E+00 -0.43190658123E+02  0.47787270619E+02  0.19999998059E+02 0.  0.
        -12    1    1    2    0    0  0.42247630347E+01  0.58458449990E+00  0.43190658123E+02  0.43400729381E+02  0.00000000000E+00 0.  1.
         11    1    3    3    0    0  0.22962301403E+01  0.51028784696E+01 -0.18118185091E+02  0.18962612499E+02  0.51100000000E-03 0.  1.
        -11    1    3    3    0    0  0.22932770028E+01  0.15666366927E+01 -0.56548267825E+01  0.63000425506E+01  0.51100000000E-03 0. -1.
         12    1    3    3    0    0 -0.88142701778E+01 -0.72540996621E+01 -0.19417646249E+02  0.22524615569E+02  0.00000000000E+00 0. -1.
</event>
<event>
 7    1  0.3062695E-010  0.4778727E+02  0.7816164E-02  0.1312668E+00
        -11   -1    0    0    0    0  0.00000000000E+00  0.00000000000E+00  0.45593999997E+02  0.45594000000E+02  0.51100000000E-03 0.  1.
         11   -1    0    0    0    0 -0.00000000000E+00 -0.00000000000E+00 -0.45593999997E+02  0.45594000000E+02  0.51100000000E-03 0. -1.
    9900012    2    1    2    0    0  0.16572453299E+02 -0.39477363618E+02 -0.71073806144E+01  0.47787270678E+02  0.19999998327E+02 0.  0.
        -12    1    1    2    0    0 -0.16572453299E+02  0.39477363618E+02  0.71073806144E+01  0.43400729322E+02  0.00000000000E+00 0.  1.
         11    1    3    3    0    0  0.17239422787E+02 -0.22882968840E+02  0.13172078481E+01  0.28680359093E+02  0.51100000000E-03 0. -1.
        -11    1    3    3    0    0 -0.68825034397E+00 -0.14467881943E+02 -0.55054185537E+01  0.15495255085E+02  0.51100000000E-03 0.  1.
         12    1    3    3    0    0  0.21280856008E-01 -0.21265128351E+01 -0.29191699087E+01  0.36116564993E+01  0.00000000000E+00 0. -1.
</event>
<event>
 7    1  0.3062695E-010  0.4778727E+02  0.7816164E-02  0.1312668E+00
        -11   -1    0    0    0    0  0.00000000000E+00  0.00000000000E+00  0.45593999997E+02  0.45594000000E+02  0.51100000000E-03 0. -1.
         11   -1    0    0    0    0 -0.00000000000E+00 -0.00000000000E+00 -0.45593999997E+02  0.45594000000E+02  0.51100000000E-03 0.  1.
    9900012    2    1    2    0    0 -0.36314631289E+02 -0.19069857689E+02 -0.14184895422E+02  0.47787272171E+02  0.20000005136E+02 0.  0.
        -12    1    1    2    0    0  0.36314631289E+02  0.19069857689E+02  0.14184895422E+02  0.43400727829E+02  0.00000000000E+00 0.  1.
         11    1    3    3    0    0 -0.11373319155E+02 -0.15379710107E+01 -0.37615546802E+01  0.12077542685E+02  0.51100000000E-03 0.  1.
        -11    1    3    3    0    0 -0.23052900601E+02 -0.11207970424E+02 -0.30497329947E+01  0.25813866405E+02  0.51100000000E-03 0. -1.
        -12    1    3    3    0    0 -0.18884115323E+01 -0.63239162544E+01 -0.73736077471E+01  0.98958630809E+01  0.00000000000E+00 0.  1.
</event>
<event>
 7    1  0.3062695E-010  0.4778727E+02  0.7816164E-02  0.1312668E+00
        -11   -1    0    0    0    0  0.00000000000E+00  0.00000000000E+00  0.45593999997E+02  0.45594000000E+02  0.51100000000E-03 0.  1.
         11   -1    0    0    0    0 -0.00000000000E+00 -0.00000000000E+00 -0.45593999997E+02  0.45594000000E+02  0.51100000000E-03 0. -1.
    9900012    2    1    2    0    0 -0.26273363232E+02  0.61628401117E+01 -0.33990485643E+02  0.47787270421E+02  0.19999997158E+02 0.  0.
        -12    1    1    2    0    0  0.26273363232E+02 -0.61628401117E+01  0.33990485643E+02  0.43400729579E+02  0.00000000000E+00 0.  1.
         11    1    3    3    0    0 -0.46255297349E+00  0.48697561646E+01 -0.14603062549E+02  0.15400581691E+02  0.51100000000E-03 0. -1.
        -11    1    3    3    0    0 -0.16670100945E+02 -0.44201695438E-01 -0.13267649892E+02  0.21305509926E+02  0.51100000000E-03 0.  1.
         12    1    3    3    0    0 -0.91407093130E+01  0.13372856425E+01 -0.61197732018E+01  0.11081178804E+02  0.00000000000E+00 0. -1.
</event>
<event>
 7    1  0.3062695E-010  0.4778727E+02  0.7816164E-02  0.1312668E+00
        -11   -1    0    0    0    0  0.00000000000E+00  0.00000000000E+00  0.45593999997E+02  0.45594000000E+02  0.51100000000E-03 0. -1.
         11   -1    0    0    0    0 -0.00000000000E+00 -0.00000000000E+00 -0.45593999997E+02  0.45594000000E+02  0.51100000000E-03 0.  1.
    9900012    2    1    2    0    0 -0.28629159642E+02  0.29336616264E+02  0.14260351037E+02  0.47787269047E+02  0.19999990892E+02 0.  0.
        -12    1    1    2    0    0  0.28629159642E+02 -0.29336616264E+02 -0.14260351037E+02  0.43400730953E+02  0.00000000000E+00 0.  1.
         11    1    3    3    0    0 -0.16710805614E+02  0.12119087363E+02  0.42695043087E+01  0.21079657731E+02  0.51100000000E-03 0. -1.
        -11    1    3    3    0    0 -0.84999441188E+01  0.18217981381E+02  0.52494415730E+01  0.20777404378E+02  0.51100000000E-03 0.  1.
        -12    1    3    3    0    0 -0.34184099091E+01 -0.10004524800E+01  0.47414051552E+01  0.59302069371E+01  0.00000000000E+00 0.  1.
</event>
<event>
 7    1  0.3062695E-010  0.4778727E+02  0.7816164E-02  0.1312668E+00
        -11   -1    0    0    0    0  0.00000000000E+00  0.00000000000E+00  0.45593999997E+02  0.45594000000E+02  0.51100000000E-03 0.  1.
         11   -1    0    0    0    0 -0.00000000000E+00 -0.00000000000E+00 -0.45593999997E+02  0.45594000000E+02  0.51100000000E-03 0. -1.
    9900012    2    1    2    0    0  0.67378876568E+01 -0.15742252783E+02 -0.39879895879E+02  0.47787265582E+02  0.19999975093E+02 0.  0.
        -12    1    1    2    0    0 -0.67378876568E+01  0.15742252783E+02  0.39879895879E+02  0.43400734418E+02  0.00000000000E+00 0.  1.
         11    1    3    3    0    0  0.83496759005E+01 -0.13552251109E+02 -0.23295950109E+02  0.28214923170E+02  0.51100000000E-03 0. -1.
        -11    1    3    3    0    0 -0.31596790455E+01  0.33712943617E+01 -0.75363490212E+01  0.88400087203E+01  0.51100000000E-03 0.  1.
        -12    1    3    3    0    0  0.15478908018E+01 -0.55612960358E+01 -0.90475967485E+01  0.10732333691E+02  0.00000000000E+00 0.  1.
</event>
<event>
 7    1  0.3062695E-010  0.4778727E+02  0.7816164E-02  0.1312668E+00
        -11   -1    0    0    0    0  0.00000000000E+00  0.00000000000E+00  0.45593999997E+02  0.45594000000E+02  0.51100000000E-03 0.  1.
         11   -1    0    0    0    0 -0.00000000000E+00 -0.00000000000E+00 -0.45593999997E+02  0.45594000000E+02  0.51100000000E-03 0. -1.
    9900012    2    1    2    0    0  0.10051009444E+02 -0.43182753006E+01 -0.41999439174E+02  0.47787272087E+02  0.20000004755E+02 0.  0.
        -12    1    1    2    0    0 -0.10051009444E+02  0.43182753006E+01  0.41999439174E+02  0.43400727913E+02  0.00000000000E+00 0.  1.
         11    1    3    3    0    0 -0.17871381421E+00  0.38343120964E+01 -0.81223808355E+01  0.89837051699E+01  0.51100000000E-03 0. -1.
        -11    1    3    3    0    0  0.10898304553E+02 -0.11186653948E+02 -0.30120266776E+02  0.33928523982E+02  0.51100000000E-03 0.  1.
        -12    1    3    3    0    0 -0.66858129494E+00  0.30340665506E+01 -0.37567915626E+01  0.48750429358E+01  0.00000000000E+00 0.  1.
</event>
<event>
 7    1  0.3062695E-010  0.4778727E+02  0.7816164E-02  0.1312668E+00
        -11   -1    0    0    0    0  0.00000000000E+00  0.00000000000E+00  0.45593999997E+02  0.45594000000E+02  0.51100000000E-03 0.  1.
         11   -1    0    0    0    0 -0.00000000000E+00 -0.00000000000E+00 -0.45593999997E+02  0.45594000000E+02  0.51100000000E-03 0. -1.
    9900012    2    1    2    0    0 -0.17184936659E+02 -0.33632430781E+02 -0.21381321177E+02  0.47787270243E+02  0.19999996344E+02 0.  0.
        -12    1    1    2    0    0  0.17184936659E+02  0.33632430781E+02  0.21381321177E+02  0.43400729757E+02  0.00000000000E+00 0.  1.
         11    1    3    3    0    0 -0.44808370512E+01 -0.23810399609E+01 -0.18793356418E+01  0.54110215940E+01  0.51100000000E-03 0. -1.
        -11    1    3    3    0    0  0.63673701367E+00 -0.38043420214E+01  0.26383800904E+01  0.46732752972E+01  0.51100000000E-03 0.  1.
        -12    1    3    3    0    0 -0.13340836621E+02 -0.27447048799E+02 -0.22140365625E+02  0.37702973351E+02  0.00000000000E+00 0.  1.
</event>
<event>
 7    1  0.3062695E-010  0.4778727E+02  0.7816164E-02  0.1312668E+00
        -11   -1    0    0    0    0  0.00000000000E+00  0.00000000000E+00  0.45593999997E+02  0.45594000000E+02  0.51100000000E-03 0.  1.
         11   -1    0    0    0    0 -0.00000000000E+00 -0.00000000000E+00 -0.45593999997E+02  0.45594000000E+02  0.51100000000E-03 0. -1.
    9900012    2    1    2    0    0 -0.36682628194E+02 -0.20725133280E+02 -0.10415217784E+02  0.47787272792E+02  0.20000007969E+02 0.  0.
        -12    1    1    2    0    0  0.36682628194E+02  0.20725133280E+02  0.10415217784E+02  0.43400727208E+02  0.00000000000E+00 0.  1.
         11    1    3    3    0    0 -0.75002321677E+01 -0.89246597139E+01 -0.21324948459E+01  0.11851184249E+02  0.51100000000E-03 0. -1.
        -11    1    3    3    0    0 -0.15387056690E+02 -0.88607302559E+01 -0.11899641927E+02  0.21374646956E+02  0.51100000000E-03 0.  1.
        -12    1    3    3    0    0 -0.13795339336E+02 -0.29397433104E+01  0.36169189889E+01  0.14561441587E+02  0.00000000000E+00 0.  1.
</event>
<event>
 7    1  0.3062695E-010  0.4778727E+02  0.7816164E-02  0.1312668E+00
        -11   -1    0    0    0    0  0.00000000000E+00  0.00000000000E+00  0.45593999997E+02  0.45594000000E+02  0.51100000000E-03 0. -1.
         11   -1    0    0    0    0 -0.00000000000E+00 -0.00000000000E+00 -0.45593999997E+02  0.45594000000E+02  0.51100000000E-03 0.  1.
    9900012    2    1    2    0    0  0.25713976412E+02 -0.12213866096E+02  0.32760289568E+02  0.47787266360E+02  0.19999978640E+02 0.  0.
        -12    1    1    2    0    0 -0.25713976412E+02  0.12213866096E+02 -0.32760289568E+02  0.43400733640E+02  0.00000000000E+00 0.  1.
         11    1    3    3    0    0  0.17944385120E+02 -0.14226571575E+02  0.19066420924E+02  0.29798065427E+02  0.51100000000E-03 0. -1.
        -11    1    3    3    0    0 -0.75889168046E-01  0.18421215042E+01 -0.37344865654E+00  0.18811259825E+01  0.51100000000E-03 0.  1.
         12    1    3    3    0    0  0.78454804605E+01  0.17058397469E+00  0.14067317301E+02  0.16108074950E+02  0.00000000000E+00 0. -1.
</event>
<event>
 7    1  0.3062695E-010  0.4778727E+02  0.7816164E-02  0.1312668E+00
        -11   -1    0    0    0    0  0.00000000000E+00  0.00000000000E+00  0.45593999997E+02  0.45594000000E+02  0.51100000000E-03 0.  1.
         11   -1    0    0    0    0 -0.00000000000E+00 -0.00000000000E+00 -0.45593999997E+02  0.45594000000E+02  0.51100000000E-03 0. -1.
    9900012    2    1    2    0    0 -0.77423277607E+01  0.16511146775E+02 -0.39383519282E+02  0.47787271918E+02  0.20000003984E+02 0.  0.
        -12    1    1    2    0    0  0.77423277607E+01 -0.16511146775E+02  0.39383519282E+02  0.43400728082E+02  0.00000000000E+00 0.  1.
         11    1    3    3    0    0  0.48679263308E+01  0.77301694699E+01 -0.13577994716E+02  0.16365028798E+02  0.51100000000E-03 0. -1.
        -11    1    3    3    0    0 -0.11057506202E+02  0.24513841006E+01 -0.17821593535E+02  0.21116034756E+02  0.51100000000E-03 0.  1.
        -12    1    3    3    0    0 -0.15527478898E+01  0.63295932040E+01 -0.79839310315E+01  0.10306208365E+02  0.00000000000E+00 0.  1.
</event>
<event>
 7    1  0.3062695E-010  0.4778725E+02  0.7816164E-02  0.1312668E+00
        -11   -1    0    0    0    0  0.00000000000E+00  0.00000000000E+00  0.45593999997E+02  0.45594000000E+02  0.51100000000E-03 0. -1.
         11   -1    0    0    0    0 -0.00000000000E+00 -0.00000000000E+00 -0.45593999997E+02  0.45594000000E+02  0.51100000000E-03 0.  1.
    9900012    2    1    2    0    0  0.39448335633E+02  0.18059727412E+02  0.11400916949E+01  0.47787254068E+02  0.19999922596E+02 0.  0.
        -12    1    1    2    0    0 -0.39448335633E+02 -0.18059727412E+02 -0.11400916949E+01  0.43400745932E+02  0.00000000000E+00 0.  1.
         11    1    3    3    0    0  0.63674122786E+01  0.85714251265E+01  0.22904330912E+01  0.10920593016E+02  0.51100000000E-03 0. -1.
        -11    1    3    3    0    0  0.23896660298E+02  0.55686287169E+00  0.75329854804E+00  0.23915014711E+02  0.51100000000E-03 0.  1.
        -12    1    3    3    0    0  0.91842630569E+01  0.89314394135E+01 -0.19036399443E+01  0.12951646341E+02  0.00000000000E+00 0.  1.
</event>
<event>
 7    1  0.3062695E-010  0.4778727E+02  0.7816164E-02  0.1312668E+00
        -11   -1    0    0    0    0  0.00000000000E+00  0.00000000000E+00  0.45593999997E+02  0.45594000000E+02  0.51100000000E-03 0.  1.
         11   -1    0    0    0    0 -0.00000000000E+00 -0.00000000000E+00 -0.45593999997E+02  0.45594000000E+02  0.51100000000E-03 0. -1.
    9900012    2    1    2    0    0  0.38832437019E+02 -0.12675859134E+02 -0.14662461083E+02  0.47787270344E+02  0.19999996808E+02 0.  0.
        -12    1    1    2    0    0 -0.38832437019E+02  0.12675859134E+02  0.14662461083E+02  0.43400729656E+02  0.00000000000E+00 0.  1.
         11    1    3    3    0    0  0.10339937709E+02  0.48873442870E+00 -0.12191270911E+02  0.15993131646E+02  0.51100000000E-03 0. -1.
        -11    1    3    3    0    0  0.20572172246E+02 -0.75264314884E+01 -0.73429536682E+00  0.21918043522E+02  0.51100000000E-03 0.  1.
         12    1    3    3    0    0  0.79203270633E+01 -0.56381620741E+01 -0.17368948061E+01  0.98760951763E+01  0.00000000000E+00 0. -1.
</event>
<event>
 7    1  0.3062695E-010  0.4778727E+02  0.7816164E-02  0.1312668E+00
        -11   -1    0    0    0    0  0.00000000000E+00  0.00000000000E+00  0.45593999997E+02  0.45594000000E+02  0.51100000000E-03 0.  1.
         11   -1    0    0    0    0 -0.00000000000E+00 -0.00000000000E+00 -0.45593999997E+02  0.45594000000E+02  0.51100000000E-03 0. -1.
    9900012    2    1    2    0    0  0.28433415830E+02 -0.58318977292E+01 -0.32266904124E+02  0.47787271105E+02  0.20000000275E+02 0.  0.
        -12    1    1    2    0    0 -0.28433415830E+02  0.58318977292E+01  0.32266904124E+02  0.43400728895E+02  0.00000000000E+00 0.  1.
         11    1    3    3    0    0  0.57012991757E+01 -0.13364769526E+01 -0.55815767067E+01  0.80898072739E+01  0.51100000000E-03 0. -1.
        -11    1    3    3    0    0  0.98941036244E+01 -0.11057418818E+02 -0.15429235088E+02  0.21406099437E+02  0.51100000000E-03 0.  1.
        -12    1    3    3    0    0  0.12838013030E+02  0.65619980414E+01 -0.11256092329E+02  0.18291364394E+02  0.00000000000E+00 0.  1.
</event>
<event>
 7    1  0.3062695E-010  0.4778727E+02  0.7816164E-02  0.1312668E+00
        -11   -1    0    0    0    0  0.00000000000E+00  0.00000000000E+00  0.45593999997E+02  0.45594000000E+02  0.51100000000E-03 0.  1.
         11   -1    0    0    0    0 -0.00000000000E+00 -0.00000000000E+00 -0.45593999997E+02  0.45594000000E+02  0.51100000000E-03 0. -1.
    9900012    2    1    2    0    0 -0.18832155917E+02  0.38009842896E+02 -0.91774095264E+01  0.47787273058E+02  0.20000009183E+02 0.  0.
        -12    1    1    2    0    0  0.18832155917E+02 -0.38009842896E+02  0.91774095264E+01  0.43400726942E+02  0.00000000000E+00 0.  1.
         11    1    3    3    0    0 -0.14808480160E+00  0.16990838053E+02 -0.35200541984E+01  0.17352270418E+02  0.51100000000E-03 0. -1.
        -11    1    3    3    0    0 -0.19547901540E+02  0.20890140786E+02 -0.44636076721E+01  0.28955866942E+02  0.51100000000E-03 0.  1.
        -12    1    3    3    0    0  0.86383042469E+00  0.12886405747E+00 -0.11937476560E+01  0.14791356983E+01  0.00000000000E+00 0.  1.
</event>
<event>
 7    1  0.3062695E-010  0.4778728E+02  0.7816164E-02  0.1312668E+00
        -11   -1    0    0    0    0  0.00000000000E+00  0.00000000000E+00  0.45593999997E+02  0.45594000000E+02  0.51100000000E-03 0. -1.
         11   -1    0    0    0    0 -0.00000000000E+00 -0.00000000000E+00 -0.45593999997E+02  0.45594000000E+02  0.51100000000E-03 0.  1.
    9900012    2    1    2    0    0 -0.42635909407E+02 -0.60616402283E+01 -0.53905563106E+01  0.47787281682E+02  0.20000048500E+02 0.  0.
        -12    1    1    2    0    0  0.42635909407E+02  0.60616402283E+01  0.53905563106E+01  0.43400718318E+02  0.00000000000E+00 0.  1.
         11    1    3    3    0    0 -0.32814216579E+02 -0.11997481048E+01 -0.18510165835E+01  0.32888272498E+02  0.51100000000E-03 0. -1.
        -11    1    3    3    0    0 -0.97338114858E+01 -0.65929856364E+01 -0.96587008317E+00  0.11796077777E+02  0.51100000000E-03 0.  1.
         12    1    3    3    0    0 -0.87881341803E-01  0.17310935129E+01 -0.25736696440E+01  0.31029314071E+01  0.00000000000E+00 0. -1.
</event>
<event>
 7    1  0.3182671E-010  0.4778727E+02  0.7816164E-02  0.1312668E+00
        -11   -1    0    0    0    0  0.00000000000E+00  0.00000000000E+00  0.45593999997E+02  0.45594000000E+02  0.51100000000E-03 0. -1.
         11   -1    0    0    0    0 -0.00000000000E+00 -0.00000000000E+00 -0.45593999997E+02  0.45594000000E+02  0.51100000000E-03 0.  1.
    9900012    2    1    2    0    0 -0.88217714890E+00 -0.27224454492E+02  0.33788665557E+02  0.47787273289E+02  0.20000010234E+02 0.  0.
        -12    1    1    2    0    0  0.88217714890E+00  0.27224454492E+02 -0.33788665557E+02  0.43400726711E+02  0.00000000000E+00 0.  1.
         11    1    3    3    0    0  0.25872779795E+01 -0.12860532664E+02  0.75804815920E+01  0.15150940867E+02  0.51100000000E-03 0. -1.
        -11    1    3    3    0    0  0.29573582041E+01 -0.34177814488E+01  0.15123036797E+02  0.15783961474E+02  0.51100000000E-03 0.  1.
        -12    1    3    3    0    0 -0.64268133326E+01 -0.10946140380E+02  0.11085147168E+02  0.16852370948E+02  0.00000000000E+00 0.  1.
</event>
<event>
 7    1  0.3062695E-010  0.4778730E+02  0.7816164E-02  0.1312668E+00
        -11   -1    0    0    0    0  0.00000000000E+00  0.00000000000E+00  0.45593999997E+02  0.45594000000E+02  0.51100000000E-03 0. -1.
         11   -1    0    0    0    0 -0.00000000000E+00 -0.00000000000E+00 -0.45593999997E+02  0.45594000000E+02  0.51100000000E-03 0.  1.
    9900012    2    1    2    0    0 -0.40668879434E+02  0.35699273599E+00  0.15150444933E+02  0.47787295168E+02  0.20000109991E+02 0.  0.
        -12    1    1    2    0    0  0.40668879434E+02 -0.35699273599E+00 -0.15150444933E+02  0.43400704832E+02  0.00000000000E+00 0.  1.
         11    1    3    3    0    0 -0.24182973502E+02  0.15658950608E+01  0.19029195190E+01  0.24308215436E+02  0.51100000000E-03 0. -1.
        -11    1    3    3    0    0 -0.33316926790E+01 -0.45579664111E+01  0.25425422478E+01  0.61919104689E+01  0.51100000000E-03 0.  1.
         12    1    3    3    0    0 -0.13154213253E+02  0.33490640863E+01  0.10704983166E+02  0.17287169264E+02  0.00000000000E+00 0. -1.
</event>
<event>
 7    1  0.3062695E-010  0.4778727E+02  0.7816164E-02  0.1312668E+00
        -11   -1    0    0    0    0  0.00000000000E+00  0.00000000000E+00  0.45593999997E+02  0.45594000000E+02  0.51100000000E-03 0. -1.
         11   -1    0    0    0    0 -0.00000000000E+00 -0.00000000000E+00 -0.45593999997E+02  0.45594000000E+02  0.51100000000E-03 0.  1.
    9900012    2    1    2    0    0  0.32962334172E+02  0.18718551911E+02 -0.21135830479E+02  0.47787274317E+02  0.20000014922E+02 0.  0.
        -12    1    1    2    0    0 -0.32962334172E+02 -0.18718551911E+02  0.21135830479E+02  0.43400725683E+02  0.00000000000E+00 0.  1.
         11    1    3    3    0    0  0.43702883897E+01  0.85185886843E+01 -0.11085797204E+01  0.96381908593E+01  0.51100000000E-03 0. -1.
        -11    1    3    3    0    0  0.24357111328E+02  0.67788565075E+01 -0.10923509888E+02  0.27541692692E+02  0.51100000000E-03 0.  1.
        -12    1    3    3    0    0  0.42349344543E+01  0.34211067196E+01 -0.91037408709E+01  0.10607390766E+02  0.00000000000E+00 0.  1.
</event>
<event>
 7    1  0.3062695E-010  0.4778727E+02  0.7816164E-02  0.1312668E+00
        -11   -1    0    0    0    0  0.00000000000E+00  0.00000000000E+00  0.45593999997E+02  0.45594000000E+02  0.51100000000E-03 0. -1.
         11   -1    0    0    0    0 -0.00000000000E+00 -0.00000000000E+00 -0.45593999997E+02  0.45594000000E+02  0.51100000000E-03 0.  1.
    9900012    2    1    2    0    0 -0.31827404932E+02  0.85120663633E+01  0.28252154392E+02  0.47787271823E+02  0.20000003551E+02 0.  0.
        -12    1    1    2    0    0  0.31827404932E+02 -0.85120663633E+01 -0.28252154392E+02  0.43400728177E+02  0.00000000000E+00 0.  1.
         11    1    3    3    0    0 -0.15315584384E+02  0.89690084531E+01  0.19261296344E+02  0.26191750128E+02  0.51100000000E-03 0. -1.
        -11    1    3    3    0    0 -0.79296775473E+00 -0.21993307512E+01  0.46354067613E+01  0.51916134021E+01  0.51100000000E-03 0.  1.
         12    1    3    3    0    0 -0.15718852793E+02  0.17423886614E+01  0.43554512870E+01  0.16403908293E+02  0.00000000000E+00 0. -1.
</event>
<event>
 7    1  0.3062695E-010  0.4778727E+02  0.7816164E-02  0.1312668E+00
        -11   -1    0    0    0    0  0.00000000000E+00  0.00000000000E+00  0.45593999997E+02  0.45594000000E+02  0.51100000000E-03 0. -1.
         11   -1    0    0    0    0 -0.00000000000E+00 -0.00000000000E+00 -0.45593999997E+02  0.45594000000E+02  0.51100000000E-03 0.  1.
    9900012    2    1    2    0    0 -0.13514994502E+02  0.36928554447E+02  0.18364371422E+02  0.47787270195E+02  0.19999996125E+02 0.  0.
        -12    1    1    2    0    0  0.13514994502E+02 -0.36928554447E+02 -0.18364371422E+02  0.43400729805E+02  0.00000000000E+00 0.  1.
         11    1    3    3    0    0 -0.14223805173E+02  0.12184353430E+02  0.97892763081E+01  0.21133031799E+02  0.51100000000E-03 0. -1.
        -11    1    3    3    0    0 -0.33086250239E+00  0.23076132795E+02  0.69454077989E+01  0.24100955677E+02  0.51100000000E-03 0.  1.
        -12    1    3    3    0    0  0.10396731734E+01  0.16680682215E+01  0.16296873147E+01  0.25532827189E+01  0.00000000000E+00 0.  1.
</event>
<event>
 7    1  0.3062695E-010  0.4778728E+02  0.7816164E-02  0.1312668E+00
        -11   -1    0    0    0    0  0.00000000000E+00  0.00000000000E+00  0.45593999997E+02  0.45594000000E+02  0.51100000000E-03 0. -1.
         11   -1    0    0    0    0 -0.00000000000E+00 -0.00000000000E+00 -0.45593999997E+02  0.45594000000E+02  0.51100000000E-03 0.  1.
    9900012    2    1    2    0    0 -0.14665571750E+02 -0.36822938280E+02  0.17680903039E+02  0.47787284446E+02  0.20000061101E+02 0.  0.
        -12    1    1    2    0    0  0.14665571750E+02  0.36822938280E+02 -0.17680903039E+02  0.43400715554E+02  0.00000000000E+00 0.  1.
         11    1    3    3    0    0 -0.31031602894E+01 -0.17972774609E+02  0.11547565196E+01  0.18275220760E+02  0.51100000000E-03 0. -1.
        -11    1    3    3    0    0 -0.12381643128E+02 -0.11331156959E+02  0.12622061814E+02  0.21000396408E+02  0.51100000000E-03 0.  1.
        -12    1    3    3    0    0  0.81923166760E+00 -0.75190067124E+01  0.39040847058E+01  0.85116672783E+01  0.00000000000E+00 0.  1.
</event>
<event>
 7    1  0.3084631E-010  0.4778727E+02  0.7816164E-02  0.1312668E+00
        -11   -1    0    0    0    0  0.00000000000E+00  0.00000000000E+00  0.45593999997E+02  0.45594000000E+02  0.51100000000E-03 0.  1.
         11   -1    0    0    0    0 -0.00000000000E+00 -0.00000000000E+00 -0.45593999997E+02  0.45594000000E+02  0.51100000000E-03 0. -1.
    9900012    2    1    2    0    0 -0.36720628227E+02  0.13982530985E+02 -0.18431155145E+02  0.47787272009E+02  0.20000004398E+02 0.  0.
        -12    1    1    2    0    0  0.36720628227E+02 -0.13982530985E+02  0.18431155145E+02  0.43400727991E+02  0.00000000000E+00 0.  1.
         11    1    3    3    0    0 -0.17176605472E+02  0.93652243529E+01 -0.13875432183E+02  0.23984803965E+02  0.51100000000E-03 0. -1.
        -11    1    3    3    0    0 -0.58748160182E+01 -0.39371466227E+01 -0.99735026948E-01  0.70728024228E+01  0.51100000000E-03 0.  1.
        -12    1    3    3    0    0 -0.13669206738E+02  0.85544532552E+01 -0.44559879350E+01  0.16729665622E+02  0.00000000000E+00 0.  1.
</event>
<event>
 7    1  0.3062695E-010  0.4778727E+02  0.7816164E-02  0.1312668E+00
        -11   -1    0    0    0    0  0.00000000000E+00  0.00000000000E+00  0.45593999997E+02  0.45594000000E+02  0.51100000000E-03 0.  1.
         11   -1    0    0    0    0 -0.00000000000E+00 -0.00000000000E+00 -0.45593999997E+02  0.45594000000E+02  0.51100000000E-03 0. -1.
    9900012    2    1    2    0    0 -0.27494516473E+02  0.30308163697E+02 -0.14459946664E+02  0.47787270971E+02  0.19999999664E+02 0.  0.
        -12    1    1    2    0    0  0.27494516473E+02 -0.30308163697E+02  0.14459946664E+02  0.43400729029E+02  0.00000000000E+00 0.  1.
         11    1    3    3    0    0 -0.21987347417E+02  0.32009911273E+02 -0.10219848920E+02  0.40156234614E+02  0.51100000000E-03 0. -1.
        -11    1    3    3    0    0 -0.45374214696E+01 -0.52206257074E+00 -0.21647720784E+01  0.50544021737E+01  0.51100000000E-03 0.  1.
         12    1    3    3    0    0 -0.96974758660E+00 -0.11796850061E+01 -0.20753256658E+01  0.25766341833E+01  0.00000000000E+00 0. -1.
</event>
<event>
 7    1  0.3062695E-010  0.4778727E+02  0.7816164E-02  0.1312668E+00
        -11   -1    0    0    0    0  0.00000000000E+00  0.00000000000E+00  0.45593999997E+02  0.45594000000E+02  0.51100000000E-03 0. -1.
         11   -1    0    0    0    0 -0.00000000000E+00 -0.00000000000E+00 -0.45593999997E+02  0.45594000000E+02  0.51100000000E-03 0.  1.
    9900012    2    1    2    0    0  0.25495512446E+02  0.77694857270E+00  0.35114078441E+02  0.47787270643E+02  0.19999998168E+02 0.  0.
        -12    1    1    2    0    0 -0.25495512446E+02 -0.77694857270E+00 -0.35114078441E+02  0.43400729357E+02  0.00000000000E+00 0.  1.
         11    1    3    3    0    0  0.10529846929E+02  0.56312696888E+01  0.25414056254E+02  0.28079585649E+02  0.51100000000E-03 0. -1.
        -11    1    3    3    0    0  0.14954406775E+02 -0.57820105357E+01  0.83713581212E+01  0.18087165750E+02  0.51100000000E-03 0.  1.
        -12    1    3    3    0    0  0.11258742148E-01  0.92768941962E+00  0.13286640656E+01  0.16205192432E+01  0.00000000000E+00 0.  1.
</event>
<event>
 7    1  0.3062695E-010  0.4778725E+02  0.7816164E-02  0.1312668E+00
        -11   -1    0    0    0    0  0.00000000000E+00  0.00000000000E+00  0.45593999997E+02  0.45594000000E+02  0.51100000000E-03 0. -1.
         11   -1    0    0    0    0 -0.00000000000E+00 -0.00000000000E+00 -0.45593999997E+02  0.45594000000E+02  0.51100000000E-03 0.  1.
    9900012    2    1    2    0    0 -0.14819706576E+02  0.40518173807E+02 -0.47200442516E+01  0.47787251973E+02  0.19999913043E+02 0.  0.
        -12    1    1    2    0    0  0.14819706576E+02 -0.40518173807E+02  0.47200442516E+01  0.43400748027E+02  0.00000000000E+00 0.  1.
         11    1    3    3    0    0 -0.25886322688E+00  0.13174698092E+02 -0.69914858848E+01  0.14917122883E+02  0.51100000000E-03 0. -1.
        -11    1    3    3    0    0 -0.30287740954E+01  0.33725227525E+01  0.42266106586E+01  0.61977108805E+01  0.51100000000E-03 0.  1.
        -12    1    3    3    0    0 -0.11532069253E+02  0.23970952962E+02 -0.19551690254E+01  0.26672418209E+02  0.00000000000E+00 0.  1.
</event>
<event>
 7    1  0.3062695E-010  0.4778727E+02  0.7816164E-02  0.1312668E+00
        -11   -1    0    0    0    0  0.00000000000E+00  0.00000000000E+00  0.45593999997E+02  0.45594000000E+02  0.51100000000E-03 0.  1.
         11   -1    0    0    0    0 -0.00000000000E+00 -0.00000000000E+00 -0.45593999997E+02  0.45594000000E+02  0.51100000000E-03 0. -1.
    9900012    2    1    2    0    0  0.25967160483E+01 -0.56699375708E+01 -0.42950343701E+02  0.47787272468E+02  0.20000006491E+02 0.  0.
        -12    1    1    2    0    0 -0.25967160483E+01  0.56699375708E+01  0.42950343701E+02  0.43400727532E+02  0.00000000000E+00 0.  1.
         11    1    3    3    0    0  0.43141196945E+01 -0.61135002241E+01 -0.50242423893E+01  0.90127424004E+01  0.51100000000E-03 0.  1.
        -11    1    3    3    0    0 -0.43399880994E+01 -0.12444462062E+01 -0.28241412057E+02  0.28600026194E+02  0.51100000000E-03 0. -1.
         12    1    3    3    0    0  0.26225844532E+01  0.16880088595E+01 -0.96846892540E+01  0.10174503873E+02  0.00000000000E+00 0. -1.
</event>
<event>
 7    1  0.3062695E-010  0.4778727E+02  0.7816164E-02  0.1312668E+00
        -11   -1    0    0    0    0  0.00000000000E+00  0.00000000000E+00  0.45593999997E+02  0.45594000000E+02  0.51100000000E-03 0.  1.
         11   -1    0    0    0    0 -0.00000000000E+00 -0.00000000000E+00 -0.45593999997E+02  0.45594000000E+02  0.51100000000E-03 0. -1.
    9900012    2    1    2    0    0 -0.13016129432E+02 -0.41386300029E+02  0.11736978319E+01  0.47787273945E+02  0.20000013226E+02 0.  0.
        -12    1    1    2    0    0  0.13016129432E+02  0.41386300029E+02 -0.11736978319E+01  0.43400726055E+02  0.00000000000E+00 0.  1.
         11    1    3    3    0    0 -0.62601017177E+01 -0.64715683301E+01  0.52898098267E+01  0.10442804146E+02  0.51100000000E-03 0. -1.
        -11    1    3    3    0    0 -0.12340299661E+01 -0.28043213652E+02 -0.13399234526E+01  0.28102314086E+02  0.51100000000E-03 0.  1.
         12    1    3    3    0    0 -0.55219977485E+01 -0.68715180466E+01 -0.27761885422E+01  0.92421557129E+01  0.00000000000E+00 0. -1.
</event>
<event>
 7    1  0.3062695E-010  0.4778727E+02  0.7816164E-02  0.1312668E+00
        -11   -1    0    0    0    0  0.00000000000E+00  0.00000000000E+00  0.45593999997E+02  0.45594000000E+02  0.51100000000E-03 0.  1.
         11   -1    0    0    0    0 -0.00000000000E+00 -0.00000000000E+00 -0.45593999997E+02  0.45594000000E+02  0.51100000000E-03 0. -1.
    9900012    2    1    2    0    0  0.31658664341E+02 -0.25151080772E+02 -0.15772617487E+02  0.47787270119E+02  0.19999995779E+02 0.  0.
        -12    1    1    2    0    0 -0.31658664341E+02  0.25151080772E+02  0.15772617487E+02  0.43400729881E+02  0.00000000000E+00 0.  1.
         11    1    3    3    0    0  0.24832927484E+02 -0.10070143681E+02 -0.82506160097E+01  0.28038451205E+02  0.51100000000E-03 0. -1.
        -11    1    3    3    0    0  0.71318920272E+01 -0.10753759511E+02 -0.82985375409E+01  0.15341869283E+02  0.51100000000E-03 0.  1.
        -12    1    3    3    0    0 -0.30615517025E+00 -0.43271775792E+01  0.77653606362E+00  0.44069496308E+01  0.00000000000E+00 0.  1.
</event>
<event>
 7    1  0.3062695E-010  0.4778727E+02  0.7816164E-02  0.1312668E+00
        -11   -1    0    0    0    0  0.00000000000E+00  0.00000000000E+00  0.45593999997E+02  0.45594000000E+02  0.51100000000E-03 0.  1.
         11   -1    0    0    0    0 -0.00000000000E+00 -0.00000000000E+00 -0.45593999997E+02  0.45594000000E+02  0.51100000000E-03 0. -1.
    9900012    2    1    2    0    0 -0.31594501576E+02 -0.24847199419E+01 -0.29651929112E+02  0.47787271169E+02  0.20000000566E+02 0.  0.
        -12    1    1    2    0    0  0.31594501576E+02  0.24847199419E+01  0.29651929112E+02  0.43400728831E+02  0.00000000000E+00 0.  1.
         11    1    3    3    0    0 -0.44517925722E+01 -0.23400427656E+01 -0.69655166831E+01  0.85914306244E+01  0.51100000000E-03 0. -1.
        -11    1    3    3    0    0 -0.28600548511E+02 -0.23474825848E+01 -0.22642648348E+02  0.36553954288E+02  0.51100000000E-03 0.  1.
        -12    1    3    3    0    0  0.14578395074E+01  0.22028054085E+01 -0.43764081570E-01  0.26418862564E+01  0.00000000000E+00 0.  1.
</event>
<event>
 7    1  0.3062695E-010  0.4778727E+02  0.7816164E-02  0.1312668E+00
        -11   -1    0    0    0    0  0.00000000000E+00  0.00000000000E+00  0.45593999997E+02  0.45594000000E+02  0.51100000000E-03 0. -1.
         11   -1    0    0    0    0 -0.00000000000E+00 -0.00000000000E+00 -0.45593999997E+02  0.45594000000E+02  0.51100000000E-03 0.  1.
    9900012    2    1    2    0    0  0.23105108013E+02  0.23790737776E+02  0.27996032169E+02  0.47787273769E+02  0.20000012424E+02 0.  0.
        -12    1    1    2    0    0 -0.23105108013E+02 -0.23790737776E+02 -0.27996032169E+02  0.43400726231E+02  0.00000000000E+00 0.  1.
         11    1    3    3    0    0  0.11060976757E+02  0.10599459468E+01  0.40600690148E+01  0.11830167070E+02  0.51100000000E-03 0. -1.
        -11    1    3    3    0    0  0.87131824981E+01  0.16273995232E+02  0.12109342701E+02  0.22077106943E+02  0.51100000000E-03 0.  1.
         12    1    3    3    0    0  0.33309487571E+01  0.64567965972E+01  0.11826620452E+02  0.13879999757E+02  0.00000000000E+00 0. -1.
</event>
<event>
 7    1  0.3062695E-010  0.4778731E+02  0.7816164E-02  0.1312668E+00
        -11   -1    0    0    0    0  0.00000000000E+00  0.00000000000E+00  0.45593999997E+02  0.45594000000E+02  0.51100000000E-03 0.  1.
         11   -1    0    0    0    0 -0.00000000000E+00 -0.00000000000E+00 -0.45593999997E+02  0.45594000000E+02  0.51100000000E-03 0. -1.
    9900012    2    1    2    0    0 -0.66179408531E+01 -0.21193754782E+02 -0.37291388785E+02  0.47787308065E+02  0.20000168793E+02 0.  0.
        -12    1    1    2    0    0  0.66179408531E+01  0.21193754782E+02  0.37291388785E+02  0.43400691935E+02  0.00000000000E+00 0.  1.
         11    1    3    3    0    0 -0.54831128666E+01 -0.30861074036E+01 -0.14664227679E+02  0.15957072391E+02  0.51100000000E-03 0. -1.
        -11    1    3    3    0    0  0.15368064767E+01  0.39051478139E+00  0.86815473128E+00  0.18077524277E+01  0.51100000000E-03 0.  1.
         12    1    3    3    0    0 -0.26716344633E+01 -0.18498162160E+02 -0.23495315837E+02  0.30022483247E+02  0.00000000000E+00 0. -1.
</event>
<event>
 7    1  0.3062695E-010  0.4778727E+02  0.7816164E-02  0.1312668E+00
        -11   -1    0    0    0    0  0.00000000000E+00  0.00000000000E+00  0.45593999997E+02  0.45594000000E+02  0.51100000000E-03 0.  1.
         11   -1    0    0    0    0 -0.00000000000E+00 -0.00000000000E+00 -0.45593999997E+02  0.45594000000E+02  0.51100000000E-03 0. -1.
    9900012    2    1    2    0    0 -0.41519808483E+02 -0.95636726282E+01  0.82622553727E+01  0.47787271959E+02  0.20000004171E+02 0.  0.
        -12    1    1    2    0    0  0.41519808483E+02  0.95636726282E+01 -0.82622553727E+01  0.43400728041E+02  0.00000000000E+00 0.  1.
         11    1    3    3    0    0 -0.33626900215E+01  0.43523785209E+01  0.27953627320E+01  0.61696787627E+01  0.51100000000E-03 0.  1.
        -11    1    3    3    0    0 -0.32439275444E+02 -0.14333758470E+02  0.54712824295E+01  0.35884511351E+02  0.51100000000E-03 0. -1.
         12    1    3    3    0    0 -0.57178430178E+01  0.41770732065E+00 -0.43897888118E-02  0.57330818460E+01  0.00000000000E+00 0. -1.
</event>
<event>
 7    1  0.3062695E-010  0.4778727E+02  0.7816164E-02  0.1312668E+00
        -11   -1    0    0    0    0  0.00000000000E+00  0.00000000000E+00  0.45593999997E+02  0.45594000000E+02  0.51100000000E-03 0.  1.
         11   -1    0    0    0    0 -0.00000000000E+00 -0.00000000000E+00 -0.45593999997E+02  0.45594000000E+02  0.51100000000E-03 0. -1.
    9900012    2    1    2    0    0 -0.24296760013E+02  0.34121513828E+02  0.11358386715E+02  0.47787271874E+02  0.20000003783E+02 0.  0.
        -12    1    1    2    0    0  0.24296760013E+02 -0.34121513828E+02 -0.11358386715E+02  0.43400728126E+02  0.00000000000E+00 0.  1.
         11    1    3    3    0    0 -0.28900166099E+01  0.84684311942E+01  0.10414505433E+02  0.13730566142E+02  0.51100000000E-03 0. -1.
        -11    1    3    3    0    0 -0.78348875652E+01  0.74585728261E+01 -0.24883215963E+01  0.11099888125E+02  0.51100000000E-03 0.  1.
         12    1    3    3    0    0 -0.13571855838E+02  0.18194509808E+02  0.34322028776E+01  0.22956817607E+02  0.00000000000E+00 0. -1.
</event>
<event>
 7    1  0.3062695E-010  0.4778727E+02  0.7816164E-02  0.1312668E+00
        -11   -1    0    0    0    0  0.00000000000E+00  0.00000000000E+00  0.45593999997E+02  0.45594000000E+02  0.51100000000E-03 0. -1.
         11   -1    0    0    0    0 -0.00000000000E+00 -0.00000000000E+00 -0.45593999997E+02  0.45594000000E+02  0.51100000000E-03 0.  1.
    9900012    2    1    2    0    0  0.85250179779E+01 -0.14513250458E+02  0.40003908251E+02  0.47787273673E+02  0.20000011985E+02 0.  0.
        -12    1    1    2    0    0 -0.85250179779E+01  0.14513250458E+02 -0.40003908251E+02  0.43400726327E+02  0.00000000000E+00 0.  1.
         11    1    3    3    0    0  0.86939917753E+00  0.33956296752E+01  0.12902191545E+02  0.13369843034E+02  0.51100000000E-03 0. -1.
        -11    1    3    3    0    0  0.28452485853E+01 -0.55279342540E+01  0.30117426666E+01  0.69082625007E+01  0.51100000000E-03 0.  1.
         12    1    3    3    0    0  0.48103702151E+01 -0.12380945880E+02  0.24089974039E+02  0.27509168138E+02  0.00000000000E+00 0. -1.
</event>
<event>
 7    1  0.3062695E-010  0.4778727E+02  0.7816164E-02  0.1312668E+00
        -11   -1    0    0    0    0  0.00000000000E+00  0.00000000000E+00  0.45593999997E+02  0.45594000000E+02  0.51100000000E-03 0.  1.
         11   -1    0    0    0    0 -0.00000000000E+00 -0.00000000000E+00 -0.45593999997E+02  0.45594000000E+02  0.51100000000E-03 0. -1.
    9900012    2    1    2    0    0  0.40507330163E+02 -0.80912907058E+01 -0.13315799780E+02  0.47787270674E+02  0.19999998311E+02 0.  0.
        -12    1    1    2    0    0 -0.40507330163E+02  0.80912907058E+01  0.13315799780E+02  0.43400729326E+02  0.00000000000E+00 0.  1.
         11    1    3    3    0    0  0.75041285638E+01 -0.18366681508E+01  0.31096076747E+00  0.77318815471E+01  0.51100000000E-03 0. -1.
        -11    1    3    3    0    0  0.18555624111E+02 -0.11771557145E+02 -0.10144316272E+02  0.24203055523E+02  0.51100000000E-03 0.  1.
        -12    1    3    3    0    0  0.14447577489E+02  0.55169345898E+01 -0.34824442748E+01  0.15852333604E+02  0.00000000000E+00 0.  1.
</event>
<event>
 7    1  0.3062695E-010  0.4778724E+02  0.7816164E-02  0.1312668E+00
        -11   -1    0    0    0    0  0.00000000000E+00  0.00000000000E+00  0.45593999997E+02  0.45594000000E+02  0.51100000000E-03 0. -1.
         11   -1    0    0    0    0 -0.00000000000E+00 -0.00000000000E+00 -0.45593999997E+02  0.45594000000E+02  0.51100000000E-03 0.  1.
    9900012    2    1    2    0    0  0.23850522635E+02  0.18425521249E+02  0.31229449870E+02  0.47787241914E+02  0.19999867181E+02 0.  0.
        -12    1    1    2    0    0 -0.23850522635E+02 -0.18425521249E+02 -0.31229449870E+02  0.43400758086E+02  0.00000000000E+00 0.  1.
         11    1    3    3    0    0  0.83134332098E+01 -0.22940225329E+01  0.12817642295E+02  0.15448872625E+02  0.51100000000E-03 0.  1.
        -11    1    3    3    0    0  0.61754786823E+01  0.12804154863E+02  0.84134235379E+01  0.16518735261E+02  0.51100000000E-03 0. -1.
        -12    1    3    3    0    0  0.93616107431E+01  0.79153889183E+01  0.99983840377E+01  0.15819634029E+02  0.00000000000E+00 0.  1.
</event>
<event>
 7    1  0.3062695E-010  0.4778728E+02  0.7816164E-02  0.1312668E+00
        -11   -1    0    0    0    0  0.00000000000E+00  0.00000000000E+00  0.45593999997E+02  0.45594000000E+02  0.51100000000E-03 0.  1.
         11   -1    0    0    0    0 -0.00000000000E+00 -0.00000000000E+00 -0.45593999997E+02  0.45594000000E+02  0.51100000000E-03 0. -1.
    9900012    2    1    2    0    0 -0.19331549964E+02  0.71568818901E+01 -0.38192839411E+02  0.47787276911E+02  0.20000026746E+02 0.  0.
        -12    1    1    2    0    0  0.19331549964E+02 -0.71568818901E+01  0.38192839411E+02  0.43400723089E+02  0.00000000000E+00 0.  1.
         11    1    3    3    0    0 -0.11051520886E+02  0.48306419661E+01 -0.32321848049E+02  0.34498885159E+02  0.51100000000E-03 0. -1.
        -11    1    3    3    0    0  0.80298156531E+00 -0.54135869997E+00  0.11145074763E+01  0.14764741150E+01  0.51100000000E-03 0.  1.
         12    1    3    3    0    0 -0.90830106437E+01  0.28675986240E+01 -0.69854988386E+01  0.11811917636E+02  0.00000000000E+00 0. -1.
</event>
<event>
 7    1  0.3062695E-010  0.4778728E+02  0.7816164E-02  0.1312668E+00
        -11   -1    0    0    0    0  0.00000000000E+00  0.00000000000E+00  0.45593999997E+02  0.45594000000E+02  0.51100000000E-03 0. -1.
         11   -1    0    0    0    0 -0.00000000000E+00 -0.00000000000E+00 -0.45593999997E+02  0.45594000000E+02  0.51100000000E-03 0.  1.
    9900012    2    1    2    0    0  0.56615543018E+01 -0.30899103989E+02  0.29946865575E+02  0.47787279013E+02  0.20000036331E+02 0.  0.
        -12    1    1    2    0    0 -0.56615543018E+01  0.30899103989E+02 -0.29946865575E+02  0.43400720987E+02  0.00000000000E+00 0.  1.
         11    1    3    3    0    0  0.32152690191E+01 -0.24492564633E+02  0.26479736776E+02  0.36213259135E+02  0.51100000000E-03 0. -1.
        -11    1    3    3    0    0  0.25742758229E+01 -0.68748325416E+01 -0.70405467241E+00  0.73746804494E+01  0.51100000000E-03 0.  1.
         12    1    3    3    0    0 -0.12799054019E+00  0.46829318569E+00  0.41711834714E+01  0.41993394288E+01  0.00000000000E+00 0. -1.
</event>
<event>
 7    1  0.3062695E-010  0.4778727E+02  0.7816164E-02  0.1312668E+00
        -11   -1    0    0    0    0  0.00000000000E+00  0.00000000000E+00  0.45593999997E+02  0.45594000000E+02  0.51100000000E-03 0.  1.
         11   -1    0    0    0    0 -0.00000000000E+00 -0.00000000000E+00 -0.45593999997E+02  0.45594000000E+02  0.51100000000E-03 0. -1.
    9900012    2    1    2    0    0 -0.25912155221E+02  0.16062909081E+02 -0.30889589279E+02  0.47787267723E+02  0.19999984854E+02 0.  0.
        -12    1    1    2    0    0  0.25912155221E+02 -0.16062909081E+02  0.30889589279E+02  0.43400732277E+02  0.00000000000E+00 0.  1.
         11    1    3    3    0    0 -0.83711942542E+01  0.14446355153E+02 -0.21633772870E+02  0.27327535551E+02  0.51100000000E-03 0.  1.
        -11    1    3    3    0    0 -0.82094448986E+01  0.10694534664E+00 -0.17626027653E+01  0.83972133247E+01  0.51100000000E-03 0. -1.
        -12    1    3    3    0    0 -0.93315160686E+01  0.15096085808E+01 -0.74932136445E+01  0.12062518847E+02  0.00000000000E+00 0.  1.
</event>
<event>
 7    1  0.3062695E-010  0.4778727E+02  0.7816164E-02  0.1312668E+00
        -11   -1    0    0    0    0  0.00000000000E+00  0.00000000000E+00  0.45593999997E+02  0.45594000000E+02  0.51100000000E-03 0. -1.
         11   -1    0    0    0    0 -0.00000000000E+00 -0.00000000000E+00 -0.45593999997E+02  0.45594000000E+02  0.51100000000E-03 0.  1.
    9900012    2    1    2    0    0  0.22097814088E+02  0.60011476308E+01  0.36868633479E+02  0.47787270802E+02  0.19999998893E+02 0.  0.
        -12    1    1    2    0    0 -0.22097814088E+02 -0.60011476308E+01 -0.36868633479E+02  0.43400729198E+02  0.00000000000E+00 0.  1.
         11    1    3    3    0    0  0.17040225844E+02 -0.39772992029E+01  0.18698407901E+02  0.25608956715E+02  0.51100000000E-03 0. -1.
        -11    1    3    3    0    0  0.13212842240E+01  0.84966729403E+01  0.13617934352E+02  0.16105507733E+02  0.51100000000E-03 0.  1.
        -12    1    3    3    0    0  0.37363040207E+01  0.14817738935E+01  0.45522912259E+01  0.60728063539E+01  0.00000000000E+00 0.  1.
</event>
<event>
 7    1  0.3062695E-010  0.4778727E+02  0.7816164E-02  0.1312668E+00
        -11   -1    0    0    0    0  0.00000000000E+00  0.00000000000E+00  0.45593999997E+02  0.45594000000E+02  0.51100000000E-03 0. -1.
         11   -1    0    0    0    0 -0.00000000000E+00 -0.00000000000E+00 -0.45593999997E+02  0.45594000000E+02  0.51100000000E-03 0.  1.
    9900012    2    1    2    0    0  0.25109212170E+02  0.33775358966E+02  0.10600751866E+02  0.47787270177E+02  0.19999996044E+02 0.  0.
        -12    1    1    2    0    0 -0.25109212170E+02 -0.33775358966E+02 -0.10600751866E+02  0.43400729823E+02  0.00000000000E+00 0.  1.
         11    1    3    3    0    0  0.21290606509E+02  0.25655231169E+02 -0.52903898180E+00  0.33343075658E+02  0.51100000000E-03 0. -1.
        -11    1    3    3    0    0  0.25341445110E+01  0.69729932357E+01  0.96586136751E+01  0.12179217604E+02  0.51100000000E-03 0.  1.
         12    1    3    3    0    0  0.12844611502E+01  0.11471345611E+01  0.14711771727E+01  0.22649769141E+01  0.00000000000E+00 0. -1.
</event>
<event>
 7    1  0.3062695E-010  0.4778727E+02  0.7816164E-02  0.1312668E+00
        -11   -1    0    0    0    0  0.00000000000E+00  0.00000000000E+00  0.45593999997E+02  0.45594000000E+02  0.51100000000E-03 0.  1.
         11   -1    0    0    0    0 -0.00000000000E+00 -0.00000000000E+00 -0.45593999997E+02  0.45594000000E+02  0.51100000000E-03 0. -1.
    9900012    2    1    2    0    0 -0.40923864667E+02  0.14343026275E+02 -0.17714612222E+01  0.47787272162E+02  0.20000005094E+02 0.  0.
        -12    1    1    2    0    0  0.40923864667E+02 -0.14343026275E+02  0.17714612222E+01  0.43400727838E+02  0.00000000000E+00 0.  1.
         11    1    3    3    0    0 -0.49703642677E+01 -0.37704787849E+01 -0.13657620563E+01  0.63864182040E+01  0.51100000000E-03 0. -1.
        -11    1    3    3    0    0 -0.35124152061E+02  0.15038015103E+02 -0.19355481667E+00  0.38208446971E+02  0.51100000000E-03 0.  1.
        -12    1    3    3    0    0 -0.82934833884E+00  0.30754899571E+01 -0.21214434920E+00  0.31924069866E+01  0.00000000000E+00 0.  1.
</event>
<event>
 7    1  0.3062695E-010  0.4778727E+02  0.7816164E-02  0.1312668E+00
        -11   -1    0    0    0    0  0.00000000000E+00  0.00000000000E+00  0.45593999997E+02  0.45594000000E+02  0.51100000000E-03 0. -1.
         11   -1    0    0    0    0 -0.00000000000E+00 -0.00000000000E+00 -0.45593999997E+02  0.45594000000E+02  0.51100000000E-03 0.  1.
    9900012    2    1    2    0    0  0.35483277698E+02  0.13649178717E+02  0.20934671003E+02  0.47787268141E+02  0.19999986763E+02 0.  0.
        -12    1    1    2    0    0 -0.35483277698E+02 -0.13649178717E+02 -0.20934671003E+02  0.43400731859E+02  0.00000000000E+00 0.  1.
         11    1    3    3    0    0  0.13412470450E+02  0.13399594612E+02  0.91823604184E+01  0.21065593807E+02  0.51100000000E-03 0. -1.
        -11    1    3    3    0    0  0.89153871334E+01 -0.45307355203E+01  0.50155271040E+01  0.11187815000E+02  0.51100000000E-03 0.  1.
        -12    1    3    3    0    0  0.13155420115E+02  0.47803196257E+01  0.67367834806E+01  0.15533859333E+02  0.00000000000E+00 0.  1.
</event>
<event>
 7    1  0.3062695E-010  0.4778727E+02  0.7816164E-02  0.1312668E+00
        -11   -1    0    0    0    0  0.00000000000E+00  0.00000000000E+00  0.45593999997E+02  0.45594000000E+02  0.51100000000E-03 0.  1.
         11   -1    0    0    0    0 -0.00000000000E+00 -0.00000000000E+00 -0.45593999997E+02  0.45594000000E+02  0.51100000000E-03 0. -1.
    9900012    2    1    2    0    0 -0.21875666907E+02 -0.32747916750E+01 -0.37341056277E+02  0.47787267898E+02  0.19999985652E+02 0.  0.
        -12    1    1    2    0    0  0.21875666907E+02  0.32747916750E+01  0.37341056277E+02  0.43400732102E+02  0.00000000000E+00 0.  1.
         11    1    3    3    0    0 -0.20351857562E+02  0.12407893048E+01 -0.20665255284E+02  0.29030853252E+02  0.51100000000E-03 0. -1.
        -11    1    3    3    0    0 -0.63167017634E+00 -0.59326148516E+01 -0.83411982608E+01  0.10255267665E+02  0.51100000000E-03 0.  1.
         12    1    3    3    0    0 -0.89213916907E+00  0.14170338719E+01 -0.83346027323E+01  0.85011469813E+01  0.00000000000E+00 0. -1.
</event>
<event>
 7    1  0.3062695E-010  0.4778727E+02  0.7816164E-02  0.1312668E+00
        -11   -1    0    0    0    0  0.00000000000E+00  0.00000000000E+00  0.45593999997E+02  0.45594000000E+02  0.51100000000E-03 0. -1.
         11   -1    0    0    0    0 -0.00000000000E+00 -0.00000000000E+00 -0.45593999997E+02  0.45594000000E+02  0.51100000000E-03 0.  1.
    9900012    2    1    2    0    0  0.10415020026E+02 -0.41939214732E+02 -0.40314882065E+01  0.47787271070E+02  0.20000000117E+02 0.  0.
        -12    1    1    2    0    0 -0.10415020026E+02  0.41939214732E+02  0.40314882065E+01  0.43400728930E+02  0.00000000000E+00 0.  1.
         11    1    3    3    0    0  0.74498613518E+00 -0.10975816578E+02 -0.53839249744E+01  0.12247865214E+02  0.51100000000E-03 0. -1.
        -11    1    3    3    0    0 -0.12683935722E+01 -0.77359563404E+01 -0.47285017154E+01  0.91549206162E+01  0.51100000000E-03 0.  1.
        -12    1    3    3    0    0  0.10938427463E+02 -0.23227441813E+02  0.60809384833E+01  0.26384485240E+02  0.00000000000E+00 0.  1.
</event>
<event>
 7    1  0.3062695E-010  0.4778727E+02  0.7816164E-02  0.1312668E+00
        -11   -1    0    0    0    0  0.00000000000E+00  0.00000000000E+00  0.45593999997E+02  0.45594000000E+02  0.51100000000E-03 0. -1.
         11   -1    0    0    0    0 -0.00000000000E+00 -0.00000000000E+00 -0.45593999997E+02  0.45594000000E+02  0.51100000000E-03 0.  1.
    9900012    2    1    2    0    0  0.17917495630E+02  0.38053325894E+02  0.10701910120E+02  0.47787272570E+02  0.20000006957E+02 0.  0.
        -12    1    1    2    0    0 -0.17917495630E+02 -0.38053325894E+02 -0.10701910120E+02  0.43400727430E+02  0.00000000000E+00 0.  1.
         11    1    3    3    0    0  0.78670500542E+01  0.14854634687E+02  0.12112563814E+02  0.20718707745E+02  0.51100000000E-03 0. -1.
        -11    1    3    3    0    0  0.21745078674E+01  0.15983107628E+02  0.84112957856E+00  0.16152266502E+02  0.51100000000E-03 0.  1.
         12    1    3    3    0    0  0.78759377085E+01  0.72155835789E+01 -0.22517832726E+01  0.10916298323E+02  0.00000000000E+00 0. -1.
</event>
<event>
 7    1  0.3062695E-010  0.4778728E+02  0.7816164E-02  0.1312668E+00
        -11   -1    0    0    0    0  0.00000000000E+00  0.00000000000E+00  0.45593999997E+02  0.45594000000E+02  0.51100000000E-03 0.  1.
         11   -1    0    0    0    0 -0.00000000000E+00 -0.00000000000E+00 -0.45593999997E+02  0.45594000000E+02  0.51100000000E-03 0. -1.
    9900012    2    1    2    0    0 -0.53173394046E+00  0.42392180636E+02 -0.92867182156E+01  0.47787275867E+02  0.20000021989E+02 0.  0.
        -12    1    1    2    0    0  0.53173394046E+00 -0.42392180636E+02  0.92867182156E+01  0.43400724133E+02  0.00000000000E+00 0.  1.
         11    1    3    3    0    0  0.57373678038E+01  0.73988659509E+01 -0.42375260611E+01  0.10277024572E+02  0.51100000000E-03 0. -1.
        -11    1    3    3    0    0 -0.53105915973E+01  0.22369075049E+02 -0.82929094676E+01  0.24440749771E+02  0.51100000000E-03 0.  1.
        -12    1    3    3    0    0 -0.95851014701E+00  0.12624239636E+02  0.32437173130E+01  0.13069501524E+02  0.00000000000E+00 0.  1.
</event>
<event>
 7    1  0.3062695E-010  0.4778727E+02  0.7816164E-02  0.1312668E+00
        -11   -1    0    0    0    0  0.00000000000E+00  0.00000000000E+00  0.45593999997E+02  0.45594000000E+02  0.51100000000E-03 0.  1.
         11   -1    0    0    0    0 -0.00000000000E+00 -0.00000000000E+00 -0.45593999997E+02  0.45594000000E+02  0.51100000000E-03 0. -1.
    9900012    2    1    2    0    0 -0.40397721983E+01  0.48872910080E+01 -0.42935042745E+02  0.47787271108E+02  0.20000000291E+02 0.  0.
        -12    1    1    2    0    0  0.40397721983E+01 -0.48872910080E+01  0.42935042745E+02  0.43400728892E+02  0.00000000000E+00 0.  1.
         11    1    3    3    0    0 -0.10511063468E+00  0.25127613370E+01 -0.17209520376E+02  0.17392314671E+02  0.51100000000E-03 0. -1.
        -11    1    3    3    0    0 -0.24922721978E+01 -0.46071368781E+01 -0.21453849569E+02  0.22084039316E+02  0.51100000000E-03 0.  1.
        -12    1    3    3    0    0 -0.14423893658E+01  0.69816665491E+01 -0.42716728005E+01  0.83109171214E+01  0.00000000000E+00 0.  1.
</event>
<event>
 7    1  0.3062695E-010  0.4778726E+02  0.7816164E-02  0.1312668E+00
        -11   -1    0    0    0    0  0.00000000000E+00  0.00000000000E+00  0.45593999997E+02  0.45594000000E+02  0.51100000000E-03 0.  1.
         11   -1    0    0    0    0 -0.00000000000E+00 -0.00000000000E+00 -0.45593999997E+02  0.45594000000E+02  0.51100000000E-03 0. -1.
    9900012    2    1    2    0    0  0.70793446236E+01 -0.35465845314E+02 -0.23993352454E+02  0.47787259613E+02  0.19999947881E+02 0.  0.
        -12    1    1    2    0    0 -0.70793446236E+01  0.35465845314E+02  0.23993352454E+02  0.43400740387E+02  0.00000000000E+00 0.  1.
         11    1    3    3    0    0 -0.38203482101E+00 -0.79548208893E+01 -0.38256502409E+01  0.88351981309E+01  0.51100000000E-03 0. -1.
        -11    1    3    3    0    0  0.10935841886E+02 -0.20074110380E+02 -0.78896405704E+01  0.24182823944E+02  0.51100000000E-03 0.  1.
        -12    1    3    3    0    0 -0.34744624417E+01 -0.74369140444E+01 -0.12278061643E+02  0.14769237538E+02  0.00000000000E+00 0.  1.
</event>
<event>
 7    1  0.3062695E-010  0.4778727E+02  0.7816164E-02  0.1312668E+00
        -11   -1    0    0    0    0  0.00000000000E+00  0.00000000000E+00  0.45593999997E+02  0.45594000000E+02  0.51100000000E-03 0.  1.
         11   -1    0    0    0    0 -0.00000000000E+00 -0.00000000000E+00 -0.45593999997E+02  0.45594000000E+02  0.51100000000E-03 0. -1.
    9900012    2    1    2    0    0 -0.12479238754E+01 -0.39447482210E+02 -0.18054421677E+02  0.47787270642E+02  0.19999998167E+02 0.  0.
        -12    1    1    2    0    0  0.12479238754E+01  0.39447482210E+02  0.18054421677E+02  0.43400729358E+02  0.00000000000E+00 0.  1.
         11    1    3    3    0    0  0.34767723062E+01 -0.20778801080E+02 -0.81721186386E+01  0.22597124669E+02  0.51100000000E-03 0. -1.
        -11    1    3    3    0    0 -0.89814901291E+01 -0.14683264692E+02 -0.85024070420E+01  0.19197821562E+02  0.51100000000E-03 0.  1.
        -12    1    3    3    0    0  0.42567939475E+01 -0.39854164379E+01 -0.13798959961E+01  0.59923244117E+01  0.00000000000E+00 0.  1.
</event>
<event>
 7    1  0.3062695E-010  0.4778727E+02  0.7816164E-02  0.1312668E+00
        -11   -1    0    0    0    0  0.00000000000E+00  0.00000000000E+00  0.45593999997E+02  0.45594000000E+02  0.51100000000E-03 0.  1.
         11   -1    0    0    0    0 -0.00000000000E+00 -0.00000000000E+00 -0.45593999997E+02  0.45594000000E+02  0.51100000000E-03 0. -1.
    9900012    2    1    2    0    0 -0.24050336068E+02  0.29434714078E+02 -0.20947613985E+02  0.47787267408E+02  0.19999983418E+02 0.  0.
        -12    1    1    2    0    0  0.24050336068E+02 -0.29434714078E+02  0.20947613985E+02  0.43400732592E+02  0.00000000000E+00 0.  1.
         11    1    3    3    0    0 -0.72207191298E+01  0.79802990280E+01 -0.29662695603E+01  0.11163454335E+02  0.51100000000E-03 0. -1.
        -11    1    3    3    0    0 -0.12768888875E+02  0.12004510505E+02 -0.20286362750E+01  0.17642793457E+02  0.51100000000E-03 0.  1.
        -12    1    3    3    0    0 -0.40607280633E+01  0.94499045457E+01 -0.15952708150E+02  0.18981019616E+02  0.00000000000E+00 0.  1.
</event>
<event>
 7    1  0.3062695E-010  0.4778727E+02  0.7816164E-02  0.1312668E+00
        -11   -1    0    0    0    0  0.00000000000E+00  0.00000000000E+00  0.45593999997E+02  0.45594000000E+02  0.51100000000E-03 0.  1.
         11   -1    0    0    0    0 -0.00000000000E+00 -0.00000000000E+00 -0.45593999997E+02  0.45594000000E+02  0.51100000000E-03 0. -1.
    9900012    2    1    2    0    0  0.39909741221E+01  0.77117997305E+01 -0.42523214265E+02  0.47787268659E+02  0.19999989122E+02 0.  0.
        -12    1    1    2    0    0 -0.39909741221E+01 -0.77117997305E+01  0.42523214265E+02  0.43400731341E+02  0.00000000000E+00 0.  1.
         11    1    3    3    0    0 -0.71302115410E+00 -0.82921612409E+00 -0.34514292751E+02  0.34531614542E+02  0.51100000000E-03 0. -1.
        -11    1    3    3    0    0  0.12838359593E+01  0.33472777633E+01 -0.68877275197E+00  0.36506042458E+01  0.51100000000E-03 0.  1.
         12    1    3    3    0    0  0.34201593169E+01  0.51937380913E+01 -0.73201487624E+01  0.96050498707E+01  0.00000000000E+00 0. -1.
</event>
<event>
 7    1  0.3062695E-010  0.4778727E+02  0.7816164E-02  0.1312668E+00
        -11   -1    0    0    0    0  0.00000000000E+00  0.00000000000E+00  0.45593999997E+02  0.45594000000E+02  0.51100000000E-03 0.  1.
         11   -1    0    0    0    0 -0.00000000000E+00 -0.00000000000E+00 -0.45593999997E+02  0.45594000000E+02  0.51100000000E-03 0. -1.
    9900012    2    1    2    0    0 -0.27982445647E+02  0.29947080857E+02 -0.14275093676E+02  0.47787271715E+02  0.20000003058E+02 0.  0.
        -12    1    1    2    0    0  0.27982445647E+02 -0.29947080857E+02  0.14275093676E+02  0.43400728285E+02  0.00000000000E+00 0.  1.
         11    1    3    3    0    0 -0.23303195108E+02  0.15142564731E+02 -0.88020532837E+01  0.29151540460E+02  0.51100000000E-03 0. -1.
        -11    1    3    3    0    0 -0.29278255768E+01  0.53539951877E+01  0.20422648409E+01  0.64349260306E+01  0.51100000000E-03 0.  1.
         12    1    3    3    0    0 -0.17514249616E+01  0.94505209378E+01 -0.75153052327E+01  0.12200805225E+02  0.00000000000E+00 0. -1.
</event>
<event>
 7    1  0.3062695E-010  0.4778726E+02  0.7816164E-02  0.1312668E+00
        -11   -1    0    0    0    0  0.00000000000E+00  0.00000000000E+00  0.45593999997E+02  0.45594000000E+02  0.51100000000E-03 0.  1.
         11   -1    0    0    0    0 -0.00000000000E+00 -0.00000000000E+00 -0.45593999997E+02  0.45594000000E+02  0.51100000000E-03 0. -1.
    9900012    2    1    2    0    0  0.33056888993E+02 -0.20747051589E+01 -0.28045703945E+02  0.47787264740E+02  0.19999971253E+02 0.  0.
        -12    1    1    2    0    0 -0.33056888993E+02  0.20747051589E+01  0.28045703945E+02  0.43400735260E+02  0.00000000000E+00 0.  1.
         11    1    3    3    0    0  0.20419956024E+02 -0.45683347915E+00 -0.22768717989E+02  0.30587543542E+02  0.51100000000E-03 0. -1.
        -11    1    3    3    0    0  0.64480494229E+01 -0.44427953363E+01 -0.66336975177E+01  0.10262636834E+02  0.51100000000E-03 0.  1.
         12    1    3    3    0    0  0.61888835460E+01  0.28249236566E+01  0.13567115609E+01  0.69370843638E+01  0.00000000000E+00 0. -1.
</event>
<event>
 7    1  0.3062695E-010  0.4778727E+02  0.7816164E-02  0.1312668E+00
        -11   -1    0    0    0    0  0.00000000000E+00  0.00000000000E+00  0.45593999997E+02  0.45594000000E+02  0.51100000000E-03 0.  1.
         11   -1    0    0    0    0 -0.00000000000E+00 -0.00000000000E+00 -0.45593999997E+02  0.45594000000E+02  0.51100000000E-03 0. -1.
    9900012    2    1    2    0    0 -0.31215600169E+01 -0.54496109136E+01 -0.42943927128E+02  0.47787271052E+02  0.20000000034E+02 0.  0.
        -12    1    1    2    0    0  0.31215600169E+01  0.54496109136E+01  0.42943927128E+02  0.43400728948E+02  0.00000000000E+00 0.  1.
         11    1    3    3    0    0  0.61972640953E+00 -0.30120942105E+00 -0.14255823279E+02  0.14272465994E+02  0.51100000000E-03 0. -1.
        -11    1    3    3    0    0 -0.30139672727E+01 -0.10835535847E+02 -0.15653773064E+02  0.19275202910E+02  0.51100000000E-03 0.  1.
        -12    1    3    3    0    0 -0.72731915368E+00  0.56871343543E+01 -0.13034330785E+02  0.14239602148E+02  0.00000000000E+00 0.  1.
</event>
<event>
 7    1  0.3062695E-010  0.4778728E+02  0.7816164E-02  0.1312668E+00
        -11   -1    0    0    0    0  0.00000000000E+00  0.00000000000E+00  0.45593999997E+02  0.45594000000E+02  0.51100000000E-03 0.  1.
         11   -1    0    0    0    0 -0.00000000000E+00 -0.00000000000E+00 -0.45593999997E+02  0.45594000000E+02  0.51100000000E-03 0. -1.
    9900012    2    1    2    0    0 -0.12076393092E+02 -0.30340470397E+02 -0.28587400697E+02  0.47787275437E+02  0.20000020026E+02 0.  0.
        -12    1    1    2    0    0  0.12076393092E+02  0.30340470397E+02  0.28587400697E+02  0.43400724563E+02  0.00000000000E+00 0.  1.
         11    1    3    3    0    0 -0.13873849062E+02 -0.26459425555E+02 -0.15675869544E+02  0.33738965229E+02  0.51100000000E-03 0. -1.
        -11    1    3    3    0    0  0.17669818244E+00 -0.22975052097E+01 -0.10456582758E+02  0.10707468219E+02  0.51100000000E-03 0.  1.
         12    1    3    3    0    0  0.16207577871E+01 -0.15835396328E+01 -0.24549483946E+01  0.33408419887E+01  0.00000000000E+00 0. -1.
</event>
<event>
 7    1  0.3062695E-010  0.4778729E+02  0.7816164E-02  0.1312668E+00
        -11   -1    0    0    0    0  0.00000000000E+00  0.00000000000E+00  0.45593999997E+02  0.45594000000E+02  0.51100000000E-03 0.  1.
         11   -1    0    0    0    0 -0.00000000000E+00 -0.00000000000E+00 -0.45593999997E+02  0.45594000000E+02  0.51100000000E-03 0. -1.
    9900012    2    1    2    0    0 -0.17795031975E+02 -0.26165987167E+02 -0.29703534325E+02  0.47787285733E+02  0.20000066972E+02 0.  0.
        -12    1    1    2    0    0  0.17795031975E+02  0.26165987167E+02  0.29703534325E+02  0.43400714267E+02  0.00000000000E+00 0.  1.
         11    1    3    3    0    0 -0.12392958886E+02 -0.22188230255E+02 -0.22476708794E+02  0.33927944680E+02  0.51100000000E-03 0. -1.
        -11    1    3    3    0    0  0.45164197521E+00 -0.56808734673E+01 -0.39914551603E+01  0.69575871093E+01  0.51100000000E-03 0.  1.
         12    1    3    3    0    0 -0.58537150645E+01  0.17031165547E+01 -0.32353703714E+01  0.69017539435E+01  0.00000000000E+00 0. -1.
</event>
<event>
 7    1  0.4250806E-010  0.4778727E+02  0.7816164E-02  0.1312668E+00
        -11   -1    0    0    0    0  0.00000000000E+00  0.00000000000E+00  0.45593999997E+02  0.45594000000E+02  0.51100000000E-03 0.  1.
         11   -1    0    0    0    0 -0.00000000000E+00 -0.00000000000E+00 -0.45593999997E+02  0.45594000000E+02  0.51100000000E-03 0. -1.
    9900012    2    1    2    0    0 -0.16289443718E+02 -0.40136039280E+02 -0.27158047688E+01  0.47787271650E+02  0.20000002762E+02 0.  0.
        -12    1    1    2    0    0  0.16289443718E+02  0.40136039280E+02  0.27158047688E+01  0.43400728350E+02  0.00000000000E+00 0.  1.
         11    1    3    3    0    0 -0.91030002441E+01 -0.23899869364E+02 -0.15911665967E+01  0.25624210826E+02  0.51100000000E-03 0. -1.
        -11    1    3    3    0    0 -0.50413228143E+00  0.50503022805E+00  0.34850933022E+01  0.35573979921E+01  0.51100000000E-03 0.  1.
        -12    1    3    3    0    0 -0.66823111924E+01 -0.16741200144E+02 -0.46097314743E+01  0.18605662832E+02  0.00000000000E+00 0.  1.
</event>
<event>
 7    1  0.3062695E-010  0.4778726E+02  0.7816164E-02  0.1312668E+00
        -11   -1    0    0    0    0  0.00000000000E+00  0.00000000000E+00  0.45593999997E+02  0.45594000000E+02  0.51100000000E-03 0. -1.
         11   -1    0    0    0    0 -0.00000000000E+00 -0.00000000000E+00 -0.45593999997E+02  0.45594000000E+02  0.51100000000E-03 0.  1.
    9900012    2    1    2    0    0  0.30897086845E+02  0.26072663409E+02 -0.15786396632E+02  0.47787261857E+02  0.19999958112E+02 0.  0.
        -12    1    1    2    0    0 -0.30897086845E+02 -0.26072663409E+02  0.15786396632E+02  0.43400738143E+02  0.00000000000E+00 0.  1.
         11    1    3    3    0    0  0.90944200594E+00  0.39170895030E+00 -0.19448756444E+00  0.10091314769E+01  0.51100000000E-03 0. -1.
        -11    1    3    3    0    0  0.19305889643E+02  0.24631883783E+02 -0.49895502216E+01  0.31691366100E+02  0.51100000000E-03 0.  1.
        -12    1    3    3    0    0  0.10681755196E+02  0.10490706752E+01 -0.10602358846E+02  0.15086764280E+02  0.00000000000E+00 0.  1.
</event>
<event>
 7    1  0.3062695E-010  0.4778727E+02  0.7816164E-02  0.1312668E+00
        -11   -1    0    0    0    0  0.00000000000E+00  0.00000000000E+00  0.45593999997E+02  0.45594000000E+02  0.51100000000E-03 0. -1.
         11   -1    0    0    0    0 -0.00000000000E+00 -0.00000000000E+00 -0.45593999997E+02  0.45594000000E+02  0.51100000000E-03 0.  1.
    9900012    2    1    2    0    0  0.40590828512E+02  0.89536904723E+01  0.12483575460E+02  0.47787267418E+02  0.19999983465E+02 0.  0.
        -12    1    1    2    0    0 -0.40590828512E+02 -0.89536904723E+01 -0.12483575460E+02  0.43400732582E+02  0.00000000000E+00 0.  1.
         11    1    3    3    0    0  0.44762482739E+01  0.90887960809E+00  0.28913193304E+01  0.54057921236E+01  0.51100000000E-03 0. -1.
        -11    1    3    3    0    0  0.68067180512E+01  0.38594956487E+01 -0.50908874017E+01  0.93351085740E+01  0.51100000000E-03 0.  1.
        -12    1    3    3    0    0  0.29307862187E+02  0.41853152156E+01  0.14683143532E+02  0.33046366720E+02  0.00000000000E+00 0.  1.
</event>
<event>
 7    1  0.3062695E-010  0.4778727E+02  0.7816164E-02  0.1312668E+00
        -11   -1    0    0    0    0  0.00000000000E+00  0.00000000000E+00  0.45593999997E+02  0.45594000000E+02  0.51100000000E-03 0.  1.
         11   -1    0    0    0    0 -0.00000000000E+00 -0.00000000000E+00 -0.45593999997E+02  0.45594000000E+02  0.51100000000E-03 0. -1.
    9900012    2    1    2    0    0  0.41826419286E+02 -0.50859756300E+01 -0.10407049870E+02  0.47787272064E+02  0.20000004650E+02 0.  0.
        -12    1    1    2    0    0 -0.41826419286E+02  0.50859756300E+01  0.10407049870E+02  0.43400727936E+02  0.00000000000E+00 0.  1.
         11    1    3    3    0    0  0.24030263884E+02 -0.70389134789E+01 -0.99072744078E+01  0.26928683068E+02  0.51100000000E-03 0. -1.
        -11    1    3    3    0    0  0.14752670972E+02  0.36590603276E+01  0.34522204571E+01  0.15586784454E+02  0.51100000000E-03 0.  1.
        -12    1    3    3    0    0  0.30434844294E+01 -0.17061224787E+01 -0.39519959191E+01  0.52718045420E+01  0.00000000000E+00 0.  1.
</event>
<event>
 7    1  0.3062695E-010  0.4778727E+02  0.7816164E-02  0.1312668E+00
        -11   -1    0    0    0    0  0.00000000000E+00  0.00000000000E+00  0.45593999997E+02  0.45594000000E+02  0.51100000000E-03 0. -1.
         11   -1    0    0    0    0 -0.00000000000E+00 -0.00000000000E+00 -0.45593999997E+02  0.45594000000E+02  0.51100000000E-03 0.  1.
    9900012    2    1    2    0    0 -0.13330389725E+01  0.43370082314E+02 -0.93909650881E+00  0.47787274948E+02  0.20000017798E+02 0.  0.
        -12    1    1    2    0    0  0.13330389725E+01 -0.43370082314E+02  0.93909650881E+00  0.43400725052E+02  0.00000000000E+00 0.  1.
         11    1    3    3    0    0 -0.15163193824E+01  0.33130042793E+02 -0.80040913252E+01  0.34116923046E+02  0.51100000000E-03 0. -1.
        -11    1    3    3    0    0 -0.16365944139E+01  0.43621815889E+01  0.57103067464E+01  0.73698489054E+01  0.51100000000E-03 0.  1.
         12    1    3    3    0    0  0.18198748238E+01  0.58778579316E+01  0.13546880700E+01  0.63005029962E+01  0.00000000000E+00 0. -1.
</event>
<event>
 7    1  0.3062695E-010  0.4778727E+02  0.7816164E-02  0.1312668E+00
        -11   -1    0    0    0    0  0.00000000000E+00  0.00000000000E+00  0.45593999997E+02  0.45594000000E+02  0.51100000000E-03 0. -1.
         11   -1    0    0    0    0 -0.00000000000E+00 -0.00000000000E+00 -0.45593999997E+02  0.45594000000E+02  0.51100000000E-03 0.  1.
    9900012    2    1    2    0    0  0.29460674402E+02  0.31750288002E+02  0.27588504684E+01  0.47787269818E+02  0.19999994407E+02 0.  0.
        -12    1    1    2    0    0 -0.29460674402E+02 -0.31750288002E+02 -0.27588504684E+01  0.43400730182E+02  0.00000000000E+00 0.  1.
         11    1    3    3    0    0  0.66886241243E+01  0.12472555448E+02 -0.20210777362E+01  0.14296401210E+02  0.51100000000E-03 0. -1.
        -11    1    3    3    0    0 -0.16254110482E-01 -0.61188233472E+00  0.31399654658E+01  0.31990697984E+01  0.51100000000E-03 0.  1.
        -12    1    3    3    0    0  0.22788304388E+02  0.19889614889E+02  0.16399627387E+01  0.30291798810E+02  0.00000000000E+00 0.  1.
</event>
<event>
 7    1  0.3062695E-010  0.4778727E+02  0.7816164E-02  0.1312668E+00
        -11   -1    0    0    0    0  0.00000000000E+00  0.00000000000E+00  0.45593999997E+02  0.45594000000E+02  0.51100000000E-03 0. -1.
         11   -1    0    0    0    0 -0.00000000000E+00 -0.00000000000E+00 -0.45593999997E+02  0.45594000000E+02  0.51100000000E-03 0.  1.
    9900012    2    1    2    0    0  0.21307097857E+02  0.37363956985E+02  0.57935784981E+01  0.47787271291E+02  0.20000001123E+02 0.  0.
        -12    1    1    2    0    0 -0.21307097857E+02 -0.37363956985E+02 -0.57935784981E+01  0.43400728709E+02  0.00000000000E+00 0.  1.
         11    1    3    3    0    0  0.12377456218E+02  0.33572609411E+02 -0.64770808631E+00  0.35787442646E+02  0.51100000000E-03 0. -1.
        -11    1    3    3    0    0  0.50620523223E+01  0.13307547829E+01  0.48832653304E+01  0.71583212107E+01  0.51100000000E-03 0.  1.
         12    1    3    3    0    0  0.38675893168E+01  0.24605927906E+01  0.15580212540E+01  0.48415074338E+01  0.00000000000E+00 0. -1.
</event>
<event>
 7    1  0.3062695E-010  0.4778726E+02  0.7816164E-02  0.1312668E+00
        -11   -1    0    0    0    0  0.00000000000E+00  0.00000000000E+00  0.45593999997E+02  0.45594000000E+02  0.51100000000E-03 0.  1.
         11   -1    0    0    0    0 -0.00000000000E+00 -0.00000000000E+00 -0.45593999997E+02  0.45594000000E+02  0.51100000000E-03 0. -1.
    9900012    2    1    2    0    0 -0.28857878888E+02  0.22444896028E+02 -0.23389598689E+02  0.47787264310E+02  0.19999969295E+02 0.  0.
        -12    1    1    2    0    0  0.28857878888E+02 -0.22444896028E+02  0.23389598689E+02  0.43400735690E+02  0.00000000000E+00 0.  1.
         11    1    3    3    0    0 -0.78570778710E+01  0.17979641239E+02 -0.86683532074E+01  0.21450909522E+02  0.51100000000E-03 0. -1.
        -11    1    3    3    0    0 -0.18768778769E+02  0.28338923765E+01 -0.11996761735E+02  0.22454850142E+02  0.51100000000E-03 0.  1.
         12    1    3    3    0    0 -0.22320222474E+01  0.16313624131E+01 -0.27244837462E+01  0.38815046462E+01  0.00000000000E+00 0. -1.
</event>
<event>
 7    1  0.3062695E-010  0.4778727E+02  0.7816164E-02  0.1312668E+00
        -11   -1    0    0    0    0  0.00000000000E+00  0.00000000000E+00  0.45593999997E+02  0.45594000000E+02  0.51100000000E-03 0.  1.
         11   -1    0    0    0    0 -0.00000000000E+00 -0.00000000000E+00 -0.45593999997E+02  0.45594000000E+02  0.51100000000E-03 0. -1.
    9900012    2    1    2    0    0  0.37383358978E+02 -0.67300695672E+00 -0.22037576468E+02  0.47787271396E+02  0.20000001602E+02 0.  0.
        -12    1    1    2    0    0 -0.37383358978E+02  0.67300695672E+00  0.22037576468E+02  0.43400728604E+02  0.00000000000E+00 0.  1.
         11    1    3    3    0    0  0.16066055692E+01 -0.47142792060E+01 -0.11492322337E+01  0.51113936333E+01  0.51100000000E-03 0. -1.
        -11    1    3    3    0    0  0.35071987853E+02  0.53105697035E+01 -0.20996311687E+02  0.41220038662E+02  0.51100000000E-03 0.  1.
        -12    1    3    3    0    0  0.70476555524E+00 -0.12692974543E+01  0.10796745361E+00  0.14558391004E+01  0.00000000000E+00 0.  1.
</event>
<event>
 7    1  0.3062695E-010  0.4778727E+02  0.7816164E-02  0.1312668E+00
        -11   -1    0    0    0    0  0.00000000000E+00  0.00000000000E+00  0.45593999997E+02  0.45594000000E+02  0.51100000000E-03 0. -1.
         11   -1    0    0    0    0 -0.00000000000E+00 -0.00000000000E+00 -0.45593999997E+02  0.45594000000E+02  0.51100000000E-03 0.  1.
    9900012    2    1    2    0    0  0.33088844359E+02 -0.28025840241E+02 -0.18177896153E+01  0.47787266120E+02  0.19999977548E+02 0.  0.
        -12    1    1    2    0    0 -0.33088844359E+02  0.28025840241E+02  0.18177896153E+01  0.43400733880E+02  0.00000000000E+00 0.  1.
         11    1    3    3    0    0  0.22535333749E+02 -0.11121627231E+02 -0.67868378105E+01  0.26030617111E+02  0.51100000000E-03 0. -1.
        -11    1    3    3    0    0  0.20920328352E+00 -0.63575317281E+01  0.21702551512E+01  0.67210105914E+01  0.51100000000E-03 0.  1.
         12    1    3    3    0    0  0.10344307327E+02 -0.10546681282E+02  0.27987930440E+01  0.15035638418E+02  0.00000000000E+00 0. -1.
</event>
<event>
 7    1  0.3062695E-010  0.4778727E+02  0.7816164E-02  0.1312668E+00
        -11   -1    0    0    0    0  0.00000000000E+00  0.00000000000E+00  0.45593999997E+02  0.45594000000E+02  0.51100000000E-03 0.  1.
         11   -1    0    0    0    0 -0.00000000000E+00 -0.00000000000E+00 -0.45593999997E+02  0.45594000000E+02  0.51100000000E-03 0. -1.
    9900012    2    1    2    0    0  0.32777884062E+02 -0.18364886922E+02 -0.21724746145E+02  0.47787270164E+02  0.19999995987E+02 0.  0.
        -12    1    1    2    0    0 -0.32777884062E+02  0.18364886922E+02  0.21724746145E+02  0.43400729836E+02  0.00000000000E+00 0.  1.
         11    1    3    3    0    0  0.69072185109E+01 -0.93064746039E+00 -0.13134189372E+02  0.14868850089E+02  0.51100000000E-03 0. -1.
        -11    1    3    3    0    0  0.78010940859E+01 -0.62515773155E+01  0.19862998979E-02  0.99969641429E+01  0.51100000000E-03 0.  1.
         12    1    3    3    0    0  0.18069571465E+02 -0.11182662146E+02 -0.85925430732E+01  0.22921455932E+02  0.00000000000E+00 0. -1.
</event>
<event>
 7    1  0.3062695E-010  0.4778727E+02  0.7816164E-02  0.1312668E+00
        -11   -1    0    0    0    0  0.00000000000E+00  0.00000000000E+00  0.45593999997E+02  0.45594000000E+02  0.51100000000E-03 0. -1.
         11   -1    0    0    0    0 -0.00000000000E+00 -0.00000000000E+00 -0.45593999997E+02  0.45594000000E+02  0.51100000000E-03 0.  1.
    9900012    2    1    2    0    0 -0.35864186028E+02 -0.12820647303E+01  0.24407782873E+02  0.47787269658E+02  0.19999993678E+02 0.  0.
        -12    1    1    2    0    0  0.35864186028E+02  0.12820647303E+01 -0.24407782873E+02  0.43400730342E+02  0.00000000000E+00 0.  1.
         11    1    3    3    0    0 -0.11093619842E+02 -0.13855269508E+01  0.11982231297E+02  0.16387859935E+02  0.51100000000E-03 0. -1.
        -11    1    3    3    0    0 -0.78863586396E+01  0.44271749924E+01 -0.14012048786E+01  0.91519345702E+01  0.51100000000E-03 0.  1.
        -12    1    3    3    0    0 -0.16884207546E+02 -0.43237127720E+01  0.13826756455E+02  0.22247475153E+02  0.00000000000E+00 0.  1.
</event>
<event>
 7    1  0.3454076E-010  0.4778727E+02  0.7816164E-02  0.1312668E+00
        -11   -1    0    0    0    0  0.00000000000E+00  0.00000000000E+00  0.45593999997E+02  0.45594000000E+02  0.51100000000E-03 0.  1.
         11   -1    0    0    0    0 -0.00000000000E+00 -0.00000000000E+00 -0.45593999997E+02  0.45594000000E+02  0.51100000000E-03 0. -1.
    9900012    2    1    2    0    0  0.16144111405E+02 -0.16995927330E+02 -0.36525734115E+02  0.47787272685E+02  0.20000007478E+02 0.  0.
        -12    1    1    2    0    0 -0.16144111405E+02  0.16995927330E+02  0.36525734115E+02  0.43400727315E+02  0.00000000000E+00 0.  1.
         11    1    3    3    0    0  0.11912443346E+01 -0.63405303966E+01 -0.31379543476E+01  0.71741303670E+01  0.51100000000E-03 0. -1.
        -11    1    3    3    0    0  0.12322134108E+01  0.18385125902E+01 -0.12409166888E+02  0.12604995104E+02  0.51100000000E-03 0.  1.
        -12    1    3    3    0    0  0.13720653659E+02 -0.12493909524E+02 -0.20978612879E+02  0.28008147214E+02  0.00000000000E+00 0.  1.
</event>
<event>
 7    1  0.3062695E-010  0.4778727E+02  0.7816164E-02  0.1312668E+00
        -11   -1    0    0    0    0  0.00000000000E+00  0.00000000000E+00  0.45593999997E+02  0.45594000000E+02  0.51100000000E-03 0.  1.
         11   -1    0    0    0    0 -0.00000000000E+00 -0.00000000000E+00 -0.45593999997E+02  0.45594000000E+02  0.51100000000E-03 0. -1.
    9900012    2    1    2    0    0 -0.39488738474E+01 -0.23950149971E+02 -0.35978051487E+02  0.47787268704E+02  0.19999989328E+02 0.  0.
        -12    1    1    2    0    0  0.39488738474E+01  0.23950149971E+02  0.35978051487E+02  0.43400731296E+02  0.00000000000E+00 0.  1.
         11    1    3    3    0    0 -0.61216781838E+01 -0.21046128014E+02 -0.25596851062E+02  0.33698861001E+02  0.51100000000E-03 0. -1.
        -11    1    3    3    0    0  0.10421559675E+01  0.31574965605E+01 -0.42092893404E+01  0.53641393161E+01  0.51100000000E-03 0.  1.
        -12    1    3    3    0    0  0.11306483689E+01 -0.60615185167E+01 -0.61719110837E+01  0.87242683870E+01  0.00000000000E+00 0.  1.
</event>
<event>
 7    1  0.3062695E-010  0.4778727E+02  0.7816164E-02  0.1312668E+00
        -11   -1    0    0    0    0  0.00000000000E+00  0.00000000000E+00  0.45593999997E+02  0.45594000000E+02  0.51100000000E-03 0. -1.
         11   -1    0    0    0    0 -0.00000000000E+00 -0.00000000000E+00 -0.45593999997E+02  0.45594000000E+02  0.51100000000E-03 0.  1.
    9900012    2    1    2    0    0 -0.41436399408E+02 -0.11024097320E+02  0.67169392343E+01  0.47787272007E+02  0.20000004388E+02 0.  0.
        -12    1    1    2    0    0  0.41436399408E+02  0.11024097320E+02 -0.67169392343E+01  0.43400727993E+02  0.00000000000E+00 0.  1.
         11    1    3    3    0    0  0.10539123900E+01 -0.18191583516E+01  0.22381077188E+01  0.30706994083E+01  0.51100000000E-03 0. -1.
        -11    1    3    3    0    0 -0.37218473855E+02 -0.59630994457E+01  0.64081253842E+01  0.38233982559E+02  0.51100000000E-03 0.  1.
        -12    1    3    3    0    0 -0.52718379432E+01 -0.32418395232E+01 -0.19292938688E+01  0.64825900399E+01  0.00000000000E+00 0.  1.
</event>
<event>
 7    1  0.3062695E-010  0.4778727E+02  0.7816164E-02  0.1312668E+00
        -11   -1    0    0    0    0  0.00000000000E+00  0.00000000000E+00  0.45593999997E+02  0.45594000000E+02  0.51100000000E-03 0.  1.
         11   -1    0    0    0    0 -0.00000000000E+00 -0.00000000000E+00 -0.45593999997E+02  0.45594000000E+02  0.51100000000E-03 0. -1.
    9900012    2    1    2    0    0  0.11891930423E+02  0.13330532622E+02 -0.39553784551E+02  0.47787274413E+02  0.20000015358E+02 0.  0.
        -12    1    1    2    0    0 -0.11891930423E+02 -0.13330532622E+02  0.39553784551E+02  0.43400725587E+02  0.00000000000E+00 0.  1.
         11    1    3    3    0    0  0.40041295495E+01  0.14017127800E+02 -0.24803917468E+02  0.28770596922E+02  0.51100000000E-03 0. -1.
        -11    1    3    3    0    0  0.15049115565E+00 -0.35900163249E+01 -0.31786369758E+01  0.47973532376E+01  0.51100000000E-03 0.  1.
         12    1    3    3    0    0  0.77373097181E+01  0.29034211473E+01 -0.11571230107E+02  0.14219324253E+02  0.00000000000E+00 0. -1.
</event>
<event>
 7    1  0.5996973E-010  0.4778727E+02  0.7816164E-02  0.1312668E+00
        -11   -1    0    0    0    0  0.00000000000E+00  0.00000000000E+00  0.45593999997E+02  0.45594000000E+02  0.51100000000E-03 0.  1.
         11   -1    0    0    0    0 -0.00000000000E+00 -0.00000000000E+00 -0.45593999997E+02  0.45594000000E+02  0.51100000000E-03 0. -1.
    9900012    2    1    2    0    0 -0.39265012899E+02  0.69377209477E+01 -0.17139132983E+02  0.47787273170E+02  0.20000009693E+02 0.  0.
        -12    1    1    2    0    0  0.39265012899E+02 -0.69377209477E+01  0.17139132983E+02  0.43400726830E+02  0.00000000000E+00 0.  1.
         11    1    3    3    0    0 -0.19806108147E+02  0.25213027510E+01 -0.11239063497E+02  0.22911905989E+02  0.51100000000E-03 0. -1.
        -11    1    3    3    0    0 -0.11887179777E+02  0.28344025111E+01  0.34905107646E+01  0.12709152069E+02  0.51100000000E-03 0.  1.
        -12    1    3    3    0    0 -0.75717249749E+01  0.15820156856E+01 -0.93905802505E+01  0.12166215113E+02  0.00000000000E+00 0.  1.
</event>
<event>
 7    1  0.3062695E-010  0.4778727E+02  0.7816164E-02  0.1312668E+00
        -11   -1    0    0    0    0  0.00000000000E+00  0.00000000000E+00  0.45593999997E+02  0.45594000000E+02  0.51100000000E-03 0.  1.
         11   -1    0    0    0    0 -0.00000000000E+00 -0.00000000000E+00 -0.45593999997E+02  0.45594000000E+02  0.51100000000E-03 0. -1.
    9900012    2    1    2    0    0  0.35131764652E+02  0.27296813203E+01 -0.25336360890E+02  0.47787271540E+02  0.20000002260E+02 0.  0.
        -12    1    1    2    0    0 -0.35131764652E+02 -0.27296813203E+01  0.25336360890E+02  0.43400728460E+02  0.00000000000E+00 0.  1.
         11    1    3    3    0    0  0.80738463288E+01 -0.24378079444E+01  0.10212616630E+01  0.84954621863E+01  0.51100000000E-03 0. -1.
        -11    1    3    3    0    0  0.68721890278E+01  0.53364563813E+01 -0.56579526344E+01  0.10378688598E+02  0.51100000000E-03 0.  1.
         12    1    3    3    0    0  0.20185729296E+02 -0.16896711670E+00 -0.20699669918E+02  0.28913120756E+02  0.00000000000E+00 0. -1.
</event>
<event>
 7    1  0.3062695E-010  0.4778728E+02  0.7816164E-02  0.1312668E+00
        -11   -1    0    0    0    0  0.00000000000E+00  0.00000000000E+00  0.45593999997E+02  0.45594000000E+02  0.51100000000E-03 0.  1.
         11   -1    0    0    0    0 -0.00000000000E+00 -0.00000000000E+00 -0.45593999997E+02  0.45594000000E+02  0.51100000000E-03 0. -1.
    9900012    2    1    2    0    0 -0.37734999832E+02 -0.48991299601E+01  0.20873198771E+02  0.47787284412E+02  0.20000060947E+02 0.  0.
        -12    1    1    2    0    0  0.37734999832E+02  0.48991299601E+01 -0.20873198771E+02  0.43400715588E+02  0.00000000000E+00 0.  1.
         11    1    3    3    0    0 -0.21489718096E+02  0.63920300246E+01  0.13971005726E+02  0.26416945943E+02  0.51100000000E-03 0. -1.
        -11    1    3    3    0    0 -0.89671310254E+01 -0.45826393805E+01  0.17838247082E+01  0.10227025636E+02  0.51100000000E-03 0.  1.
         12    1    3    3    0    0 -0.72781507099E+01 -0.67085206042E+01  0.51183683362E+01  0.11143312832E+02  0.00000000000E+00 0. -1.
</event>
<event>
 7    1  0.3062695E-010  0.4778727E+02  0.7816164E-02  0.1312668E+00
        -11   -1    0    0    0    0  0.00000000000E+00  0.00000000000E+00  0.45593999997E+02  0.45594000000E+02  0.51100000000E-03 0.  1.
         11   -1    0    0    0    0 -0.00000000000E+00 -0.00000000000E+00 -0.45593999997E+02  0.45594000000E+02  0.51100000000E-03 0. -1.
    9900012    2    1    2    0    0 -0.11385431472E+01  0.15506973833E+02 -0.40519878630E+02  0.47787273254E+02  0.20000010072E+02 0.  0.
        -12    1    1    2    0    0  0.11385431472E+01 -0.15506973833E+02  0.40519878630E+02  0.43400726746E+02  0.00000000000E+00 0.  1.
         11    1    3    3    0    0 -0.24199710362E+01  0.11963365302E+02 -0.18491839792E+02  0.22156861428E+02  0.51100000000E-03 0. -1.
        -11    1    3    3    0    0 -0.53304621096E+01  0.33495469759E+01 -0.85612343493E+01  0.10626759859E+02  0.51100000000E-03 0.  1.
        -12    1    3    3    0    0  0.66118899986E+01  0.19406155563E+00 -0.13466804488E+02  0.15003651967E+02  0.00000000000E+00 0.  1.
</event>
<event>
 7    1  0.3062695E-010  0.4778727E+02  0.7816164E-02  0.1312668E+00
        -11   -1    0    0    0    0  0.00000000000E+00  0.00000000000E+00  0.45593999997E+02  0.45594000000E+02  0.51100000000E-03 0.  1.
         11   -1    0    0    0    0 -0.00000000000E+00 -0.00000000000E+00 -0.45593999997E+02  0.45594000000E+02  0.51100000000E-03 0. -1.
    9900012    2    1    2    0    0  0.37414753741E+02 -0.19679361795E+02 -0.98225453459E+01  0.47787268724E+02  0.19999989422E+02 0.  0.
        -12    1    1    2    0    0 -0.37414753741E+02  0.19679361795E+02  0.98225453459E+01  0.43400731276E+02  0.00000000000E+00 0.  1.
         11    1    3    3    0    0  0.20925930424E+02 -0.88342901539E+01  0.29024009690E+01  0.22898977669E+02  0.51100000000E-03 0.  1.
        -11    1    3    3    0    0  0.27321974350E+01  0.85139769090E+00 -0.37690571460E+01  0.47323961037E+01  0.51100000000E-03 0. -1.
         12    1    3    3    0    0  0.13756625882E+02 -0.11696469332E+02 -0.89558891689E+01  0.20155894952E+02  0.00000000000E+00 0. -1.
</event>
<event>
 7    1  0.3125394E-010  0.4778727E+02  0.7816164E-02  0.1312668E+00
        -11   -1    0    0    0    0  0.00000000000E+00  0.00000000000E+00  0.45593999997E+02  0.45594000000E+02  0.51100000000E-03 0.  1.
         11   -1    0    0    0    0 -0.00000000000E+00 -0.00000000000E+00 -0.45593999997E+02  0.45594000000E+02  0.51100000000E-03 0. -1.
    9900012    2    1    2    0    0 -0.39846734824E+02 -0.10481062632E+02 -0.13638490155E+02  0.47787270009E+02  0.19999995278E+02 0.  0.
        -12    1    1    2    0    0  0.39846734824E+02  0.10481062632E+02  0.13638490155E+02  0.43400729991E+02  0.00000000000E+00 0.  1.
         11    1    3    3    0    0 -0.13367203794E+02 -0.20581999471E-02 -0.48350558228E+01  0.14214777753E+02  0.51100000000E-03 0. -1.
        -11    1    3    3    0    0 -0.26693551701E+02 -0.13015474497E+02 -0.89667342515E+01  0.31021776258E+02  0.51100000000E-03 0.  1.
        -12    1    3    3    0    0  0.21402067031E+00  0.25364700650E+01  0.16329991930E+00  0.25507159978E+01  0.00000000000E+00 0.  1.
</event>
<event>
 7    1  0.3062695E-010  0.4778727E+02  0.7816164E-02  0.1312668E+00
        -11   -1    0    0    0    0  0.00000000000E+00  0.00000000000E+00  0.45593999997E+02  0.45594000000E+02  0.51100000000E-03 0.  1.
         11   -1    0    0    0    0 -0.00000000000E+00 -0.00000000000E+00 -0.45593999997E+02  0.45594000000E+02  0.51100000000E-03 0. -1.
    9900012    2    1    2    0    0 -0.13151652460E+02  0.20555057694E+02 -0.35890760329E+02  0.47787273782E+02  0.20000012481E+02 0.  0.
        -12    1    1    2    0    0  0.13151652460E+02 -0.20555057694E+02  0.35890760329E+02  0.43400726218E+02  0.00000000000E+00 0.  1.
         11    1    3    3    0    0 -0.13711172506E+02  0.16751900933E+02 -0.15163723105E+02  0.26430303347E+02  0.51100000000E-03 0. -1.
        -11    1    3    3    0    0 -0.37278098587E+00  0.38348543014E+01 -0.19070636555E+02  0.19455956725E+02  0.51100000000E-03 0.  1.
         12    1    3    3    0    0  0.93230103259E+00 -0.31697539739E-01 -0.16564006692E+01  0.19010137102E+01  0.00000000000E+00 0. -1.
</event>
<event>
 7    1  0.3062695E-010  0.4778728E+02  0.7816164E-02  0.1312668E+00
        -11   -1    0    0    0    0  0.00000000000E+00  0.00000000000E+00  0.45593999997E+02  0.45594000000E+02  0.51100000000E-03 0.  1.
         11   -1    0    0    0    0 -0.00000000000E+00 -0.00000000000E+00 -0.45593999997E+02  0.45594000000E+02  0.51100000000E-03 0. -1.
    9900012    2    1    2    0    0  0.66014557930E+00  0.27422171718E+02 -0.33633484351E+02  0.47787279229E+02  0.20000037315E+02 0.  0.
        -12    1    1    2    0    0 -0.66014557930E+00 -0.27422171718E+02  0.33633484351E+02  0.43400720771E+02  0.00000000000E+00 0.  1.
         11    1    3    3    0    0  0.31919761358E+00  0.25091617473E+02 -0.17481777891E+02  0.30582735538E+02  0.51100000000E-03 0. -1.
        -11    1    3    3    0    0  0.59153440487E+00 -0.15700117686E+01 -0.78696546527E+01  0.80465094619E+01  0.51100000000E-03 0.  1.
         12    1    3    3    0    0 -0.25058643914E+00  0.39005660136E+01 -0.82820518075E+01  0.91580342286E+01  0.00000000000E+00 0. -1.
</event>
<event>
 7    1  0.3062695E-010  0.4778727E+02  0.7816164E-02  0.1312668E+00
        -11   -1    0    0    0    0  0.00000000000E+00  0.00000000000E+00  0.45593999997E+02  0.45594000000E+02  0.51100000000E-03 0. -1.
         11   -1    0    0    0    0 -0.00000000000E+00 -0.00000000000E+00 -0.45593999997E+02  0.45594000000E+02  0.51100000000E-03 0.  1.
    9900012    2    1    2    0    0 -0.23404101126E+01  0.23869639261E+02  0.36171616900E+02  0.47787273427E+02  0.20000010861E+02 0.  0.
        -12    1    1    2    0    0  0.23404101126E+01 -0.23869639261E+02 -0.36171616900E+02  0.43400726573E+02  0.00000000000E+00 0.  1.
         11    1    3    3    0    0 -0.26298671138E+01 -0.10743020353E+01  0.82394619326E+01  0.87154494491E+01  0.51100000000E-03 0.  1.
        -11    1    3    3    0    0 -0.36614441434E+01  0.22802151920E+01  0.45566219580E+01  0.62744209666E+01  0.51100000000E-03 0. -1.
         12    1    3    3    0    0  0.39509011446E+01  0.22663726104E+02  0.23375533009E+02  0.32797403011E+02  0.00000000000E+00 0. -1.
</event>
<event>
 7    1  0.3062695E-010  0.4778727E+02  0.7816164E-02  0.1312668E+00
        -11   -1    0    0    0    0  0.00000000000E+00  0.00000000000E+00  0.45593999997E+02  0.45594000000E+02  0.51100000000E-03 0.  1.
         11   -1    0    0    0    0 -0.00000000000E+00 -0.00000000000E+00 -0.45593999997E+02  0.45594000000E+02  0.51100000000E-03 0. -1.
    9900012    2    1    2    0    0  0.25208260749E+02 -0.23285727532E+02 -0.26569563680E+02  0.47787271540E+02  0.20000002261E+02 0.  0.
        -12    1    1    2    0    0 -0.25208260749E+02  0.23285727532E+02  0.26569563680E+02  0.43400728460E+02  0.00000000000E+00 0.  1.
         11    1    3    3    0    0  0.21001384730E+02 -0.16583717134E+02 -0.21526053490E+02  0.34343104311E+02  0.51100000000E-03 0. -1.
        -11    1    3    3    0    0 -0.90147687991E+00  0.20955851779E+01 -0.74083501556E+00  0.23985359252E+01  0.51100000000E-03 0.  1.
        -12    1    3    3    0    0  0.51083528987E+01 -0.87975955762E+01 -0.43026751743E+01  0.11045631305E+02  0.00000000000E+00 0.  1.
</event>
<event>
 7    1  0.3062695E-010  0.4778727E+02  0.7816164E-02  0.1312668E+00
        -11   -1    0    0    0    0  0.00000000000E+00  0.00000000000E+00  0.45593999997E+02  0.45594000000E+02  0.51100000000E-03 0.  1.
         11   -1    0    0    0    0 -0.00000000000E+00 -0.00000000000E+00 -0.45593999997E+02  0.45594000000E+02  0.51100000000E-03 0. -1.
    9900012    2    1    2    0    0 -0.90361026129E-02  0.41979610419E+02 -0.11015247090E+02  0.47787269119E+02  0.19999991220E+02 0.  0.
        -12    1    1    2    0    0  0.90361026129E-02 -0.41979610419E+02  0.11015247090E+02  0.43400730881E+02  0.00000000000E+00 0.  1.
         11    1    3    3    0    0  0.67422593369E+00  0.92977597357E+01 -0.10990809076E+02  0.14411828514E+02  0.51100000000E-03 0. -1.
        -11    1    3    3    0    0  0.29681535861E+01  0.15845759483E+02  0.65365353211E+00  0.16134599236E+02  0.51100000000E-03 0.  1.
         12    1    3    3    0    0 -0.36514156224E+01  0.16836091200E+02 -0.67809154548E+00  0.17240841368E+02  0.00000000000E+00 0. -1.
</event>
<event>
 7    1  0.3062695E-010  0.4778727E+02  0.7816164E-02  0.1312668E+00
        -11   -1    0    0    0    0  0.00000000000E+00  0.00000000000E+00  0.45593999997E+02  0.45594000000E+02  0.51100000000E-03 0.  1.
         11   -1    0    0    0    0 -0.00000000000E+00 -0.00000000000E+00 -0.45593999997E+02  0.45594000000E+02  0.51100000000E-03 0. -1.
    9900012    2    1    2    0    0  0.17787578617E+02  0.11513684670E+02 -0.37876910043E+02  0.47787271871E+02  0.20000003768E+02 0.  0.
        -12    1    1    2    0    0 -0.17787578617E+02 -0.11513684670E+02  0.37876910043E+02  0.43400728129E+02  0.00000000000E+00 0.  1.
         11    1    3    3    0    0  0.86060002372E+01  0.12733195146E+02 -0.28909278660E+02  0.32740554235E+02  0.51100000000E-03 0. -1.
        -11    1    3    3    0    0  0.90133698360E+01 -0.35095356873E+01 -0.63798147358E+01  0.11587049360E+02  0.51100000000E-03 0.  1.
        -12    1    3    3    0    0  0.16820854395E+00  0.22900252113E+01 -0.25878166469E+01  0.34596682761E+01  0.00000000000E+00 0.  1.
</event>
<event>
 7    1  0.3062695E-010  0.4778727E+02  0.7816164E-02  0.1312668E+00
        -11   -1    0    0    0    0  0.00000000000E+00  0.00000000000E+00  0.45593999997E+02  0.45594000000E+02  0.51100000000E-03 0.  1.
         11   -1    0    0    0    0 -0.00000000000E+00 -0.00000000000E+00 -0.45593999997E+02  0.45594000000E+02  0.51100000000E-03 0. -1.
    9900012    2    1    2    0    0 -0.83202951491E+01 -0.29429881787E+02 -0.30794121224E+02  0.47787272410E+02  0.20000006226E+02 0.  0.
        -12    1    1    2    0    0  0.83202951491E+01  0.29429881787E+02  0.30794121224E+02  0.43400727590E+02  0.00000000000E+00 0.  1.
         11    1    3    3    0    0 -0.20157784002E+01 -0.11824129100E+02 -0.65923848724E+01  0.13686962048E+02  0.51100000000E-03 0. -1.
        -11    1    3    3    0    0 -0.82672016905E+01 -0.18834362114E+02 -0.17487475145E+02  0.26997992652E+02  0.51100000000E-03 0.  1.
        -12    1    3    3    0    0  0.19626849416E+01  0.12286094267E+01 -0.67142612073E+01  0.71023177107E+01  0.00000000000E+00 0.  1.
</event>
<event>
 7    1  0.3062695E-010  0.4778727E+02  0.7816164E-02  0.1312668E+00
        -11   -1    0    0    0    0  0.00000000000E+00  0.00000000000E+00  0.45593999997E+02  0.45594000000E+02  0.51100000000E-03 0.  1.
         11   -1    0    0    0    0 -0.00000000000E+00 -0.00000000000E+00 -0.45593999997E+02  0.45594000000E+02  0.51100000000E-03 0. -1.
    9900012    2    1    2    0    0  0.19096226453E+02 -0.57675782208E+01 -0.38544687479E+02  0.47787265488E+02  0.19999974667E+02 0.  0.
        -12    1    1    2    0    0 -0.19096226453E+02  0.57675782208E+01  0.38544687479E+02  0.43400734512E+02  0.00000000000E+00 0.  1.
         11    1    3    3    0    0  0.15966842254E+02 -0.14561403993E+01 -0.33255927242E+02  0.36919061383E+02  0.51100000000E-03 0. -1.
        -11    1    3    3    0    0 -0.12917058191E+01  0.86954396794E+00  0.78380092267E+00  0.17432598150E+01  0.51100000000E-03 0.  1.
         12    1    3    3    0    0  0.44210900187E+01 -0.51809817895E+01 -0.60725611599E+01  0.91249442901E+01  0.00000000000E+00 0. -1.
</event>
<event>
 7    1  0.3062695E-010  0.4778727E+02  0.7816164E-02  0.1312668E+00
        -11   -1    0    0    0    0  0.00000000000E+00  0.00000000000E+00  0.45593999997E+02  0.45594000000E+02  0.51100000000E-03 0. -1.
         11   -1    0    0    0    0 -0.00000000000E+00 -0.00000000000E+00 -0.45593999997E+02  0.45594000000E+02  0.51100000000E-03 0.  1.
    9900012    2    1    2    0    0  0.34916912465E+02  0.15586947072E+02 -0.20529973169E+02  0.47787268515E+02  0.19999988468E+02 0.  0.
        -12    1    1    2    0    0 -0.34916912465E+02 -0.15586947072E+02  0.20529973169E+02  0.43400731485E+02  0.00000000000E+00 0.  1.
         11    1    3    3    0    0  0.34449711024E+01  0.32810295689E+00 -0.99010889863E+01  0.10488424134E+02  0.51100000000E-03 0. -1.
        -11    1    3    3    0    0  0.11451754548E+02  0.64697374910E+01 -0.39767959725E+00  0.13158964046E+02  0.51100000000E-03 0.  1.
         12    1    3    3    0    0  0.20020186814E+02  0.87891066244E+01 -0.10231204585E+02  0.24139880335E+02  0.00000000000E+00 0. -1.
</event>
<event>
 7    1  0.3062695E-010  0.4778725E+02  0.7816164E-02  0.1312668E+00
        -11   -1    0    0    0    0  0.00000000000E+00  0.00000000000E+00  0.45593999997E+02  0.45594000000E+02  0.51100000000E-03 0.  1.
         11   -1    0    0    0    0 -0.00000000000E+00 -0.00000000000E+00 -0.45593999997E+02  0.45594000000E+02  0.51100000000E-03 0. -1.
    9900012    2    1    2    0    0  0.36901790377E+02  0.18165111636E+02 -0.13853204580E+02  0.47787254719E+02  0.19999925568E+02 0.  0.
        -12    1    1    2    0    0 -0.36901790377E+02 -0.18165111636E+02  0.13853204580E+02  0.43400745281E+02  0.00000000000E+00 0.  1.
         11    1    3    3    0    0  0.19017433940E+02  0.19761583603E+02 -0.69573935670E+01  0.28294669209E+02  0.51100000000E-03 0. -1.
        -11    1    3    3    0    0  0.10544063611E+02 -0.10005892744E+00 -0.26130109716E+01  0.10863476231E+02  0.51100000000E-03 0.  1.
         12    1    3    3    0    0  0.73402928266E+01 -0.14964130396E+01 -0.42828000414E+01  0.86291092797E+01  0.00000000000E+00 0. -1.
</event>
<event>
 7    1  0.3062695E-010  0.4778727E+02  0.7816164E-02  0.1312668E+00
        -11   -1    0    0    0    0  0.00000000000E+00  0.00000000000E+00  0.45593999997E+02  0.45594000000E+02  0.51100000000E-03 0.  1.
         11   -1    0    0    0    0 -0.00000000000E+00 -0.00000000000E+00 -0.45593999997E+02  0.45594000000E+02  0.51100000000E-03 0. -1.
    9900012    2    1    2    0    0  0.11693944043E+02  0.11744329342E+02 -0.40111668640E+02  0.47787267747E+02  0.19999984968E+02 0.  0.
        -12    1    1    2    0    0 -0.11693944043E+02 -0.11744329342E+02  0.40111668640E+02  0.43400732253E+02  0.00000000000E+00 0.  1.
         11    1    3    3    0    0  0.75318913678E+01  0.13265241864E+02 -0.15427600785E+02  0.21695780593E+02  0.51100000000E-03 0. -1.
        -11    1    3    3    0    0 -0.70832395050E+00 -0.31896588650E+01 -0.10810539120E+02  0.11293511536E+02  0.51100000000E-03 0.  1.
         12    1    3    3    0    0  0.48703766253E+01  0.16687463421E+01 -0.13873528736E+02  0.14797975619E+02  0.00000000000E+00 0. -1.
</event>
<event>
 7    1  0.3062695E-010  0.4778727E+02  0.7816164E-02  0.1312668E+00
        -11   -1    0    0    0    0  0.00000000000E+00  0.00000000000E+00  0.45593999997E+02  0.45594000000E+02  0.51100000000E-03 0.  1.
         11   -1    0    0    0    0 -0.00000000000E+00 -0.00000000000E+00 -0.45593999997E+02  0.45594000000E+02  0.51100000000E-03 0. -1.
    9900012    2    1    2    0    0 -0.42883368348E+01  0.11581876472E+02 -0.41606415329E+02  0.47787268532E+02  0.19999988543E+02 0.  0.
        -12    1    1    2    0    0  0.42883368348E+01 -0.11581876472E+02  0.41606415329E+02  0.43400731468E+02  0.00000000000E+00 0.  1.
         11    1    3    3    0    0 -0.81061764354E+01  0.25060172953E+01 -0.88875365496E+01  0.12287331902E+02  0.51100000000E-03 0. -1.
        -11    1    3    3    0    0  0.53397427509E+01  0.91625599494E+00 -0.14510471395E+02  0.15488904353E+02  0.51100000000E-03 0.  1.
        -12    1    3    3    0    0 -0.15219031504E+01  0.81596031819E+01 -0.18208407385E+02  0.20011032277E+02  0.00000000000E+00 0.  1.
</event>
<event>
 7    1  0.3062695E-010  0.4778727E+02  0.7816164E-02  0.1312668E+00
        -11   -1    0    0    0    0  0.00000000000E+00  0.00000000000E+00  0.45593999997E+02  0.45594000000E+02  0.51100000000E-03 0. -1.
         11   -1    0    0    0    0 -0.00000000000E+00 -0.00000000000E+00 -0.45593999997E+02  0.45594000000E+02  0.51100000000E-03 0.  1.
    9900012    2    1    2    0    0 -0.68177018581E+01  0.21862327879E+00  0.42861340584E+02  0.47787269921E+02  0.19999994876E+02 0.  0.
        -12    1    1    2    0    0  0.68177018581E+01 -0.21862327879E+00 -0.42861340584E+02  0.43400730079E+02  0.00000000000E+00 0.  1.
         11    1    3    3    0    0 -0.52585391237E+01 -0.14121731575E+01  0.15279607418E+02  0.16220754293E+02  0.51100000000E-03 0. -1.
        -11    1    3    3    0    0  0.60804816868E+01  0.15866093496E+01  0.60640084497E+01  0.87327994086E+01  0.51100000000E-03 0.  1.
        -12    1    3    3    0    0 -0.76396444212E+01  0.44187086642E-01  0.21517724716E+02  0.22833716219E+02  0.00000000000E+00 0.  1.
</event>
<event>
 7    1  0.3062695E-010  0.4778727E+02  0.7816164E-02  0.1312668E+00
        -11   -1    0    0    0    0  0.00000000000E+00  0.00000000000E+00  0.45593999997E+02  0.45594000000E+02  0.51100000000E-03 0. -1.
         11   -1    0    0    0    0 -0.00000000000E+00 -0.00000000000E+00 -0.45593999997E+02  0.45594000000E+02  0.51100000000E-03 0.  1.
    9900012    2    1    2    0    0  0.22294715320E+02 -0.24508563031E+02  0.28033896769E+02  0.47787270039E+02  0.19999995416E+02 0.  0.
        -12    1    1    2    0    0 -0.22294715320E+02  0.24508563031E+02 -0.28033896769E+02  0.43400729961E+02  0.00000000000E+00 0.  1.
         11    1    3    3    0    0  0.80330533373E+01 -0.63881177943E+01  0.28194570532E+01  0.10643652250E+02  0.51100000000E-03 0. -1.
        -11    1    3    3    0    0  0.68500036945E+01 -0.15778761172E+02  0.23602172671E+02  0.29205383233E+02  0.51100000000E-03 0.  1.
        -12    1    3    3    0    0  0.74116582884E+01 -0.23416840647E+01  0.16122670450E+01  0.79382345561E+01  0.00000000000E+00 0.  1.
</event>
<event>
 7    1  0.3062695E-010  0.4778726E+02  0.7816164E-02  0.1312668E+00
        -11   -1    0    0    0    0  0.00000000000E+00  0.00000000000E+00  0.45593999997E+02  0.45594000000E+02  0.51100000000E-03 0. -1.
         11   -1    0    0    0    0 -0.00000000000E+00 -0.00000000000E+00 -0.45593999997E+02  0.45594000000E+02  0.51100000000E-03 0.  1.
    9900012    2    1    2    0    0 -0.33098594570E+02  0.24785099039E+02  0.13183547278E+02  0.47787262498E+02  0.19999961033E+02 0.  0.
        -12    1    1    2    0    0  0.33098594570E+02 -0.24785099039E+02 -0.13183547278E+02  0.43400737502E+02  0.00000000000E+00 0.  1.
         11    1    3    3    0    0 -0.10103739906E+02  0.21967769333E+01 -0.32287364737E+01  0.10832180227E+02  0.51100000000E-03 0. -1.
        -11    1    3    3    0    0 -0.10730440151E+01  0.28972405547E+01  0.38128220643E+01  0.49074472636E+01  0.51100000000E-03 0.  1.
         12    1    3    3    0    0 -0.21921810649E+02  0.19691081551E+02  0.12599461687E+02  0.32047635008E+02  0.00000000000E+00 0. -1.
</event>
<event>
 7    1  0.3062695E-010  0.4778728E+02  0.7816164E-02  0.1312668E+00
        -11   -1    0    0    0    0  0.00000000000E+00  0.00000000000E+00  0.45593999997E+02  0.45594000000E+02  0.51100000000E-03 0.  1.
         11   -1    0    0    0    0 -0.00000000000E+00 -0.00000000000E+00 -0.45593999997E+02  0.45594000000E+02  0.51100000000E-03 0. -1.
    9900012    2    1    2    0    0 -0.39353451983E+02 -0.12010022857E+02 -0.13808983140E+02  0.47787275959E+02  0.20000022406E+02 0.  0.
        -12    1    1    2    0    0  0.39353451983E+02  0.12010022857E+02  0.13808983140E+02  0.43400724041E+02  0.00000000000E+00 0.  1.
         11    1    3    3    0    0 -0.35668718548E+02 -0.13205449917E+02 -0.70883810226E+01  0.38689617937E+02  0.51100000000E-03 0. -1.
        -11    1    3    3    0    0 -0.16676664140E+01 -0.12607211535E+01 -0.51383183263E+01  0.55473276971E+01  0.51100000000E-03 0.  1.
         12    1    3    3    0    0 -0.20170670210E+01  0.24561482142E+01 -0.15822837908E+01  0.35503303243E+01  0.00000000000E+00 0. -1.
</event>
<event>
 7    1  0.3062695E-010  0.4778725E+02  0.7816164E-02  0.1312668E+00
        -11   -1    0    0    0    0  0.00000000000E+00  0.00000000000E+00  0.45593999997E+02  0.45594000000E+02  0.51100000000E-03 0.  1.
         11   -1    0    0    0    0 -0.00000000000E+00 -0.00000000000E+00 -0.45593999997E+02  0.45594000000E+02  0.51100000000E-03 0. -1.
    9900012    2    1    2    0    0  0.26951129267E+02 -0.32269833557E+02 -0.10766595555E+02  0.47787249933E+02  0.19999903743E+02 0.  0.
        -12    1    1    2    0    0 -0.26951129267E+02  0.32269833557E+02  0.10766595555E+02  0.43400750067E+02  0.00000000000E+00 0.  1.
         11    1    3    3    0    0  0.28770398795E+02 -0.23621598479E+02 -0.68249343595E+01  0.37845679949E+02  0.51100000000E-03 0. -1.
        -11    1    3    3    0    0 -0.74246642767E+00 -0.69960807191E+01 -0.23833178927E+01  0.74280957360E+01  0.51100000000E-03 0.  1.
         12    1    3    3    0    0 -0.10768031007E+01 -0.16521543593E+01 -0.15583433026E+01  0.25134742476E+01  0.00000000000E+00 0. -1.
</event>
<event>
 7    1  0.3062695E-010  0.4778727E+02  0.7816164E-02  0.1312668E+00
        -11   -1    0    0    0    0  0.00000000000E+00  0.00000000000E+00  0.45593999997E+02  0.45594000000E+02  0.51100000000E-03 0.  1.
         11   -1    0    0    0    0 -0.00000000000E+00 -0.00000000000E+00 -0.45593999997E+02  0.45594000000E+02  0.51100000000E-03 0. -1.
    9900012    2    1    2    0    0  0.42384153678E+02 -0.21451386053E+01 -0.90887563270E+01  0.47787267354E+02  0.19999983173E+02 0.  0.
        -12    1    1    2    0    0 -0.42384153678E+02  0.21451386053E+01  0.90887563270E+01  0.43400732646E+02  0.00000000000E+00 0.  1.
         11    1    3    3    0    0  0.24522745861E+02  0.42375918624E+01 -0.93354834421E+01  0.26579569235E+02  0.51100000000E-03 0. -1.
        -11    1    3    3    0    0 -0.14642506435E+00 -0.25259921597E+01 -0.10641459483E+01  0.27449013736E+01  0.51100000000E-03 0.  1.
         12    1    3    3    0    0  0.18007832882E+02 -0.38567383080E+01  0.13108730635E+01  0.18462796745E+02  0.00000000000E+00 0. -1.
</event>
<event>
 7    1  0.3062695E-010  0.4778727E+02  0.7816164E-02  0.1312668E+00
        -11   -1    0    0    0    0  0.00000000000E+00  0.00000000000E+00  0.45593999997E+02  0.45594000000E+02  0.51100000000E-03 0.  1.
         11   -1    0    0    0    0 -0.00000000000E+00 -0.00000000000E+00 -0.45593999997E+02  0.45594000000E+02  0.51100000000E-03 0. -1.
    9900012    2    1    2    0    0  0.20880052704E+02 -0.11306792990E+02 -0.36329091442E+02  0.47787273581E+02  0.20000011567E+02 0.  0.
        -12    1    1    2    0    0 -0.20880052704E+02  0.11306792990E+02  0.36329091442E+02  0.43400726419E+02  0.00000000000E+00 0.  1.
         11    1    3    3    0    0  0.10048500627E+01 -0.16105989909E+01 -0.15396542549E+02  0.15513132356E+02  0.51100000000E-03 0. -1.
        -11    1    3    3    0    0  0.82148146391E+01 -0.29650279896E+01 -0.18620549775E+01  0.89298275198E+01  0.51100000000E-03 0.  1.
         12    1    3    3    0    0  0.11660388002E+02 -0.67311660099E+01 -0.19070493916E+02  0.23344313706E+02  0.00000000000E+00 0. -1.
</event>
<event>
 7    1  0.3062695E-010  0.4778727E+02  0.7816164E-02  0.1312668E+00
        -11   -1    0    0    0    0  0.00000000000E+00  0.00000000000E+00  0.45593999997E+02  0.45594000000E+02  0.51100000000E-03 0. -1.
         11   -1    0    0    0    0 -0.00000000000E+00 -0.00000000000E+00 -0.45593999997E+02  0.45594000000E+02  0.51100000000E-03 0.  1.
    9900012    2    1    2    0    0  0.28440016506E+02  0.18646141701E+02  0.26964981798E+02  0.47787269792E+02  0.19999994292E+02 0.  0.
        -12    1    1    2    0    0 -0.28440016506E+02 -0.18646141701E+02 -0.26964981798E+02  0.43400730208E+02  0.00000000000E+00 0.  1.
         11    1    3    3    0    0  0.23456821754E+02  0.17891485981E+02  0.24901057106E+02  0.38605574761E+02  0.51100000000E-03 0. -1.
        -11    1    3    3    0    0  0.63309564426E+01 -0.12894537915E+01  0.11183462069E+01  0.65570114426E+01  0.51100000000E-03 0.  1.
         12    1    3    3    0    0 -0.13477616904E+01  0.20441095117E+01  0.94557848517E+00  0.26246835888E+01  0.00000000000E+00 0. -1.
</event>
<event>
 7    1  0.3062695E-010  0.4778727E+02  0.7816164E-02  0.1312668E+00
        -11   -1    0    0    0    0  0.00000000000E+00  0.00000000000E+00  0.45593999997E+02  0.45594000000E+02  0.51100000000E-03 0. -1.
         11   -1    0    0    0    0 -0.00000000000E+00 -0.00000000000E+00 -0.45593999997E+02  0.45594000000E+02  0.51100000000E-03 0.  1.
    9900012    2    1    2    0    0  0.33767532674E+02  0.74076798073E+01  0.26239342520E+02  0.47787273290E+02  0.20000010240E+02 0.  0.
        -12    1    1    2    0    0 -0.33767532674E+02 -0.74076798073E+01 -0.26239342520E+02  0.43400726710E+02  0.00000000000E+00 0.  1.
         11    1    3    3    0    0  0.27912372665E+02  0.56686813027E+01  0.12943756307E+02  0.31285385136E+02  0.51100000000E-03 0. -1.
        -11    1    3    3    0    0  0.48663853951E+01  0.38460268947E+01  0.52495414429E+01  0.81259655002E+01  0.51100000000E-03 0.  1.
         12    1    3    3    0    0  0.98877461462E+00 -0.21070283902E+01  0.80460447698E+01  0.83759226545E+01  0.00000000000E+00 0. -1.
</event>
<event>
 7    1  0.3062695E-010  0.4778727E+02  0.7816164E-02  0.1312668E+00
        -11   -1    0    0    0    0  0.00000000000E+00  0.00000000000E+00  0.45593999997E+02  0.45594000000E+02  0.51100000000E-03 0.  1.
         11   -1    0    0    0    0 -0.00000000000E+00 -0.00000000000E+00 -0.45593999997E+02  0.45594000000E+02  0.51100000000E-03 0. -1.
    9900012    2    1    2    0    0  0.21843327667E+02  0.34175088465E+02 -0.15445236679E+02  0.47787274531E+02  0.20000015896E+02 0.  0.
        -12    1    1    2    0    0 -0.21843327667E+02 -0.34175088465E+02  0.15445236679E+02  0.43400725469E+02  0.00000000000E+00 0.  1.
         11    1    3    3    0    0  0.94731855645E+01  0.10937771526E+02 -0.11486667766E+02  0.18474837680E+02  0.51100000000E-03 0. -1.
        -11    1    3    3    0    0  0.10544523916E+02  0.22162132478E+02  0.31248891536E+00  0.24544749952E+02  0.51100000000E-03 0.  1.
        -12    1    3    3    0    0  0.18256181866E+01  0.10751844610E+01 -0.42710578288E+01  0.47676868988E+01  0.00000000000E+00 0.  1.
</event>
<event>
 7    1  0.3062695E-010  0.4778727E+02  0.7816164E-02  0.1312668E+00
        -11   -1    0    0    0    0  0.00000000000E+00  0.00000000000E+00  0.45593999997E+02  0.45594000000E+02  0.51100000000E-03 0.  1.
         11   -1    0    0    0    0 -0.00000000000E+00 -0.00000000000E+00 -0.45593999997E+02  0.45594000000E+02  0.51100000000E-03 0. -1.
    9900012    2    1    2    0    0  0.34439200343E+02  0.40490377206E+01 -0.26099232712E+02  0.47787272185E+02  0.20000005201E+02 0.  0.
        -12    1    1    2    0    0 -0.34439200343E+02 -0.40490377206E+01  0.26099232712E+02  0.43400727815E+02  0.00000000000E+00 0.  1.
         11    1    3    3    0    0  0.20750776315E+02 -0.46124031080E+01 -0.14185427576E+02  0.25555730001E+02  0.51100000000E-03 0. -1.
        -11    1    3    3    0    0  0.92880897204E+00  0.11693182560E+01 -0.61881249317E+01  0.63657585346E+01  0.51100000000E-03 0.  1.
         12    1    3    3    0    0  0.12759615055E+02  0.74921225726E+01 -0.57256802039E+01  0.15865783649E+02  0.00000000000E+00 0. -1.
</event>
<event>
 7    1  0.3062695E-010  0.4778727E+02  0.7816164E-02  0.1312668E+00
        -11   -1    0    0    0    0  0.00000000000E+00  0.00000000000E+00  0.45593999997E+02  0.45594000000E+02  0.51100000000E-03 0. -1.
         11   -1    0    0    0    0 -0.00000000000E+00 -0.00000000000E+00 -0.45593999997E+02  0.45594000000E+02  0.51100000000E-03 0.  1.
    9900012    2    1    2    0    0 -0.28246127686E+02 -0.60842894790E+01  0.32384575028E+02  0.47787274113E+02  0.20000013992E+02 0.  0.
        -12    1    1    2    0    0  0.28246127686E+02  0.60842894790E+01 -0.32384575028E+02  0.43400725887E+02  0.00000000000E+00 0.  1.
         11    1    3    3    0    0 -0.19881742164E+02  0.35728199785E+01  0.25214976372E+02  0.32308570810E+02  0.51100000000E-03 0. -1.
        -11    1    3    3    0    0 -0.76691325783E+01 -0.84059382962E+01  0.41054124314E+01  0.12096685688E+02  0.51100000000E-03 0.  1.
         12    1    3    3    0    0 -0.69525294385E+00 -0.12511711613E+01  0.30641862243E+01  0.33820176150E+01  0.00000000000E+00 0. -1.
</event>
<event>
 7    1  0.3062695E-010  0.4778728E+02  0.7816164E-02  0.1312668E+00
        -11   -1    0    0    0    0  0.00000000000E+00  0.00000000000E+00  0.45593999997E+02  0.45594000000E+02  0.51100000000E-03 0.  1.
         11   -1    0    0    0    0 -0.00000000000E+00 -0.00000000000E+00 -0.45593999997E+02  0.45594000000E+02  0.51100000000E-03 0. -1.
    9900012    2    1    2    0    0 -0.11725804798E+01  0.39217482521E+02 -0.18553619009E+02  0.47787278133E+02  0.20000032319E+02 0.  0.
        -12    1    1    2    0    0  0.11725804798E+01 -0.39217482521E+02  0.18553619009E+02  0.43400721867E+02  0.00000000000E+00 0.  1.
         11    1    3    3    0    0 -0.40044191033E+01  0.11204149179E+02 -0.10856175628E+02  0.16106671931E+02  0.51100000000E-03 0. -1.
        -11    1    3    3    0    0  0.53630320699E+01  0.26889012715E+02 -0.86515970507E+01  0.28751195619E+02  0.51100000000E-03 0.  1.
        -12    1    3    3    0    0 -0.25311934464E+01  0.11243206276E+01  0.95415366950E+00  0.29294105826E+01  0.00000000000E+00 0.  1.
</event>
<event>
 7    1  0.3062695E-010  0.4778727E+02  0.7816164E-02  0.1312668E+00
        -11   -1    0    0    0    0  0.00000000000E+00  0.00000000000E+00  0.45593999997E+02  0.45594000000E+02  0.51100000000E-03 0.  1.
         11   -1    0    0    0    0 -0.00000000000E+00 -0.00000000000E+00 -0.45593999997E+02  0.45594000000E+02  0.51100000000E-03 0. -1.
    9900012    2    1    2    0    0 -0.21461719154E+02  0.20073329102E+02 -0.31938682087E+02  0.47787270240E+02  0.19999996332E+02 0.  0.
        -12    1    1    2    0    0  0.21461719154E+02 -0.20073329102E+02  0.31938682087E+02  0.43400729760E+02  0.00000000000E+00 0.  1.
         11    1    3    3    0    0 -0.13424992029E+02  0.12308294677E+02 -0.78065377919E+01  0.19815815941E+02  0.51100000000E-03 0. -1.
        -11    1    3    3    0    0 -0.29812738119E+01  0.68180190851E+01 -0.75122852496E+01  0.10573921114E+02  0.51100000000E-03 0.  1.
         12    1    3    3    0    0 -0.50554533127E+01  0.94701533953E+00 -0.16619859045E+02  0.17397533185E+02  0.00000000000E+00 0. -1.
</event>
<event>
 7    1  0.3062695E-010  0.4778727E+02  0.7816164E-02  0.1312668E+00
        -11   -1    0    0    0    0  0.00000000000E+00  0.00000000000E+00  0.45593999997E+02  0.45594000000E+02  0.51100000000E-03 0. -1.
         11   -1    0    0    0    0 -0.00000000000E+00 -0.00000000000E+00 -0.45593999997E+02  0.45594000000E+02  0.51100000000E-03 0.  1.
    9900012    2    1    2    0    0  0.16290638507E+02  0.19532450394E+02  0.35167057490E+02  0.47787268970E+02  0.19999990544E+02 0.  0.
        -12    1    1    2    0    0 -0.16290638507E+02 -0.19532450394E+02 -0.35167057490E+02  0.43400731030E+02  0.00000000000E+00 0.  1.
         11    1    3    3    0    0  0.34994814910E+01  0.10294660238E+02  0.19478330722E+02  0.22307661645E+02  0.51100000000E-03 0. -1.
        -11    1    3    3    0    0  0.14779465541E+02  0.86970400700E+01  0.11040628512E+02  0.20395258906E+02  0.51100000000E-03 0.  1.
        -12    1    3    3    0    0 -0.19883085244E+01  0.54075008658E+00  0.46480982563E+01  0.50843484189E+01  0.00000000000E+00 0.  1.
</event>
<event>
 7    1  0.3062695E-010  0.4778728E+02  0.7816164E-02  0.1312668E+00
        -11   -1    0    0    0    0  0.00000000000E+00  0.00000000000E+00  0.45593999997E+02  0.45594000000E+02  0.51100000000E-03 0.  1.
         11   -1    0    0    0    0 -0.00000000000E+00 -0.00000000000E+00 -0.45593999997E+02  0.45594000000E+02  0.51100000000E-03 0. -1.
    9900012    2    1    2    0    0  0.77463209406E+01 -0.66371622152E+01 -0.42184896567E+02  0.47787275251E+02  0.20000019178E+02 0.  0.
        -12    1    1    2    0    0 -0.77463209406E+01  0.66371622152E+01  0.42184896567E+02  0.43400724749E+02  0.00000000000E+00 0.  1.
         11    1    3    3    0    0  0.43293678923E+01 -0.20866091149E+01 -0.37054779411E+02  0.37365144740E+02  0.51100000000E-03 0. -1.
        -11    1    3    3    0    0  0.32787950583E+01  0.85715721578E+00 -0.77273276180E+00  0.34759648602E+01  0.51100000000E-03 0.  1.
         12    1    3    3    0    0  0.13815798998E+00 -0.54077103161E+01 -0.43573843942E+01  0.69461656510E+01  0.00000000000E+00 0. -1.
</event>
<event>
 7    1  0.3062695E-010  0.4778727E+02  0.7816164E-02  0.1312668E+00
        -11   -1    0    0    0    0  0.00000000000E+00  0.00000000000E+00  0.45593999997E+02  0.45594000000E+02  0.51100000000E-03 0.  1.
         11   -1    0    0    0    0 -0.00000000000E+00 -0.00000000000E+00 -0.45593999997E+02  0.45594000000E+02  0.51100000000E-03 0. -1.
    9900012    2    1    2    0    0 -0.10634184653E+02 -0.77920599608E+01 -0.41349986677E+02  0.47787268671E+02  0.19999989180E+02 0.  0.
        -12    1    1    2    0    0  0.10634184653E+02  0.77920599608E+01  0.41349986677E+02  0.43400731329E+02  0.00000000000E+00 0.  1.
         11    1    3    3    0    0 -0.82322883447E+01 -0.99398960250E+01 -0.36282661132E+02  0.38509785814E+02  0.51100000000E-03 0. -1.
        -11    1    3    3    0    0 -0.42729683216E+01  0.25130350898E+01 -0.54131253496E+01  0.73399952283E+01  0.51100000000E-03 0.  1.
         12    1    3    3    0    0  0.18710720136E+01 -0.36519902558E+00  0.34579980421E+00  0.19374876291E+01  0.00000000000E+00 0. -1.
</event>
<event>
 7    1  0.3062695E-010  0.4778727E+02  0.7816164E-02  0.1312668E+00
        -11   -1    0    0    0    0  0.00000000000E+00  0.00000000000E+00  0.45593999997E+02  0.45594000000E+02  0.51100000000E-03 0.  1.
         11   -1    0    0    0    0 -0.00000000000E+00 -0.00000000000E+00 -0.45593999997E+02  0.45594000000E+02  0.51100000000E-03 0. -1.
    9900012    2    1    2    0    0  0.24695378996E+02  0.34051524452E+02 -0.10689027881E+02  0.47787269841E+02  0.19999994513E+02 0.  0.
        -12    1    1    2    0    0 -0.24695378996E+02 -0.34051524452E+02  0.10689027881E+02  0.43400730159E+02  0.00000000000E+00 0.  1.
         11    1    3    3    0    0  0.21768287790E+02  0.15101903271E+02 -0.68380902865E+01  0.27362114589E+02  0.51100000000E-03 0. -1.
        -11    1    3    3    0    0 -0.16164735713E+01  0.55549755888E+01 -0.21801590061E+01  0.61825426931E+01  0.51100000000E-03 0.  1.
         12    1    3    3    0    0  0.45435647771E+01  0.13394645592E+02 -0.16707785885E+01  0.14242612559E+02  0.00000000000E+00 0. -1.
</event>
<event>
 7    1  0.3062695E-010  0.4778727E+02  0.7816164E-02  0.1312668E+00
        -11   -1    0    0    0    0  0.00000000000E+00  0.00000000000E+00  0.45593999997E+02  0.45594000000E+02  0.51100000000E-03 0.  1.
         11   -1    0    0    0    0 -0.00000000000E+00 -0.00000000000E+00 -0.45593999997E+02  0.45594000000E+02  0.51100000000E-03 0. -1.
    9900012    2    1    2    0    0 -0.81135597950E+01  0.25371054262E+01 -0.42560032915E+02  0.47787272376E+02  0.20000006073E+02 0.  0.
        -12    1    1    2    0    0  0.81135597950E+01 -0.25371054262E+01  0.42560032915E+02  0.43400727624E+02  0.00000000000E+00 0.  1.
         11    1    3    3    0    0  0.13674915921E+01  0.53222297561E+00 -0.81117284723E+01  0.82433872662E+01  0.51100000000E-03 0. -1.
        -11    1    3    3    0    0 -0.93579500990E+01  0.79080512305E+01 -0.29112984296E+02  0.31585983588E+02  0.51100000000E-03 0.  1.
        -12    1    3    3    0    0 -0.12310128813E+00 -0.59031687799E+01 -0.53353201468E+01  0.79579015224E+01  0.00000000000E+00 0.  1.
</event>
<event>
 7    1  0.3062695E-010  0.4778729E+02  0.7816164E-02  0.1312668E+00
        -11   -1    0    0    0    0  0.00000000000E+00  0.00000000000E+00  0.45593999997E+02  0.45594000000E+02  0.51100000000E-03 0. -1.
         11   -1    0    0    0    0 -0.00000000000E+00 -0.00000000000E+00 -0.45593999997E+02  0.45594000000E+02  0.51100000000E-03 0.  1.
    9900012    2    1    2    0    0  0.23020279870E+02  0.24637758965E+02 -0.27325249640E+02  0.47787288946E+02  0.20000081621E+02 0.  0.
        -12    1    1    2    0    0 -0.23020279870E+02 -0.24637758965E+02  0.27325249640E+02  0.43400711054E+02  0.00000000000E+00 0.  1.
         11    1    3    3    0    0  0.32225222742E+01  0.35153761849E+01 -0.62379518026E+01  0.78520419307E+01  0.51100000000E-03 0. -1.
        -11    1    3    3    0    0  0.17461678833E+02  0.97743478833E+01 -0.20010029862E+02  0.28299282668E+02  0.51100000000E-03 0.  1.
        -12    1    3    3    0    0  0.23360787636E+01  0.11348034896E+02 -0.10772679752E+01  0.11635964347E+02  0.00000000000E+00 0.  1.
</event>
<event>
 7    1  0.3062695E-010  0.4778727E+02  0.7816164E-02  0.1312668E+00
        -11   -1    0    0    0    0  0.00000000000E+00  0.00000000000E+00  0.45593999997E+02  0.45594000000E+02  0.51100000000E-03 0.  1.
         11   -1    0    0    0    0 -0.00000000000E+00 -0.00000000000E+00 -0.45593999997E+02  0.45594000000E+02  0.51100000000E-03 0. -1.
    9900012    2    1    2    0    0 -0.13411688924E+02 -0.39801523444E+02  0.10935655155E+02  0.47787271643E+02  0.20000002728E+02 0.  0.
        -12    1    1    2    0    0  0.13411688924E+02  0.39801523444E+02 -0.10935655155E+02  0.43400728357E+02  0.00000000000E+00 0.  1.
         11    1    3    3    0    0  0.11111563415E+01  0.29049724093E+00  0.33464268239E+01  0.35380262592E+01  0.51100000000E-03 0.  1.
        -11    1    3    3    0    0 -0.59827552045E+01 -0.12542322739E+02 -0.15755821465E+01  0.13985194989E+02  0.51100000000E-03 0. -1.
         12    1    3    3    0    0 -0.85400900607E+01 -0.27549697946E+02  0.91648104773E+01  0.30264050394E+02  0.00000000000E+00 0. -1.
</event>
<event>
 7    1  0.3062695E-010  0.4778727E+02  0.7816164E-02  0.1312668E+00
        -11   -1    0    0    0    0  0.00000000000E+00  0.00000000000E+00  0.45593999997E+02  0.45594000000E+02  0.51100000000E-03 0.  1.
         11   -1    0    0    0    0 -0.00000000000E+00 -0.00000000000E+00 -0.45593999997E+02  0.45594000000E+02  0.51100000000E-03 0. -1.
    9900012    2    1    2    0    0 -0.24473563068E+02 -0.13009987926E+02 -0.33397726868E+02  0.47787271492E+02  0.20000002040E+02 0.  0.
        -12    1    1    2    0    0  0.24473563068E+02  0.13009987926E+02  0.33397726868E+02  0.43400728508E+02  0.00000000000E+00 0.  1.
         11    1    3    3    0    0 -0.18741165327E+02 -0.12957839273E+02 -0.29365540622E+02  0.37168156434E+02  0.51100000000E-03 0. -1.
        -11    1    3    3    0    0  0.16879408179E+01 -0.14073780983E+01 -0.35040972241E+00  0.22254537854E+01  0.51100000000E-03 0.  1.
        -12    1    3    3    0    0 -0.74203385593E+01  0.13552294451E+01 -0.36817765233E+01  0.83936612721E+01  0.00000000000E+00 0.  1.
</event>
<event>
 7    1  0.3062695E-010  0.4778728E+02  0.7816164E-02  0.1312668E+00
        -11   -1    0    0    0    0  0.00000000000E+00  0.00000000000E+00  0.45593999997E+02  0.45594000000E+02  0.51100000000E-03 0. -1.
         11   -1    0    0    0    0 -0.00000000000E+00 -0.00000000000E+00 -0.45593999997E+02  0.45594000000E+02  0.51100000000E-03 0.  1.
    9900012    2    1    2    0    0  0.14890133492E+02 -0.19757616078E+01  0.40718578695E+02  0.47787281569E+02  0.20000047988E+02 0.  0.
        -12    1    1    2    0    0 -0.14890133492E+02  0.19757616078E+01 -0.40718578695E+02  0.43400718431E+02  0.00000000000E+00 0.  1.
         11    1    3    3    0    0 -0.29520826662E+01 -0.13000747433E+01  0.14539561580E+02  0.14893080192E+02  0.51100000000E-03 0. -1.
        -11    1    3    3    0    0  0.15314548073E+02  0.27014716133E+01  0.18838055113E+02  0.24427559278E+02  0.51100000000E-03 0.  1.
        -12    1    3    3    0    0  0.25276680849E+01 -0.33771584778E+01  0.73409620020E+01  0.84666420998E+01  0.00000000000E+00 0.  1.
</event>
<event>
 7    1  0.3062695E-010  0.4778727E+02  0.7816164E-02  0.1312668E+00
        -11   -1    0    0    0    0  0.00000000000E+00  0.00000000000E+00  0.45593999997E+02  0.45594000000E+02  0.51100000000E-03 0.  1.
         11   -1    0    0    0    0 -0.00000000000E+00 -0.00000000000E+00 -0.45593999997E+02  0.45594000000E+02  0.51100000000E-03 0. -1.
    9900012    2    1    2    0    0 -0.10786177915E+01  0.37776434374E+02 -0.21340119481E+02  0.47787272935E+02  0.20000008618E+02 0.  0.
        -12    1    1    2    0    0  0.10786177915E+01 -0.37776434374E+02  0.21340119481E+02  0.43400727065E+02  0.00000000000E+00 0.  1.
         11    1    3    3    0    0  0.21518250078E+01  0.22615299682E+02 -0.11429156896E+02  0.25430449429E+02  0.51100000000E-03 0. -1.
        -11    1    3    3    0    0 -0.10678877632E+01  0.14336419818E+02 -0.24987673353E+01  0.14591681052E+02  0.51100000000E-03 0.  1.
         12    1    3    3    0    0 -0.21625550361E+01  0.82471487437E+00 -0.74121952490E+01  0.77651424531E+01  0.00000000000E+00 0. -1.
</event>
<event>
 7    1  0.3062695E-010  0.4778727E+02  0.7816164E-02  0.1312668E+00
        -11   -1    0    0    0    0  0.00000000000E+00  0.00000000000E+00  0.45593999997E+02  0.45594000000E+02  0.51100000000E-03 0.  1.
         11   -1    0    0    0    0 -0.00000000000E+00 -0.00000000000E+00 -0.45593999997E+02  0.45594000000E+02  0.51100000000E-03 0. -1.
    9900012    2    1    2    0    0 -0.11239131068E+02  0.97771744034E+01 -0.40764102593E+02  0.47787271127E+02  0.20000000376E+02 0.  0.
        -12    1    1    2    0    0  0.11239131068E+02 -0.97771744034E+01  0.40764102593E+02  0.43400728873E+02  0.00000000000E+00 0.  1.
         11    1    3    3    0    0 -0.12906229284E+02  0.81432197525E+01 -0.20653232105E+02  0.25679540084E+02  0.51100000000E-03 0. -1.
        -11    1    3    3    0    0 -0.14025984500E+01 -0.28922416245E+01 -0.42379782839E+01  0.53190980648E+01  0.51100000000E-03 0.  1.
         12    1    3    3    0    0  0.30696966661E+01  0.45261962754E+01 -0.15872892204E+02  0.16788632978E+02  0.00000000000E+00 0. -1.
</event>
<event>
 7    1  0.3062695E-010  0.4778727E+02  0.7816164E-02  0.1312668E+00
        -11   -1    0    0    0    0  0.00000000000E+00  0.00000000000E+00  0.45593999997E+02  0.45594000000E+02  0.51100000000E-03 0. -1.
         11   -1    0    0    0    0 -0.00000000000E+00 -0.00000000000E+00 -0.45593999997E+02  0.45594000000E+02  0.51100000000E-03 0.  1.
    9900012    2    1    2    0    0 -0.88020567807E+01 -0.29765587433E+02  0.30334084670E+02  0.47787273144E+02  0.20000009573E+02 0.  0.
        -12    1    1    2    0    0  0.88020567807E+01  0.29765587433E+02 -0.30334084670E+02  0.43400726856E+02  0.00000000000E+00 0.  1.
         11    1    3    3    0    0  0.35021475008E+01 -0.81724732221E+01  0.62043447447E+01  0.10841967057E+02  0.51100000000E-03 0. -1.
        -11    1    3    3    0    0 -0.10113359718E+02 -0.18668735547E+02  0.12241725151E+02  0.24508397880E+02  0.51100000000E-03 0.  1.
        -12    1    3    3    0    0 -0.21908445632E+01 -0.29243786642E+01  0.11888014775E+02  0.12436908207E+02  0.00000000000E+00 0.  1.
</event>
<event>
 7    1  0.3062695E-010  0.4778729E+02  0.7816164E-02  0.1312668E+00
        -11   -1    0    0    0    0  0.00000000000E+00  0.00000000000E+00  0.45593999997E+02  0.45594000000E+02  0.51100000000E-03 0.  1.
         11   -1    0    0    0    0 -0.00000000000E+00 -0.00000000000E+00 -0.45593999997E+02  0.45594000000E+02  0.51100000000E-03 0. -1.
    9900012    2    1    2    0    0 -0.36524455731E+01  0.25483099649E+02 -0.34941281812E+02  0.47787286860E+02  0.20000072108E+02 0.  0.
        -12    1    1    2    0    0  0.36524455731E+01 -0.25483099649E+02  0.34941281812E+02  0.43400713140E+02  0.00000000000E+00 0.  1.
         11    1    3    3    0    0 -0.74457163747E+01  0.76024434727E+01 -0.82806480447E+01  0.13483507385E+02  0.51100000000E-03 0. -1.
        -11    1    3    3    0    0  0.77558045384E+01  0.10030717757E+02 -0.17444017550E+02  0.21565285792E+02  0.51100000000E-03 0.  1.
        -12    1    3    3    0    0 -0.39625337368E+01  0.78499384191E+01 -0.92166162179E+01  0.12738493683E+02  0.00000000000E+00 0.  1.
</event>
<event>
 7    1  0.3062695E-010  0.4778727E+02  0.7816164E-02  0.1312668E+00
        -11   -1    0    0    0    0  0.00000000000E+00  0.00000000000E+00  0.45593999997E+02  0.45594000000E+02  0.51100000000E-03 0.  1.
         11   -1    0    0    0    0 -0.00000000000E+00 -0.00000000000E+00 -0.45593999997E+02  0.45594000000E+02  0.51100000000E-03 0. -1.
    9900012    2    1    2    0    0 -0.56865525834E+01  0.22656693512E+02 -0.36578141452E+02  0.47787273356E+02  0.20000010537E+02 0.  0.
        -12    1    1    2    0    0  0.56865525834E+01 -0.22656693512E+02  0.36578141452E+02  0.43400726644E+02  0.00000000000E+00 0.  1.
         11    1    3    3    0    0  0.41085948463E+01  0.80431468899E+01 -0.46027435192E+01  0.10136962645E+02  0.51100000000E-03 0. -1.
        -11    1    3    3    0    0 -0.93445349423E+01  0.15928246639E+02 -0.29267316237E+02  0.34606432556E+02  0.51100000000E-03 0.  1.
         12    1    3    3    0    0 -0.45061248736E+00 -0.13147000168E+01 -0.27080816958E+01  0.30438781544E+01  0.00000000000E+00 0. -1.
</event>
<event>
 7    1  0.3062695E-010  0.4778727E+02  0.7816164E-02  0.1312668E+00
        -11   -1    0    0    0    0  0.00000000000E+00  0.00000000000E+00  0.45593999997E+02  0.45594000000E+02  0.51100000000E-03 0. -1.
         11   -1    0    0    0    0 -0.00000000000E+00 -0.00000000000E+00 -0.45593999997E+02  0.45594000000E+02  0.51100000000E-03 0.  1.
    9900012    2    1    2    0    0  0.42021870739E-01 -0.37815487270E+02  0.21298127020E+02  0.47787273533E+02  0.20000011345E+02 0.  0.
        -12    1    1    2    0    0 -0.42021870739E-01  0.37815487270E+02 -0.21298127020E+02  0.43400726467E+02  0.00000000000E+00 0.  1.
         11    1    3    3    0    0  0.51478466505E+01 -0.16761682616E+02  0.43876361858E+01  0.18075001544E+02  0.51100000000E-03 0. -1.
        -11    1    3    3    0    0  0.36204609037E+01 -0.64800096436E+01  0.57177443278E+01  0.93696778277E+01  0.51100000000E-03 0.  1.
        -12    1    3    3    0    0 -0.87262856834E+01 -0.14573795011E+02  0.11192746507E+02  0.20342594161E+02  0.00000000000E+00 0.  1.
</event>
<event>
 7    1  0.3062695E-010  0.4778727E+02  0.7816164E-02  0.1312668E+00
        -11   -1    0    0    0    0  0.00000000000E+00  0.00000000000E+00  0.45593999997E+02  0.45594000000E+02  0.51100000000E-03 0. -1.
         11   -1    0    0    0    0 -0.00000000000E+00 -0.00000000000E+00 -0.45593999997E+02  0.45594000000E+02  0.51100000000E-03 0.  1.
    9900012    2    1    2    0    0  0.21273168143E+02  0.34178580869E+02  0.16214206033E+02  0.47787267860E+02  0.19999985479E+02 0.  0.
        -12    1    1    2    0    0 -0.21273168143E+02 -0.34178580869E+02 -0.16214206033E+02  0.43400732140E+02  0.00000000000E+00 0.  1.
         11    1    3    3    0    0  0.16307331233E+02  0.16481515385E+02  0.13161918745E+02  0.26660935967E+02  0.51100000000E-03 0.  1.
        -11    1    3    3    0    0  0.49551636286E+01  0.18975573573E+02  0.30509464156E+01  0.19847778549E+02  0.51100000000E-03 0. -1.
        -12    1    3    3    0    0  0.10673281620E-01 -0.12785080901E+01  0.13408725906E-02  0.12785533440E+01  0.00000000000E+00 0.  1.
</event>
<event>
 7    1  0.3062695E-010  0.4778727E+02  0.7816164E-02  0.1312668E+00
        -11   -1    0    0    0    0  0.00000000000E+00  0.00000000000E+00  0.45593999997E+02  0.45594000000E+02  0.51100000000E-03 0. -1.
         11   -1    0    0    0    0 -0.00000000000E+00 -0.00000000000E+00 -0.45593999997E+02  0.45594000000E+02  0.51100000000E-03 0.  1.
    9900012    2    1    2    0    0  0.17403246013E+02 -0.11585140938E+02  0.38033340007E+02  0.47787269425E+02  0.19999992617E+02 0.  0.
        -12    1    1    2    0    0 -0.17403246013E+02  0.11585140938E+02 -0.38033340007E+02  0.43400730575E+02  0.00000000000E+00 0.  1.
         11    1    3    3    0    0  0.63869928514E+01  0.16248072222E+00  0.27551534687E+02  0.28282629679E+02  0.51100000000E-03 0.  1.
        -11    1    3    3    0    0  0.64282774063E+01 -0.87758573510E+01  0.79888260428E+01  0.13496657529E+02  0.51100000000E-03 0. -1.
        -12    1    3    3    0    0  0.45879757556E+01 -0.29717643094E+01  0.24929792766E+01  0.60079822169E+01  0.00000000000E+00 0.  1.
</event>
<event>
 7    1  0.3062695E-010  0.4778729E+02  0.7816164E-02  0.1312668E+00
        -11   -1    0    0    0    0  0.00000000000E+00  0.00000000000E+00  0.45593999997E+02  0.45594000000E+02  0.51100000000E-03 0.  1.
         11   -1    0    0    0    0 -0.00000000000E+00 -0.00000000000E+00 -0.45593999997E+02  0.45594000000E+02  0.51100000000E-03 0. -1.
    9900012    2    1    2    0    0  0.96572799700E+01  0.38437647824E+01 -0.42137682741E+02  0.47787286977E+02  0.20000072642E+02 0.  0.
        -12    1    1    2    0    0 -0.96572799700E+01 -0.38437647824E+01  0.42137682741E+02  0.43400713023E+02  0.00000000000E+00 0.  1.
         11    1    3    3    0    0  0.30341717549E+01 -0.50606480147E+00  0.11341465648E+01  0.32785040054E+01  0.51100000000E-03 0. -1.
        -11    1    3    3    0    0  0.54922570868E+01  0.41768615067E+01 -0.19070156808E+02  0.20280087300E+02  0.51100000000E-03 0.  1.
         12    1    3    3    0    0  0.11308511282E+01  0.17296807716E+00 -0.24201672498E+02  0.24228695672E+02  0.00000000000E+00 0. -1.
</event>
<event>
 7    1  0.3062695E-010  0.4778727E+02  0.7816164E-02  0.1312668E+00
        -11   -1    0    0    0    0  0.00000000000E+00  0.00000000000E+00  0.45593999997E+02  0.45594000000E+02  0.51100000000E-03 0.  1.
         11   -1    0    0    0    0 -0.00000000000E+00 -0.00000000000E+00 -0.45593999997E+02  0.45594000000E+02  0.51100000000E-03 0. -1.
    9900012    2    1    2    0    0 -0.11391647556E+02  0.40831117646E+02  0.93098644154E+01  0.47787269848E+02  0.19999994547E+02 0.  0.
        -12    1    1    2    0    0  0.11391647556E+02 -0.40831117646E+02 -0.93098644154E+01  0.43400730152E+02  0.00000000000E+00 0.  1.
         11    1    3    3    0    0  0.65648461790E+00  0.13592994385E+02 -0.47752607252E-01  0.13608921669E+02  0.51100000000E-03 0. -1.
        -11    1    3    3    0    0 -0.93928316750E+01  0.56021342080E+01  0.46129083226E+01  0.11869630071E+02  0.51100000000E-03 0.  1.
        -12    1    3    3    0    0 -0.26553004994E+01  0.21635989053E+02  0.47447087001E+01  0.22308718109E+02  0.00000000000E+00 0.  1.
</event>
<event>
 7    1  0.3062695E-010  0.4778727E+02  0.7816164E-02  0.1312668E+00
        -11   -1    0    0    0    0  0.00000000000E+00  0.00000000000E+00  0.45593999997E+02  0.45594000000E+02  0.51100000000E-03 0. -1.
         11   -1    0    0    0    0 -0.00000000000E+00 -0.00000000000E+00 -0.45593999997E+02  0.45594000000E+02  0.51100000000E-03 0.  1.
    9900012    2    1    2    0    0 -0.16115683330E+02 -0.37425559110E+02  0.14941070244E+02  0.47787270699E+02  0.19999998423E+02 0.  0.
        -12    1    1    2    0    0  0.16115683330E+02  0.37425559110E+02 -0.14941070244E+02  0.43400729301E+02  0.00000000000E+00 0.  1.
         11    1    3    3    0    0 -0.44363446418E+01 -0.28934571860E+01  0.30745863005E+01  0.61242411325E+01  0.51100000000E-03 0. -1.
        -11    1    3    3    0    0 -0.91114230998E+00 -0.11793169288E+02  0.11504930276E+02  0.16500680079E+02  0.51100000000E-03 0.  1.
        -12    1    3    3    0    0 -0.10768196378E+02 -0.22738932636E+02  0.36155366800E+00  0.25162349487E+02  0.00000000000E+00 0.  1.
</event>
<event>
 7    1  0.3062695E-010  0.4778727E+02  0.7816164E-02  0.1312668E+00
        -11   -1    0    0    0    0  0.00000000000E+00  0.00000000000E+00  0.45593999997E+02  0.45594000000E+02  0.51100000000E-03 0.  1.
         11   -1    0    0    0    0 -0.00000000000E+00 -0.00000000000E+00 -0.45593999997E+02  0.45594000000E+02  0.51100000000E-03 0. -1.
    9900012    2    1    2    0    0  0.32036017218E+01  0.38770556457E+02  0.19240692678E+02  0.47787269974E+02  0.19999995121E+02 0.  0.
        -12    1    1    2    0    0 -0.32036017218E+01 -0.38770556457E+02 -0.19240692678E+02  0.43400730026E+02  0.00000000000E+00 0.  1.
         11    1    3    3    0    0 -0.47690550424E+01  0.10429479776E+02  0.63817725037E+01  0.13124212546E+02  0.51100000000E-03 0. -1.
        -11    1    3    3    0    0  0.88997539001E+01  0.11188992046E+02  0.22470443692E+01  0.14472331227E+02  0.51100000000E-03 0.  1.
        -12    1    3    3    0    0 -0.92709713588E+00  0.17152084635E+02  0.10611875805E+02  0.20190726201E+02  0.00000000000E+00 0.  1.
</event>
<event>
 7    1  0.3062695E-010  0.4778730E+02  0.7816164E-02  0.1312668E+00
        -11   -1    0    0    0    0  0.00000000000E+00  0.00000000000E+00  0.45593999997E+02  0.45594000000E+02  0.51100000000E-03 0.  1.
         11   -1    0    0    0    0 -0.00000000000E+00 -0.00000000000E+00 -0.45593999997E+02  0.45594000000E+02  0.51100000000E-03 0. -1.
    9900012    2    1    2    0    0  0.38260751227E+02 -0.50830428485E+01 -0.19846864753E+02  0.47787303582E+02  0.20000148352E+02 0.  0.
        -12    1    1    2    0    0 -0.38260751227E+02  0.50830428485E+01  0.19846864753E+02  0.43400696418E+02  0.00000000000E+00 0.  1.
         11    1    3    3    0    0  0.35631418093E+02 -0.77042602282E+01 -0.17344475742E+02  0.40370588551E+02  0.51100000000E-03 0. -1.
        -11    1    3    3    0    0  0.97408214278E+00  0.32041425455E+01  0.10035739581E+01  0.34960730002E+01  0.51100000000E-03 0.  1.
        -12    1    3    3    0    0  0.16552509913E+01 -0.58292516576E+00 -0.35059629687E+01  0.39206420305E+01  0.00000000000E+00 0.  1.
</event>
<event>
 7    1  0.3062695E-010  0.4778727E+02  0.7816164E-02  0.1312668E+00
        -11   -1    0    0    0    0  0.00000000000E+00  0.00000000000E+00  0.45593999997E+02  0.45594000000E+02  0.51100000000E-03 0.  1.
         11   -1    0    0    0    0 -0.00000000000E+00 -0.00000000000E+00 -0.45593999997E+02  0.45594000000E+02  0.51100000000E-03 0. -1.
    9900012    2    1    2    0    0  0.13287160796E+02 -0.72695779259E+01 -0.40672199706E+02  0.47787271501E+02  0.20000002084E+02 0.  0.
        -12    1    1    2    0    0 -0.13287160796E+02  0.72695779259E+01  0.40672199706E+02  0.43400728499E+02  0.00000000000E+00 0.  1.
         11    1    3    3    0    0  0.44282618086E+01  0.36038992384E+01 -0.11083725996E+02  0.12467821565E+02  0.51100000000E-03 0. -1.
        -11    1    3    3    0    0  0.10897172379E+02 -0.99315934108E+01 -0.29605829875E+02  0.33074009076E+02  0.51100000000E-03 0.  1.
        -12    1    3    3    0    0 -0.20382733908E+01 -0.94188375354E+00  0.17356164235E-01  0.22454408604E+01  0.00000000000E+00 0.  1.
</event>
<event>
 7    1  0.3062695E-010  0.4778727E+02  0.7816164E-02  0.1312668E+00
        -11   -1    0    0    0    0  0.00000000000E+00  0.00000000000E+00  0.45593999997E+02  0.45594000000E+02  0.51100000000E-03 0.  1.
         11   -1    0    0    0    0 -0.00000000000E+00 -0.00000000000E+00 -0.45593999997E+02  0.45594000000E+02  0.51100000000E-03 0. -1.
    9900012    2    1    2    0    0  0.31628406354E+02 -0.13880076626E+02 -0.26279467224E+02  0.47787274047E+02  0.20000013689E+02 0.  0.
        -12    1    1    2    0    0 -0.31628406354E+02  0.13880076626E+02  0.26279467224E+02  0.43400725953E+02  0.00000000000E+00 0.  1.
         11    1    3    3    0    0  0.28488863708E+02 -0.10364920361E+02 -0.14805162069E+02  0.33737808963E+02  0.51100000000E-03 0. -1.
        -11    1    3    3    0    0 -0.80934015085E+00 -0.40372117015E+01 -0.61130703028E+01  0.73704639332E+01  0.51100000000E-03 0.  1.
        -12    1    3    3    0    0  0.39488827970E+01  0.52205543637E+00 -0.53612348522E+01  0.66790011502E+01  0.00000000000E+00 0.  1.
</event>
<event>
 7    1  0.3062695E-010  0.4778727E+02  0.7816164E-02  0.1312668E+00
        -11   -1    0    0    0    0  0.00000000000E+00  0.00000000000E+00  0.45593999997E+02  0.45594000000E+02  0.51100000000E-03 0.  1.
         11   -1    0    0    0    0 -0.00000000000E+00 -0.00000000000E+00 -0.45593999997E+02  0.45594000000E+02  0.51100000000E-03 0. -1.
    9900012    2    1    2    0    0 -0.29807588792E+02  0.60956653105E+01 -0.30951147562E+02  0.47787273963E+02  0.20000013305E+02 0.  0.
        -12    1    1    2    0    0  0.29807588792E+02 -0.60956653105E+01  0.30951147562E+02  0.43400726037E+02  0.00000000000E+00 0.  1.
         11    1    3    3    0    0 -0.10836679084E+02  0.75109001155E+01 -0.12796119239E+02  0.18373565303E+02  0.51100000000E-03 0. -1.
        -11    1    3    3    0    0 -0.11489959367E+02 -0.72534896880E+01 -0.11762978854E+02  0.17972199384E+02  0.51100000000E-03 0.  1.
        -12    1    3    3    0    0 -0.74809503410E+01  0.58382548831E+01 -0.63920494690E+01  0.11441509275E+02  0.00000000000E+00 0.  1.
</event>
<event>
 7    1  0.3062695E-010  0.4778727E+02  0.7816164E-02  0.1312668E+00
        -11   -1    0    0    0    0  0.00000000000E+00  0.00000000000E+00  0.45593999997E+02  0.45594000000E+02  0.51100000000E-03 0.  1.
         11   -1    0    0    0    0 -0.00000000000E+00 -0.00000000000E+00 -0.45593999997E+02  0.45594000000E+02  0.51100000000E-03 0. -1.
    9900012    2    1    2    0    0 -0.24719061929E+02 -0.11699832252E+02 -0.33700223284E+02  0.47787272509E+02  0.20000006677E+02 0.  0.
        -12    1    1    2    0    0  0.24719061929E+02  0.11699832252E+02  0.33700223284E+02  0.43400727491E+02  0.00000000000E+00 0.  1.
         11    1    3    3    0    0  0.13279456919E+00 -0.69137210831E+01 -0.14194433618E+02  0.15789208961E+02  0.51100000000E-03 0. -1.
        -11    1    3    3    0    0 -0.13957523712E+02 -0.23246077199E+01 -0.11859582481E+02  0.18462555785E+02  0.51100000000E-03 0.  1.
         12    1    3    3    0    0 -0.10894332787E+02 -0.24615034491E+01 -0.76462071846E+01  0.13535507763E+02  0.00000000000E+00 0. -1.
</event>
<event>
 7    1  0.3062695E-010  0.4778729E+02  0.7816164E-02  0.1312668E+00
        -11   -1    0    0    0    0  0.00000000000E+00  0.00000000000E+00  0.45593999997E+02  0.45594000000E+02  0.51100000000E-03 0.  1.
         11   -1    0    0    0    0 -0.00000000000E+00 -0.00000000000E+00 -0.45593999997E+02  0.45594000000E+02  0.51100000000E-03 0. -1.
    9900012    2    1    2    0    0  0.38700858455E+02  0.13469379219E+02 -0.14298282096E+02  0.47787291566E+02  0.20000093564E+02 0.  0.
        -12    1    1    2    0    0 -0.38700858455E+02 -0.13469379219E+02  0.14298282096E+02  0.43400708434E+02  0.00000000000E+00 0.  1.
         11    1    3    3    0    0  0.57657826784E+01  0.93532494251E+01 -0.26375790992E+01  0.11299749929E+02  0.51100000000E-03 0. -1.
        -11    1    3    3    0    0  0.21849556640E+02  0.36597332794E+01 -0.28839334953E+01  0.22340855975E+02  0.51100000000E-03 0.  1.
         12    1    3    3    0    0  0.11085519137E+02  0.45639651451E+00 -0.87767695013E+01  0.14146685661E+02  0.00000000000E+00 0. -1.
</event>
<event>
 7    1  0.3062695E-010  0.4778727E+02  0.7816164E-02  0.1312668E+00
        -11   -1    0    0    0    0  0.00000000000E+00  0.00000000000E+00  0.45593999997E+02  0.45594000000E+02  0.51100000000E-03 0.  1.
         11   -1    0    0    0    0 -0.00000000000E+00 -0.00000000000E+00 -0.45593999997E+02  0.45594000000E+02  0.51100000000E-03 0. -1.
    9900012    2    1    2    0    0 -0.27291350705E+02 -0.16302246045E+02 -0.29547286557E+02  0.47787271984E+02  0.20000004284E+02 0.  0.
        -12    1    1    2    0    0  0.27291350705E+02  0.16302246045E+02  0.29547286557E+02  0.43400728016E+02  0.00000000000E+00 0.  1.
         11    1    3    3    0    0 -0.12774818821E+02 -0.89893629188E+01 -0.81654436481E+01  0.17626091791E+02  0.51100000000E-03 0. -1.
        -11    1    3    3    0    0 -0.88407050099E+01  0.25783927414E+01 -0.13327461298E+02  0.16199611079E+02  0.51100000000E-03 0.  1.
        -12    1    3    3    0    0 -0.56758268746E+01 -0.98912758672E+01 -0.80543816110E+01  0.13961569114E+02  0.00000000000E+00 0.  1.
</event>
<event>
 7    1  0.3062695E-010  0.4778727E+02  0.7816164E-02  0.1312668E+00
        -11   -1    0    0    0    0  0.00000000000E+00  0.00000000000E+00  0.45593999997E+02  0.45594000000E+02  0.51100000000E-03 0. -1.
         11   -1    0    0    0    0 -0.00000000000E+00 -0.00000000000E+00 -0.45593999997E+02  0.45594000000E+02  0.51100000000E-03 0.  1.
    9900012    2    1    2    0    0 -0.35476700789E+01 -0.14105406619E+02  0.40891010257E+02  0.47787272141E+02  0.20000004999E+02 0.  0.
        -12    1    1    2    0    0  0.35476700789E+01  0.14105406619E+02 -0.40891010257E+02  0.43400727859E+02  0.00000000000E+00 0.  1.
         11    1    3    3    0    0  0.13626334268E+01  0.88210495505E+00  0.21443834930E+02  0.21505183928E+02  0.51100000000E-03 0.  1.
        -11    1    3    3    0    0 -0.29669209891E+01 -0.12130868574E+02  0.19085402037E+02  0.22808181946E+02  0.51100000000E-03 0. -1.
        -12    1    3    3    0    0 -0.19433825165E+01 -0.28566430002E+01  0.36177328976E+00  0.34739062666E+01  0.00000000000E+00 0.  1.
</event>
<event>
 7    1  0.3062695E-010  0.4778727E+02  0.7816164E-02  0.1312668E+00
        -11   -1    0    0    0    0  0.00000000000E+00  0.00000000000E+00  0.45593999997E+02  0.45594000000E+02  0.51100000000E-03 0.  1.
         11   -1    0    0    0    0 -0.00000000000E+00 -0.00000000000E+00 -0.45593999997E+02  0.45594000000E+02  0.51100000000E-03 0. -1.
    9900012    2    1    2    0    0  0.96033764714E+01  0.31510803491E+02 -0.28257173629E+02  0.47787269156E+02  0.19999991391E+02 0.  0.
        -12    1    1    2    0    0 -0.96033764714E+01 -0.31510803491E+02  0.28257173629E+02  0.43400730844E+02  0.00000000000E+00 0.  1.
         11    1    3    3    0    0  0.59707123850E+01  0.16671533779E+00 -0.22807731975E+01  0.63936786773E+01  0.51100000000E-03 0. -1.
        -11    1    3    3    0    0 -0.18963790756E+01  0.99100720096E+01 -0.83798783603E+01  0.13115949925E+02  0.51100000000E-03 0.  1.
         12    1    3    3    0    0  0.55290431619E+01  0.21434016143E+02 -0.17596522071E+02  0.28277640554E+02  0.00000000000E+00 0. -1.
</event>
<event>
 7    1  0.3062695E-010  0.4778727E+02  0.7816164E-02  0.1312668E+00
        -11   -1    0    0    0    0  0.00000000000E+00  0.00000000000E+00  0.45593999997E+02  0.45594000000E+02  0.51100000000E-03 0.  1.
         11   -1    0    0    0    0 -0.00000000000E+00 -0.00000000000E+00 -0.45593999997E+02  0.45594000000E+02  0.51100000000E-03 0. -1.
    9900012    2    1    2    0    0 -0.36840974540E+02  0.73049527534E+01 -0.21748640352E+02  0.47787273082E+02  0.20000009292E+02 0.  0.
        -12    1    1    2    0    0  0.36840974540E+02 -0.73049527534E+01  0.21748640352E+02  0.43400726918E+02  0.00000000000E+00 0.  1.
         11    1    3    3    0    0 -0.21016789826E+02  0.94522313852E+01 -0.10002988703E+02  0.25121901123E+02  0.51100000000E-03 0. -1.
        -11    1    3    3    0    0 -0.29374801312E+01  0.31681022042E+01  0.17446635862E+00  0.43238986885E+01  0.51100000000E-03 0.  1.
         12    1    3    3    0    0 -0.12886704583E+02 -0.53153808360E+01 -0.11920118008E+02  0.18341473271E+02  0.00000000000E+00 0. -1.
</event>
<event>
 7    1  0.3062695E-010  0.4778727E+02  0.7816164E-02  0.1312668E+00
        -11   -1    0    0    0    0  0.00000000000E+00  0.00000000000E+00  0.45593999997E+02  0.45594000000E+02  0.51100000000E-03 0. -1.
         11   -1    0    0    0    0 -0.00000000000E+00 -0.00000000000E+00 -0.45593999997E+02  0.45594000000E+02  0.51100000000E-03 0.  1.
    9900012    2    1    2    0    0 -0.59811248744E+01 -0.16714507742E+02  0.39603974966E+02  0.47787268935E+02  0.19999990384E+02 0.  0.
        -12    1    1    2    0    0  0.59811248744E+01  0.16714507742E+02 -0.39603974966E+02  0.43400731065E+02  0.00000000000E+00 0.  1.
         11    1    3    3    0    0 -0.11432305779E+02 -0.56646122498E+01  0.23256835026E+02  0.26526700192E+02  0.51100000000E-03 0. -1.
        -11    1    3    3    0    0  0.57560866836E+01 -0.53234029551E+01  0.88899065626E+01  0.11853336741E+02  0.51100000000E-03 0.  1.
         12    1    3    3    0    0 -0.30490577884E+00 -0.57264925372E+01  0.74572333773E+01  0.94072320029E+01  0.00000000000E+00 0. -1.
</event>
<event>
 7    1  0.3062695E-010  0.4778730E+02  0.7816164E-02  0.1312668E+00
        -11   -1    0    0    0    0  0.00000000000E+00  0.00000000000E+00  0.45593999997E+02  0.45594000000E+02  0.51100000000E-03 0.  1.
         11   -1    0    0    0    0 -0.00000000000E+00 -0.00000000000E+00 -0.45593999997E+02  0.45594000000E+02  0.51100000000E-03 0. -1.
    9900012    2    1    2    0    0 -0.41892963814E+02 -0.79994331597E+01 -0.80379988656E+01  0.47787299847E+02  0.20000131323E+02 0.  0.
        -12    1    1    2    0    0  0.41892963814E+02  0.79994331597E+01  0.80379988656E+01  0.43400700153E+02  0.00000000000E+00 0.  1.
         11    1    3    3    0    0 -0.32488249940E+02 -0.10673381190E+02 -0.80988063492E+01  0.35142539959E+02  0.51100000000E-03 0. -1.
        -11    1    3    3    0    0 -0.87243853051E+00  0.58463969685E+00 -0.31279441573E+01  0.32995435255E+01  0.51100000000E-03 0.  1.
         12    1    3    3    0    0 -0.85322753431E+01  0.20893083336E+01  0.31887516408E+01  0.93452163629E+01  0.00000000000E+00 0. -1.
</event>
<event>
 7    1  0.3062695E-010  0.4778727E+02  0.7816164E-02  0.1312668E+00
        -11   -1    0    0    0    0  0.00000000000E+00  0.00000000000E+00  0.45593999997E+02  0.45594000000E+02  0.51100000000E-03 0.  1.
         11   -1    0    0    0    0 -0.00000000000E+00 -0.00000000000E+00 -0.45593999997E+02  0.45594000000E+02  0.51100000000E-03 0. -1.
    9900012    2    1    2    0    0 -0.18977863318E+02  0.10846234033E+02 -0.37494306485E+02  0.47787272960E+02  0.20000008734E+02 0.  0.
        -12    1    1    2    0    0  0.18977863318E+02 -0.10846234033E+02  0.37494306485E+02  0.43400727040E+02  0.00000000000E+00 0.  1.
         11    1    3    3    0    0 -0.13109251452E+02  0.44575147458E+01 -0.10346358213E+02  0.17284936792E+02  0.51100000000E-03 0.  1.
        -11    1    3    3    0    0  0.25869673747E+01  0.29197005302E+01 -0.13685726344E+02  0.14230817166E+02  0.51100000000E-03 0. -1.
         12    1    3    3    0    0 -0.84555792400E+01  0.34690187574E+01 -0.13462221928E+02  0.16271519003E+02  0.00000000000E+00 0. -1.
</event>
<event>
 7    1  0.3062695E-010  0.4778727E+02  0.7816164E-02  0.1312668E+00
        -11   -1    0    0    0    0  0.00000000000E+00  0.00000000000E+00  0.45593999997E+02  0.45594000000E+02  0.51100000000E-03 0.  1.
         11   -1    0    0    0    0 -0.00000000000E+00 -0.00000000000E+00 -0.45593999997E+02  0.45594000000E+02  0.51100000000E-03 0. -1.
    9900012    2    1    2    0    0 -0.50569303622E+01 -0.33644884534E+02 -0.26945733994E+02  0.47787269816E+02  0.19999994399E+02 0.  0.
        -12    1    1    2    0    0  0.50569303622E+01  0.33644884534E+02  0.26945733994E+02  0.43400730184E+02  0.00000000000E+00 0.  1.
         11    1    3    3    0    0  0.14946139792E+01 -0.21033946959E+02 -0.23097773178E+02  0.31275676199E+02  0.51100000000E-03 0. -1.
        -11    1    3    3    0    0 -0.64131168977E+01 -0.70542686834E+01  0.35933335630E+00  0.95404347765E+01  0.51100000000E-03 0.  1.
        -12    1    3    3    0    0 -0.13842744367E+00 -0.55566688917E+01 -0.42072941725E+01  0.69711588408E+01  0.00000000000E+00 0.  1.
</event>
<event>
 7    1  0.3062695E-010  0.4778727E+02  0.7816164E-02  0.1312668E+00
        -11   -1    0    0    0    0  0.00000000000E+00  0.00000000000E+00  0.45593999997E+02  0.45594000000E+02  0.51100000000E-03 0.  1.
         11   -1    0    0    0    0 -0.00000000000E+00 -0.00000000000E+00 -0.45593999997E+02  0.45594000000E+02  0.51100000000E-03 0. -1.
    9900012    2    1    2    0    0 -0.41273965509E+01 -0.71011718420E+01 -0.42616444145E+02  0.47787270105E+02  0.19999995717E+02 0.  0.
        -12    1    1    2    0    0  0.41273965509E+01  0.71011718420E+01  0.42616444145E+02  0.43400729895E+02  0.00000000000E+00 0.  1.
         11    1    3    3    0    0 -0.81341910470E+01 -0.10898997185E+02 -0.34443852022E+02  0.37031502076E+02  0.51100000000E-03 0. -1.
        -11    1    3    3    0    0  0.31232785102E+01  0.27068795672E+01 -0.83731745228E+01  0.93376719526E+01  0.51100000000E-03 0.  1.
         12    1    3    3    0    0  0.88351598594E+00  0.10909457757E+01  0.20058239972E+00  0.14180960764E+01  0.00000000000E+00 0. -1.
</event>
<event>
 7    1  0.3062695E-010  0.4778727E+02  0.7816164E-02  0.1312668E+00
        -11   -1    0    0    0    0  0.00000000000E+00  0.00000000000E+00  0.45593999997E+02  0.45594000000E+02  0.51100000000E-03 0.  1.
         11   -1    0    0    0    0 -0.00000000000E+00 -0.00000000000E+00 -0.45593999997E+02  0.45594000000E+02  0.51100000000E-03 0. -1.
    9900012    2    1    2    0    0  0.36111743070E+02  0.20153836293E+02 -0.13167701202E+02  0.47787268902E+02  0.19999990233E+02 0.  0.
        -12    1    1    2    0    0 -0.36111743070E+02 -0.20153836293E+02  0.13167701202E+02  0.43400731098E+02  0.00000000000E+00 0.  1.
         11    1    3    3    0    0  0.16137806620E+02  0.56910894622E+01  0.96335781672E+00  0.17139001147E+02  0.51100000000E-03 0. -1.
        -11    1    3    3    0    0  0.16469838560E+02  0.16357373666E+02 -0.12096475306E+02  0.26175254928E+02  0.51100000000E-03 0.  1.
        -12    1    3    3    0    0  0.35040978896E+01 -0.18946268356E+01 -0.20345837127E+01  0.44730128270E+01  0.00000000000E+00 0.  1.
</event>
<event>
 7    1  0.3062695E-010  0.4778729E+02  0.7816164E-02  0.1312668E+00
        -11   -1    0    0    0    0  0.00000000000E+00  0.00000000000E+00  0.45593999997E+02  0.45594000000E+02  0.51100000000E-03 0. -1.
         11   -1    0    0    0    0 -0.00000000000E+00 -0.00000000000E+00 -0.45593999997E+02  0.45594000000E+02  0.51100000000E-03 0.  1.
    9900012    2    1    2    0    0 -0.28224767843E+02 -0.17940442986E+01  0.32920595694E+02  0.47787288766E+02  0.20000080800E+02 0.  0.
        -12    1    1    2    0    0  0.28224767843E+02  0.17940442986E+01 -0.32920595694E+02  0.43400711234E+02  0.00000000000E+00 0.  1.
         11    1    3    3    0    0 -0.17452548293E+01 -0.15354545141E+01  0.15659893407E+02  0.15831481193E+02  0.51100000000E-03 0. -1.
        -11    1    3    3    0    0 -0.11482257147E+02  0.62687058591E+00  0.48950159839E+01  0.12497854922E+02  0.51100000000E-03 0.  1.
         12    1    3    3    0    0 -0.14997255867E+02 -0.88546037034E+00  0.12365686303E+02  0.19457952651E+02  0.00000000000E+00 0. -1.
</event>
<event>
 7    1  0.3062695E-010  0.4778727E+02  0.7816164E-02  0.1312668E+00
        -11   -1    0    0    0    0  0.00000000000E+00  0.00000000000E+00  0.45593999997E+02  0.45594000000E+02  0.51100000000E-03 0.  1.
         11   -1    0    0    0    0 -0.00000000000E+00 -0.00000000000E+00 -0.45593999997E+02  0.45594000000E+02  0.51100000000E-03 0. -1.
    9900012    2    1    2    0    0  0.34637742701E+02 -0.25096965914E+02 -0.73479487436E+01  0.47787271109E+02  0.20000000294E+02 0.  0.
        -12    1    1    2    0    0 -0.34637742701E+02  0.25096965914E+02  0.73479487436E+01  0.43400728891E+02  0.00000000000E+00 0.  1.
         11    1    3    3    0    0  0.69020878129E+01 -0.74402056092E+01 -0.29789486327E+01  0.10576843144E+02  0.51100000000E-03 0. -1.
        -11    1    3    3    0    0  0.24495453667E+02 -0.10797188235E+02 -0.90951053086E+01  0.28272379896E+02  0.51100000000E-03 0.  1.
        -12    1    3    3    0    0  0.32402012209E+01 -0.68595720699E+01  0.47261051977E+01  0.89380480684E+01  0.00000000000E+00 0.  1.
</event>
<event>
 7    1  0.3942175E-010  0.4778727E+02  0.7816164E-02  0.1312668E+00
        -11   -1    0    0    0    0  0.00000000000E+00  0.00000000000E+00  0.45593999997E+02  0.45594000000E+02  0.51100000000E-03 0. -1.
         11   -1    0    0    0    0 -0.00000000000E+00 -0.00000000000E+00 -0.45593999997E+02  0.45594000000E+02  0.51100000000E-03 0.  1.
    9900012    2    1    2    0    0 -0.10069075141E+02  0.90470620178E+01  0.41235758255E+02  0.47787270003E+02  0.19999995253E+02 0.  0.
        -12    1    1    2    0    0  0.10069075141E+02 -0.90470620178E+01 -0.41235758255E+02  0.43400729997E+02  0.00000000000E+00 0.  1.
         11    1    3    3    0    0 -0.93930944991E+01  0.14135106087E+01  0.18301951549E+02  0.20620127722E+02  0.51100000000E-03 0. -1.
        -11    1    3    3    0    0  0.89263777742E+00  0.10196985695E+02  0.21552302862E+02  0.23859528042E+02  0.51100000000E-03 0.  1.
        -12    1    3    3    0    0 -0.15686184193E+01 -0.25634342860E+01  0.13815038444E+01  0.33076142393E+01  0.00000000000E+00 0.  1.
</event>
<event>
 7    1  0.3062695E-010  0.4778727E+02  0.7816164E-02  0.1312668E+00
        -11   -1    0    0    0    0  0.00000000000E+00  0.00000000000E+00  0.45593999997E+02  0.45594000000E+02  0.51100000000E-03 0. -1.
         11   -1    0    0    0    0 -0.00000000000E+00 -0.00000000000E+00 -0.45593999997E+02  0.45594000000E+02  0.51100000000E-03 0.  1.
    9900012    2    1    2    0    0 -0.49841128577E+01  0.11572786840E+02  0.41531347410E+02  0.47787267357E+02  0.19999983189E+02 0.  0.
        -12    1    1    2    0    0  0.49841128577E+01 -0.11572786840E+02 -0.41531347410E+02  0.43400732643E+02  0.00000000000E+00 0.  1.
         11    1    3    3    0    0 -0.52535734482E+00 -0.31707224711E+01  0.86875619158E+01  0.92630024091E+01  0.51100000000E-03 0. -1.
        -11    1    3    3    0    0 -0.73122504395E+01  0.98025736309E+01  0.12879561686E+02  0.17760702851E+02  0.51100000000E-03 0.  1.
        -12    1    3    3    0    0  0.28534949266E+01  0.49409356804E+01  0.19964223808E+02  0.20763562097E+02  0.00000000000E+00 0.  1.
</event>
<event>
 7    1  0.3062695E-010  0.4778727E+02  0.7816164E-02  0.1312668E+00
        -11   -1    0    0    0    0  0.00000000000E+00  0.00000000000E+00  0.45593999997E+02  0.45594000000E+02  0.51100000000E-03 0.  1.
         11   -1    0    0    0    0 -0.00000000000E+00 -0.00000000000E+00 -0.45593999997E+02  0.45594000000E+02  0.51100000000E-03 0. -1.
    9900012    2    1    2    0    0 -0.27015654545E+02 -0.33362626734E+02 -0.63806965737E+01  0.47787265653E+02  0.19999975419E+02 0.  0.
        -12    1    1    2    0    0  0.27015654545E+02  0.33362626734E+02  0.63806965737E+01  0.43400734347E+02  0.00000000000E+00 0.  1.
         11    1    3    3    0    0 -0.20143281684E+02 -0.15095725979E+02 -0.77377486110E+01  0.26334492470E+02  0.51100000000E-03 0. -1.
        -11    1    3    3    0    0 -0.10724519839E+01 -0.64804613995E+01  0.44794563145E+01  0.79506013825E+01  0.51100000000E-03 0.  1.
        -12    1    3    3    0    0 -0.57999208769E+01 -0.11786439355E+02 -0.31224042772E+01  0.13502171800E+02  0.00000000000E+00 0.  1.
</event>
<event>
 7    1  0.3062695E-010  0.4778728E+02  0.7816164E-02  0.1312668E+00
        -11   -1    0    0    0    0  0.00000000000E+00  0.00000000000E+00  0.45593999997E+02  0.45594000000E+02  0.51100000000E-03 0.  1.
         11   -1    0    0    0    0 -0.00000000000E+00 -0.00000000000E+00 -0.45593999997E+02  0.45594000000E+02  0.51100000000E-03 0. -1.
    9900012    2    1    2    0    0 -0.31153828811E+02 -0.18587996818E+02 -0.23823260174E+02  0.47787281105E+02  0.20000045868E+02 0.  0.
        -12    1    1    2    0    0  0.31153828811E+02  0.18587996818E+02  0.23823260174E+02  0.43400718895E+02  0.00000000000E+00 0.  1.
         11    1    3    3    0    0 -0.16942598900E+02 -0.11211743404E+02 -0.49773972052E+01  0.20917201793E+02  0.51100000000E-03 0. -1.
        -11    1    3    3    0    0  0.50857187442E+00 -0.22728560500E+01 -0.67674131342E+01  0.71569826579E+01  0.51100000000E-03 0.  1.
        -12    1    3    3    0    0 -0.14719801786E+02 -0.51033973641E+01 -0.12078449835E+02  0.19713096654E+02  0.00000000000E+00 0.  1.
</event>
<event>
 7    1  0.3062695E-010  0.4778725E+02  0.7816164E-02  0.1312668E+00
        -11   -1    0    0    0    0  0.00000000000E+00  0.00000000000E+00  0.45593999997E+02  0.45594000000E+02  0.51100000000E-03 0.  1.
         11   -1    0    0    0    0 -0.00000000000E+00 -0.00000000000E+00 -0.45593999997E+02  0.45594000000E+02  0.51100000000E-03 0. -1.
    9900012    2    1    2    0    0  0.36054687910E+02  0.22427720947E+02 -0.89823124133E+01  0.47787249736E+02  0.19999902847E+02 0.  0.
        -12    1    1    2    0    0 -0.36054687910E+02 -0.22427720947E+02  0.89823124133E+01  0.43400750264E+02  0.00000000000E+00 0.  1.
         11    1    3    3    0    0  0.20990168234E+02  0.97596315942E+01  0.54432558868E+00  0.23154564603E+02  0.51100000000E-03 0. -1.
        -11    1    3    3    0    0  0.93553583797E+01  0.66916387826E+01 -0.11360346818E+02  0.16166577872E+02  0.51100000000E-03 0.  1.
        -12    1    3    3    0    0  0.57091612961E+01  0.59764505701E+01  0.18337088164E+01  0.84661072604E+01  0.00000000000E+00 0.  1.
</event>
<event>
 7    1  0.3062695E-010  0.4778727E+02  0.7816164E-02  0.1312668E+00
        -11   -1    0    0    0    0  0.00000000000E+00  0.00000000000E+00  0.45593999997E+02  0.45594000000E+02  0.51100000000E-03 0. -1.
         11   -1    0    0    0    0 -0.00000000000E+00 -0.00000000000E+00 -0.45593999997E+02  0.45594000000E+02  0.51100000000E-03 0.  1.
    9900012    2    1    2    0    0  0.17672492728E+02 -0.63842837874E+01  0.39122206787E+02  0.47787272557E+02  0.20000006897E+02 0.  0.
        -12    1    1    2    0    0 -0.17672492728E+02  0.63842837874E+01 -0.39122206787E+02  0.43400727443E+02  0.00000000000E+00 0.  1.
         11    1    3    3    0    0  0.17491927360E+02  0.80585077755E+00  0.33094545876E+02  0.37441499506E+02  0.51100000000E-03 0. -1.
        -11    1    3    3    0    0  0.14266662726E+01 -0.27716646192E+01  0.45645447473E+01  0.55274379621E+01  0.51100000000E-03 0.  1.
         12    1    3    3    0    0 -0.12461009039E+01 -0.44184699458E+01  0.14631161631E+01  0.48183350892E+01  0.00000000000E+00 0. -1.
</event>
<event>
 7    1  0.3062695E-010  0.4778727E+02  0.7816164E-02  0.1312668E+00
        -11   -1    0    0    0    0  0.00000000000E+00  0.00000000000E+00  0.45593999997E+02  0.45594000000E+02  0.51100000000E-03 0.  1.
         11   -1    0    0    0    0 -0.00000000000E+00 -0.00000000000E+00 -0.45593999997E+02  0.45594000000E+02  0.51100000000E-03 0. -1.
    9900012    2    1    2    0    0  0.26459499182E+02 -0.30686916024E+02 -0.15550928045E+02  0.47787271030E+02  0.19999999936E+02 0.  0.
        -12    1    1    2    0    0 -0.26459499182E+02  0.30686916024E+02  0.15550928045E+02  0.43400728970E+02  0.00000000000E+00 0.  1.
         11    1    3    3    0    0  0.87420586433E+01 -0.20306012297E+01 -0.31130958437E+01  0.94993840153E+01  0.51100000000E-03 0. -1.
        -11    1    3    3    0    0  0.36283225423E+01 -0.16767948977E+02 -0.95302201604E+01  0.19625339078E+02  0.51100000000E-03 0.  1.
        -12    1    3    3    0    0  0.14089117997E+02 -0.11888365817E+02 -0.29076120412E+01  0.18662547937E+02  0.00000000000E+00 0.  1.
</event>
<event>
 7    1  0.3062695E-010  0.4778727E+02  0.7816164E-02  0.1312668E+00
        -11   -1    0    0    0    0  0.00000000000E+00  0.00000000000E+00  0.45593999997E+02  0.45594000000E+02  0.51100000000E-03 0.  1.
         11   -1    0    0    0    0 -0.00000000000E+00 -0.00000000000E+00 -0.45593999997E+02  0.45594000000E+02  0.51100000000E-03 0. -1.
    9900012    2    1    2    0    0 -0.35520303061E+02 -0.12490652448E+02 -0.21585062552E+02  0.47787271279E+02  0.20000001070E+02 0.  0.
        -12    1    1    2    0    0  0.35520303061E+02  0.12490652448E+02  0.21585062552E+02  0.43400728721E+02  0.00000000000E+00 0.  1.
         11    1    3    3    0    0 -0.30316970902E+01 -0.22498900969E+01 -0.11203374999E+01  0.39380641272E+01  0.51100000000E-03 0. -1.
        -11    1    3    3    0    0 -0.13428449251E+02 -0.44841196280E+01  0.14606243427E+01  0.14232498089E+02  0.51100000000E-03 0.  1.
        -12    1    3    3    0    0 -0.19060156720E+02 -0.57566427234E+01 -0.21925349395E+02  0.29616709063E+02  0.00000000000E+00 0.  1.
</event>
<event>
 7    1  0.3062695E-010  0.4778727E+02  0.7816164E-02  0.1312668E+00
        -11   -1    0    0    0    0  0.00000000000E+00  0.00000000000E+00  0.45593999997E+02  0.45594000000E+02  0.51100000000E-03 0.  1.
         11   -1    0    0    0    0 -0.00000000000E+00 -0.00000000000E+00 -0.45593999997E+02  0.45594000000E+02  0.51100000000E-03 0. -1.
    9900012    2    1    2    0    0 -0.13143925116E+02 -0.23726869970E+02 -0.33880618392E+02  0.47787269261E+02  0.19999991870E+02 0.  0.
        -12    1    1    2    0    0  0.13143925116E+02  0.23726869970E+02  0.33880618392E+02  0.43400730739E+02  0.00000000000E+00 0.  1.
         11    1    3    3    0    0 -0.38455626087E+01 -0.74031428606E+00 -0.15546289985E+02  0.16031954016E+02  0.51100000000E-03 0. -1.
        -11    1    3    3    0    0 -0.54241952247E+01 -0.45262152656E+01 -0.48884013966E+01  0.85909828857E+01  0.51100000000E-03 0.  1.
         12    1    3    3    0    0 -0.38741672828E+01 -0.18460340418E+02 -0.13445927010E+02  0.23164332359E+02  0.00000000000E+00 0. -1.
</event>
<event>
 7    1  0.3062695E-010  0.4778727E+02  0.7816164E-02  0.1312668E+00
        -11   -1    0    0    0    0  0.00000000000E+00  0.00000000000E+00  0.45593999997E+02  0.45594000000E+02  0.51100000000E-03 0.  1.
         11   -1    0    0    0    0 -0.00000000000E+00 -0.00000000000E+00 -0.45593999997E+02  0.45594000000E+02  0.51100000000E-03 0. -1.
    9900012    2    1    2    0    0 -0.33737294920E+02 -0.27222664512E+02  0.20843782730E+01  0.47787272305E+02  0.20000005747E+02 0.  0.
        -12    1    1    2    0    0  0.33737294920E+02  0.27222664512E+02 -0.20843782730E+01  0.43400727695E+02  0.00000000000E+00 0.  1.
         11    1    3    3    0    0 -0.31680284322E+02 -0.27105156600E+02 -0.12385410374E+01  0.41711675982E+02  0.51100000000E-03 0. -1.
        -11    1    3    3    0    0 -0.25615257023E+00  0.18959645093E+01  0.16554642544E+00  0.19203388868E+01  0.51100000000E-03 0.  1.
         12    1    3    3    0    0 -0.18008580281E+01 -0.20134724216E+01  0.31573728849E+01  0.41552574366E+01  0.00000000000E+00 0. -1.
</event>
<event>
 7    1  0.3062695E-010  0.4778726E+02  0.7816164E-02  0.1312668E+00
        -11   -1    0    0    0    0  0.00000000000E+00  0.00000000000E+00  0.45593999997E+02  0.45594000000E+02  0.51100000000E-03 0. -1.
         11   -1    0    0    0    0 -0.00000000000E+00 -0.00000000000E+00 -0.45593999997E+02  0.45594000000E+02  0.51100000000E-03 0.  1.
    9900012    2    1    2    0    0 -0.40657767185E+02  0.11061334719E+02  0.10402740920E+02  0.47787260641E+02  0.19999952569E+02 0.  0.
        -12    1    1    2    0    0  0.40657767185E+02 -0.11061334719E+02 -0.10402740920E+02  0.43400739359E+02  0.00000000000E+00 0.  1.
         11    1    3    3    0    0 -0.89390983108E+01 -0.36616992790E+01  0.31214569754E+01  0.10151798566E+02  0.51100000000E-03 0. -1.
        -11    1    3    3    0    0 -0.82149714910E+01  0.99389972058E+01  0.16703724832E+01  0.13002290819E+02  0.51100000000E-03 0.  1.
        -12    1    3    3    0    0 -0.23503697383E+02  0.47840367927E+01  0.56109114613E+01  0.24633171256E+02  0.00000000000E+00 0.  1.
</event>
<event>
 7    1  0.3062695E-010  0.4778728E+02  0.7816164E-02  0.1312668E+00
        -11   -1    0    0    0    0  0.00000000000E+00  0.00000000000E+00  0.45593999997E+02  0.45594000000E+02  0.51100000000E-03 0.  1.
         11   -1    0    0    0    0 -0.00000000000E+00 -0.00000000000E+00 -0.45593999997E+02  0.45594000000E+02  0.51100000000E-03 0. -1.
    9900012    2    1    2    0    0 -0.18721357560E+02  0.19364345416E+01 -0.39107336004E+02  0.47787277230E+02  0.20000028203E+02 0.  0.
        -12    1    1    2    0    0  0.18721357560E+02 -0.19364345416E+01  0.39107336004E+02  0.43400722770E+02  0.00000000000E+00 0.  1.
         11    1    3    3    0    0 -0.64215672710E+01 -0.76742322656E+01 -0.23184417956E+02  0.25251685158E+02  0.51100000000E-03 0. -1.
        -11    1    3    3    0    0 -0.79154686611E+01  0.65235036713E+01 -0.12518210959E+02  0.16183829898E+02  0.51100000000E-03 0.  1.
        -12    1    3    3    0    0 -0.43843216281E+01  0.30871631359E+01 -0.34047070884E+01  0.63517621747E+01  0.00000000000E+00 0.  1.
</event>
<event>
 7    1  0.3062695E-010  0.4778726E+02  0.7816164E-02  0.1312668E+00
        -11   -1    0    0    0    0  0.00000000000E+00  0.00000000000E+00  0.45593999997E+02  0.45594000000E+02  0.51100000000E-03 0.  1.
         11   -1    0    0    0    0 -0.00000000000E+00 -0.00000000000E+00 -0.45593999997E+02  0.45594000000E+02  0.51100000000E-03 0. -1.
    9900012    2    1    2    0    0  0.15151868987E+02  0.85566157545E+01 -0.39759642884E+02  0.47787262572E+02  0.19999961373E+02 0.  0.
        -12    1    1    2    0    0 -0.15151868987E+02 -0.85566157545E+01  0.39759642884E+02  0.43400737428E+02  0.00000000000E+00 0.  1.
         11    1    3    3    0    0  0.62553858895E+01  0.13078641624E+02 -0.20139385436E+02  0.24814825516E+02  0.51100000000E-03 0.  1.
        -11    1    3    3    0    0  0.26976057601E+01 -0.37741484135E+01 -0.13309729964E+02  0.14095041152E+02  0.51100000000E-03 0. -1.
        -12    1    3    3    0    0  0.61988773371E+01 -0.74787745640E+00 -0.63105274837E+01  0.88773959049E+01  0.00000000000E+00 0.  1.
</event>
<event>
 7    1  0.4092162E-010  0.4778727E+02  0.7816164E-02  0.1312668E+00
        -11   -1    0    0    0    0  0.00000000000E+00  0.00000000000E+00  0.45593999997E+02  0.45594000000E+02  0.51100000000E-03 0.  1.
         11   -1    0    0    0    0 -0.00000000000E+00 -0.00000000000E+00 -0.45593999997E+02  0.45594000000E+02  0.51100000000E-03 0. -1.
    9900012    2    1    2    0    0  0.41781031832E+02 -0.94693994637E+01 -0.69497595315E+01  0.47787270690E+02  0.19999998383E+02 0.  0.
        -12    1    1    2    0    0 -0.41781031832E+02  0.94693994637E+01  0.69497595315E+01  0.43400729310E+02  0.00000000000E+00 0.  1.
         11    1    3    3    0    0  0.14133681243E+02 -0.24232667298E+01 -0.42686852298E+01  0.14961779339E+02  0.51100000000E-03 0. -1.
        -11    1    3    3    0    0  0.91398075518E+01 -0.92847793764E+01 -0.51715652839E+01  0.14017428362E+02  0.51100000000E-03 0.  1.
        -12    1    3    3    0    0  0.18507543037E+02  0.22386466425E+01  0.24904909822E+01  0.18808062988E+02  0.00000000000E+00 0.  1.
</event>
<event>
 7    1  0.3062695E-010  0.4778727E+02  0.7816164E-02  0.1312668E+00
        -11   -1    0    0    0    0  0.00000000000E+00  0.00000000000E+00  0.45593999997E+02  0.45594000000E+02  0.51100000000E-03 0.  1.
         11   -1    0    0    0    0 -0.00000000000E+00 -0.00000000000E+00 -0.45593999997E+02  0.45594000000E+02  0.51100000000E-03 0. -1.
    9900012    2    1    2    0    0  0.40395043808E+01 -0.33736870829E+02 -0.27002395535E+02  0.47787269435E+02  0.19999992660E+02 0.  0.
        -12    1    1    2    0    0 -0.40395043808E+01  0.33736870829E+02  0.27002395535E+02  0.43400730565E+02  0.00000000000E+00 0.  1.
         11    1    3    3    0    0 -0.15389644098E+01 -0.11397736610E+02 -0.28274407380E+00  0.11504640619E+02  0.51100000000E-03 0. -1.
        -11    1    3    3    0    0  0.93533314654E+00 -0.16501493687E+02 -0.21759754380E+02  0.27325099321E+02  0.51100000000E-03 0.  1.
         12    1    3    3    0    0  0.46431356441E+01 -0.58376405323E+01 -0.49598970814E+01  0.89575294949E+01  0.00000000000E+00 0. -1.
</event>
<event>
 7    1  0.3062695E-010  0.4778728E+02  0.7816164E-02  0.1312668E+00
        -11   -1    0    0    0    0  0.00000000000E+00  0.00000000000E+00  0.45593999997E+02  0.45594000000E+02  0.51100000000E-03 0.  1.
         11   -1    0    0    0    0 -0.00000000000E+00 -0.00000000000E+00 -0.45593999997E+02  0.45594000000E+02  0.51100000000E-03 0. -1.
    9900012    2    1    2    0    0 -0.32533035777E+02 -0.12567841787E+02 -0.25831643849E+02  0.47787275490E+02  0.20000020268E+02 0.  0.
        -12    1    1    2    0    0  0.32533035777E+02  0.12567841787E+02  0.25831643849E+02  0.43400724510E+02  0.00000000000E+00 0.  1.
         11    1    3    3    0    0 -0.38831369795E+01 -0.19271788945E+00 -0.17895507626E+01  0.42799982686E+01  0.51100000000E-03 0.  1.
        -11    1    3    3    0    0 -0.30113501793E+02 -0.11008497985E+02 -0.25552331274E+02  0.40999166479E+02  0.51100000000E-03 0. -1.
        -12    1    3    3    0    0  0.14636029956E+01 -0.13666259118E+01  0.15102381877E+01  0.25081107422E+01  0.00000000000E+00 0.  1.
</event>
<event>
 7    1  0.3062695E-010  0.4778727E+02  0.7816164E-02  0.1312668E+00
        -11   -1    0    0    0    0  0.00000000000E+00  0.00000000000E+00  0.45593999997E+02  0.45594000000E+02  0.51100000000E-03 0.  1.
         11   -1    0    0    0    0 -0.00000000000E+00 -0.00000000000E+00 -0.45593999997E+02  0.45594000000E+02  0.51100000000E-03 0. -1.
    9900012    2    1    2    0    0  0.26789061561E+02  0.29171948514E+02 -0.17747309267E+02  0.47787269757E+02  0.19999994130E+02 0.  0.
        -12    1    1    2    0    0 -0.26789061561E+02 -0.29171948514E+02  0.17747309267E+02  0.43400730243E+02  0.00000000000E+00 0.  1.
         11    1    3    3    0    0  0.10193990982E+02  0.17914387908E+02 -0.64212216325E+01  0.21588766380E+02  0.51100000000E-03 0. -1.
        -11    1    3    3    0    0  0.13856457328E+01  0.77612285195E+01 -0.51374742003E+01  0.94101181527E+01  0.51100000000E-03 0.  1.
         12    1    3    3    0    0  0.15209424846E+02  0.34963320857E+01 -0.61886134341E+01  0.16788385224E+02  0.00000000000E+00 0. -1.
</event>
<event>
 7    1  0.3062695E-010  0.4778727E+02  0.7816164E-02  0.1312668E+00
        -11   -1    0    0    0    0  0.00000000000E+00  0.00000000000E+00  0.45593999997E+02  0.45594000000E+02  0.51100000000E-03 0.  1.
         11   -1    0    0    0    0 -0.00000000000E+00 -0.00000000000E+00 -0.45593999997E+02  0.45594000000E+02  0.51100000000E-03 0. -1.
    9900012    2    1    2    0    0 -0.23529015573E+02  0.11938351559E+02 -0.34459897144E+02  0.47787270479E+02  0.19999997421E+02 0.  0.
        -12    1    1    2    0    0  0.23529015573E+02 -0.11938351559E+02  0.34459897144E+02  0.43400729521E+02  0.00000000000E+00 0.  1.
         11    1    3    3    0    0 -0.81086454660E+01  0.67724270347E+01 -0.24643252588E+02  0.26812418720E+02  0.51100000000E-03 0. -1.
        -11    1    3    3    0    0 -0.11839749324E+02 -0.23491564241E+00 -0.47914335493E+01  0.12774689238E+02  0.51100000000E-03 0.  1.
        -12    1    3    3    0    0 -0.35806207835E+01  0.54008401669E+01 -0.50252110065E+01  0.82001625205E+01  0.00000000000E+00 0.  1.
</event>
<event>
 7    1  0.3062695E-010  0.4778727E+02  0.7816164E-02  0.1312668E+00
        -11   -1    0    0    0    0  0.00000000000E+00  0.00000000000E+00  0.45593999997E+02  0.45594000000E+02  0.51100000000E-03 0. -1.
         11   -1    0    0    0    0 -0.00000000000E+00 -0.00000000000E+00 -0.45593999997E+02  0.45594000000E+02  0.51100000000E-03 0.  1.
    9900012    2    1    2    0    0 -0.13795570872E+02 -0.87465339870E+01  0.40209493981E+02  0.47787273754E+02  0.20000012353E+02 0.  0.
        -12    1    1    2    0    0  0.13795570872E+02  0.87465339870E+01 -0.40209493981E+02  0.43400726246E+02  0.00000000000E+00 0.  1.
         11    1    3    3    0    0 -0.17698294267E+02 -0.10259217429E+02  0.34113836107E+02  0.39777317361E+02  0.51100000000E-03 0. -1.
        -11    1    3    3    0    0  0.65713720236E+00 -0.73921520490E-01  0.34989910211E+01  0.35609313558E+01  0.51100000000E-03 0.  1.
         12    1    3    3    0    0  0.32455861922E+01  0.15866049623E+01  0.25966668530E+01  0.44490250374E+01  0.00000000000E+00 0. -1.
</event>
<event>
 7    1  0.3062695E-010  0.4778728E+02  0.7816164E-02  0.1312668E+00
        -11   -1    0    0    0    0  0.00000000000E+00  0.00000000000E+00  0.45593999997E+02  0.45594000000E+02  0.51100000000E-03 0.  1.
         11   -1    0    0    0    0 -0.00000000000E+00 -0.00000000000E+00 -0.45593999997E+02  0.45594000000E+02  0.51100000000E-03 0. -1.
    9900012    2    1    2    0    0  0.23593093395E+02  0.23246489186E+02 -0.28046199279E+02  0.47787278699E+02  0.20000034902E+02 0.  0.
        -12    1    1    2    0    0 -0.23593093395E+02 -0.23246489186E+02  0.28046199279E+02  0.43400721301E+02  0.00000000000E+00 0.  1.
         11    1    3    3    0    0  0.95441762307E+01  0.18285790239E+02 -0.21582212529E+02  0.29853866123E+02  0.51100000000E-03 0. -1.
        -11    1    3    3    0    0  0.84315754882E+00  0.11113242068E+01 -0.36304651634E+01  0.38892459049E+01  0.51100000000E-03 0.  1.
         12    1    3    3    0    0  0.13205759615E+02  0.38493747402E+01 -0.28335215864E+01  0.14044166671E+02  0.00000000000E+00 0. -1.
</event>
<event>
 7    1  0.3062695E-010  0.4778727E+02  0.7816164E-02  0.1312668E+00
        -11   -1    0    0    0    0  0.00000000000E+00  0.00000000000E+00  0.45593999997E+02  0.45594000000E+02  0.51100000000E-03 0.  1.
         11   -1    0    0    0    0 -0.00000000000E+00 -0.00000000000E+00 -0.45593999997E+02  0.45594000000E+02  0.51100000000E-03 0. -1.
    9900012    2    1    2    0    0 -0.38359477856E+01  0.26109301249E+02 -0.34455958926E+02  0.47787271750E+02  0.20000003216E+02 0.  0.
        -12    1    1    2    0    0  0.38359477856E+01 -0.26109301249E+02  0.34455958926E+02  0.43400728250E+02  0.00000000000E+00 0.  1.
         11    1    3    3    0    0 -0.13109710536E+01  0.93686809356E+01 -0.30108156515E+01  0.99275293364E+01  0.51100000000E-03 0.  1.
        -11    1    3    3    0    0 -0.16358009425E+01  0.34510119956E+00 -0.13234703978E+02  0.13339877406E+02  0.51100000000E-03 0. -1.
         12    1    3    3    0    0 -0.88917578956E+00  0.16395519114E+02 -0.18210439297E+02  0.24519865007E+02  0.00000000000E+00 0. -1.
</event>
<event>
 7    1  0.3062695E-010  0.4778728E+02  0.7816164E-02  0.1312668E+00
        -11   -1    0    0    0    0  0.00000000000E+00  0.00000000000E+00  0.45593999997E+02  0.45594000000E+02  0.51100000000E-03 0. -1.
         11   -1    0    0    0    0 -0.00000000000E+00 -0.00000000000E+00 -0.45593999997E+02  0.45594000000E+02  0.51100000000E-03 0.  1.
    9900012    2    1    2    0    0 -0.42521836067E+02 -0.49803273926E+01  0.71212449074E+01  0.47787281890E+02  0.20000049450E+02 0.  0.
        -12    1    1    2    0    0  0.42521836067E+02  0.49803273926E+01 -0.71212449074E+01  0.43400718110E+02  0.00000000000E+00 0.  1.
         11    1    3    3    0    0 -0.18238356691E+02  0.21696921394E+01  0.84138066567E+01  0.20202409794E+02  0.51100000000E-03 0. -1.
        -11    1    3    3    0    0 -0.77022711105E+01 -0.62669097909E+01 -0.41029852513E+01  0.10744004227E+02  0.51100000000E-03 0.  1.
        -12    1    3    3    0    0 -0.16581208265E+02 -0.88310974104E+00  0.28104235020E+01  0.16840867870E+02  0.00000000000E+00 0.  1.
</event>
<event>
 7    1  0.3062695E-010  0.4778727E+02  0.7816164E-02  0.1312668E+00
        -11   -1    0    0    0    0  0.00000000000E+00  0.00000000000E+00  0.45593999997E+02  0.45594000000E+02  0.51100000000E-03 0. -1.
         11   -1    0    0    0    0 -0.00000000000E+00 -0.00000000000E+00 -0.45593999997E+02  0.45594000000E+02  0.51100000000E-03 0.  1.
    9900012    2    1    2    0    0  0.34502855599E+02 -0.65182890543E+01  0.25508586988E+02  0.47787272508E+02  0.20000006673E+02 0.  0.
        -12    1    1    2    0    0 -0.34502855599E+02  0.65182890543E+01 -0.25508586988E+02  0.43400727492E+02  0.00000000000E+00 0.  1.
         11    1    3    3    0    0  0.23250890873E+02 -0.32452782327E+01  0.14016640790E+02  0.27342311103E+02  0.51100000000E-03 0. -1.
        -11    1    3    3    0    0 -0.12600142907E+01 -0.40710704096E+01  0.19346859060E+01  0.46801987253E+01  0.51100000000E-03 0.  1.
        -12    1    3    3    0    0  0.12511979018E+02  0.79805958789E+00  0.95572602926E+01  0.15764762680E+02  0.00000000000E+00 0.  1.
</event>
<event>
 7    1  0.3062695E-010  0.4778727E+02  0.7816164E-02  0.1312668E+00
        -11   -1    0    0    0    0  0.00000000000E+00  0.00000000000E+00  0.45593999997E+02  0.45594000000E+02  0.51100000000E-03 0.  1.
         11   -1    0    0    0    0 -0.00000000000E+00 -0.00000000000E+00 -0.45593999997E+02  0.45594000000E+02  0.51100000000E-03 0. -1.
    9900012    2    1    2    0    0  0.34261876429E+02 -0.25034352495E+02 -0.91119907846E+01  0.47787270082E+02  0.19999995614E+02 0.  0.
        -12    1    1    2    0    0 -0.34261876429E+02  0.25034352495E+02  0.91119907846E+01  0.43400729918E+02  0.00000000000E+00 0.  1.
         11    1    3    3    0    0  0.43106123744E+01 -0.14142079252E+01 -0.45581792635E+00  0.45595102085E+01  0.51100000000E-03 0. -1.
        -11    1    3    3    0    0  0.23087900470E+02 -0.76297325231E+01 -0.87033310228E+01  0.25826574253E+02  0.51100000000E-03 0.  1.
        -12    1    3    3    0    0  0.68633635849E+01 -0.15990412047E+02  0.47158164539E-01  0.17401185621E+02  0.00000000000E+00 0.  1.
</event>
<event>
 7    1  0.3062695E-010  0.4778727E+02  0.7816164E-02  0.1312668E+00
        -11   -1    0    0    0    0  0.00000000000E+00  0.00000000000E+00  0.45593999997E+02  0.45594000000E+02  0.51100000000E-03 0.  1.
         11   -1    0    0    0    0 -0.00000000000E+00 -0.00000000000E+00 -0.45593999997E+02  0.45594000000E+02  0.51100000000E-03 0. -1.
    9900012    2    1    2    0    0 -0.23348426930E+02  0.14217385713E+02 -0.33709645436E+02  0.47787270835E+02  0.19999999045E+02 0.  0.
        -12    1    1    2    0    0  0.23348426930E+02 -0.14217385713E+02  0.33709645436E+02  0.43400729165E+02  0.00000000000E+00 0.  1.
         11    1    3    3    0    0 -0.98137443734E+01  0.88029190535E+01 -0.26867245270E+02  0.29927409363E+02  0.51100000000E-03 0. -1.
        -11    1    3    3    0    0 -0.13917430205E+02  0.33164844644E+01 -0.64395213647E+01  0.15689530534E+02  0.51100000000E-03 0.  1.
         12    1    3    3    0    0  0.38274764761E+00  0.20979821954E+01 -0.40287880073E+00  0.21703309384E+01  0.00000000000E+00 0. -1.
</event>
<event>
 7    1  0.3062695E-010  0.4778728E+02  0.7816164E-02  0.1312668E+00
        -11   -1    0    0    0    0  0.00000000000E+00  0.00000000000E+00  0.45593999997E+02  0.45594000000E+02  0.51100000000E-03 0.  1.
         11   -1    0    0    0    0 -0.00000000000E+00 -0.00000000000E+00 -0.45593999997E+02  0.45594000000E+02  0.51100000000E-03 0. -1.
    9900012    2    1    2    0    0  0.76115785008E-02  0.93943593916E+01 -0.42371791030E+02  0.47787277409E+02  0.20000029021E+02 0.  0.
        -12    1    1    2    0    0 -0.76115785008E-02 -0.93943593916E+01  0.42371791030E+02  0.43400722591E+02  0.00000000000E+00 0.  1.
         11    1    3    3    0    0 -0.35357571822E+01  0.12061466983E+02 -0.26593336447E+02  0.29414046105E+02  0.51100000000E-03 0. -1.
        -11    1    3    3    0    0  0.45669403685E+01 -0.31460786199E+01 -0.47933207579E+01  0.73301213606E+01  0.51100000000E-03 0.  1.
        -12    1    3    3    0    0 -0.10235716078E+01  0.47897102882E+00 -0.10985133825E+02  0.11043109944E+02  0.00000000000E+00 0.  1.
</event>
<event>
 7    1  0.3062695E-010  0.4778727E+02  0.7816164E-02  0.1312668E+00
        -11   -1    0    0    0    0  0.00000000000E+00  0.00000000000E+00  0.45593999997E+02  0.45594000000E+02  0.51100000000E-03 0.  1.
         11   -1    0    0    0    0 -0.00000000000E+00 -0.00000000000E+00 -0.45593999997E+02  0.45594000000E+02  0.51100000000E-03 0. -1.
    9900012    2    1    2    0    0 -0.66429766024E+01 -0.27164605757E+02 -0.33190033246E+02  0.47787271309E+02  0.20000001204E+02 0.  0.
        -12    1    1    2    0    0  0.66429766024E+01  0.27164605757E+02  0.33190033246E+02  0.43400728691E+02  0.00000000000E+00 0.  1.
         11    1    3    3    0    0  0.29577811771E+01 -0.15813958539E+02 -0.93354103480E+01  0.18600527970E+02  0.51100000000E-03 0.  1.
        -11    1    3    3    0    0 -0.17197218315E+01 -0.13124575388E+01 -0.35015859664E-01  0.21636114116E+01  0.51100000000E-03 0. -1.
         12    1    3    3    0    0 -0.78810359481E+01 -0.10038189680E+02 -0.23819607038E+02  0.27023131927E+02  0.00000000000E+00 0. -1.
</event>
<event>
 7    1  0.3062695E-010  0.4778727E+02  0.7816164E-02  0.1312668E+00
        -11   -1    0    0    0    0  0.00000000000E+00  0.00000000000E+00  0.45593999997E+02  0.45594000000E+02  0.51100000000E-03 0.  1.
         11   -1    0    0    0    0 -0.00000000000E+00 -0.00000000000E+00 -0.45593999997E+02  0.45594000000E+02  0.51100000000E-03 0. -1.
    9900012    2    1    2    0    0  0.33588345217E+02  0.10936856151E+02 -0.25215694273E+02  0.47787274262E+02  0.20000014671E+02 0.  0.
        -12    1    1    2    0    0 -0.33588345217E+02 -0.10936856151E+02  0.25215694273E+02  0.43400725738E+02  0.00000000000E+00 0.  1.
         11    1    3    3    0    0  0.35918314564E+02  0.10100236564E+02 -0.21813145560E+02  0.43219826692E+02  0.51100000000E-03 0. -1.
        -11    1    3    3    0    0 -0.20334802164E+01  0.68347413798E+00 -0.14564775845E+01  0.25929724069E+01  0.51100000000E-03 0.  1.
         12    1    3    3    0    0 -0.29648913073E+00  0.15314544832E+00 -0.19460711286E+01  0.19744751634E+01  0.00000000000E+00 0. -1.
</event>
<event>
 7    1  0.3062695E-010  0.4778727E+02  0.7816164E-02  0.1312668E+00
        -11   -1    0    0    0    0  0.00000000000E+00  0.00000000000E+00  0.45593999997E+02  0.45594000000E+02  0.51100000000E-03 0.  1.
         11   -1    0    0    0    0 -0.00000000000E+00 -0.00000000000E+00 -0.45593999997E+02  0.45594000000E+02  0.51100000000E-03 0. -1.
    9900012    2    1    2    0    0  0.25102203854E+02 -0.11227340250E+02 -0.33577516549E+02  0.47787269303E+02  0.19999992061E+02 0.  0.
        -12    1    1    2    0    0 -0.25102203854E+02  0.11227340250E+02  0.33577516549E+02  0.43400730697E+02  0.00000000000E+00 0.  1.
         11    1    3    3    0    0 -0.14350743035E+01 -0.35601506492E+01 -0.14594641402E+01  0.41065979519E+01  0.51100000000E-03 0. -1.
        -11    1    3    3    0    0 -0.14138810284E+00  0.11612432008E+01 -0.25738911360E+00  0.11978003940E+01  0.51100000000E-03 0.  1.
         12    1    3    3    0    0  0.26678666260E+02 -0.88284328020E+01 -0.31860663295E+02  0.42482870957E+02  0.00000000000E+00 0. -1.
</event>
<event>
 7    1  0.3062695E-010  0.4778727E+02  0.7816164E-02  0.1312668E+00
        -11   -1    0    0    0    0  0.00000000000E+00  0.00000000000E+00  0.45593999997E+02  0.45594000000E+02  0.51100000000E-03 0.  1.
         11   -1    0    0    0    0 -0.00000000000E+00 -0.00000000000E+00 -0.45593999997E+02  0.45594000000E+02  0.51100000000E-03 0. -1.
    9900012    2    1    2    0    0  0.42209265846E+01  0.15879830345E+02 -0.40170117918E+02  0.47787267212E+02  0.19999982527E+02 0.  0.
        -12    1    1    2    0    0 -0.42209265846E+01 -0.15879830345E+02  0.40170117918E+02  0.43400732788E+02  0.00000000000E+00 0.  1.
         11    1    3    3    0    0  0.28738504097E+00  0.63399034329E+01 -0.43989309420E+01  0.77218883308E+01  0.51100000000E-03 0. -1.
        -11    1    3    3    0    0  0.32528182710E+01 -0.25777801719E+01 -0.30061477007E+01  0.51247147802E+01  0.51100000000E-03 0.  1.
        -12    1    3    3    0    0  0.68072327264E+00  0.12117707084E+02 -0.32765039275E+02  0.34940664101E+02  0.00000000000E+00 0.  1.
</event>
<event>
 7    1  0.3062695E-010  0.4778726E+02  0.7816164E-02  0.1312668E+00
        -11   -1    0    0    0    0  0.00000000000E+00  0.00000000000E+00  0.45593999997E+02  0.45594000000E+02  0.51100000000E-03 0. -1.
         11   -1    0    0    0    0 -0.00000000000E+00 -0.00000000000E+00 -0.45593999997E+02  0.45594000000E+02  0.51100000000E-03 0.  1.
    9900012    2    1    2    0    0 -0.15502818219E+02 -0.18814075514E+02  0.35907061537E+02  0.47787264080E+02  0.19999968247E+02 0.  0.
        -12    1    1    2    0    0  0.15502818219E+02  0.18814075514E+02 -0.35907061537E+02  0.43400735920E+02  0.00000000000E+00 0.  1.
         11    1    3    3    0    0 -0.79795288086E+01 -0.13408526770E+02  0.31515273633E+02  0.35166375170E+02  0.51100000000E-03 0. -1.
        -11    1    3    3    0    0 -0.73190030093E+01 -0.70551019857E+01  0.36562546672E+01  0.10803261893E+02  0.51100000000E-03 0.  1.
         12    1    3    3    0    0 -0.20428640091E+00  0.16495532421E+01  0.73553323682E+00  0.18176270174E+01  0.00000000000E+00 0. -1.
</event>
<event>
 7    1  0.3062695E-010  0.4778727E+02  0.7816164E-02  0.1312668E+00
        -11   -1    0    0    0    0  0.00000000000E+00  0.00000000000E+00  0.45593999997E+02  0.45594000000E+02  0.51100000000E-03 0. -1.
         11   -1    0    0    0    0 -0.00000000000E+00 -0.00000000000E+00 -0.45593999997E+02  0.45594000000E+02  0.51100000000E-03 0.  1.
    9900012    2    1    2    0    0 -0.40844452047E+01 -0.40161521577E+02  0.15937160535E+02  0.47787267357E+02  0.19999983187E+02 0.  0.
        -12    1    1    2    0    0  0.40844452047E+01  0.40161521577E+02 -0.15937160535E+02  0.43400732643E+02  0.00000000000E+00 0.  1.
         11    1    3    3    0    0 -0.99241574537E+01 -0.26748245248E+02  0.14326108208E+02  0.31924832053E+02  0.51100000000E-03 0. -1.
        -11    1    3    3    0    0  0.56541076405E+01 -0.56184277113E+01  0.11290678300E+01  0.80504942446E+01  0.51100000000E-03 0.  1.
         12    1    3    3    0    0  0.18560460853E+00 -0.77948486183E+01  0.48198449732E+00  0.78119410589E+01  0.00000000000E+00 0. -1.
</event>
<event>
 7    1  0.3062695E-010  0.4778727E+02  0.7816164E-02  0.1312668E+00
        -11   -1    0    0    0    0  0.00000000000E+00  0.00000000000E+00  0.45593999997E+02  0.45594000000E+02  0.51100000000E-03 0.  1.
         11   -1    0    0    0    0 -0.00000000000E+00 -0.00000000000E+00 -0.45593999997E+02  0.45594000000E+02  0.51100000000E-03 0. -1.
    9900012    2    1    2    0    0  0.12592235839E+02  0.26863485223E+02 -0.31676680213E+02  0.47787270616E+02  0.19999998048E+02 0.  0.
        -12    1    1    2    0    0 -0.12592235839E+02 -0.26863485223E+02  0.31676680213E+02  0.43400729384E+02  0.00000000000E+00 0.  1.
         11    1    3    3    0    0  0.17479555339E+01  0.17419766200E+02 -0.21144554922E+02  0.27451699513E+02  0.51100000000E-03 0. -1.
        -11    1    3    3    0    0  0.11489006877E+02  0.10698696722E+02 -0.84734221377E+01  0.17839794661E+02  0.51100000000E-03 0.  1.
        -12    1    3    3    0    0 -0.64472657196E+00 -0.12549776993E+01 -0.20587031527E+01  0.24957764422E+01  0.00000000000E+00 0.  1.
</event>
<event>
 7    1  0.3062695E-010  0.4778727E+02  0.7816164E-02  0.1312668E+00
        -11   -1    0    0    0    0  0.00000000000E+00  0.00000000000E+00  0.45593999997E+02  0.45594000000E+02  0.51100000000E-03 0. -1.
         11   -1    0    0    0    0 -0.00000000000E+00 -0.00000000000E+00 -0.45593999997E+02  0.45594000000E+02  0.51100000000E-03 0.  1.
    9900012    2    1    2    0    0 -0.22689357855E+02 -0.57576095945E+01  0.36546765797E+02  0.47787272836E+02  0.20000008171E+02 0.  0.
        -12    1    1    2    0    0  0.22689357855E+02  0.57576095945E+01 -0.36546765797E+02  0.43400727164E+02  0.00000000000E+00 0.  1.
         11    1    3    3    0    0 -0.52061812898E+01  0.44542412157E+01  0.20682619681E+01  0.71569753569E+01  0.51100000000E-03 0.  1.
        -11    1    3    3    0    0 -0.14925447305E+02 -0.10930512309E+02  0.27317020618E+02  0.32991888280E+02  0.51100000000E-03 0. -1.
         12    1    3    3    0    0 -0.25577292606E+01  0.71866149897E+00  0.71614832109E+01  0.76384091996E+01  0.00000000000E+00 0. -1.
</event>
<event>
 7    1  0.4650004E-010  0.4778727E+02  0.7816164E-02  0.1312668E+00
        -11   -1    0    0    0    0  0.00000000000E+00  0.00000000000E+00  0.45593999997E+02  0.45594000000E+02  0.51100000000E-03 0. -1.
         11   -1    0    0    0    0 -0.00000000000E+00 -0.00000000000E+00 -0.45593999997E+02  0.45594000000E+02  0.51100000000E-03 0.  1.
    9900012    2    1    2    0    0 -0.15476444868E+02  0.15659746335E+02  0.37401537658E+02  0.47787273967E+02  0.20000013325E+02 0.  0.
        -12    1    1    2    0    0  0.15476444868E+02 -0.15659746335E+02 -0.37401537658E+02  0.43400726033E+02  0.00000000000E+00 0.  1.
         11    1    3    3    0    0 -0.54090495681E+01  0.61662227093E+01  0.26015022411E+02  0.27277490922E+02  0.51100000000E-03 0. -1.
        -11    1    3    3    0    0 -0.94519830615E+01  0.22354076560E+01  0.56376643581E+01  0.11230329063E+02  0.51100000000E-03 0.  1.
        -12    1    3    3    0    0 -0.61541223872E+00  0.72581159699E+01  0.57488508890E+01  0.92794539818E+01  0.00000000000E+00 0.  1.
</event>
<event>
 7    1  0.3062695E-010  0.4778727E+02  0.7816164E-02  0.1312668E+00
        -11   -1    0    0    0    0  0.00000000000E+00  0.00000000000E+00  0.45593999997E+02  0.45594000000E+02  0.51100000000E-03 0.  1.
         11   -1    0    0    0    0 -0.00000000000E+00 -0.00000000000E+00 -0.45593999997E+02  0.45594000000E+02  0.51100000000E-03 0. -1.
    9900012    2    1    2    0    0  0.41244277646E+02 -0.79501188965E+01 -0.10923749565E+02  0.47787272661E+02  0.20000007371E+02 0.  0.
        -12    1    1    2    0    0 -0.41244277646E+02  0.79501188965E+01  0.10923749565E+02  0.43400727339E+02  0.00000000000E+00 0.  1.
         11    1    3    3    0    0  0.29319630439E+02 -0.13547452213E+02 -0.89018451795E+01  0.33502493018E+02  0.51100000000E-03 0. -1.
        -11    1    3    3    0    0  0.70421968354E+01  0.36247298632E+01  0.13461948439E+01  0.80338934315E+01  0.51100000000E-03 0.  1.
         12    1    3    3    0    0  0.48824503708E+01  0.19726034536E+01 -0.33680992296E+01  0.62508862115E+01  0.00000000000E+00 0. -1.
</event>
<event>
 7    1  0.3062695E-010  0.4778727E+02  0.7816164E-02  0.1312668E+00
        -11   -1    0    0    0    0  0.00000000000E+00  0.00000000000E+00  0.45593999997E+02  0.45594000000E+02  0.51100000000E-03 0.  1.
         11   -1    0    0    0    0 -0.00000000000E+00 -0.00000000000E+00 -0.45593999997E+02  0.45594000000E+02  0.51100000000E-03 0. -1.
    9900012    2    1    2    0    0 -0.22401315444E+02 -0.11242033723E+02 -0.35431920832E+02  0.47787271093E+02  0.20000000220E+02 0.  0.
        -12    1    1    2    0    0  0.22401315444E+02  0.11242033723E+02  0.35431920832E+02  0.43400728907E+02  0.00000000000E+00 0.  1.
         11    1    3    3    0    0 -0.11760116124E+01  0.13230703497E+01 -0.59912552136E+01  0.62472920341E+01  0.51100000000E-03 0. -1.
        -11    1    3    3    0    0 -0.19561942300E+02 -0.15409494442E+02 -0.21341030671E+02  0.32795757285E+02  0.51100000000E-03 0.  1.
        -12    1    3    3    0    0 -0.16633615316E+01  0.28443903692E+01 -0.80996349470E+01  0.87442217739E+01  0.00000000000E+00 0.  1.
</event>
<event>
 7    1  0.3062695E-010  0.4778728E+02  0.7816164E-02  0.1312668E+00
        -11   -1    0    0    0    0  0.00000000000E+00  0.00000000000E+00  0.45593999997E+02  0.45594000000E+02  0.51100000000E-03 0.  1.
         11   -1    0    0    0    0 -0.00000000000E+00 -0.00000000000E+00 -0.45593999997E+02  0.45594000000E+02  0.51100000000E-03 0. -1.
    9900012    2    1    2    0    0 -0.15134155328E+01 -0.37208658581E+02 -0.22290090665E+02  0.47787276022E+02  0.20000022693E+02 0.  0.
        -12    1    1    2    0    0  0.15134155328E+01  0.37208658581E+02  0.22290090665E+02  0.43400723978E+02  0.00000000000E+00 0.  1.
         11    1    3    3    0    0 -0.71178492952E+01 -0.10975627078E+02 -0.84056816331E+01  0.15549393954E+02  0.51100000000E-03 0. -1.
        -11    1    3    3    0    0 -0.11650939759E+01  0.67607676366E+00 -0.62103485447E+00  0.14833099186E+01  0.51100000000E-03 0.  1.
         12    1    3    3    0    0  0.67695277383E+01 -0.26909108267E+02 -0.13263374177E+02  0.30754572149E+02  0.00000000000E+00 0. -1.
</event>
<event>
 7    1  0.3062695E-010  0.4778727E+02  0.7816164E-02  0.1312668E+00
        -11   -1    0    0    0    0  0.00000000000E+00  0.00000000000E+00  0.45593999997E+02  0.45594000000E+02  0.51100000000E-03 0.  1.
         11   -1    0    0    0    0 -0.00000000000E+00 -0.00000000000E+00 -0.45593999997E+02  0.45594000000E+02  0.51100000000E-03 0. -1.
    9900012    2    1    2    0    0  0.12063777455E+02 -0.41476631033E+02  0.42163536231E+01  0.47787270902E+02  0.19999999352E+02 0.  0.
        -12    1    1    2    0    0 -0.12063777455E+02  0.41476631033E+02 -0.42163536231E+01  0.43400729098E+02  0.00000000000E+00 0.  1.
         11    1    3    3    0    0  0.28245322844E+01 -0.20814390506E+02 -0.41066455761E+01  0.21402835628E+02  0.51100000000E-03 0. -1.
        -11    1    3    3    0    0  0.70035801477E+01 -0.16866043926E+02  0.10912362594E+02  0.21274238652E+02  0.51100000000E-03 0.  1.
         12    1    3    3    0    0  0.22356650225E+01 -0.37961966006E+01 -0.25893633947E+01  0.51101966217E+01  0.00000000000E+00 0. -1.
</event>
<event>
 7    1  0.3062695E-010  0.4778727E+02  0.7816164E-02  0.1312668E+00
        -11   -1    0    0    0    0  0.00000000000E+00  0.00000000000E+00  0.45593999997E+02  0.45594000000E+02  0.51100000000E-03 0.  1.
         11   -1    0    0    0    0 -0.00000000000E+00 -0.00000000000E+00 -0.45593999997E+02  0.45594000000E+02  0.51100000000E-03 0. -1.
    9900012    2    1    2    0    0  0.42680504114E+02  0.26782582864E+01 -0.74043803340E+01  0.47787270202E+02  0.19999996160E+02 0.  0.
        -12    1    1    2    0    0 -0.42680504114E+02 -0.26782582864E+01  0.74043803340E+01  0.43400729798E+02  0.00000000000E+00 0.  1.
         11    1    3    3    0    0  0.13594554005E+02 -0.46092581676E+01  0.30977348255E+01  0.14685132644E+02  0.51100000000E-03 0. -1.
        -11    1    3    3    0    0  0.23928946221E+02  0.70029955642E+01 -0.47671828907E+01  0.25384295285E+02  0.51100000000E-03 0.  1.
         12    1    3    3    0    0  0.51570038870E+01  0.28452088976E+00 -0.57349322688E+01  0.77178422733E+01  0.00000000000E+00 0. -1.
</event>
<event>
 7    1  0.3062695E-010  0.4778727E+02  0.7816164E-02  0.1312668E+00
        -11   -1    0    0    0    0  0.00000000000E+00  0.00000000000E+00  0.45593999997E+02  0.45594000000E+02  0.51100000000E-03 0. -1.
         11   -1    0    0    0    0 -0.00000000000E+00 -0.00000000000E+00 -0.45593999997E+02  0.45594000000E+02  0.51100000000E-03 0.  1.
    9900012    2    1    2    0    0 -0.40379423719E+02  0.11591415095E+02  0.10897913596E+02  0.47787270921E+02  0.19999999438E+02 0.  0.
        -12    1    1    2    0    0  0.40379423719E+02 -0.11591415095E+02 -0.10897913596E+02  0.43400729079E+02  0.00000000000E+00 0.  1.
         11    1    3    3    0    0 -0.85662210468E+01  0.91301035297E+01  0.85020151691E+00  0.12548377440E+02  0.51100000000E-03 0.  1.
        -11    1    3    3    0    0 -0.25257064051E+02 -0.23502626564E+01  0.95049595844E+01  0.27088508190E+02  0.51100000000E-03 0. -1.
         12    1    3    3    0    0 -0.65561386220E+01  0.48115742222E+01  0.54275249520E+00  0.81503852913E+01  0.00000000000E+00 0. -1.
</event>
<event>
 7    1  0.3062695E-010  0.4778727E+02  0.7816164E-02  0.1312668E+00
        -11   -1    0    0    0    0  0.00000000000E+00  0.00000000000E+00  0.45593999997E+02  0.45594000000E+02  0.51100000000E-03 0.  1.
         11   -1    0    0    0    0 -0.00000000000E+00 -0.00000000000E+00 -0.45593999997E+02  0.45594000000E+02  0.51100000000E-03 0. -1.
    9900012    2    1    2    0    0  0.21743150733E+02  0.27228669304E+02 -0.25873893241E+02  0.47787269738E+02  0.19999994041E+02 0.  0.
        -12    1    1    2    0    0 -0.21743150733E+02 -0.27228669304E+02  0.25873893241E+02  0.43400730262E+02  0.00000000000E+00 0.  1.
         11    1    3    3    0    0  0.76430355929E+01  0.20311863012E+02 -0.20285571238E+02  0.29706769814E+02  0.51100000000E-03 0. -1.
        -11    1    3    3    0    0  0.12876588283E+02  0.33795784025E+01 -0.33813301535E+01  0.13735409345E+02  0.51100000000E-03 0.  1.
        -12    1    3    3    0    0  0.12235268568E+01  0.35372278896E+01 -0.22069918502E+01  0.43450905789E+01  0.00000000000E+00 0.  1.
</event>
<event>
 7    1  0.3062695E-010  0.4778726E+02  0.7816164E-02  0.1312668E+00
        -11   -1    0    0    0    0  0.00000000000E+00  0.00000000000E+00  0.45593999997E+02  0.45594000000E+02  0.51100000000E-03 0.  1.
         11   -1    0    0    0    0 -0.00000000000E+00 -0.00000000000E+00 -0.45593999997E+02  0.45594000000E+02  0.51100000000E-03 0. -1.
    9900012    2    1    2    0    0 -0.43104161761E+01 -0.37752138026E+02 -0.20971896881E+02  0.47787261850E+02  0.19999958079E+02 0.  0.
        -12    1    1    2    0    0  0.43104161761E+01  0.37752138026E+02  0.20971896881E+02  0.43400738150E+02  0.00000000000E+00 0.  1.
         11    1    3    3    0    0 -0.57196098852E+01 -0.31159792902E+02 -0.13338640582E+02  0.34373914001E+02  0.51100000000E-03 0. -1.
        -11    1    3    3    0    0  0.46665700013E+01 -0.46408047206E+01 -0.69196605917E+01  0.95496411973E+01  0.51100000000E-03 0.  1.
        -12    1    3    3    0    0 -0.32573762921E+01 -0.19515404036E+01 -0.71359570741E+00  0.38637066515E+01  0.00000000000E+00 0.  1.
</event>
<event>
 7    1  0.3062695E-010  0.4778725E+02  0.7816164E-02  0.1312668E+00
        -11   -1    0    0    0    0  0.00000000000E+00  0.00000000000E+00  0.45593999997E+02  0.45594000000E+02  0.51100000000E-03 0.  1.
         11   -1    0    0    0    0 -0.00000000000E+00 -0.00000000000E+00 -0.45593999997E+02  0.45594000000E+02  0.51100000000E-03 0. -1.
    9900012    2    1    2    0    0 -0.18921727550E+02  0.38605621577E+02 -0.59329339496E+01  0.47787245443E+02  0.19999883274E+02 0.  0.
        -12    1    1    2    0    0  0.18921727550E+02 -0.38605621577E+02  0.59329339496E+01  0.43400754557E+02  0.00000000000E+00 0.  1.
         11    1    3    3    0    0 -0.69829527112E+01  0.18721139702E+01 -0.37335996446E+01  0.81367196001E+01  0.51100000000E-03 0. -1.
        -11    1    3    3    0    0 -0.11575054756E+02  0.28709348376E+02  0.10817417044E+01  0.30973839642E+02  0.51100000000E-03 0.  1.
         12    1    3    3    0    0 -0.36372008339E+00  0.80241592309E+01 -0.32810760094E+01  0.86766862016E+01  0.00000000000E+00 0. -1.
</event>
<event>
 7    1  0.3062695E-010  0.4778727E+02  0.7816164E-02  0.1312668E+00
        -11   -1    0    0    0    0  0.00000000000E+00  0.00000000000E+00  0.45593999997E+02  0.45594000000E+02  0.51100000000E-03 0.  1.
         11   -1    0    0    0    0 -0.00000000000E+00 -0.00000000000E+00 -0.45593999997E+02  0.45594000000E+02  0.51100000000E-03 0. -1.
    9900012    2    1    2    0    0  0.77658198381E+01 -0.19828803166E+02 -0.37817115175E+02  0.47787267368E+02  0.19999983240E+02 0.  0.
        -12    1    1    2    0    0 -0.77658198381E+01  0.19828803166E+02  0.37817115175E+02  0.43400732632E+02  0.00000000000E+00 0.  1.
         11    1    3    3    0    0  0.10547296704E+02 -0.11127775028E+02 -0.19327072345E+02  0.24669993322E+02  0.51100000000E-03 0. -1.
        -11    1    3    3    0    0 -0.28783823491E+01 -0.11055327790E+02 -0.16268376783E+02  0.19878768596E+02  0.51100000000E-03 0.  1.
        -12    1    3    3    0    0  0.96905483315E-01  0.23542996517E+01 -0.22216660476E+01  0.32385054500E+01  0.00000000000E+00 0.  1.
</event>
<event>
 7    1  0.3062695E-010  0.4778726E+02  0.7816164E-02  0.1312668E+00
        -11   -1    0    0    0    0  0.00000000000E+00  0.00000000000E+00  0.45593999997E+02  0.45594000000E+02  0.51100000000E-03 0.  1.
         11   -1    0    0    0    0 -0.00000000000E+00 -0.00000000000E+00 -0.45593999997E+02  0.45594000000E+02  0.51100000000E-03 0. -1.
    9900012    2    1    2    0    0 -0.35482900178E+02 -0.19071627128E+02 -0.16151180830E+02  0.47787264884E+02  0.19999971913E+02 0.  0.
        -12    1    1    2    0    0  0.35482900178E+02  0.19071627128E+02  0.16151180830E+02  0.43400735116E+02  0.00000000000E+00 0.  1.
         11    1    3    3    0    0 -0.13925045139E+02 -0.45824148931E+01 -0.26735486513E+01  0.14901451977E+02  0.51100000000E-03 0. -1.
        -11    1    3    3    0    0 -0.38773592013E+01 -0.56447790076E+01  0.26797166085E+01  0.73537966918E+01  0.51100000000E-03 0.  1.
        -12    1    3    3    0    0 -0.17680495838E+02 -0.88444332273E+01 -0.16157348787E+02  0.25532016216E+02  0.00000000000E+00 0.  1.
</event>
<event>
 7    1  0.3062695E-010  0.4778727E+02  0.7816164E-02  0.1312668E+00
        -11   -1    0    0    0    0  0.00000000000E+00  0.00000000000E+00  0.45593999997E+02  0.45594000000E+02  0.51100000000E-03 0. -1.
         11   -1    0    0    0    0 -0.00000000000E+00 -0.00000000000E+00 -0.45593999997E+02  0.45594000000E+02  0.51100000000E-03 0.  1.
    9900012    2    1    2    0    0 -0.32117107487E+02 -0.28576161450E+02 -0.59596731888E+01  0.47787270731E+02  0.19999998572E+02 0.  0.
        -12    1    1    2    0    0  0.32117107487E+02  0.28576161450E+02  0.59596731888E+01  0.43400729269E+02  0.00000000000E+00 0.  1.
         11    1    3    3    0    0 -0.27929678059E+02 -0.16953078335E+02 -0.48166386338E+01  0.33025350710E+02  0.51100000000E-03 0. -1.
        -11    1    3    3    0    0 -0.51995970421E+01 -0.10673230256E+02  0.13089291988E+01  0.11944327080E+02  0.51100000000E-03 0.  1.
         12    1    3    3    0    0  0.10121676140E+01 -0.94985285882E+00 -0.24519637538E+01  0.28175929412E+01  0.00000000000E+00 0. -1.
</event>
<event>
 7    1  0.3062695E-010  0.4778726E+02  0.7816164E-02  0.1312668E+00
        -11   -1    0    0    0    0  0.00000000000E+00  0.00000000000E+00  0.45593999997E+02  0.45594000000E+02  0.51100000000E-03 0. -1.
         11   -1    0    0    0    0 -0.00000000000E+00 -0.00000000000E+00 -0.45593999997E+02  0.45594000000E+02  0.51100000000E-03 0.  1.
    9900012    2    1    2    0    0 -0.31985488971E+02 -0.15692744012E+02  0.24784880183E+02  0.47787262621E+02  0.19999961595E+02 0.  0.
        -12    1    1    2    0    0  0.31985488971E+02  0.15692744012E+02 -0.24784880183E+02  0.43400737379E+02  0.00000000000E+00 0.  1.
         11    1    3    3    0    0 -0.19900463595E+01 -0.88522065642E+00 -0.25489020491E+01  0.33527305350E+01  0.51100000000E-03 0.  1.
        -11    1    3    3    0    0 -0.20322069447E+02 -0.13915496135E+02  0.23337250876E+02  0.33930146154E+02  0.51100000000E-03 0. -1.
        -12    1    3    3    0    0 -0.96733731643E+01 -0.89202722034E+00  0.39965313561E+01  0.10504385932E+02  0.00000000000E+00 0.  1.
</event>
<event>
 7    1  0.3062695E-010  0.4778727E+02  0.7816164E-02  0.1312668E+00
        -11   -1    0    0    0    0  0.00000000000E+00  0.00000000000E+00  0.45593999997E+02  0.45594000000E+02  0.51100000000E-03 0.  1.
         11   -1    0    0    0    0 -0.00000000000E+00 -0.00000000000E+00 -0.45593999997E+02  0.45594000000E+02  0.51100000000E-03 0. -1.
    9900012    2    1    2    0    0 -0.29585130510E+02  0.42988377732E+01 -0.31462092894E+02  0.47787271403E+02  0.20000001633E+02 0.  0.
        -12    1    1    2    0    0  0.29585130510E+02 -0.42988377732E+01  0.31462092894E+02  0.43400728597E+02  0.00000000000E+00 0.  1.
         11    1    3    3    0    0 -0.22733015344E+02  0.57803771452E+01 -0.26590889609E+02  0.35458118351E+02  0.51100000000E-03 0. -1.
        -11    1    3    3    0    0  0.89973209696E+00  0.24045824928E+01 -0.17764115032E+01  0.31220462682E+01  0.51100000000E-03 0.  1.
         12    1    3    3    0    0 -0.77518472628E+01 -0.38861218648E+01 -0.30947917825E+01  0.92071067829E+01  0.00000000000E+00 0. -1.
</event>
<event>
 7    1  0.3062695E-010  0.4778727E+02  0.7816164E-02  0.1312668E+00
        -11   -1    0    0    0    0  0.00000000000E+00  0.00000000000E+00  0.45593999997E+02  0.45594000000E+02  0.51100000000E-03 0. -1.
         11   -1    0    0    0    0 -0.00000000000E+00 -0.00000000000E+00 -0.45593999997E+02  0.45594000000E+02  0.51100000000E-03 0.  1.
    9900012    2    1    2    0    0  0.38967608462E+02  0.16599561662E+02 -0.94658918995E+01  0.47787273439E+02  0.20000010916E+02 0.  0.
        -12    1    1    2    0    0 -0.38967608462E+02 -0.16599561662E+02  0.94658918995E+01  0.43400726561E+02  0.00000000000E+00 0.  1.
         11    1    3    3    0    0  0.32268434252E+01  0.38387314372E+01 -0.15653567521E+01  0.52534483494E+01  0.51100000000E-03 0. -1.
        -11    1    3    3    0    0  0.24287806336E+02  0.16747280258E+02 -0.73015348594E+01  0.30392126352E+02  0.51100000000E-03 0.  1.
        -12    1    3    3    0    0  0.11452958701E+02 -0.39864500334E+01 -0.59900028801E+00  0.12141698737E+02  0.00000000000E+00 0.  1.
</event>
<event>
 7    1  0.3062695E-010  0.4778727E+02  0.7816164E-02  0.1312668E+00
        -11   -1    0    0    0    0  0.00000000000E+00  0.00000000000E+00  0.45593999997E+02  0.45594000000E+02  0.51100000000E-03 0.  1.
         11   -1    0    0    0    0 -0.00000000000E+00 -0.00000000000E+00 -0.45593999997E+02  0.45594000000E+02  0.51100000000E-03 0. -1.
    9900012    2    1    2    0    0 -0.15688415395E+02 -0.26837747869E+02 -0.30285841841E+02  0.47787270694E+02  0.19999998403E+02 0.  0.
        -12    1    1    2    0    0  0.15688415395E+02  0.26837747869E+02  0.30285841841E+02  0.43400729306E+02  0.00000000000E+00 0.  1.
         11    1    3    3    0    0 -0.13457561806E+02 -0.13259376629E+02 -0.14596660637E+02  0.23874244289E+02  0.51100000000E-03 0. -1.
        -11    1    3    3    0    0  0.38457386221E+01 -0.10047088837E+02 -0.74617474470E+01  0.13092416694E+02  0.51100000000E-03 0.  1.
        -12    1    3    3    0    0 -0.60765922104E+01 -0.35312824022E+01 -0.82274337573E+01  0.10820609711E+02  0.00000000000E+00 0.  1.
</event>
<event>
 7    1  0.3742272E-010  0.4778727E+02  0.7816164E-02  0.1312668E+00
        -11   -1    0    0    0    0  0.00000000000E+00  0.00000000000E+00  0.45593999997E+02  0.45594000000E+02  0.51100000000E-03 0.  1.
         11   -1    0    0    0    0 -0.00000000000E+00 -0.00000000000E+00 -0.45593999997E+02  0.45594000000E+02  0.51100000000E-03 0. -1.
    9900012    2    1    2    0    0  0.24577608059E+02  0.34861697377E+02 -0.80141392152E+01  0.47787272020E+02  0.20000004446E+02 0.  0.
        -12    1    1    2    0    0 -0.24577608059E+02 -0.34861697377E+02  0.80141392152E+01  0.43400727980E+02  0.00000000000E+00 0.  1.
         11    1    3    3    0    0  0.15723551948E+02  0.26464730540E+02 -0.46361655369E+01  0.31130468669E+02  0.51100000000E-03 0. -1.
        -11    1    3    3    0    0 -0.16627293916E+01  0.82406372161E+00 -0.31962520954E+01  0.36959136577E+01  0.51100000000E-03 0.  1.
        -12    1    3    3    0    0  0.10516785502E+02  0.75729031153E+01 -0.18172158295E+00  0.12960889693E+02  0.00000000000E+00 0.  1.
</event>
<event>
 7    1  0.3062695E-010  0.4778727E+02  0.7816164E-02  0.1312668E+00
        -11   -1    0    0    0    0  0.00000000000E+00  0.00000000000E+00  0.45593999997E+02  0.45594000000E+02  0.51100000000E-03 0.  1.
         11   -1    0    0    0    0 -0.00000000000E+00 -0.00000000000E+00 -0.45593999997E+02  0.45594000000E+02  0.51100000000E-03 0. -1.
    9900012    2    1    2    0    0 -0.27042049855E+01  0.14601507083E+02 -0.40781203232E+02  0.47787271081E+02  0.20000000165E+02 0.  0.
        -12    1    1    2    0    0  0.27042049855E+01 -0.14601507083E+02  0.40781203232E+02  0.43400728919E+02  0.00000000000E+00 0.  1.
         11    1    3    3    0    0 -0.26677837691E+00  0.15283428329E+01 -0.35975011866E+01  0.39177822254E+01  0.51100000000E-03 0. -1.
        -11    1    3    3    0    0 -0.23968083530E+00  0.73640244544E+01 -0.37023847138E+02  0.37749855102E+02  0.51100000000E-03 0.  1.
        -12    1    3    3    0    0 -0.21977457733E+01  0.57091397952E+01 -0.15985490780E+00  0.61196337535E+01  0.00000000000E+00 0.  1.
</event>
<event>
 7    1  0.3062695E-010  0.4778726E+02  0.7816164E-02  0.1312668E+00
        -11   -1    0    0    0    0  0.00000000000E+00  0.00000000000E+00  0.45593999997E+02  0.45594000000E+02  0.51100000000E-03 0.  1.
         11   -1    0    0    0    0 -0.00000000000E+00 -0.00000000000E+00 -0.45593999997E+02  0.45594000000E+02  0.51100000000E-03 0. -1.
    9900012    2    1    2    0    0 -0.25594458181E+02 -0.86871247576E+01 -0.33957052081E+02  0.47787264843E+02  0.19999971725E+02 0.  0.
        -12    1    1    2    0    0  0.25594458181E+02  0.86871247576E+01  0.33957052081E+02  0.43400735157E+02  0.00000000000E+00 0.  1.
         11    1    3    3    0    0 -0.24330233821E+00  0.12023073024E+01  0.14530843997E+01  0.19016291465E+01  0.51100000000E-03 0. -1.
        -11    1    3    3    0    0 -0.19108269648E+02 -0.73582412636E+01 -0.18167793499E+02  0.27374046181E+02  0.51100000000E-03 0.  1.
         12    1    3    3    0    0 -0.62428861952E+01 -0.25311907964E+01 -0.17242342982E+02  0.18511589516E+02  0.00000000000E+00 0. -1.
</event>
<event>
 7    1  0.3142605E-010  0.4778725E+02  0.7816164E-02  0.1312668E+00
        -11   -1    0    0    0    0  0.00000000000E+00  0.00000000000E+00  0.45593999997E+02  0.45594000000E+02  0.51100000000E-03 0. -1.
         11   -1    0    0    0    0 -0.00000000000E+00 -0.00000000000E+00 -0.45593999997E+02  0.45594000000E+02  0.51100000000E-03 0.  1.
    9900012    2    1    2    0    0  0.21925903042E+02  0.37224131831E+02 -0.41525276129E+01  0.47787254611E+02  0.19999925073E+02 0.  0.
        -12    1    1    2    0    0 -0.21925903042E+02 -0.37224131831E+02  0.41525276129E+01  0.43400745389E+02  0.00000000000E+00 0.  1.
         11    1    3    3    0    0  0.62801593536E+01  0.80183192575E+01  0.17164063651E+00  0.10186427538E+02  0.51100000000E-03 0. -1.
        -11    1    3    3    0    0  0.15734828126E+02  0.14664890736E+02  0.22810111667E+01  0.21629767652E+02  0.51100000000E-03 0.  1.
        -12    1    3    3    0    0 -0.89084438194E-01  0.14540921837E+02 -0.66051794160E+01  0.15971059421E+02  0.00000000000E+00 0.  1.
</event>
<event>
 7    1  0.3062695E-010  0.4778727E+02  0.7816164E-02  0.1312668E+00
        -11   -1    0    0    0    0  0.00000000000E+00  0.00000000000E+00  0.45593999997E+02  0.45594000000E+02  0.51100000000E-03 0. -1.
         11   -1    0    0    0    0 -0.00000000000E+00 -0.00000000000E+00 -0.45593999997E+02  0.45594000000E+02  0.51100000000E-03 0.  1.
    9900012    2    1    2    0    0 -0.26384692043E+02 -0.96545058025E+01  0.33079628482E+02  0.47787271008E+02  0.19999999835E+02 0.  0.
        -12    1    1    2    0    0  0.26384692043E+02  0.96545058025E+01 -0.33079628482E+02  0.43400728992E+02  0.00000000000E+00 0.  1.
         11    1    3    3    0    0 -0.98111823381E+01 -0.17512052176E+01  0.59271370561E+01  0.11595558310E+02  0.51100000000E-03 0. -1.
        -11    1    3    3    0    0 -0.48994121492E+00 -0.12168143496E+01  0.14752359303E+02  0.14810563285E+02  0.51100000000E-03 0.  1.
        -12    1    3    3    0    0 -0.16083568490E+02 -0.66864862353E+01  0.12400132124E+02  0.21381149413E+02  0.00000000000E+00 0.  1.
</event>
<event>
 7    1  0.3062695E-010  0.4778727E+02  0.7816164E-02  0.1312668E+00
        -11   -1    0    0    0    0  0.00000000000E+00  0.00000000000E+00  0.45593999997E+02  0.45594000000E+02  0.51100000000E-03 0.  1.
         11   -1    0    0    0    0 -0.00000000000E+00 -0.00000000000E+00 -0.45593999997E+02  0.45594000000E+02  0.51100000000E-03 0. -1.
    9900012    2    1    2    0    0  0.98570725438E+01 -0.35141363778E+02 -0.23485014380E+02  0.47787271576E+02  0.20000002424E+02 0.  0.
        -12    1    1    2    0    0 -0.98570725438E+01  0.35141363778E+02  0.23485014380E+02  0.43400728424E+02  0.00000000000E+00 0.  1.
         11    1    3    3    0    0  0.74267515414E+00 -0.13148959692E+02 -0.16284448205E+01  0.13270212514E+02  0.51100000000E-03 0.  1.
        -11    1    3    3    0    0  0.83302344271E+01 -0.13717155319E+02 -0.20595042318E+02  0.26109556181E+02  0.51100000000E-03 0. -1.
         12    1    3    3    0    0  0.78416296259E+00 -0.82752487670E+01 -0.12615272410E+01  0.84075028806E+01  0.00000000000E+00 0. -1.
</event>
<event>
 7    1  0.3062695E-010  0.4778727E+02  0.7816164E-02  0.1312668E+00
        -11   -1    0    0    0    0  0.00000000000E+00  0.00000000000E+00  0.45593999997E+02  0.45594000000E+02  0.51100000000E-03 0.  1.
         11   -1    0    0    0    0 -0.00000000000E+00 -0.00000000000E+00 -0.45593999997E+02  0.45594000000E+02  0.51100000000E-03 0. -1.
    9900012    2    1    2    0    0  0.24851732961E+02 -0.10854615785E+02 -0.33884978964E+02  0.47787272882E+02  0.20000008379E+02 0.  0.
        -12    1    1    2    0    0 -0.24851732961E+02  0.10854615785E+02  0.33884978964E+02  0.43400727118E+02  0.00000000000E+00 0.  1.
         11    1    3    3    0    0  0.12818715120E+02 -0.10336967991E+02 -0.23785657550E+02  0.28929740232E+02  0.51100000000E-03 0. -1.
        -11    1    3    3    0    0 -0.13784622648E+01  0.52479175500E+00  0.67555308853E+00  0.16223245169E+01  0.51100000000E-03 0.  1.
        -12    1    3    3    0    0  0.13411480106E+02 -0.10424395490E+01 -0.10774874502E+02  0.17235208133E+02  0.00000000000E+00 0.  1.
</event>
<event>
 7    1  0.3062695E-010  0.4778727E+02  0.7816164E-02  0.1312668E+00
        -11   -1    0    0    0    0  0.00000000000E+00  0.00000000000E+00  0.45593999997E+02  0.45594000000E+02  0.51100000000E-03 0.  1.
         11   -1    0    0    0    0 -0.00000000000E+00 -0.00000000000E+00 -0.45593999997E+02  0.45594000000E+02  0.51100000000E-03 0. -1.
    9900012    2    1    2    0    0 -0.25028197518E+02  0.83105815674E+01 -0.34469503406E+02  0.47787273024E+02  0.20000009028E+02 0.  0.
        -12    1    1    2    0    0  0.25028197518E+02 -0.83105815674E+01  0.34469503406E+02  0.43400726976E+02  0.00000000000E+00 0.  1.
         11    1    3    3    0    0 -0.11429152676E+00  0.31423558818E+01  0.77132374463E+00  0.32376540305E+01  0.51100000000E-03 0. -1.
        -11    1    3    3    0    0 -0.11877310033E+01  0.14371527154E+01 -0.80817853455E+01  0.82940561546E+01  0.51100000000E-03 0.  1.
         12    1    3    3    0    0 -0.23726174988E+02  0.37310729702E+01 -0.27159041805E+02  0.36255562839E+02  0.00000000000E+00 0. -1.
</event>
<event>
 7    1  0.3062695E-010  0.4778727E+02  0.7816164E-02  0.1312668E+00
        -11   -1    0    0    0    0  0.00000000000E+00  0.00000000000E+00  0.45593999997E+02  0.45594000000E+02  0.51100000000E-03 0. -1.
         11   -1    0    0    0    0 -0.00000000000E+00 -0.00000000000E+00 -0.45593999997E+02  0.45594000000E+02  0.51100000000E-03 0.  1.
    9900012    2    1    2    0    0 -0.39756317777E+02 -0.13650961399E+02  0.10803225479E+02  0.47787271538E+02  0.20000002251E+02 0.  0.
        -12    1    1    2    0    0  0.39756317777E+02  0.13650961399E+02 -0.10803225479E+02  0.43400728462E+02  0.00000000000E+00 0.  1.
         11    1    3    3    0    0 -0.23514189250E+01 -0.54998465455E+01 -0.19003861559E+01  0.62760617259E+01  0.51100000000E-03 0. -1.
        -11    1    3    3    0    0 -0.16909459981E+02 -0.85083776590E-01  0.90680018607E+01  0.19187645351E+02  0.51100000000E-03 0.  1.
         12    1    3    3    0    0 -0.20495438870E+02 -0.80660310769E+01  0.36356097742E+01  0.22323564461E+02  0.00000000000E+00 0. -1.
</event>
<event>
 7    1  0.3062695E-010  0.4778728E+02  0.7816164E-02  0.1312668E+00
        -11   -1    0    0    0    0  0.00000000000E+00  0.00000000000E+00  0.45593999997E+02  0.45594000000E+02  0.51100000000E-03 0.  1.
         11   -1    0    0    0    0 -0.00000000000E+00 -0.00000000000E+00 -0.45593999997E+02  0.45594000000E+02  0.51100000000E-03 0. -1.
    9900012    2    1    2    0    0  0.80341308190E+01  0.21068214866E+02 -0.37083766846E+02  0.47787277666E+02  0.20000030189E+02 0.  0.
        -12    1    1    2    0    0 -0.80341308190E+01 -0.21068214866E+02  0.37083766846E+02  0.43400722334E+02  0.00000000000E+00 0.  1.
         11    1    3    3    0    0  0.22323457282E+01  0.50008008587E+01 -0.33215361597E+00  0.54865018877E+01  0.51100000000E-03 0. -1.
        -11    1    3    3    0    0  0.22924759562E+01  0.17108869192E+02 -0.29555878409E+02  0.34227456812E+02  0.51100000000E-03 0.  1.
        -12    1    3    3    0    0  0.35093091345E+01 -0.10414551854E+01 -0.71957348214E+01  0.80733189659E+01  0.00000000000E+00 0.  1.
</event>
<event>
 7    1  0.3062695E-010  0.4778728E+02  0.7816164E-02  0.1312668E+00
        -11   -1    0    0    0    0  0.00000000000E+00  0.00000000000E+00  0.45593999997E+02  0.45594000000E+02  0.51100000000E-03 0. -1.
         11   -1    0    0    0    0 -0.00000000000E+00 -0.00000000000E+00 -0.45593999997E+02  0.45594000000E+02  0.51100000000E-03 0.  1.
    9900012    2    1    2    0    0 -0.77578184163E+01  0.37212179258E+02  0.20944992173E+02  0.47787277324E+02  0.20000028630E+02 0.  0.
        -12    1    1    2    0    0  0.77578184163E+01 -0.37212179258E+02 -0.20944992173E+02  0.43400722676E+02  0.00000000000E+00 0.  1.
         11    1    3    3    0    0  0.73544508893E+00  0.15016563163E+02  0.29483641967E+01  0.15320930142E+02  0.51100000000E-03 0. -1.
        -11    1    3    3    0    0 -0.63774620067E+01  0.10592578114E+02  0.18972542063E+01  0.12508969044E+02  0.51100000000E-03 0.  1.
         12    1    3    3    0    0 -0.21158014985E+01  0.11603037980E+02  0.16099373770E+02  0.19957378138E+02  0.00000000000E+00 0. -1.
</event>
<event>
 7    1  0.3062695E-010  0.4778727E+02  0.7816164E-02  0.1312668E+00
        -11   -1    0    0    0    0  0.00000000000E+00  0.00000000000E+00  0.45593999997E+02  0.45594000000E+02  0.51100000000E-03 0.  1.
         11   -1    0    0    0    0 -0.00000000000E+00 -0.00000000000E+00 -0.45593999997E+02  0.45594000000E+02  0.51100000000E-03 0. -1.
    9900012    2    1    2    0    0 -0.33145777552E+02 -0.49086992385E+01 -0.27584146488E+02  0.47787273795E+02  0.20000012539E+02 0.  0.
        -12    1    1    2    0    0  0.33145777552E+02  0.49086992385E+01  0.27584146488E+02  0.43400726205E+02  0.00000000000E+00 0.  1.
         11    1    3    3    0    0 -0.14880289409E+02 -0.98186914781E+01 -0.70525444775E+01  0.19172065593E+02  0.51100000000E-03 0. -1.
        -11    1    3    3    0    0 -0.70921599053E+01  0.51273542473E+01 -0.86982297824E+01  0.12338869288E+02  0.51100000000E-03 0.  1.
         12    1    3    3    0    0 -0.11173328237E+02 -0.21736200763E+00 -0.11833372228E+02  0.16276338913E+02  0.00000000000E+00 0. -1.
</event>
<event>
 7    1  0.3062695E-010  0.4778727E+02  0.7816164E-02  0.1312668E+00
        -11   -1    0    0    0    0  0.00000000000E+00  0.00000000000E+00  0.45593999997E+02  0.45594000000E+02  0.51100000000E-03 0. -1.
         11   -1    0    0    0    0 -0.00000000000E+00 -0.00000000000E+00 -0.45593999997E+02  0.45594000000E+02  0.51100000000E-03 0.  1.
    9900012    2    1    2    0    0 -0.83978405674E+01 -0.17011212394E+02  0.39034838846E+02  0.47787265939E+02  0.19999976721E+02 0.  0.
        -12    1    1    2    0    0  0.83978405674E+01  0.17011212394E+02 -0.39034838846E+02  0.43400734061E+02  0.00000000000E+00 0.  1.
         11    1    3    3    0    0 -0.32330563508E+01 -0.18569682553E+02  0.34075410653E+02  0.38941229756E+02  0.51100000000E-03 0. -1.
        -11    1    3    3    0    0 -0.12097263921E+01  0.12293270179E+01  0.45383524394E+01  0.48550309974E+01  0.51100000000E-03 0.  1.
         12    1    3    3    0    0 -0.39550578245E+01  0.32914314067E+00  0.42107575417E+00  0.39910051858E+01  0.00000000000E+00 0. -1.
</event>
<event>
 7    1  0.3062695E-010  0.4778727E+02  0.7816164E-02  0.1312668E+00
        -11   -1    0    0    0    0  0.00000000000E+00  0.00000000000E+00  0.45593999997E+02  0.45594000000E+02  0.51100000000E-03 0.  1.
         11   -1    0    0    0    0 -0.00000000000E+00 -0.00000000000E+00 -0.45593999997E+02  0.45594000000E+02  0.51100000000E-03 0. -1.
    9900012    2    1    2    0    0  0.27704482631E+02  0.22093080631E+01 -0.33334725735E+02  0.47787270285E+02  0.19999996536E+02 0.  0.
        -12    1    1    2    0    0 -0.27704482631E+02 -0.22093080631E+01  0.33334725735E+02  0.43400729715E+02  0.00000000000E+00 0.  1.
         11    1    3    3    0    0  0.22242809407E+02 -0.21087438589E+01 -0.27887939986E+02  0.35734109306E+02  0.51100000000E-03 0. -1.
        -11    1    3    3    0    0  0.70045406167E+01  0.98052211307E+00 -0.34591519415E+01  0.78734201768E+01  0.51100000000E-03 0.  1.
         12    1    3    3    0    0 -0.15428673924E+01  0.33375298089E+01 -0.19876338078E+01  0.41797408017E+01  0.00000000000E+00 0. -1.
</event>
<event>
 7    1  0.3062695E-010  0.4778727E+02  0.7816164E-02  0.1312668E+00
        -11   -1    0    0    0    0  0.00000000000E+00  0.00000000000E+00  0.45593999997E+02  0.45594000000E+02  0.51100000000E-03 0.  1.
         11   -1    0    0    0    0 -0.00000000000E+00 -0.00000000000E+00 -0.45593999997E+02  0.45594000000E+02  0.51100000000E-03 0. -1.
    9900012    2    1    2    0    0 -0.26237968165E+02  0.22308438616E+02 -0.26410721897E+02  0.47787266849E+02  0.19999980873E+02 0.  0.
        -12    1    1    2    0    0  0.26237968165E+02 -0.22308438616E+02  0.26410721897E+02  0.43400733151E+02  0.00000000000E+00 0.  1.
         11    1    3    3    0    0  0.28835288664E+01  0.10147949604E+01 -0.20933500786E+01  0.37049510588E+01  0.51100000000E-03 0. -1.
        -11    1    3    3    0    0 -0.11158863865E+02  0.47411945794E+01 -0.58569158300E+01  0.13464866583E+02  0.51100000000E-03 0.  1.
         12    1    3    3    0    0 -0.17962633167E+02  0.16552449076E+02 -0.18460455988E+02  0.30617449208E+02  0.00000000000E+00 0. -1.
</event>
<event>
 7    1  0.3062695E-010  0.4778727E+02  0.7816164E-02  0.1312668E+00
        -11   -1    0    0    0    0  0.00000000000E+00  0.00000000000E+00  0.45593999997E+02  0.45594000000E+02  0.51100000000E-03 0. -1.
         11   -1    0    0    0    0 -0.00000000000E+00 -0.00000000000E+00 -0.45593999997E+02  0.45594000000E+02  0.51100000000E-03 0.  1.
    9900012    2    1    2    0    0  0.37688202981E+02 -0.21445336159E+02  0.18222366666E+01  0.47787266902E+02  0.19999981115E+02 0.  0.
        -12    1    1    2    0    0 -0.37688202981E+02  0.21445336159E+02 -0.18222366666E+01  0.43400733098E+02  0.00000000000E+00 0.  1.
         11    1    3    3    0    0  0.10756293262E+02 -0.94604955292E+01  0.93384661305E+01  0.17099876325E+02  0.51100000000E-03 0. -1.
        -11    1    3    3    0    0  0.18592459195E+02 -0.90787339533E+01 -0.69936065163E+01  0.21840638303E+02  0.51100000000E-03 0.  1.
         12    1    3    3    0    0  0.83394505247E+01 -0.29061066767E+01 -0.52262294755E+00  0.88467522751E+01  0.00000000000E+00 0. -1.
</event>
<event>
 7    1  0.3778707E-010  0.4778727E+02  0.7816164E-02  0.1312668E+00
        -11   -1    0    0    0    0  0.00000000000E+00  0.00000000000E+00  0.45593999997E+02  0.45594000000E+02  0.51100000000E-03 0. -1.
         11   -1    0    0    0    0 -0.00000000000E+00 -0.00000000000E+00 -0.45593999997E+02  0.45594000000E+02  0.51100000000E-03 0.  1.
    9900012    2    1    2    0    0 -0.23336513754E+01  0.28370422436E+02 -0.32761206531E+02  0.47787269000E+02  0.19999990681E+02 0.  0.
        -12    1    1    2    0    0  0.23336513754E+01 -0.28370422436E+02  0.32761206531E+02  0.43400731000E+02  0.00000000000E+00 0.  1.
         11    1    3    3    0    0 -0.20191714951E+01  0.10759783664E+02 -0.18205157146E+02  0.21243298825E+02  0.51100000000E-03 0. -1.
        -11    1    3    3    0    0 -0.47652532999E+01  0.25646204248E+01 -0.42514370066E+00  0.54282284738E+01  0.51100000000E-03 0.  1.
        -12    1    3    3    0    0  0.44507734196E+01  0.15046018347E+02 -0.14130905684E+02  0.21115741701E+02  0.00000000000E+00 0.  1.
</event>
<event>
 7    1  0.3062695E-010  0.4778727E+02  0.7816164E-02  0.1312668E+00
        -11   -1    0    0    0    0  0.00000000000E+00  0.00000000000E+00  0.45593999997E+02  0.45594000000E+02  0.51100000000E-03 0.  1.
         11   -1    0    0    0    0 -0.00000000000E+00 -0.00000000000E+00 -0.45593999997E+02  0.45594000000E+02  0.51100000000E-03 0. -1.
    9900012    2    1    2    0    0 -0.21050796239E+01  0.29808206483E+02 -0.31474796358E+02  0.47787270286E+02  0.19999996540E+02 0.  0.
        -12    1    1    2    0    0  0.21050796239E+01 -0.29808206483E+02  0.31474796358E+02  0.43400729714E+02  0.00000000000E+00 0.  1.
         11    1    3    3    0    0  0.26585965149E+01  0.51177986144E+01 -0.10985797201E+02  0.12407567791E+02  0.51100000000E-03 0. -1.
        -11    1    3    3    0    0 -0.35870756861E+01  0.22269675550E+02 -0.10220237289E+02  0.24764062906E+02  0.51100000000E-03 0.  1.
        -12    1    3    3    0    0 -0.11766004527E+01  0.24207323183E+01 -0.10268761867E+02  0.10615639588E+02  0.00000000000E+00 0.  1.
</event>
<event>
 7    1  0.3062695E-010  0.4778727E+02  0.7816164E-02  0.1312668E+00
        -11   -1    0    0    0    0  0.00000000000E+00  0.00000000000E+00  0.45593999997E+02  0.45594000000E+02  0.51100000000E-03 0.  1.
         11   -1    0    0    0    0 -0.00000000000E+00 -0.00000000000E+00 -0.45593999997E+02  0.45594000000E+02  0.51100000000E-03 0. -1.
    9900012    2    1    2    0    0 -0.28184325130E+02 -0.31723376395E+02 -0.91046557530E+01  0.47787267871E+02  0.19999985531E+02 0.  0.
        -12    1    1    2    0    0  0.28184325130E+02  0.31723376395E+02  0.91046557530E+01  0.43400732129E+02  0.00000000000E+00 0.  1.
         11    1    3    3    0    0 -0.10486236461E+02 -0.21124373899E+02 -0.42104895562E+01  0.23956805929E+02  0.51100000000E-03 0. -1.
        -11    1    3    3    0    0 -0.32328138706E+01 -0.76068652473E+01  0.12598625069E-01  0.82653277854E+01  0.51100000000E-03 0.  1.
         12    1    3    3    0    0 -0.14465274798E+02 -0.29921372492E+01 -0.49067648219E+01  0.15565134157E+02  0.00000000000E+00 0. -1.
</event>
<event>
 7    1  0.3062695E-010  0.4778727E+02  0.7816164E-02  0.1312668E+00
        -11   -1    0    0    0    0  0.00000000000E+00  0.00000000000E+00  0.45593999997E+02  0.45594000000E+02  0.51100000000E-03 0.  1.
         11   -1    0    0    0    0 -0.00000000000E+00 -0.00000000000E+00 -0.45593999997E+02  0.45594000000E+02  0.51100000000E-03 0. -1.
    9900012    2    1    2    0    0 -0.63493604528E+01  0.31648272177E+02 -0.29011991918E+02  0.47787272068E+02  0.20000004668E+02 0.  0.
        -12    1    1    2    0    0  0.63493604528E+01 -0.31648272177E+02  0.29011991918E+02  0.43400727932E+02  0.00000000000E+00 0.  1.
         11    1    3    3    0    0 -0.10322901782E+02  0.10951889361E+02 -0.15118003033E+02  0.21332140018E+02  0.51100000000E-03 0. -1.
        -11    1    3    3    0    0  0.17452027606E+01  0.11131403351E+02 -0.27442306185E+01  0.11596752787E+02  0.51100000000E-03 0.  1.
        -12    1    3    3    0    0  0.22283385685E+01  0.95649794653E+01 -0.11149758267E+02  0.14858379264E+02  0.00000000000E+00 0.  1.
</event>
<event>
 7    1  0.3062695E-010  0.4778727E+02  0.7816164E-02  0.1312668E+00
        -11   -1    0    0    0    0  0.00000000000E+00  0.00000000000E+00  0.45593999997E+02  0.45594000000E+02  0.51100000000E-03 0. -1.
         11   -1    0    0    0    0 -0.00000000000E+00 -0.00000000000E+00 -0.45593999997E+02  0.45594000000E+02  0.51100000000E-03 0.  1.
    9900012    2    1    2    0    0 -0.54702548985E+01 -0.37629261722E+02  0.20922196414E+02  0.47787270408E+02  0.19999997097E+02 0.  0.
        -12    1    1    2    0    0  0.54702548985E+01  0.37629261722E+02 -0.20922196414E+02  0.43400729592E+02  0.00000000000E+00 0.  1.
         11    1    3    3    0    0 -0.96272555122E+01 -0.19812568117E+02  0.67303385223E+01  0.23033005904E+02  0.51100000000E-03 0. -1.
        -11    1    3    3    0    0  0.38346921735E+01 -0.23387030103E+01  0.15001586644E+01  0.47354906942E+01  0.51100000000E-03 0.  1.
        -12    1    3    3    0    0  0.32230844021E+00 -0.15477990594E+02  0.12691699227E+02  0.20018773809E+02  0.00000000000E+00 0.  1.
</event>
<event>
 7    1  0.3062695E-010  0.4778727E+02  0.7816164E-02  0.1312668E+00
        -11   -1    0    0    0    0  0.00000000000E+00  0.00000000000E+00  0.45593999997E+02  0.45594000000E+02  0.51100000000E-03 0.  1.
         11   -1    0    0    0    0 -0.00000000000E+00 -0.00000000000E+00 -0.45593999997E+02  0.45594000000E+02  0.51100000000E-03 0. -1.
    9900012    2    1    2    0    0  0.11770025968E+02 -0.28900086200E+02 -0.30164127591E+02  0.47787273197E+02  0.20000009814E+02 0.  0.
        -12    1    1    2    0    0 -0.11770025968E+02  0.28900086200E+02  0.30164127591E+02  0.43400726803E+02  0.00000000000E+00 0.  1.
         11    1    3    3    0    0  0.33620900706E+01 -0.96546167430E+01 -0.61254947135E+01  0.11917925987E+02  0.51100000000E-03 0. -1.
        -11    1    3    3    0    0 -0.31219619995E+01 -0.13241287920E+02 -0.12960855800E+02  0.18789947734E+02  0.51100000000E-03 0.  1.
        -12    1    3    3    0    0  0.11529897897E+02 -0.60041815375E+01 -0.11077777078E+02  0.17079399476E+02  0.00000000000E+00 0.  1.
</event>
<event>
 7    1  0.3062695E-010  0.4778726E+02  0.7816164E-02  0.1312668E+00
        -11   -1    0    0    0    0  0.00000000000E+00  0.00000000000E+00  0.45593999997E+02  0.45594000000E+02  0.51100000000E-03 0. -1.
         11   -1    0    0    0    0 -0.00000000000E+00 -0.00000000000E+00 -0.45593999997E+02  0.45594000000E+02  0.51100000000E-03 0.  1.
    9900012    2    1    2    0    0 -0.42351036081E+01 -0.54722265464E+01  0.42845573542E+02  0.47787256480E+02  0.19999933596E+02 0.  0.
        -12    1    1    2    0    0  0.42351036081E+01  0.54722265464E+01 -0.42845573542E+02  0.43400743520E+02  0.00000000000E+00 0.  1.
         11    1    3    3    0    0 -0.60796687739E+01  0.24828785843E+01  0.58048195125E+01  0.87648724063E+01  0.51100000000E-03 0. -1.
        -11    1    3    3    0    0  0.21824087761E+01 -0.89673468844E+01  0.20907534807E+02  0.22853910610E+02  0.51100000000E-03 0.  1.
        -12    1    3    3    0    0 -0.33784361020E+00  0.10122417537E+01  0.16133219222E+02  0.16168473464E+02  0.00000000000E+00 0.  1.
</event>
<event>
 7    1  0.3062695E-010  0.4778727E+02  0.7816164E-02  0.1312668E+00
        -11   -1    0    0    0    0  0.00000000000E+00  0.00000000000E+00  0.45593999997E+02  0.45594000000E+02  0.51100000000E-03 0.  1.
         11   -1    0    0    0    0 -0.00000000000E+00 -0.00000000000E+00 -0.45593999997E+02  0.45594000000E+02  0.51100000000E-03 0. -1.
    9900012    2    1    2    0    0 -0.29018359380E+02  0.23326655771E+01 -0.32188765755E+02  0.47787272464E+02  0.20000006473E+02 0.  0.
        -12    1    1    2    0    0  0.29018359380E+02 -0.23326655771E+01  0.32188765755E+02  0.43400727536E+02  0.00000000000E+00 0.  1.
         11    1    3    3    0    0  0.14403514235E+01 -0.30032288278E+01 -0.54186502851E+01  0.63604847919E+01  0.51100000000E-03 0. -1.
        -11    1    3    3    0    0 -0.27322463528E+02  0.31358637522E+01 -0.21484821630E+02  0.34899114823E+02  0.51100000000E-03 0.  1.
        -12    1    3    3    0    0 -0.31362472754E+01  0.22000306528E+01 -0.52852938401E+01  0.65276728489E+01  0.00000000000E+00 0.  1.
</event>
<event>
 7    1  0.3062695E-010  0.4778727E+02  0.7816164E-02  0.1312668E+00
        -11   -1    0    0    0    0  0.00000000000E+00  0.00000000000E+00  0.45593999997E+02  0.45594000000E+02  0.51100000000E-03 0.  1.
         11   -1    0    0    0    0 -0.00000000000E+00 -0.00000000000E+00 -0.45593999997E+02  0.45594000000E+02  0.51100000000E-03 0. -1.
    9900012    2    1    2    0    0 -0.17725129804E+02  0.19739288205E+02 -0.34348273462E+02  0.47787267112E+02  0.19999982069E+02 0.  0.
        -12    1    1    2    0    0  0.17725129804E+02 -0.19739288205E+02  0.34348273462E+02  0.43400732888E+02  0.00000000000E+00 0.  1.
         11    1    3    3    0    0 -0.35897996852E+01 -0.23317195341E+00 -0.16524535192E+02  0.16911572798E+02  0.51100000000E-03 0. -1.
        -11    1    3    3    0    0  0.25513552985E+00  0.27586858836E+01 -0.17782375455E+01  0.32920466237E+01  0.51100000000E-03 0.  1.
         12    1    3    3    0    0 -0.14390465648E+02  0.17213774275E+02 -0.16045500725E+02  0.27583647690E+02  0.00000000000E+00 0. -1.
</event>
<event>
 7    1  0.3653366E-010  0.4778727E+02  0.7816164E-02  0.1312668E+00
        -11   -1    0    0    0    0  0.00000000000E+00  0.00000000000E+00  0.45593999997E+02  0.45594000000E+02  0.51100000000E-03 0.  1.
         11   -1    0    0    0    0 -0.00000000000E+00 -0.00000000000E+00 -0.45593999997E+02  0.45594000000E+02  0.51100000000E-03 0. -1.
    9900012    2    1    2    0    0  0.39467890736E+02 -0.59705983966E+01  0.17037035491E+02  0.47787273938E+02  0.20000013195E+02 0.  0.
        -12    1    1    2    0    0 -0.39467890736E+02  0.59705983966E+01 -0.17037035491E+02  0.43400726062E+02  0.00000000000E+00 0.  1.
         11    1    3    3    0    0  0.23499872987E+02 -0.78235174250E+01  0.11107405382E+02  0.27144537386E+02  0.51100000000E-03 0. -1.
        -11    1    3    3    0    0  0.86106623359E+01  0.30403751179E+01 -0.24240038210E+01  0.94479194274E+01  0.51100000000E-03 0.  1.
        -12    1    3    3    0    0  0.73573554128E+01 -0.11874560895E+01  0.83536339296E+01  0.11194817125E+02  0.00000000000E+00 0.  1.
</event>
<event>
 7    1  0.3062695E-010  0.4778727E+02  0.7816164E-02  0.1312668E+00
        -11   -1    0    0    0    0  0.00000000000E+00  0.00000000000E+00  0.45593999997E+02  0.45594000000E+02  0.51100000000E-03 0.  1.
         11   -1    0    0    0    0 -0.00000000000E+00 -0.00000000000E+00 -0.45593999997E+02  0.45594000000E+02  0.51100000000E-03 0. -1.
    9900012    2    1    2    0    0 -0.15029236760E+02 -0.16841124756E+02 -0.37069145518E+02  0.47787274313E+02  0.20000014905E+02 0.  0.
        -12    1    1    2    0    0  0.15029236760E+02  0.16841124756E+02  0.37069145518E+02  0.43400725687E+02  0.00000000000E+00 0.  1.
         11    1    3    3    0    0  0.29364564292E-04 -0.18645160355E+01  0.35680444571E+00  0.18983492095E+01  0.51100000000E-03 0.  1.
        -11    1    3    3    0    0 -0.38699572491E+00 -0.85600853685E+01 -0.22263588619E+02  0.23855653537E+02  0.51100000000E-03 0. -1.
        -12    1    3    3    0    0 -0.14642270400E+02 -0.64165233523E+01 -0.15162361345E+02  0.22033271567E+02  0.00000000000E+00 0.  1.
</event>
<event>
 7    1  0.3062695E-010  0.4778727E+02  0.7816164E-02  0.1312668E+00
        -11   -1    0    0    0    0  0.00000000000E+00  0.00000000000E+00  0.45593999997E+02  0.45594000000E+02  0.51100000000E-03 0. -1.
         11   -1    0    0    0    0 -0.00000000000E+00 -0.00000000000E+00 -0.45593999997E+02  0.45594000000E+02  0.51100000000E-03 0.  1.
    9900012    2    1    2    0    0  0.14336015082E+02  0.71674782335E+01  0.40332733929E+02  0.47787268453E+02  0.19999988185E+02 0.  0.
        -12    1    1    2    0    0 -0.14336015082E+02 -0.71674782335E+01 -0.40332733929E+02  0.43400731547E+02  0.00000000000E+00 0.  1.
         11    1    3    3    0    0  0.35461645198E+01 -0.21848656285E+01  0.55557574869E+01  0.69437282587E+01  0.51100000000E-03 0. -1.
        -11    1    3    3    0    0  0.42974673394E+00  0.68469580131E+01  0.26428722610E+02  0.27304631390E+02  0.51100000000E-03 0.  1.
        -12    1    3    3    0    0  0.10360103828E+02  0.25053858489E+01  0.83482538320E+01  0.13538908805E+02  0.00000000000E+00 0.  1.
</event>
<event>
 7    1  0.3062695E-010  0.4778728E+02  0.7816164E-02  0.1312668E+00
        -11   -1    0    0    0    0  0.00000000000E+00  0.00000000000E+00  0.45593999997E+02  0.45594000000E+02  0.51100000000E-03 0.  1.
         11   -1    0    0    0    0 -0.00000000000E+00 -0.00000000000E+00 -0.45593999997E+02  0.45594000000E+02  0.51100000000E-03 0. -1.
    9900012    2    1    2    0    0  0.19897229368E+02 -0.10535782018E+02 -0.37104182017E+02  0.47787276937E+02  0.20000026865E+02 0.  0.
        -12    1    1    2    0    0 -0.19897229368E+02  0.10535782018E+02  0.37104182017E+02  0.43400723063E+02  0.00000000000E+00 0.  1.
         11    1    3    3    0    0  0.17275220722E+02 -0.67559084519E+01 -0.18671814451E+02  0.26319426383E+02  0.51100000000E-03 0. -1.
        -11    1    3    3    0    0  0.28510350774E+00  0.29882030891E+01 -0.98160795614E+01  0.10264797121E+02  0.51100000000E-03 0.  1.
        -12    1    3    3    0    0  0.23369051391E+01 -0.67680766555E+01 -0.86162880042E+01  0.11203053433E+02  0.00000000000E+00 0.  1.
</event>
<event>
 7    1  0.3062695E-010  0.4778727E+02  0.7816164E-02  0.1312668E+00
        -11   -1    0    0    0    0  0.00000000000E+00  0.00000000000E+00  0.45593999997E+02  0.45594000000E+02  0.51100000000E-03 0.  1.
         11   -1    0    0    0    0 -0.00000000000E+00 -0.00000000000E+00 -0.45593999997E+02  0.45594000000E+02  0.51100000000E-03 0. -1.
    9900012    2    1    2    0    0  0.28085631981E+01 -0.38275713443E+02 -0.20265854171E+02  0.47787272909E+02  0.20000008500E+02 0.  0.
        -12    1    1    2    0    0 -0.28085631981E+01  0.38275713443E+02  0.20265854171E+02  0.43400727091E+02  0.00000000000E+00 0.  1.
         11    1    3    3    0    0  0.80383184007E+01 -0.10780529661E+02 -0.60904106087E+01  0.14762367159E+02  0.51100000000E-03 0. -1.
        -11    1    3    3    0    0 -0.68233639065E+01 -0.21911012184E+02 -0.14604640745E+02  0.27201953633E+02  0.51100000000E-03 0.  1.
        -12    1    3    3    0    0  0.15936087040E+01 -0.55841715973E+01  0.42919718289E+00  0.58229521165E+01  0.00000000000E+00 0.  1.
</event>
<event>
 7    1  0.3062695E-010  0.4778727E+02  0.7816164E-02  0.1312668E+00
        -11   -1    0    0    0    0  0.00000000000E+00  0.00000000000E+00  0.45593999997E+02  0.45594000000E+02  0.51100000000E-03 0.  1.
         11   -1    0    0    0    0 -0.00000000000E+00 -0.00000000000E+00 -0.45593999997E+02  0.45594000000E+02  0.51100000000E-03 0. -1.
    9900012    2    1    2    0    0 -0.35121685298E+02  0.12667699060E+02 -0.22127358984E+02  0.47787269669E+02  0.19999993730E+02 0.  0.
        -12    1    1    2    0    0  0.35121685298E+02 -0.12667699060E+02  0.22127358984E+02  0.43400730331E+02  0.00000000000E+00 0.  1.
         11    1    3    3    0    0 -0.11860570396E+02  0.30349543107E+01 -0.16933460764E+02  0.20895601726E+02  0.51100000000E-03 0. -1.
        -11    1    3    3    0    0 -0.25616020317E+01  0.31877831069E+01  0.12471713976E+01  0.42754184428E+01  0.51100000000E-03 0.  1.
         12    1    3    3    0    0 -0.20699512870E+02  0.64449616424E+01 -0.64410696172E+01  0.22616249500E+02  0.00000000000E+00 0. -1.
</event>
<event>
 7    1  0.3062695E-010  0.4778727E+02  0.7816164E-02  0.1312668E+00
        -11   -1    0    0    0    0  0.00000000000E+00  0.00000000000E+00  0.45593999997E+02  0.45594000000E+02  0.51100000000E-03 0.  1.
         11   -1    0    0    0    0 -0.00000000000E+00 -0.00000000000E+00 -0.45593999997E+02  0.45594000000E+02  0.51100000000E-03 0. -1.
    9900012    2    1    2    0    0  0.55423627532E+01 -0.14224883447E+02 -0.40627061305E+02  0.47787271846E+02  0.20000003657E+02 0.  0.
        -12    1    1    2    0    0 -0.55423627532E+01  0.14224883447E+02  0.40627061305E+02  0.43400728154E+02  0.00000000000E+00 0.  1.
         11    1    3    3    0    0 -0.31475766869E+01 -0.24442237715E+01 -0.22322233658E+02  0.22675175514E+02  0.51100000000E-03 0. -1.
        -11    1    3    3    0    0  0.38259413565E+01 -0.11043054716E+02 -0.15617893270E+02  0.19506549546E+02  0.51100000000E-03 0.  1.
        -12    1    3    3    0    0  0.48639980836E+01 -0.73760495953E+00 -0.26869343771E+01  0.56055467869E+01  0.00000000000E+00 0.  1.
</event>
<event>
 7    1  0.3062695E-010  0.4778727E+02  0.7816164E-02  0.1312668E+00
        -11   -1    0    0    0    0  0.00000000000E+00  0.00000000000E+00  0.45593999997E+02  0.45594000000E+02  0.51100000000E-03 0. -1.
         11   -1    0    0    0    0 -0.00000000000E+00 -0.00000000000E+00 -0.45593999997E+02  0.45594000000E+02  0.51100000000E-03 0.  1.
    9900012    2    1    2    0    0  0.41063223651E+02  0.69435238459E+01 -0.12215664085E+02  0.47787270640E+02  0.19999998154E+02 0.  0.
        -12    1    1    2    0    0 -0.41063223651E+02 -0.69435238459E+01  0.12215664085E+02  0.43400729360E+02  0.00000000000E+00 0.  1.
         11    1    3    3    0    0  0.12681734940E+02 -0.40535318573E+01 -0.48076154310E+01  0.14155235356E+02  0.51100000000E-03 0. -1.
        -11    1    3    3    0    0  0.87668631133E+01  0.82145505245E+01  0.11145560737E+01  0.12065610829E+02  0.51100000000E-03 0.  1.
         12    1    3    3    0    0  0.19614625598E+02  0.27825051786E+01 -0.85226047276E+01  0.21566424455E+02  0.00000000000E+00 0. -1.
</event>
<event>
 7    1  0.3062695E-010  0.4778728E+02  0.7816164E-02  0.1312668E+00
        -11   -1    0    0    0    0  0.00000000000E+00  0.00000000000E+00  0.45593999997E+02  0.45594000000E+02  0.51100000000E-03 0. -1.
         11   -1    0    0    0    0 -0.00000000000E+00 -0.00000000000E+00 -0.45593999997E+02  0.45594000000E+02  0.51100000000E-03 0.  1.
    9900012    2    1    2    0    0  0.26496581174E+02  0.11715304519E+02  0.32315717429E+02  0.47787276886E+02  0.20000026635E+02 0.  0.
        -12    1    1    2    0    0 -0.26496581174E+02 -0.11715304519E+02 -0.32315717429E+02  0.43400723114E+02  0.00000000000E+00 0.  1.
         11    1    3    3    0    0  0.17167159473E+02  0.54550706427E+01  0.65594602857E+01  0.19170176827E+02  0.51100000000E-03 0. -1.
        -11    1    3    3    0    0  0.12349225883E+01  0.34082512744E+01  0.10559472787E+02  0.11164393237E+02  0.51100000000E-03 0.  1.
         12    1    3    3    0    0  0.80944991124E+01  0.28519826018E+01  0.15196784356E+02  0.17452706822E+02  0.00000000000E+00 0. -1.
</event>
<event>
 7    1  0.3062695E-010  0.4778727E+02  0.7816164E-02  0.1312668E+00
        -11   -1    0    0    0    0  0.00000000000E+00  0.00000000000E+00  0.45593999997E+02  0.45594000000E+02  0.51100000000E-03 0.  1.
         11   -1    0    0    0    0 -0.00000000000E+00 -0.00000000000E+00 -0.45593999997E+02  0.45594000000E+02  0.51100000000E-03 0. -1.
    9900012    2    1    2    0    0  0.32228587031E+01 -0.27955993705E+02 -0.33040861591E+02  0.47787274926E+02  0.20000017699E+02 0.  0.
        -12    1    1    2    0    0 -0.32228587031E+01  0.27955993705E+02  0.33040861591E+02  0.43400725074E+02  0.00000000000E+00 0.  1.
         11    1    3    3    0    0 -0.24217821969E+01 -0.11216996542E+02 -0.22503086166E+02  0.25260145045E+02  0.51100000000E-03 0. -1.
        -11    1    3    3    0    0 -0.13833810729E+01 -0.80905198604E+01 -0.71338474183E+01  0.10874834898E+02  0.51100000000E-03 0.  1.
         12    1    3    3    0    0  0.70280219730E+01 -0.86484773031E+01 -0.34039280059E+01  0.11652294984E+02  0.00000000000E+00 0. -1.
</event>
<event>
 7    1  0.3671703E-010  0.4778727E+02  0.7816164E-02  0.1312668E+00
        -11   -1    0    0    0    0  0.00000000000E+00  0.00000000000E+00  0.45593999997E+02  0.45594000000E+02  0.51100000000E-03 0. -1.
         11   -1    0    0    0    0 -0.00000000000E+00 -0.00000000000E+00 -0.45593999997E+02  0.45594000000E+02  0.51100000000E-03 0.  1.
    9900012    2    1    2    0    0 -0.42809222961E+01 -0.25464694487E+02  0.34883326130E+02  0.47787269558E+02  0.19999993223E+02 0.  0.
        -12    1    1    2    0    0  0.42809222961E+01  0.25464694487E+02 -0.34883326130E+02  0.43400730442E+02  0.00000000000E+00 0.  1.
         11    1    3    3    0    0 -0.72173697271E+01 -0.15635375666E+02  0.18879435095E+02  0.25553639032E+02  0.51100000000E-03 0. -1.
        -11    1    3    3    0    0  0.17328021045E+01  0.24509591257E+01  0.22183412275E+01  0.37324042964E+01  0.51100000000E-03 0.  1.
        -12    1    3    3    0    0  0.12036453264E+01 -0.12280277946E+02  0.13785549807E+02  0.18501226229E+02  0.00000000000E+00 0.  1.
</event>
<event>
 7    1  0.3062695E-010  0.4778727E+02  0.7816164E-02  0.1312668E+00
        -11   -1    0    0    0    0  0.00000000000E+00  0.00000000000E+00  0.45593999997E+02  0.45594000000E+02  0.51100000000E-03 0.  1.
         11   -1    0    0    0    0 -0.00000000000E+00 -0.00000000000E+00 -0.45593999997E+02  0.45594000000E+02  0.51100000000E-03 0. -1.
    9900012    2    1    2    0    0  0.28594306911E+02 -0.85395014353E+01 -0.31512946678E+02  0.47787270965E+02  0.19999999637E+02 0.  0.
        -12    1    1    2    0    0 -0.28594306911E+02  0.85395014353E+01  0.31512946678E+02  0.43400729035E+02  0.00000000000E+00 0.  1.
         11    1    3    3    0    0  0.15478165929E+02  0.25570635296E+01 -0.90035941161E+01  0.18088032001E+02  0.51100000000E-03 0. -1.
        -11    1    3    3    0    0  0.69266142424E+01 -0.65808720004E+01 -0.54526895873E+01  0.11000803841E+02  0.51100000000E-03 0.  1.
         12    1    3    3    0    0  0.61895267397E+01 -0.45156929645E+01 -0.17056662974E+02  0.18698435123E+02  0.00000000000E+00 0. -1.
</event>
<event>
 7    1  0.3062695E-010  0.4778727E+02  0.7816164E-02  0.1312668E+00
        -11   -1    0    0    0    0  0.00000000000E+00  0.00000000000E+00  0.45593999997E+02  0.45594000000E+02  0.51100000000E-03 0. -1.
         11   -1    0    0    0    0 -0.00000000000E+00 -0.00000000000E+00 -0.45593999997E+02  0.45594000000E+02  0.51100000000E-03 0.  1.
    9900012    2    1    2    0    0  0.32915092648E+02  0.51545050881E+01  0.27814583170E+02  0.47787270932E+02  0.19999999486E+02 0.  0.
        -12    1    1    2    0    0 -0.32915092648E+02 -0.51545050881E+01 -0.27814583170E+02  0.43400729068E+02  0.00000000000E+00 0.  1.
         11    1    3    3    0    0  0.11160053751E+02 -0.57259449628E+00  0.60178748397E+00  0.11190925458E+02  0.51100000000E-03 0.  1.
        -11    1    3    3    0    0  0.21625454134E+02  0.47122433505E+01  0.27705586978E+02  0.35460753714E+02  0.51100000000E-03 0. -1.
         12    1    3    3    0    0  0.12958476356E+00  0.10148562339E+01 -0.49279129229E+00  0.11355917595E+01  0.00000000000E+00 0. -1.
</event>
<event>
 7    1  0.3484515E-010  0.4778727E+02  0.7816164E-02  0.1312668E+00
        -11   -1    0    0    0    0  0.00000000000E+00  0.00000000000E+00  0.45593999997E+02  0.45594000000E+02  0.51100000000E-03 0. -1.
         11   -1    0    0    0    0 -0.00000000000E+00 -0.00000000000E+00 -0.45593999997E+02  0.45594000000E+02  0.51100000000E-03 0.  1.
    9900012    2    1    2    0    0  0.16744332241E+02  0.38263945137E+02  0.11794961184E+02  0.47787271101E+02  0.20000000260E+02 0.  0.
        -12    1    1    2    0    0 -0.16744332241E+02 -0.38263945137E+02 -0.11794961184E+02  0.43400728899E+02  0.00000000000E+00 0.  1.
         11    1    3    3    0    0  0.50699278423E+01  0.20110712475E+02 -0.12160621516E+01  0.20775556117E+02  0.51100000000E-03 0.  1.
        -11    1    3    3    0    0  0.63883738953E+01  0.16387031730E+02  0.12139098167E+02  0.21370630185E+02  0.51100000000E-03 0. -1.
        -12    1    3    3    0    0  0.52860305030E+01  0.17662009322E+01  0.87192516913E+00  0.56410847992E+01  0.00000000000E+00 0.  1.
</event>
<event>
 7    1  0.4140762E-010  0.4778727E+02  0.7816164E-02  0.1312668E+00
        -11   -1    0    0    0    0  0.00000000000E+00  0.00000000000E+00  0.45593999997E+02  0.45594000000E+02  0.51100000000E-03 0.  1.
         11   -1    0    0    0    0 -0.00000000000E+00 -0.00000000000E+00 -0.45593999997E+02  0.45594000000E+02  0.51100000000E-03 0. -1.
    9900012    2    1    2    0    0  0.37841284730E+02  0.16792827091E+02 -0.13025416760E+02  0.47787270127E+02  0.19999995817E+02 0.  0.
        -12    1    1    2    0    0 -0.37841284730E+02 -0.16792827091E+02  0.13025416760E+02  0.43400729873E+02  0.00000000000E+00 0.  1.
         11    1    3    3    0    0  0.21399957634E+02  0.86818233285E+01 -0.90209029559E+01  0.24793324373E+02  0.51100000000E-03 0. -1.
        -11    1    3    3    0    0  0.83224138479E+01  0.91241101133E+01  0.24283065129E+01  0.12586049038E+02  0.51100000000E-03 0.  1.
        -12    1    3    3    0    0  0.81189132483E+01 -0.10131063512E+01 -0.64328203174E+01  0.10407896716E+02  0.00000000000E+00 0.  1.
</event>
<event>
 7    1  0.3062695E-010  0.4778727E+02  0.7816164E-02  0.1312668E+00
        -11   -1    0    0    0    0  0.00000000000E+00  0.00000000000E+00  0.45593999997E+02  0.45594000000E+02  0.51100000000E-03 0. -1.
         11   -1    0    0    0    0 -0.00000000000E+00 -0.00000000000E+00 -0.45593999997E+02  0.45594000000E+02  0.51100000000E-03 0.  1.
    9900012    2    1    2    0    0  0.36526373292E+02 -0.16300323393E+02  0.16844786549E+02  0.47787270484E+02  0.19999997447E+02 0.  0.
        -12    1    1    2    0    0 -0.36526373292E+02  0.16300323393E+02 -0.16844786549E+02  0.43400729516E+02  0.00000000000E+00 0.  1.
         11    1    3    3    0    0  0.23815619436E+02 -0.98041297377E+01  0.33872694984E+01  0.25976494835E+02  0.51100000000E-03 0.  1.
        -11    1    3    3    0    0  0.98730547010E+01 -0.64575143041E+01  0.14583324537E+02  0.18757666564E+02  0.51100000000E-03 0. -1.
         12    1    3    3    0    0  0.28376991557E+01 -0.38679350770E-01 -0.11258074858E+01  0.30531090851E+01  0.00000000000E+00 0. -1.
</event>
<event>
 7    1  0.3771936E-010  0.4778727E+02  0.7816164E-02  0.1312668E+00
        -11   -1    0    0    0    0  0.00000000000E+00  0.00000000000E+00  0.45593999997E+02  0.45594000000E+02  0.51100000000E-03 0. -1.
         11   -1    0    0    0    0 -0.00000000000E+00 -0.00000000000E+00 -0.45593999997E+02  0.45594000000E+02  0.51100000000E-03 0.  1.
    9900012    2    1    2    0    0  0.20708968872E+02  0.16762006973E+02  0.34260723402E+02  0.47787269159E+02  0.19999991405E+02 0.  0.
        -12    1    1    2    0    0 -0.20708968872E+02 -0.16762006973E+02 -0.34260723402E+02  0.43400730841E+02  0.00000000000E+00 0.  1.
         11    1    3    3    0    0  0.15255891017E+02  0.14783653491E+02  0.27877755542E+02  0.35049506068E+02  0.51100000000E-03 0. -1.
        -11    1    3    3    0    0  0.37020519288E+01  0.30963169868E+01 -0.11183369470E+01  0.49540937773E+01  0.51100000000E-03 0.  1.
        -12    1    3    3    0    0  0.17510259261E+01 -0.11179635047E+01  0.75013048064E+01  0.77836693141E+01  0.00000000000E+00 0.  1.
</event>
<event>
 7    1  0.3062695E-010  0.4778727E+02  0.7816164E-02  0.1312668E+00
        -11   -1    0    0    0    0  0.00000000000E+00  0.00000000000E+00  0.45593999997E+02  0.45594000000E+02  0.51100000000E-03 0.  1.
         11   -1    0    0    0    0 -0.00000000000E+00 -0.00000000000E+00 -0.45593999997E+02  0.45594000000E+02  0.51100000000E-03 0. -1.
    9900012    2    1    2    0    0 -0.34039264483E+01 -0.43252614726E+01 -0.43050302427E+02  0.47787272574E+02  0.20000006975E+02 0.  0.
        -12    1    1    2    0    0  0.34039264483E+01  0.43252614726E+01  0.43050302427E+02  0.43400727426E+02  0.00000000000E+00 0.  1.
         11    1    3    3    0    0 -0.68468371734E+01  0.34610741441E+00 -0.26787228428E+02  0.27650580043E+02  0.51100000000E-03 0. -1.
        -11    1    3    3    0    0  0.72079237118E+00 -0.74310443930E+01 -0.13320242943E+02  0.15269866886E+02  0.51100000000E-03 0.  1.
         12    1    3    3    0    0  0.27221183539E+01  0.27596755060E+01 -0.29428310563E+01  0.48668256448E+01  0.00000000000E+00 0. -1.
</event>
<event>
 7    1  0.3062695E-010  0.4778727E+02  0.7816164E-02  0.1312668E+00
        -11   -1    0    0    0    0  0.00000000000E+00  0.00000000000E+00  0.45593999997E+02  0.45594000000E+02  0.51100000000E-03 0.  1.
         11   -1    0    0    0    0 -0.00000000000E+00 -0.00000000000E+00 -0.45593999997E+02  0.45594000000E+02  0.51100000000E-03 0. -1.
    9900012    2    1    2    0    0  0.29019433047E+01 -0.27744983860E+02 -0.33247823742E+02  0.47787272035E+02  0.20000004516E+02 0.  0.
        -12    1    1    2    0    0 -0.29019433047E+01  0.27744983860E+02  0.33247823742E+02  0.43400727965E+02  0.00000000000E+00 0.  1.
         11    1    3    3    0    0 -0.27511020588E+01 -0.22996862387E+01 -0.59982230679E+01  0.69882615555E+01  0.51100000000E-03 0. -1.
        -11    1    3    3    0    0  0.33380735014E+01  0.12113160022E+01 -0.40356797954E+01  0.53755681402E+01  0.51100000000E-03 0.  1.
        -12    1    3    3    0    0  0.23149718621E+01 -0.26656613624E+02 -0.23213920878E+02  0.35423442339E+02  0.00000000000E+00 0.  1.
</event>
<event>
 7    1  0.4031613E-010  0.4778727E+02  0.7816164E-02  0.1312668E+00
        -11   -1    0    0    0    0  0.00000000000E+00  0.00000000000E+00  0.45593999997E+02  0.45594000000E+02  0.51100000000E-03 0. -1.
         11   -1    0    0    0    0 -0.00000000000E+00 -0.00000000000E+00 -0.45593999997E+02  0.45594000000E+02  0.51100000000E-03 0.  1.
    9900012    2    1    2    0    0  0.71217006209E+01  0.14786091037E+02  0.40178054617E+02  0.47787272118E+02  0.20000004895E+02 0.  0.
        -12    1    1    2    0    0 -0.71217006209E+01 -0.14786091037E+02 -0.40178054617E+02  0.43400727882E+02  0.00000000000E+00 0.  1.
         11    1    3    3    0    0  0.53437905377E+01  0.12052079666E+02  0.28270340806E+02  0.31193282789E+02  0.51100000000E-03 0. -1.
        -11    1    3    3    0    0 -0.44789796558E+01  0.22109807004E+01  0.34937972118E+01  0.60955978897E+01  0.51100000000E-03 0.  1.
        -12    1    3    3    0    0  0.62568897390E+01  0.52303067080E+00  0.84139165989E+01  0.10498391440E+02  0.00000000000E+00 0.  1.
</event>
<event>
 7    1  0.3062695E-010  0.4778727E+02  0.7816164E-02  0.1312668E+00
        -11   -1    0    0    0    0  0.00000000000E+00  0.00000000000E+00  0.45593999997E+02  0.45594000000E+02  0.51100000000E-03 0.  1.
         11   -1    0    0    0    0 -0.00000000000E+00 -0.00000000000E+00 -0.45593999997E+02  0.45594000000E+02  0.51100000000E-03 0. -1.
    9900012    2    1    2    0    0  0.59787074517E+01  0.98807897388E+01 -0.41835966957E+02  0.47787273279E+02  0.20000010188E+02 0.  0.
        -12    1    1    2    0    0 -0.59787074517E+01 -0.98807897388E+01  0.41835966957E+02  0.43400726721E+02  0.00000000000E+00 0.  1.
         11    1    3    3    0    0  0.10690974075E+02  0.81250620649E+01 -0.14075205132E+02  0.19453147817E+02  0.51100000000E-03 0. -1.
        -11    1    3    3    0    0 -0.25917705741E+01 -0.31629833296E+00 -0.10445707081E+02  0.10767084843E+02  0.51100000000E-03 0.  1.
         12    1    3    3    0    0 -0.21204960496E+01  0.20720260069E+01 -0.17315054745E+02  0.17567040618E+02  0.00000000000E+00 0. -1.
</event>
<event>
 7    1  0.3062695E-010  0.4778727E+02  0.7816164E-02  0.1312668E+00
        -11   -1    0    0    0    0  0.00000000000E+00  0.00000000000E+00  0.45593999997E+02  0.45594000000E+02  0.51100000000E-03 0.  1.
         11   -1    0    0    0    0 -0.00000000000E+00 -0.00000000000E+00 -0.45593999997E+02  0.45594000000E+02  0.51100000000E-03 0. -1.
    9900012    2    1    2    0    0  0.39491650280E+02  0.15076363984E+02 -0.98354477690E+01  0.47787271600E+02  0.20000002535E+02 0.  0.
        -12    1    1    2    0    0 -0.39491650280E+02 -0.15076363984E+02  0.98354477690E+01  0.43400728400E+02  0.00000000000E+00 0.  1.
         11    1    3    3    0    0  0.63002616695E+00  0.70610737597E+00 -0.44599041729E+01  0.45591957723E+01  0.51100000000E-03 0. -1.
        -11    1    3    3    0    0  0.25703611601E+02  0.14819603765E+02 -0.47493809926E+01  0.30047511131E+02  0.51100000000E-03 0.  1.
         12    1    3    3    0    0  0.13158012511E+02 -0.44934715737E+00 -0.62616260356E+00  0.13180564697E+02  0.00000000000E+00 0. -1.
</event>
<event>
 7    1  0.3062695E-010  0.4778726E+02  0.7816164E-02  0.1312668E+00
        -11   -1    0    0    0    0  0.00000000000E+00  0.00000000000E+00  0.45593999997E+02  0.45594000000E+02  0.51100000000E-03 0.  1.
         11   -1    0    0    0    0 -0.00000000000E+00 -0.00000000000E+00 -0.45593999997E+02  0.45594000000E+02  0.51100000000E-03 0. -1.
    9900012    2    1    2    0    0 -0.84991842264E+01  0.14600941690E+02 -0.39977495953E+02  0.47787264828E+02  0.19999971657E+02 0.  0.
        -12    1    1    2    0    0  0.84991842264E+01 -0.14600941690E+02  0.39977495953E+02  0.43400735172E+02  0.00000000000E+00 0.  1.
         11    1    3    3    0    0  0.28053293601E+01  0.62580485541E+01 -0.12905663641E+02  0.14614691197E+02  0.51100000000E-03 0. -1.
        -11    1    3    3    0    0 -0.11762252861E+02  0.11132303624E+02 -0.24382749554E+02  0.29271099269E+02  0.51100000000E-03 0.  1.
        -12    1    3    3    0    0  0.45773927403E+00 -0.27894104881E+01 -0.26890827588E+01  0.39014743621E+01  0.00000000000E+00 0.  1.
</event>
<event>
 7    1  0.3062695E-010  0.4778727E+02  0.7816164E-02  0.1312668E+00
        -11   -1    0    0    0    0  0.00000000000E+00  0.00000000000E+00  0.45593999997E+02  0.45594000000E+02  0.51100000000E-03 0. -1.
         11   -1    0    0    0    0 -0.00000000000E+00 -0.00000000000E+00 -0.45593999997E+02  0.45594000000E+02  0.51100000000E-03 0.  1.
    9900012    2    1    2    0    0  0.24542045717E+00  0.41704867519E+02 -0.12011126245E+02  0.47787270057E+02  0.19999995497E+02 0.  0.
        -12    1    1    2    0    0 -0.24542045717E+00 -0.41704867519E+02  0.12011126245E+02  0.43400729943E+02  0.00000000000E+00 0.  1.
         11    1    3    3    0    0  0.48625992939E+01  0.18336868799E+02 -0.12150024163E+02  0.22527954116E+02  0.51100000000E-03 0. -1.
        -11    1    3    3    0    0 -0.52018587896E+01  0.81137748584E+01  0.21123825805E+01  0.98668555147E+01  0.51100000000E-03 0.  1.
         12    1    3    3    0    0  0.58467995295E+00  0.15254223861E+02 -0.19734846628E+01  0.15392460426E+02  0.00000000000E+00 0. -1.
</event>
<event>
 7    1  0.3062695E-010  0.4778727E+02  0.7816164E-02  0.1312668E+00
        -11   -1    0    0    0    0  0.00000000000E+00  0.00000000000E+00  0.45593999997E+02  0.45594000000E+02  0.51100000000E-03 0.  1.
         11   -1    0    0    0    0 -0.00000000000E+00 -0.00000000000E+00 -0.45593999997E+02  0.45594000000E+02  0.51100000000E-03 0. -1.
    9900012    2    1    2    0    0 -0.26746274110E+02 -0.23297325083E+02 -0.25009894001E+02  0.47787270366E+02  0.19999996908E+02 0.  0.
        -12    1    1    2    0    0  0.26746274110E+02  0.23297325083E+02  0.25009894001E+02  0.43400729634E+02  0.00000000000E+00 0.  1.
         11    1    3    3    0    0 -0.11212676658E+02 -0.47623814307E+01 -0.22318855737E+00  0.12184178598E+02  0.51100000000E-03 0.  1.
        -11    1    3    3    0    0 -0.15034155424E+02 -0.14464733209E+02 -0.17451454674E+02  0.27199404527E+02  0.51100000000E-03 0. -1.
        -12    1    3    3    0    0 -0.49944202840E+00 -0.40702104429E+01 -0.73352507694E+01  0.84036872407E+01  0.00000000000E+00 0.  1.
</event>
<event>
 7    1  0.3062695E-010  0.4778727E+02  0.7816164E-02  0.1312668E+00
        -11   -1    0    0    0    0  0.00000000000E+00  0.00000000000E+00  0.45593999997E+02  0.45594000000E+02  0.51100000000E-03 0.  1.
         11   -1    0    0    0    0 -0.00000000000E+00 -0.00000000000E+00 -0.45593999997E+02  0.45594000000E+02  0.51100000000E-03 0. -1.
    9900012    2    1    2    0    0  0.36367964232E+01 -0.53951041186E+01 -0.42910250563E+02  0.47787273738E+02  0.20000012283E+02 0.  0.
        -12    1    1    2    0    0 -0.36367964232E+01  0.53951041186E+01  0.42910250563E+02  0.43400726262E+02  0.00000000000E+00 0.  1.
         11    1    3    3    0    0 -0.19202040681E+01 -0.34457612180E+00 -0.30716430332E+02  0.30778320438E+02  0.51100000000E-03 0. -1.
        -11    1    3    3    0    0  0.73306130141E+01 -0.13408473132E+01 -0.59659018964E+01  0.95460852908E+01  0.51100000000E-03 0.  1.
         12    1    3    3    0    0 -0.17736125228E+01 -0.37096806835E+01 -0.62279183344E+01  0.74628680100E+01  0.00000000000E+00 0. -1.
</event>
<event>
 7    1  0.3062695E-010  0.4778728E+02  0.7816164E-02  0.1312668E+00
        -11   -1    0    0    0    0  0.00000000000E+00  0.00000000000E+00  0.45593999997E+02  0.45594000000E+02  0.51100000000E-03 0. -1.
         11   -1    0    0    0    0 -0.00000000000E+00 -0.00000000000E+00 -0.45593999997E+02  0.45594000000E+02  0.51100000000E-03 0.  1.
    9900012    2    1    2    0    0  0.25248208953E+01 -0.42594389274E+02 -0.79351239358E+01  0.47787275235E+02  0.20000019108E+02 0.  0.
        -12    1    1    2    0    0 -0.25248208953E+01  0.42594389274E+02  0.79351239358E+01  0.43400724765E+02  0.00000000000E+00 0.  1.
         11    1    3    3    0    0  0.39903928584E+01 -0.13140911393E+01 -0.27965051065E+01  0.50468318536E+01  0.51100000000E-03 0. -1.
        -11    1    3    3    0    0 -0.49705453382E+01 -0.20632774687E+02 -0.49684029169E+01  0.21796851609E+02  0.51100000000E-03 0.  1.
         12    1    3    3    0    0  0.35049733751E+01 -0.20647523448E+02 -0.17021591245E+00  0.20943591773E+02  0.00000000000E+00 0. -1.
</event>
<event>
 7    1  0.3820055E-010  0.4778727E+02  0.7816164E-02  0.1312668E+00
        -11   -1    0    0    0    0  0.00000000000E+00  0.00000000000E+00  0.45593999997E+02  0.45594000000E+02  0.51100000000E-03 0. -1.
         11   -1    0    0    0    0 -0.00000000000E+00 -0.00000000000E+00 -0.45593999997E+02  0.45594000000E+02  0.51100000000E-03 0.  1.
    9900012    2    1    2    0    0 -0.26242865500E+02 -0.20193855803E+02  0.28056076298E+02  0.47787271676E+02  0.20000002877E+02 0.  0.
        -12    1    1    2    0    0  0.26242865500E+02  0.20193855803E+02 -0.28056076298E+02  0.43400728324E+02  0.00000000000E+00 0.  1.
         11    1    3    3    0    0 -0.90144753803E+01 -0.68104019916E+01  0.91218642453E+01  0.14520700714E+02  0.51100000000E-03 0. -1.
        -11    1    3    3    0    0 -0.35133083759E+01 -0.84556868852E+01  0.15948896811E+02  0.18390467264E+02  0.51100000000E-03 0.  1.
        -12    1    3    3    0    0 -0.13715081743E+02 -0.49277669266E+01  0.29853152423E+01  0.14876103697E+02  0.00000000000E+00 0.  1.
</event>
<event>
 7    1  0.3062695E-010  0.4778727E+02  0.7816164E-02  0.1312668E+00
        -11   -1    0    0    0    0  0.00000000000E+00  0.00000000000E+00  0.45593999997E+02  0.45594000000E+02  0.51100000000E-03 0.  1.
         11   -1    0    0    0    0 -0.00000000000E+00 -0.00000000000E+00 -0.45593999997E+02  0.45594000000E+02  0.51100000000E-03 0. -1.
    9900012    2    1    2    0    0 -0.41315530395E+02  0.33945157617E+01  0.12850195203E+02  0.47787270676E+02  0.19999998322E+02 0.  0.
        -12    1    1    2    0    0  0.41315530395E+02 -0.33945157617E+01 -0.12850195203E+02  0.43400729324E+02  0.00000000000E+00 0.  1.
         11    1    3    3    0    0 -0.11379524232E+02  0.60174974491E+01  0.46123653159E+00  0.12880861256E+02  0.51100000000E-03 0. -1.
        -11    1    3    3    0    0 -0.95746940902E+01 -0.35767324103E+01  0.10142696176E+02  0.14399377335E+02  0.51100000000E-03 0.  1.
        -12    1    3    3    0    0 -0.20361312072E+02  0.95375072292E+00  0.22462624962E+01  0.20507032085E+02  0.00000000000E+00 0.  1.
</event>
<event>
 7    1  0.3062695E-010  0.4778724E+02  0.7816164E-02  0.1312668E+00
        -11   -1    0    0    0    0  0.00000000000E+00  0.00000000000E+00  0.45593999997E+02  0.45594000000E+02  0.51100000000E-03 0. -1.
         11   -1    0    0    0    0 -0.00000000000E+00 -0.00000000000E+00 -0.45593999997E+02  0.45594000000E+02  0.51100000000E-03 0.  1.
    9900012    2    1    2    0    0 -0.19581993422E+02 -0.21703607213E+02  0.32079975712E+02  0.47787241088E+02  0.19999863416E+02 0.  0.
        -12    1    1    2    0    0  0.19581993422E+02  0.21703607213E+02 -0.32079975712E+02  0.43400758912E+02  0.00000000000E+00 0.  1.
         11    1    3    3    0    0 -0.11120496508E+02 -0.86151532350E+01  0.75597453925E+01  0.15969848419E+02  0.51100000000E-03 0. -1.
        -11    1    3    3    0    0  0.27934007915E+01 -0.29863634550E+01  0.10202161545E+02  0.10991158043E+02  0.51100000000E-03 0.  1.
        -12    1    3    3    0    0 -0.11254897705E+02 -0.10102090523E+02  0.14318068775E+02  0.20826234627E+02  0.00000000000E+00 0.  1.
</event>
<event>
 7    1  0.3062695E-010  0.4778727E+02  0.7816164E-02  0.1312668E+00
        -11   -1    0    0    0    0  0.00000000000E+00  0.00000000000E+00  0.45593999997E+02  0.45594000000E+02  0.51100000000E-03 0. -1.
         11   -1    0    0    0    0 -0.00000000000E+00 -0.00000000000E+00 -0.45593999997E+02  0.45594000000E+02  0.51100000000E-03 0.  1.
    9900012    2    1    2    0    0 -0.90986312061E+01 -0.39053157145E+02 -0.16603900052E+02  0.47787266484E+02  0.19999979205E+02 0.  0.
        -12    1    1    2    0    0  0.90986312061E+01  0.39053157145E+02  0.16603900052E+02  0.43400733516E+02  0.00000000000E+00 0.  1.
         11    1    3    3    0    0 -0.12161239996E+02 -0.24882422190E+02 -0.35073610714E+01  0.27916523319E+02  0.51100000000E-03 0. -1.
        -11    1    3    3    0    0  0.24436566887E+01 -0.77151311835E+01 -0.50626321619E+01  0.95459390245E+01  0.51100000000E-03 0.  1.
         12    1    3    3    0    0  0.61895210128E+00 -0.64556037716E+01 -0.80339068183E+01  0.10324804140E+02  0.00000000000E+00 0. -1.
</event>
<event>
 7    1  0.3062695E-010  0.4778727E+02  0.7816164E-02  0.1312668E+00
        -11   -1    0    0    0    0  0.00000000000E+00  0.00000000000E+00  0.45593999997E+02  0.45594000000E+02  0.51100000000E-03 0.  1.
         11   -1    0    0    0    0 -0.00000000000E+00 -0.00000000000E+00 -0.45593999997E+02  0.45594000000E+02  0.51100000000E-03 0. -1.
    9900012    2    1    2    0    0 -0.29087244644E+02 -0.16459072941E+02 -0.27688526355E+02  0.47787269883E+02  0.19999994703E+02 0.  0.
        -12    1    1    2    0    0  0.29087244644E+02  0.16459072941E+02  0.27688526355E+02  0.43400730117E+02  0.00000000000E+00 0.  1.
         11    1    3    3    0    0 -0.27857410173E+02 -0.16333527931E+02 -0.24449492616E+02  0.40504285275E+02  0.51100000000E-03 0. -1.
        -11    1    3    3    0    0 -0.17548308213E+01 -0.41539102115E+00  0.15976615090E+01  0.24092537165E+01  0.51100000000E-03 0.  1.
         12    1    3    3    0    0  0.52499635028E+00  0.28984601202E+00 -0.48366952477E+01  0.48737308910E+01  0.00000000000E+00 0. -1.
</event>
<event>
 7    1  0.3062695E-010  0.4778728E+02  0.7816164E-02  0.1312668E+00
        -11   -1    0    0    0    0  0.00000000000E+00  0.00000000000E+00  0.45593999997E+02  0.45594000000E+02  0.51100000000E-03 0. -1.
         11   -1    0    0    0    0 -0.00000000000E+00 -0.00000000000E+00 -0.45593999997E+02  0.45594000000E+02  0.51100000000E-03 0.  1.
    9900012    2    1    2    0    0  0.14469164199E+02  0.10188573658E+02  0.39629013563E+02  0.47787280401E+02  0.20000042658E+02 0.  0.
        -12    1    1    2    0    0 -0.14469164199E+02 -0.10188573658E+02 -0.39629013563E+02  0.43400719599E+02  0.00000000000E+00 0.  1.
         11    1    3    3    0    0  0.10670646339E+02  0.37894327479E+01  0.22915886228E+02  0.25560914219E+02  0.51100000000E-03 0. -1.
        -11    1    3    3    0    0 -0.29087061459E+01  0.61257767424E+01  0.40624527479E+01  0.79050132657E+01  0.51100000000E-03 0.  1.
        -12    1    3    3    0    0  0.67072240063E+01  0.27336416757E+00  0.12650674587E+02  0.14321352916E+02  0.00000000000E+00 0.  1.
</event>
<event>
 7    1  0.3062695E-010  0.4778727E+02  0.7816164E-02  0.1312668E+00
        -11   -1    0    0    0    0  0.00000000000E+00  0.00000000000E+00  0.45593999997E+02  0.45594000000E+02  0.51100000000E-03 0.  1.
         11   -1    0    0    0    0 -0.00000000000E+00 -0.00000000000E+00 -0.45593999997E+02  0.45594000000E+02  0.51100000000E-03 0. -1.
    9900012    2    1    2    0    0  0.63687145161E+01 -0.32444477048E+02 -0.28114380210E+02  0.47787274314E+02  0.20000014907E+02 0.  0.
        -12    1    1    2    0    0 -0.63687145161E+01  0.32444477048E+02  0.28114380210E+02  0.43400725686E+02  0.00000000000E+00 0.  1.
         11    1    3    3    0    0 -0.40464534319E+01 -0.17413903350E+02 -0.99499667250E+01  0.20460196806E+02  0.51100000000E-03 0. -1.
        -11    1    3    3    0    0  0.34354582422E+01  0.93166832279E-01 -0.14498383447E+01  0.37300247827E+01  0.51100000000E-03 0.  1.
         12    1    3    3    0    0  0.69797097057E+01 -0.15123740530E+02 -0.16714575140E+02  0.23597052725E+02  0.00000000000E+00 0. -1.
</event>
<event>
 7    1  0.3062695E-010  0.4778727E+02  0.7816164E-02  0.1312668E+00
        -11   -1    0    0    0    0  0.00000000000E+00  0.00000000000E+00  0.45593999997E+02  0.45594000000E+02  0.51100000000E-03 0.  1.
         11   -1    0    0    0    0 -0.00000000000E+00 -0.00000000000E+00 -0.45593999997E+02  0.45594000000E+02  0.51100000000E-03 0. -1.
    9900012    2    1    2    0    0 -0.41807228313E+01  0.32915300103E+02 -0.27977269742E+02  0.47787273664E+02  0.20000011942E+02 0.  0.
        -12    1    1    2    0    0  0.41807228313E+01 -0.32915300103E+02  0.27977269742E+02  0.43400726336E+02  0.00000000000E+00 0.  1.
         11    1    3    3    0    0  0.19652283281E+01  0.10888785961E+01 -0.85460063028E+01  0.88364021506E+01  0.51100000000E-03 0.  1.
        -11    1    3    3    0    0  0.70684215789E+00 -0.22018521819E+00  0.17736275605E+00  0.76129178035E+00  0.51100000000E-03 0. -1.
         12    1    3    3    0    0 -0.68527933173E+01  0.32046606726E+02 -0.19608626196E+02  0.38189579733E+02  0.00000000000E+00 0. -1.
</event>
<event>
 7    1  0.3062695E-010  0.4778727E+02  0.7816164E-02  0.1312668E+00
        -11   -1    0    0    0    0  0.00000000000E+00  0.00000000000E+00  0.45593999997E+02  0.45594000000E+02  0.51100000000E-03 0.  1.
         11   -1    0    0    0    0 -0.00000000000E+00 -0.00000000000E+00 -0.45593999997E+02  0.45594000000E+02  0.51100000000E-03 0. -1.
    9900012    2    1    2    0    0 -0.15443080837E+02 -0.20721718442E+02 -0.34867538426E+02  0.47787267324E+02  0.19999983038E+02 0.  0.
        -12    1    1    2    0    0  0.15443080837E+02  0.20721718442E+02  0.34867538426E+02  0.43400732676E+02  0.00000000000E+00 0.  1.
         11    1    3    3    0    0 -0.13233317059E+02 -0.63535364642E+01 -0.12541350944E+02  0.19307345487E+02  0.51100000000E-03 0. -1.
        -11    1    3    3    0    0 -0.57161435611E+00 -0.13401753651E+02 -0.22859545945E+02  0.26504576680E+02  0.51100000000E-03 0.  1.
        -12    1    3    3    0    0 -0.16381494222E+01 -0.96642832653E+00  0.53335846376E+00  0.19753451574E+01  0.00000000000E+00 0.  1.
</event>
<event>
 7    1  0.3062695E-010  0.4778727E+02  0.7816164E-02  0.1312668E+00
        -11   -1    0    0    0    0  0.00000000000E+00  0.00000000000E+00  0.45593999997E+02  0.45594000000E+02  0.51100000000E-03 0. -1.
         11   -1    0    0    0    0 -0.00000000000E+00 -0.00000000000E+00 -0.45593999997E+02  0.45594000000E+02  0.51100000000E-03 0.  1.
    9900012    2    1    2    0    0  0.37516965043E+02 -0.11333055771E+02  0.18645712182E+02  0.47787269570E+02  0.19999993276E+02 0.  0.
        -12    1    1    2    0    0 -0.37516965043E+02  0.11333055771E+02 -0.18645712182E+02  0.43400730430E+02  0.00000000000E+00 0.  1.
         11    1    3    3    0    0  0.10587254058E+02 -0.35319708667E+01  0.91394831164E+01  0.14425495437E+02  0.51100000000E-03 0. -1.
        -11    1    3    3    0    0  0.14809863133E+02 -0.11884934388E+02  0.74975390024E+01  0.20415601946E+02  0.51100000000E-03 0.  1.
        -12    1    3    3    0    0  0.12119847851E+02  0.40838494840E+01  0.20086900632E+01  0.12946172187E+02  0.00000000000E+00 0.  1.
</event>
<event>
 7    1  0.3062695E-010  0.4778727E+02  0.7816164E-02  0.1312668E+00
        -11   -1    0    0    0    0  0.00000000000E+00  0.00000000000E+00  0.45593999997E+02  0.45594000000E+02  0.51100000000E-03 0. -1.
         11   -1    0    0    0    0 -0.00000000000E+00 -0.00000000000E+00 -0.45593999997E+02  0.45594000000E+02  0.51100000000E-03 0.  1.
    9900012    2    1    2    0    0  0.32919015100E+02  0.26280345620E+02  0.10454905499E+02  0.47787272241E+02  0.20000005455E+02 0.  0.
        -12    1    1    2    0    0 -0.32919015100E+02 -0.26280345620E+02 -0.10454905499E+02  0.43400727759E+02  0.00000000000E+00 0.  1.
         11    1    3    3    0    0  0.23735408500E+02  0.73987396746E+01  0.60420402985E+01  0.25585488399E+02  0.51100000000E-03 0. -1.
        -11    1    3    3    0    0  0.66698478902E+01  0.13464050931E+02  0.57384995212E+01  0.16084088889E+02  0.51100000000E-03 0.  1.
         12    1    3    3    0    0  0.25137587099E+01  0.54175550142E+01 -0.13256343206E+01  0.61176949528E+01  0.00000000000E+00 0. -1.
</event>
<event>
 7    1  0.4246002E-010  0.4778727E+02  0.7816164E-02  0.1312668E+00
        -11   -1    0    0    0    0  0.00000000000E+00  0.00000000000E+00  0.45593999997E+02  0.45594000000E+02  0.51100000000E-03 0.  1.
         11   -1    0    0    0    0 -0.00000000000E+00 -0.00000000000E+00 -0.45593999997E+02  0.45594000000E+02  0.51100000000E-03 0. -1.
    9900012    2    1    2    0    0 -0.14331668843E+02  0.33731394420E+02 -0.23246922278E+02  0.47787273084E+02  0.20000009301E+02 0.  0.
        -12    1    1    2    0    0  0.14331668843E+02 -0.33731394420E+02  0.23246922278E+02  0.43400726916E+02  0.00000000000E+00 0.  1.
         11    1    3    3    0    0 -0.12413053703E+02  0.17643819655E+02 -0.16805566239E+02  0.27346212372E+02  0.51100000000E-03 0. -1.
        -11    1    3    3    0    0  0.42054382050E+01  0.80322572770E+01 -0.15356856641E+01  0.91957162951E+01  0.51100000000E-03 0.  1.
        -12    1    3    3    0    0 -0.61240533455E+01  0.80553174889E+01 -0.49056703749E+01  0.11245344417E+02  0.00000000000E+00 0.  1.
</event>
<event>
 7    1  0.3062695E-010  0.4778727E+02  0.7816164E-02  0.1312668E+00
        -11   -1    0    0    0    0  0.00000000000E+00  0.00000000000E+00  0.45593999997E+02  0.45594000000E+02  0.51100000000E-03 0.  1.
         11   -1    0    0    0    0 -0.00000000000E+00 -0.00000000000E+00 -0.45593999997E+02  0.45594000000E+02  0.51100000000E-03 0. -1.
    9900012    2    1    2    0    0  0.16119568222E+02  0.39278633823E+02 -0.89984244434E+01  0.47787271929E+02  0.20000004031E+02 0.  0.
        -12    1    1    2    0    0 -0.16119568222E+02 -0.39278633823E+02  0.89984244434E+01  0.43400728071E+02  0.00000000000E+00 0.  1.
         11    1    3    3    0    0  0.11727059730E+02  0.63407367463E+01 -0.41609128000E+01  0.13965746238E+02  0.51100000000E-03 0.  1.
        -11    1    3    3    0    0  0.50168558139E+01  0.26945227090E+02 -0.33230474297E+01  0.27608997621E+02  0.51100000000E-03 0. -1.
        -12    1    3    3    0    0 -0.62434732227E+00  0.59926699871E+01 -0.15144642137E+01  0.62125280690E+01  0.00000000000E+00 0.  1.
</event>
<event>
 7    1  0.3062695E-010  0.4778727E+02  0.7816164E-02  0.1312668E+00
        -11   -1    0    0    0    0  0.00000000000E+00  0.00000000000E+00  0.45593999997E+02  0.45594000000E+02  0.51100000000E-03 0. -1.
         11   -1    0    0    0    0 -0.00000000000E+00 -0.00000000000E+00 -0.45593999997E+02  0.45594000000E+02  0.51100000000E-03 0.  1.
    9900012    2    1    2    0    0  0.33050618307E+02  0.23039796704E+02  0.16138397163E+02  0.47787268835E+02  0.19999989924E+02 0.  0.
        -12    1    1    2    0    0 -0.33050618307E+02 -0.23039796704E+02 -0.16138397163E+02  0.43400731165E+02  0.00000000000E+00 0.  1.
         11    1    3    3    0    0  0.11794736290E+02  0.40196138975E+01 -0.19703539366E+01  0.12615680518E+02  0.51100000000E-03 0. -1.
        -11    1    3    3    0    0  0.21221840937E+02  0.14708347677E+02  0.15946365110E+02  0.30347793736E+02  0.51100000000E-03 0.  1.
        -12    1    3    3    0    0  0.34041079650E-01  0.43118351298E+01  0.21623859903E+01  0.48237945802E+01  0.00000000000E+00 0.  1.
</event>
<event>
 7    1  0.3062695E-010  0.4778727E+02  0.7816164E-02  0.1312668E+00
        -11   -1    0    0    0    0  0.00000000000E+00  0.00000000000E+00  0.45593999997E+02  0.45594000000E+02  0.51100000000E-03 0.  1.
         11   -1    0    0    0    0 -0.00000000000E+00 -0.00000000000E+00 -0.45593999997E+02  0.45594000000E+02  0.51100000000E-03 0. -1.
    9900012    2    1    2    0    0  0.34898628120E+02  0.87749177770E+01 -0.24263341805E+02  0.47787272100E+02  0.20000004814E+02 0.  0.
        -12    1    1    2    0    0 -0.34898628120E+02 -0.87749177770E+01  0.24263341805E+02  0.43400727900E+02  0.00000000000E+00 0.  1.
         11    1    3    3    0    0  0.23401518184E+02  0.96783512176E-02 -0.18658079142E+02  0.29929167454E+02  0.51100000000E-03 0. -1.
        -11    1    3    3    0    0 -0.31533640886E+00  0.42302030432E+01 -0.76242779988E+00  0.43099131370E+01  0.51100000000E-03 0.  1.
         12    1    3    3    0    0  0.11812446345E+02  0.45350363826E+01 -0.48428348640E+01  0.13548191509E+02  0.00000000000E+00 0. -1.
</event>
<event>
 7    1  0.3062695E-010  0.4778727E+02  0.7816164E-02  0.1312668E+00
        -11   -1    0    0    0    0  0.00000000000E+00  0.00000000000E+00  0.45593999997E+02  0.45594000000E+02  0.51100000000E-03 0.  1.
         11   -1    0    0    0    0 -0.00000000000E+00 -0.00000000000E+00 -0.45593999997E+02  0.45594000000E+02  0.51100000000E-03 0. -1.
    9900012    2    1    2    0    0  0.26415317460E+02 -0.28055714636E+02 -0.19968253646E+02  0.47787271044E+02  0.19999999998E+02 0.  0.
        -12    1    1    2    0    0 -0.26415317460E+02  0.28055714636E+02  0.19968253646E+02  0.43400728956E+02  0.00000000000E+00 0.  1.
         11    1    3    3    0    0  0.15842865048E+02 -0.12401969408E+02 -0.18947985063E+02  0.27637499097E+02  0.51100000000E-03 0. -1.
        -11    1    3    3    0    0  0.11188714110E+02 -0.12107228558E+02 -0.35617702358E+00  0.16489365334E+02  0.51100000000E-03 0.  1.
        -12    1    3    3    0    0 -0.61626169851E+00 -0.35465166699E+01 -0.66409155921E+00  0.36604066126E+01  0.00000000000E+00 0.  1.
</event>
<event>
 7    1  0.3062695E-010  0.4778727E+02  0.7816164E-02  0.1312668E+00
        -11   -1    0    0    0    0  0.00000000000E+00  0.00000000000E+00  0.45593999997E+02  0.45594000000E+02  0.51100000000E-03 0. -1.
         11   -1    0    0    0    0 -0.00000000000E+00 -0.00000000000E+00 -0.45593999997E+02  0.45594000000E+02  0.51100000000E-03 0.  1.
    9900012    2    1    2    0    0 -0.38683575260E+02  0.15859882818E+01  0.19613480719E+02  0.47787274434E+02  0.20000015452E+02 0.  0.
        -12    1    1    2    0    0  0.38683575260E+02 -0.15859882818E+01 -0.19613480719E+02  0.43400725566E+02  0.00000000000E+00 0.  1.
         11    1    3    3    0    0 -0.68547483057E+01 -0.49924032432E+01  0.83279839837E+01  0.11885578739E+02  0.51100000000E-03 0. -1.
        -11    1    3    3    0    0 -0.28672823679E+01  0.19480662261E+01  0.47034736549E+01  0.58428533168E+01  0.51100000000E-03 0.  1.
         12    1    3    3    0    0 -0.28961544587E+02  0.46303252988E+01  0.65820230809E+01  0.30058842377E+02  0.00000000000E+00 0. -1.
</event>
<event>
 7    1  0.3062695E-010  0.4778727E+02  0.7816164E-02  0.1312668E+00
        -11   -1    0    0    0    0  0.00000000000E+00  0.00000000000E+00  0.45593999997E+02  0.45594000000E+02  0.51100000000E-03 0. -1.
         11   -1    0    0    0    0 -0.00000000000E+00 -0.00000000000E+00 -0.45593999997E+02  0.45594000000E+02  0.51100000000E-03 0.  1.
    9900012    2    1    2    0    0 -0.10712289483E+02 -0.16767513597E+02  0.38570982705E+02  0.47787269994E+02  0.19999995213E+02 0.  0.
        -12    1    1    2    0    0  0.10712289483E+02  0.16767513597E+02 -0.38570982705E+02  0.43400730006E+02  0.00000000000E+00 0.  1.
         11    1    3    3    0    0 -0.47886224208E+01 -0.12735344488E+02  0.35744031355E+02  0.38245989093E+02  0.51100000000E-03 0. -1.
        -11    1    3    3    0    0 -0.38270592320E+01  0.40896615985E+00 -0.50642302019E-01  0.38491818077E+01  0.51100000000E-03 0.  1.
         12    1    3    3    0    0 -0.20966078304E+01 -0.44411352684E+01  0.28775936517E+01  0.56920990936E+01  0.00000000000E+00 0. -1.
</event>
<event>
 7    1  0.3062695E-010  0.4778724E+02  0.7816164E-02  0.1312668E+00
        -11   -1    0    0    0    0  0.00000000000E+00  0.00000000000E+00  0.45593999997E+02  0.45594000000E+02  0.51100000000E-03 0.  1.
         11   -1    0    0    0    0 -0.00000000000E+00 -0.00000000000E+00 -0.45593999997E+02  0.45594000000E+02  0.51100000000E-03 0. -1.
    9900012    2    1    2    0    0  0.28887265339E+02  0.14379942200E+01 -0.32358673709E+02  0.47787243206E+02  0.19999873072E+02 0.  0.
        -12    1    1    2    0    0 -0.28887265339E+02 -0.14379942200E+01  0.32358673709E+02  0.43400756794E+02  0.00000000000E+00 0.  1.
         11    1    3    3    0    0  0.22704340770E+02 -0.96965934722E+00 -0.12573435763E+02  0.25971496225E+02  0.51100000000E-03 0. -1.
        -11    1    3    3    0    0  0.56648357708E+01  0.33036297096E+01 -0.19716519029E+02  0.20778485422E+02  0.51100000000E-03 0.  1.
        -12    1    3    3    0    0  0.51808879768E+00 -0.89597614240E+00 -0.68718917511E-01  0.10372615580E+01  0.00000000000E+00 0.  1.
</event>
<event>
 7    1  0.3062695E-010  0.4778727E+02  0.7816164E-02  0.1312668E+00
        -11   -1    0    0    0    0  0.00000000000E+00  0.00000000000E+00  0.45593999997E+02  0.45594000000E+02  0.51100000000E-03 0. -1.
         11   -1    0    0    0    0 -0.00000000000E+00 -0.00000000000E+00 -0.45593999997E+02  0.45594000000E+02  0.51100000000E-03 0.  1.
    9900012    2    1    2    0    0 -0.36166499579E+02 -0.22217024240E+02 -0.90560095699E+01  0.47787272273E+02  0.20000005603E+02 0.  0.
        -12    1    1    2    0    0  0.36166499579E+02  0.22217024240E+02  0.90560095699E+01  0.43400727727E+02  0.00000000000E+00 0.  1.
         11    1    3    3    0    0 -0.11322104086E+02  0.10515132209E+01  0.25638686215E+00  0.11373717750E+02  0.51100000000E-03 0. -1.
        -11    1    3    3    0    0 -0.18311262809E+02 -0.15950384912E+02 -0.10642443843E+02  0.26513746165E+02  0.51100000000E-03 0.  1.
        -12    1    3    3    0    0 -0.65331326838E+01 -0.73181525496E+01  0.13300474111E+01  0.98998083577E+01  0.00000000000E+00 0.  1.
</event>
<event>
 7    1  0.3062695E-010  0.4778727E+02  0.7816164E-02  0.1312668E+00
        -11   -1    0    0    0    0  0.00000000000E+00  0.00000000000E+00  0.45593999997E+02  0.45594000000E+02  0.51100000000E-03 0.  1.
         11   -1    0    0    0    0 -0.00000000000E+00 -0.00000000000E+00 -0.45593999997E+02  0.45594000000E+02  0.51100000000E-03 0. -1.
    9900012    2    1    2    0    0  0.12198735620E+01  0.38665391873E+01 -0.43210936475E+02  0.47787271345E+02  0.20000001369E+02 0.  0.
        -12    1    1    2    0    0 -0.12198735620E+01 -0.38665391873E+01  0.43210936475E+02  0.43400728655E+02  0.00000000000E+00 0.  1.
         11    1    3    3    0    0 -0.47604079123E+01  0.30965956909E+01 -0.18226861288E+02  0.19091067572E+02  0.51100000000E-03 0. -1.
        -11    1    3    3    0    0  0.69263675193E+01 -0.28942984466E+01 -0.23433402780E+02  0.24606419826E+02  0.51100000000E-03 0.  1.
        -12    1    3    3    0    0 -0.94608604499E+00  0.36642419430E+01 -0.15506724062E+01  0.40897839469E+01  0.00000000000E+00 0.  1.
</event>
<event>
 7    1  0.3062695E-010  0.4778727E+02  0.7816164E-02  0.1312668E+00
        -11   -1    0    0    0    0  0.00000000000E+00  0.00000000000E+00  0.45593999997E+02  0.45594000000E+02  0.51100000000E-03 0.  1.
         11   -1    0    0    0    0 -0.00000000000E+00 -0.00000000000E+00 -0.45593999997E+02  0.45594000000E+02  0.51100000000E-03 0. -1.
    9900012    2    1    2    0    0  0.37880508250E+02  0.20918088700E+02 -0.33352799946E+01  0.47787269214E+02  0.19999991653E+02 0.  0.
        -12    1    1    2    0    0 -0.37880508250E+02 -0.20918088700E+02  0.33352799946E+01  0.43400730786E+02  0.00000000000E+00 0.  1.
         11    1    3    3    0    0  0.15244456182E+02  0.30340859808E+01  0.11147391613E+01  0.15583381074E+02  0.51100000000E-03 0.  1.
        -11    1    3    3    0    0  0.16157237022E+02  0.17374827901E+02  0.96319855626E+00  0.23745919744E+02  0.51100000000E-03 0. -1.
        -12    1    3    3    0    0  0.64788150453E+01  0.50917481907E+00 -0.54132177122E+01  0.84579683959E+01  0.00000000000E+00 0.  1.
</event>
<event>
 7    1  0.3062695E-010  0.4778727E+02  0.7816164E-02  0.1312668E+00
        -11   -1    0    0    0    0  0.00000000000E+00  0.00000000000E+00  0.45593999997E+02  0.45594000000E+02  0.51100000000E-03 0. -1.
         11   -1    0    0    0    0 -0.00000000000E+00 -0.00000000000E+00 -0.45593999997E+02  0.45594000000E+02  0.51100000000E-03 0.  1.
    9900012    2    1    2    0    0  0.11087498010E+02 -0.26557466528E+02 -0.32486787646E+02  0.47787274060E+02  0.20000013750E+02 0.  0.
        -12    1    1    2    0    0 -0.11087498010E+02  0.26557466528E+02  0.32486787646E+02  0.43400725940E+02  0.00000000000E+00 0.  1.
         11    1    3    3    0    0  0.11852580197E+02 -0.25930293823E+02 -0.24121959584E+02  0.37346120676E+02  0.51100000000E-03 0. -1.
        -11    1    3    3    0    0 -0.13951385983E+01 -0.14005682363E+01  0.40061028050E-01  0.19772729301E+01  0.51100000000E-03 0.  1.
         12    1    3    3    0    0  0.63005641133E+00  0.77339553090E+00 -0.84048890902E+01  0.84638804545E+01  0.00000000000E+00 0. -1.
</event>
<event>
 7    1  0.3062695E-010  0.4778727E+02  0.7816164E-02  0.1312668E+00
        -11   -1    0    0    0    0  0.00000000000E+00  0.00000000000E+00  0.45593999997E+02  0.45594000000E+02  0.51100000000E-03 0.  1.
         11   -1    0    0    0    0 -0.00000000000E+00 -0.00000000000E+00 -0.45593999997E+02  0.45594000000E+02  0.51100000000E-03 0. -1.
    9900012    2    1    2    0    0  0.16951729373E+02 -0.83106594831E+01 -0.39079348866E+02  0.47787266164E+02  0.19999977746E+02 0.  0.
        -12    1    1    2    0    0 -0.16951729373E+02  0.83106594831E+01  0.39079348866E+02  0.43400733836E+02  0.00000000000E+00 0.  1.
         11    1    3    3    0    0  0.10671338974E+02 -0.42601955913E+01 -0.11287736711E+02  0.16107133273E+02  0.51100000000E-03 0. -1.
        -11    1    3    3    0    0 -0.30885715764E+01 -0.23827356683E+00 -0.13673419507E+01  0.33860999611E+01  0.51100000000E-03 0.  1.
        -12    1    3    3    0    0  0.93689619750E+01 -0.38121903250E+01 -0.26424270204E+02  0.28294032929E+02  0.00000000000E+00 0.  1.
</event>
<event>
 7    1  0.3062695E-010  0.4778727E+02  0.7816164E-02  0.1312668E+00
        -11   -1    0    0    0    0  0.00000000000E+00  0.00000000000E+00  0.45593999997E+02  0.45594000000E+02  0.51100000000E-03 0.  1.
         11   -1    0    0    0    0 -0.00000000000E+00 -0.00000000000E+00 -0.45593999997E+02  0.45594000000E+02  0.51100000000E-03 0. -1.
    9900012    2    1    2    0    0 -0.17236381145E+02 -0.26584943551E+02  0.29660935212E+02  0.47787272630E+02  0.20000007228E+02 0.  0.
        -12    1    1    2    0    0  0.17236381145E+02  0.26584943551E+02 -0.29660935212E+02  0.43400727370E+02  0.00000000000E+00 0.  1.
         11    1    3    3    0    0 -0.50937669566E+01 -0.10161071769E+02  0.22052183915E+01  0.11578291313E+02  0.51100000000E-03 0. -1.
        -11    1    3    3    0    0 -0.69637191996E+01 -0.12260157306E+02  0.25735447126E+02  0.29344813533E+02  0.51100000000E-03 0.  1.
        -12    1    3    3    0    0 -0.51788949891E+01 -0.41637144759E+01  0.17202696952E+01  0.68641677841E+01  0.00000000000E+00 0.  1.
</event>
<event>
 7    1  0.3062695E-010  0.4778728E+02  0.7816164E-02  0.1312668E+00
        -11   -1    0    0    0    0  0.00000000000E+00  0.00000000000E+00  0.45593999997E+02  0.45594000000E+02  0.51100000000E-03 0.  1.
         11   -1    0    0    0    0 -0.00000000000E+00 -0.00000000000E+00 -0.45593999997E+02  0.45594000000E+02  0.51100000000E-03 0. -1.
    9900012    2    1    2    0    0 -0.30849544711E+02  0.15346071969E+02 -0.26389879649E+02  0.47787284780E+02  0.20000062627E+02 0.  0.
        -12    1    1    2    0    0  0.30849544711E+02 -0.15346071969E+02  0.26389879649E+02  0.43400715220E+02  0.00000000000E+00 0.  1.
         11    1    3    3    0    0 -0.82073663176E+01  0.96724785408E+01 -0.16137901961E+02  0.20526801576E+02  0.51100000000E-03 0. -1.
        -11    1    3    3    0    0 -0.11230876550E+02  0.55341134255E+01 -0.98385413067E+00  0.12558939792E+02  0.51100000000E-03 0.  1.
        -12    1    3    3    0    0 -0.11411301843E+02  0.13948000274E+00 -0.92681235573E+01  0.14701543412E+02  0.00000000000E+00 0.  1.
</event>
<event>
 7    1  0.3062695E-010  0.4778727E+02  0.7816164E-02  0.1312668E+00
        -11   -1    0    0    0    0  0.00000000000E+00  0.00000000000E+00  0.45593999997E+02  0.45594000000E+02  0.51100000000E-03 0.  1.
         11   -1    0    0    0    0 -0.00000000000E+00 -0.00000000000E+00 -0.45593999997E+02  0.45594000000E+02  0.51100000000E-03 0. -1.
    9900012    2    1    2    0    0  0.42022737612E+02 -0.38244991734E+01 -0.10153148254E+02  0.47787266253E+02  0.19999978154E+02 0.  0.
        -12    1    1    2    0    0 -0.42022737612E+02  0.38244991734E+01  0.10153148254E+02  0.43400733747E+02  0.00000000000E+00 0.  1.
         11    1    3    3    0    0  0.11529359526E+02 -0.49266286916E+01 -0.36828925630E+01  0.13067574344E+02  0.51100000000E-03 0. -1.
        -11    1    3    3    0    0  0.22493751745E+02  0.72595082420E+01 -0.68778758790E+01  0.24616549399E+02  0.51100000000E-03 0.  1.
        -12    1    3    3    0    0  0.79996263408E+01 -0.61573787238E+01  0.40762018841E+00  0.10103142509E+02  0.00000000000E+00 0.  1.
</event>
<event>
 7    1  0.3062695E-010  0.4778727E+02  0.7816164E-02  0.1312668E+00
        -11   -1    0    0    0    0  0.00000000000E+00  0.00000000000E+00  0.45593999997E+02  0.45594000000E+02  0.51100000000E-03 0.  1.
         11   -1    0    0    0    0 -0.00000000000E+00 -0.00000000000E+00 -0.45593999997E+02  0.45594000000E+02  0.51100000000E-03 0. -1.
    9900012    2    1    2    0    0  0.27874986599E+02  0.27261830089E+02  0.19063081826E+02  0.47787270209E+02  0.19999996191E+02 0.  0.
        -12    1    1    2    0    0 -0.27874986599E+02 -0.27261830089E+02 -0.19063081826E+02  0.43400729791E+02  0.00000000000E+00 0.  1.
         11    1    3    3    0    0  0.59608582752E+01  0.63746871590E+01  0.27735789703E+00  0.87318609366E+01  0.51100000000E-03 0. -1.
        -11    1    3    3    0    0  0.23966068728E+02  0.20999059694E+02  0.16180098175E+02  0.35736935172E+02  0.51100000000E-03 0.  1.
        -12    1    3    3    0    0 -0.20519404046E+01 -0.11191676331E+00  0.26056257537E+01  0.33184741003E+01  0.00000000000E+00 0.  1.
</event>
<event>
 7    1  0.3062695E-010  0.4778729E+02  0.7816164E-02  0.1312668E+00
        -11   -1    0    0    0    0  0.00000000000E+00  0.00000000000E+00  0.45593999997E+02  0.45594000000E+02  0.51100000000E-03 0. -1.
         11   -1    0    0    0    0 -0.00000000000E+00 -0.00000000000E+00 -0.45593999997E+02  0.45594000000E+02  0.51100000000E-03 0.  1.
    9900012    2    1    2    0    0 -0.18612685501E+02  0.38907096880E+02  0.48402233139E+01  0.47787285595E+02  0.20000066340E+02 0.  0.
        -12    1    1    2    0    0  0.18612685501E+02 -0.38907096880E+02 -0.48402233139E+01  0.43400714405E+02  0.00000000000E+00 0.  1.
         11    1    3    3    0    0 -0.18691535833E+02  0.26541625711E+02  0.35009322975E+01  0.32651002043E+02  0.51100000000E-03 0. -1.
        -11    1    3    3    0    0  0.20713035021E+01  0.10861222106E+02  0.37403861220E+01  0.11672486130E+02  0.51100000000E-03 0.  1.
        -12    1    3    3    0    0 -0.19924531701E+01  0.15042490621E+01 -0.24010951057E+01  0.34637974222E+01  0.00000000000E+00 0.  1.
</event>
<event>
 7    1  0.3062695E-010  0.4778729E+02  0.7816164E-02  0.1312668E+00
        -11   -1    0    0    0    0  0.00000000000E+00  0.00000000000E+00  0.45593999997E+02  0.45594000000E+02  0.51100000000E-03 0.  1.
         11   -1    0    0    0    0 -0.00000000000E+00 -0.00000000000E+00 -0.45593999997E+02  0.45594000000E+02  0.51100000000E-03 0. -1.
    9900012    2    1    2    0    0 -0.28797967443E+02  0.22803357625E+02 -0.23115054382E+02  0.47787288175E+02  0.20000078103E+02 0.  0.
        -12    1    1    2    0    0  0.28797967443E+02 -0.22803357625E+02  0.23115054382E+02  0.43400711825E+02  0.00000000000E+00 0.  1.
         11    1    3    3    0    0 -0.93068960202E+01  0.23008057406E+01 -0.22441967705E+01  0.98462398911E+01  0.51100000000E-03 0. -1.
        -11    1    3    3    0    0 -0.17469599380E+02  0.16132966659E+02 -0.22619096074E+02  0.32818943054E+02  0.51100000000E-03 0.  1.
        -12    1    3    3    0    0 -0.20214720433E+01  0.43695852251E+01  0.17482384621E+01  0.51221052294E+01  0.00000000000E+00 0.  1.
</event>
<event>
 7    1  0.3062695E-010  0.4778722E+02  0.7816164E-02  0.1312668E+00
        -11   -1    0    0    0    0  0.00000000000E+00  0.00000000000E+00  0.45593999997E+02  0.45594000000E+02  0.51100000000E-03 0.  1.
         11   -1    0    0    0    0 -0.00000000000E+00 -0.00000000000E+00 -0.45593999997E+02  0.45594000000E+02  0.51100000000E-03 0. -1.
    9900012    2    1    2    0    0 -0.55915158817E+00 -0.10403542602E+02 -0.42131717948E+02  0.47787216523E+02  0.19999751413E+02 0.  0.
        -12    1    1    2    0    0  0.55915158817E+00  0.10403542602E+02  0.42131717948E+02  0.43400783477E+02  0.00000000000E+00 0.  1.
         11    1    3    3    0    0 -0.92558106158E+00 -0.32535464797E+01  0.72060687253E-02  0.33826494329E+01  0.51100000000E-03 0. -1.
        -11    1    3    3    0    0  0.13990774162E+01  0.20416432536E+00  0.19226052601E+00  0.14269075160E+01  0.51100000000E-03 0.  1.
         12    1    3    3    0    0 -0.10326479428E+01 -0.73541604474E+01 -0.42331184543E+02  0.42977659574E+02  0.00000000000E+00 0. -1.
</event>
<event>
 7    1  0.3062695E-010  0.4778727E+02  0.7816164E-02  0.1312668E+00
        -11   -1    0    0    0    0  0.00000000000E+00  0.00000000000E+00  0.45593999997E+02  0.45594000000E+02  0.51100000000E-03 0. -1.
         11   -1    0    0    0    0 -0.00000000000E+00 -0.00000000000E+00 -0.45593999997E+02  0.45594000000E+02  0.51100000000E-03 0.  1.
    9900012    2    1    2    0    0 -0.20205487246E+02 -0.35023994453E+02 -0.15769650146E+02  0.47787265351E+02  0.19999974043E+02 0.  0.
        -12    1    1    2    0    0  0.20205487246E+02  0.35023994453E+02  0.15769650146E+02  0.43400734649E+02  0.00000000000E+00 0.  1.
         11    1    3    3    0    0 -0.17166459351E+01 -0.84196660229E+01  0.15753493999E+01  0.87360961073E+01  0.51100000000E-03 0. -1.
        -11    1    3    3    0    0 -0.82467025238E+01 -0.12733990902E+02 -0.15535605338E+02  0.21714457402E+02  0.51100000000E-03 0.  1.
         12    1    3    3    0    0 -0.10242138787E+02 -0.13870337528E+02 -0.18093942083E+01  0.17336711842E+02  0.00000000000E+00 0. -1.
</event>
<event>
 7    1  0.3062695E-010  0.4778726E+02  0.7816164E-02  0.1312668E+00
        -11   -1    0    0    0    0  0.00000000000E+00  0.00000000000E+00  0.45593999997E+02  0.45594000000E+02  0.51100000000E-03 0.  1.
         11   -1    0    0    0    0 -0.00000000000E+00 -0.00000000000E+00 -0.45593999997E+02  0.45594000000E+02  0.51100000000E-03 0. -1.
    9900012    2    1    2    0    0 -0.30575055246E+02 -0.16741368858E+02 -0.25855685479E+02  0.47787263760E+02  0.19999966789E+02 0.  0.
        -12    1    1    2    0    0  0.30575055246E+02  0.16741368858E+02  0.25855685479E+02  0.43400736240E+02  0.00000000000E+00 0.  1.
         11    1    3    3    0    0 -0.71119861759E+01 -0.12291642557E+02 -0.15650773112E+02  0.21133185358E+02  0.51100000000E-03 0. -1.
        -11    1    3    3    0    0 -0.19310479246E+02 -0.50254061318E+01 -0.10311229840E+02  0.22460426901E+02  0.51100000000E-03 0.  1.
         12    1    3    3    0    0 -0.41525898239E+01  0.57567983047E+00  0.10631747235E+00  0.41936515017E+01  0.00000000000E+00 0. -1.
</event>
<event>
 7    1  0.3062695E-010  0.4778728E+02  0.7816164E-02  0.1312668E+00
        -11   -1    0    0    0    0  0.00000000000E+00  0.00000000000E+00  0.45593999997E+02  0.45594000000E+02  0.51100000000E-03 0. -1.
         11   -1    0    0    0    0 -0.00000000000E+00 -0.00000000000E+00 -0.45593999997E+02  0.45594000000E+02  0.51100000000E-03 0.  1.
    9900012    2    1    2    0    0  0.19948859882E+02 -0.32731084714E+02  0.20355388561E+02  0.47787276957E+02  0.20000026958E+02 0.  0.
        -12    1    1    2    0    0 -0.19948859882E+02  0.32731084714E+02 -0.20355388561E+02  0.43400723043E+02  0.00000000000E+00 0.  1.
         11    1    3    3    0    0  0.16113229747E+01 -0.14164013135E+02  0.66881343048E+01  0.15746325621E+02  0.51100000000E-03 0. -1.
        -11    1    3    3    0    0  0.77010726751E+01 -0.35788297403E+00  0.21072217244E+01  0.79921826949E+01  0.51100000000E-03 0.  1.
         12    1    3    3    0    0  0.10636464233E+02 -0.18209188605E+02  0.11560032532E+02  0.24048768641E+02  0.00000000000E+00 0. -1.
</event>
<event>
 7    1  0.3062695E-010  0.4778727E+02  0.7816164E-02  0.1312668E+00
        -11   -1    0    0    0    0  0.00000000000E+00  0.00000000000E+00  0.45593999997E+02  0.45594000000E+02  0.51100000000E-03 0.  1.
         11   -1    0    0    0    0 -0.00000000000E+00 -0.00000000000E+00 -0.45593999997E+02  0.45594000000E+02  0.51100000000E-03 0. -1.
    9900012    2    1    2    0    0 -0.17562536227E+02 -0.17750573819E+02 -0.35497851363E+02  0.47787274188E+02  0.20000014332E+02 0.  0.
        -12    1    1    2    0    0  0.17562536227E+02  0.17750573819E+02  0.35497851363E+02  0.43400725812E+02  0.00000000000E+00 0.  1.
         11    1    3    3    0    0 -0.12750157647E+02  0.30205528695E+00 -0.15905266175E+02  0.20387134418E+02  0.51100000000E-03 0. -1.
        -11    1    3    3    0    0 -0.37054593388E+01 -0.14115609364E+02 -0.12511306212E+02  0.19222737579E+02  0.51100000000E-03 0.  1.
         12    1    3    3    0    0 -0.11069192408E+01 -0.39370197412E+01 -0.70812789771E+01  0.81774021914E+01  0.00000000000E+00 0. -1.
</event>
<event>
 7    1  0.3296947E-010  0.4778727E+02  0.7816164E-02  0.1312668E+00
        -11   -1    0    0    0    0  0.00000000000E+00  0.00000000000E+00  0.45593999997E+02  0.45594000000E+02  0.51100000000E-03 0. -1.
         11   -1    0    0    0    0 -0.00000000000E+00 -0.00000000000E+00 -0.45593999997E+02  0.45594000000E+02  0.51100000000E-03 0.  1.
    9900012    2    1    2    0    0  0.21519251866E+02 -0.76986259351E+01  0.36895476872E+02  0.47787271253E+02  0.20000000952E+02 0.  0.
        -12    1    1    2    0    0 -0.21519251866E+02  0.76986259351E+01 -0.36895476872E+02  0.43400728747E+02  0.00000000000E+00 0.  1.
         11    1    3    3    0    0  0.50869451746E+01 -0.29733925901E+01  0.15459860243E+02  0.16544647282E+02  0.51100000000E-03 0. -1.
        -11    1    3    3    0    0  0.19050650531E+02 -0.23519112685E+01  0.18089636032E+02  0.26376006224E+02  0.51100000000E-03 0.  1.
        -12    1    3    3    0    0 -0.26183438399E+01 -0.23733220765E+01  0.33459805973E+01  0.48666177474E+01  0.00000000000E+00 0.  1.
</event>
<event>
 7    1  0.3062695E-010  0.4778727E+02  0.7816164E-02  0.1312668E+00
        -11   -1    0    0    0    0  0.00000000000E+00  0.00000000000E+00  0.45593999997E+02  0.45594000000E+02  0.51100000000E-03 0.  1.
         11   -1    0    0    0    0 -0.00000000000E+00 -0.00000000000E+00 -0.45593999997E+02  0.45594000000E+02  0.51100000000E-03 0. -1.
    9900012    2    1    2    0    0  0.14409741734E+02  0.25477508362E+02 -0.32044955170E+02  0.47787271423E+02  0.20000001726E+02 0.  0.
        -12    1    1    2    0    0 -0.14409741734E+02 -0.25477508362E+02  0.32044955170E+02  0.43400728577E+02  0.00000000000E+00 0.  1.
         11    1    3    3    0    0  0.16689174875E+01  0.18831099395E+02 -0.21341698380E+02  0.28510764283E+02  0.51100000000E-03 0. -1.
        -11    1    3    3    0    0  0.12448057678E+02  0.78504484328E+01 -0.10337097813E+02  0.17984417478E+02  0.51100000000E-03 0.  1.
         12    1    3    3    0    0  0.29276656832E+00 -0.12040394658E+01 -0.36615897697E+00  0.12920896622E+01  0.00000000000E+00 0. -1.
</event>
<event>
 7    1  0.3062695E-010  0.4778727E+02  0.7816164E-02  0.1312668E+00
        -11   -1    0    0    0    0  0.00000000000E+00  0.00000000000E+00  0.45593999997E+02  0.45594000000E+02  0.51100000000E-03 0.  1.
         11   -1    0    0    0    0 -0.00000000000E+00 -0.00000000000E+00 -0.45593999997E+02  0.45594000000E+02  0.51100000000E-03 0. -1.
    9900012    2    1    2    0    0  0.18693745750E+02  0.39167011725E+02 -0.33544830199E+00  0.47787268864E+02  0.19999990057E+02 0.  0.
        -12    1    1    2    0    0 -0.18693745750E+02 -0.39167011725E+02  0.33544830199E+00  0.43400731136E+02  0.00000000000E+00 0.  1.
         11    1    3    3    0    0  0.12774618251E+02  0.27761273496E+02 -0.54967293843E+01  0.31049850431E+02  0.51100000000E-03 0. -1.
        -11    1    3    3    0    0 -0.65421541615E+00  0.88262839427E+01  0.31640694631E+01  0.93990755862E+01  0.51100000000E-03 0.  1.
         12    1    3    3    0    0  0.65733429146E+01  0.25794542862E+01  0.19972116192E+01  0.73383428470E+01  0.00000000000E+00 0. -1.
</event>
<event>
 7    1  0.3062695E-010  0.4778727E+02  0.7816164E-02  0.1312668E+00
        -11   -1    0    0    0    0  0.00000000000E+00  0.00000000000E+00  0.45593999997E+02  0.45594000000E+02  0.51100000000E-03 0.  1.
         11   -1    0    0    0    0 -0.00000000000E+00 -0.00000000000E+00 -0.45593999997E+02  0.45594000000E+02  0.51100000000E-03 0. -1.
    9900012    2    1    2    0    0  0.13313897489E+02 -0.57577294900E+01 -0.40904914679E+02  0.47787270051E+02  0.19999995470E+02 0.  0.
        -12    1    1    2    0    0 -0.13313897489E+02  0.57577294900E+01  0.40904914679E+02  0.43400729949E+02  0.00000000000E+00 0.  1.
         11    1    3    3    0    0  0.10780620432E+02 -0.81685221050E+01 -0.24537618161E+02  0.28018587322E+02  0.51100000000E-03 0. -1.
        -11    1    3    3    0    0  0.71954211214E-01  0.61348010191E+01 -0.12228729371E+02  0.13681475916E+02  0.51100000000E-03 0.  1.
        -12    1    3    3    0    0  0.24613228459E+01 -0.37240084041E+01 -0.41385671479E+01  0.60872068129E+01  0.00000000000E+00 0.  1.
</event>
<event>
 7    1  0.3062695E-010  0.4778727E+02  0.7816164E-02  0.1312668E+00
        -11   -1    0    0    0    0  0.00000000000E+00  0.00000000000E+00  0.45593999997E+02  0.45594000000E+02  0.51100000000E-03 0.  1.
         11   -1    0    0    0    0 -0.00000000000E+00 -0.00000000000E+00 -0.45593999997E+02  0.45594000000E+02  0.51100000000E-03 0. -1.
    9900012    2    1    2    0    0  0.31120116004E+01  0.68920940906E+01 -0.42736846721E+02  0.47787266771E+02  0.19999980517E+02 0.  0.
        -12    1    1    2    0    0 -0.31120116004E+01 -0.68920940906E+01  0.42736846721E+02  0.43400733229E+02  0.00000000000E+00 0.  1.
         11    1    3    3    0    0  0.74744548781E+01  0.34153295196E+01 -0.12596971806E+02  0.15040467094E+02  0.51100000000E-03 0. -1.
        -11    1    3    3    0    0 -0.33225344415E+01  0.68638085097E+01 -0.26849852226E+02  0.27911747835E+02  0.51100000000E-03 0.  1.
        -12    1    3    3    0    0 -0.10399088363E+01 -0.33870439387E+01 -0.32900226885E+01  0.48350518427E+01  0.00000000000E+00 0.  1.
</event>
<event>
 7    1  0.3062695E-010  0.4778727E+02  0.7816164E-02  0.1312668E+00
        -11   -1    0    0    0    0  0.00000000000E+00  0.00000000000E+00  0.45593999997E+02  0.45594000000E+02  0.51100000000E-03 0. -1.
         11   -1    0    0    0    0 -0.00000000000E+00 -0.00000000000E+00 -0.45593999997E+02  0.45594000000E+02  0.51100000000E-03 0.  1.
    9900012    2    1    2    0    0 -0.28710092602E+02  0.32521322442E+02 -0.13105516855E+01  0.47787269864E+02  0.19999994619E+02 0.  0.
        -12    1    1    2    0    0  0.28710092602E+02 -0.32521322442E+02  0.13105516855E+01  0.43400730136E+02  0.00000000000E+00 0.  1.
         11    1    3    3    0    0 -0.75493490227E+01  0.37744397696E+01  0.50682989887E+01  0.98451369285E+01  0.51100000000E-03 0. -1.
        -11    1    3    3    0    0 -0.15991335347E+02  0.16476756133E+02 -0.84518352866E+01  0.24467117093E+02  0.51100000000E-03 0.  1.
        -12    1    3    3    0    0 -0.51694082320E+01  0.12270126540E+02  0.20729846123E+01  0.13475015843E+02  0.00000000000E+00 0.  1.
</event>
<event>
 7    1  0.3062695E-010  0.4778729E+02  0.7816164E-02  0.1312668E+00
        -11   -1    0    0    0    0  0.00000000000E+00  0.00000000000E+00  0.45593999997E+02  0.45594000000E+02  0.51100000000E-03 0.  1.
         11   -1    0    0    0    0 -0.00000000000E+00 -0.00000000000E+00 -0.45593999997E+02  0.45594000000E+02  0.51100000000E-03 0. -1.
    9900012    2    1    2    0    0 -0.12151483389E+01 -0.36277773952E+00 -0.43382178538E+02  0.47787290237E+02  0.20000087508E+02 0.  0.
        -12    1    1    2    0    0  0.12151483389E+01  0.36277773952E+00  0.43382178538E+02  0.43400709763E+02  0.00000000000E+00 0.  1.
         11    1    3    3    0    0 -0.48277905363E+01 -0.38234116885E+01 -0.30634809239E+02  0.31247681126E+02  0.51100000000E-03 0. -1.
        -11    1    3    3    0    0  0.29716054037E+01  0.55531789643E+01 -0.12889994134E+02  0.14346434550E+02  0.51100000000E-03 0.  1.
        -12    1    3    3    0    0  0.64103679374E+00 -0.20925450153E+01  0.14262483389E+00  0.21931745610E+01  0.00000000000E+00 0.  1.
</event>
<event>
 7    1  0.3062695E-010  0.4778727E+02  0.7816164E-02  0.1312668E+00
        -11   -1    0    0    0    0  0.00000000000E+00  0.00000000000E+00  0.45593999997E+02  0.45594000000E+02  0.51100000000E-03 0. -1.
         11   -1    0    0    0    0 -0.00000000000E+00 -0.00000000000E+00 -0.45593999997E+02  0.45594000000E+02  0.51100000000E-03 0.  1.
    9900012    2    1    2    0    0 -0.16796748676E+02 -0.39333678612E+02  0.73725440508E+01  0.47787269072E+02  0.19999991009E+02 0.  0.
        -12    1    1    2    0    0  0.16796748676E+02  0.39333678612E+02 -0.73725440508E+01  0.43400730928E+02  0.00000000000E+00 0.  1.
         11    1    3    3    0    0 -0.47206182024E+01 -0.95047776046E+01 -0.58052733775E+01  0.12096538049E+02  0.51100000000E-03 0. -1.
        -11    1    3    3    0    0  0.53968960143E+00 -0.63757854189E+01  0.38814355509E+01  0.74838123153E+01  0.51100000000E-03 0.  1.
         12    1    3    3    0    0 -0.12615820075E+02 -0.23453115589E+02  0.92963818774E+01  0.28206918708E+02  0.00000000000E+00 0. -1.
</event>
<event>
 7    1  0.3062695E-010  0.4778727E+02  0.7816164E-02  0.1312668E+00
        -11   -1    0    0    0    0  0.00000000000E+00  0.00000000000E+00  0.45593999997E+02  0.45594000000E+02  0.51100000000E-03 0. -1.
         11   -1    0    0    0    0 -0.00000000000E+00 -0.00000000000E+00 -0.45593999997E+02  0.45594000000E+02  0.51100000000E-03 0.  1.
    9900012    2    1    2    0    0 -0.20092517943E+01 -0.68857154895E+01  0.42803893129E+02  0.47787269159E+02  0.19999991402E+02 0.  0.
        -12    1    1    2    0    0  0.20092517943E+01  0.68857154895E+01 -0.42803893129E+02  0.43400730841E+02  0.00000000000E+00 0.  1.
         11    1    3    3    0    0 -0.65239311722E+01 -0.75538806479E+01  0.24714495118E+02  0.26653875140E+02  0.51100000000E-03 0. -1.
        -11    1    3    3    0    0  0.75137754666E+01 -0.61805990821E+00  0.14006556597E+02  0.15906679345E+02  0.51100000000E-03 0.  1.
        -12    1    3    3    0    0 -0.29990960887E+01  0.12862250665E+01  0.40828414143E+01  0.52267146742E+01  0.00000000000E+00 0.  1.
</event>
<event>
 7    1  0.3062695E-010  0.4778726E+02  0.7816164E-02  0.1312668E+00
        -11   -1    0    0    0    0  0.00000000000E+00  0.00000000000E+00  0.45593999997E+02  0.45594000000E+02  0.51100000000E-03 0.  1.
         11   -1    0    0    0    0 -0.00000000000E+00 -0.00000000000E+00 -0.45593999997E+02  0.45594000000E+02  0.51100000000E-03 0. -1.
    9900012    2    1    2    0    0 -0.26916307469E+02 -0.24048600930E+02 -0.24099829242E+02  0.47787255951E+02  0.19999931185E+02 0.  0.
        -12    1    1    2    0    0  0.26916307469E+02  0.24048600930E+02  0.24099829242E+02  0.43400744049E+02  0.00000000000E+00 0.  1.
         11    1    3    3    0    0 -0.11127419771E+02 -0.39461349690E+01 -0.16363427340E+02  0.20178037727E+02  0.51100000000E-03 0. -1.
        -11    1    3    3    0    0 -0.12076656431E+02 -0.17416947816E+02 -0.87285687761E+01  0.22921248110E+02  0.51100000000E-03 0.  1.
        -12    1    3    3    0    0 -0.37122312668E+01 -0.26855181457E+01  0.99216687369E+00  0.46879701145E+01  0.00000000000E+00 0.  1.
</event>
<event>
 7    1  0.3062695E-010  0.4778728E+02  0.7816164E-02  0.1312668E+00
        -11   -1    0    0    0    0  0.00000000000E+00  0.00000000000E+00  0.45593999997E+02  0.45594000000E+02  0.51100000000E-03 0.  1.
         11   -1    0    0    0    0 -0.00000000000E+00 -0.00000000000E+00 -0.45593999997E+02  0.45594000000E+02  0.51100000000E-03 0. -1.
    9900012    2    1    2    0    0  0.13753083689E+02  0.15373307251E+02 -0.38185560370E+02  0.47787275264E+02  0.20000019240E+02 0.  0.
        -12    1    1    2    0    0 -0.13753083689E+02 -0.15373307251E+02  0.38185560370E+02  0.43400724736E+02  0.00000000000E+00 0.  1.
         11    1    3    3    0    0  0.46664832519E+01 -0.73500659372E+00  0.45669390659E+00  0.47460373174E+01  0.51100000000E-03 0.  1.
        -11    1    3    3    0    0  0.60703158030E+01  0.93130690336E+01 -0.18656237709E+02  0.21717209639E+02  0.51100000000E-03 0. -1.
        -12    1    3    3    0    0  0.30162846346E+01  0.67952448114E+01 -0.19986016567E+02  0.21324028308E+02  0.00000000000E+00 0.  1.
</event>
<event>
 7    1  0.3062695E-010  0.4778727E+02  0.7816164E-02  0.1312668E+00
        -11   -1    0    0    0    0  0.00000000000E+00  0.00000000000E+00  0.45593999997E+02  0.45594000000E+02  0.51100000000E-03 0.  1.
         11   -1    0    0    0    0 -0.00000000000E+00 -0.00000000000E+00 -0.45593999997E+02  0.45594000000E+02  0.51100000000E-03 0. -1.
    9900012    2    1    2    0    0  0.84167663467E+01 -0.42209718204E+02  0.55786400905E+01  0.47787268533E+02  0.19999988551E+02 0.  0.
        -12    1    1    2    0    0 -0.84167663467E+01  0.42209718204E+02 -0.55786400905E+01  0.43400731467E+02  0.00000000000E+00 0.  1.
         11    1    3    3    0    0  0.93409172411E+01 -0.30114907630E+02 -0.34047906799E+01  0.31713609008E+02  0.51100000000E-03 0. -1.
        -11    1    3    3    0    0 -0.19553251091E+00 -0.10386647610E+02  0.95715440284E+01  0.14125690670E+02  0.51100000000E-03 0.  1.
        -12    1    3    3    0    0 -0.72861838347E+00 -0.17081629632E+01 -0.58811325801E+00  0.19479688555E+01  0.00000000000E+00 0.  1.
</event>
<event>
 7    1  0.3062695E-010  0.4778727E+02  0.7816164E-02  0.1312668E+00
        -11   -1    0    0    0    0  0.00000000000E+00  0.00000000000E+00  0.45593999997E+02  0.45594000000E+02  0.51100000000E-03 0.  1.
         11   -1    0    0    0    0 -0.00000000000E+00 -0.00000000000E+00 -0.45593999997E+02  0.45594000000E+02  0.51100000000E-03 0. -1.
    9900012    2    1    2    0    0  0.39935818725E+02  0.16338862483E+02  0.46685355799E+01  0.47787271101E+02  0.20000000258E+02 0.  0.
        -12    1    1    2    0    0 -0.39935818725E+02 -0.16338862483E+02 -0.46685355799E+01  0.43400728899E+02  0.00000000000E+00 0.  1.
         11    1    3    3    0    0  0.23783632385E+02  0.80816568991E+01 -0.57198206452E+01  0.25762195096E+02  0.51100000000E-03 0. -1.
        -11    1    3    3    0    0  0.10232720024E+02  0.21826301577E+01  0.81230674042E+01  0.13246005353E+02  0.51100000000E-03 0.  1.
         12    1    3    3    0    0  0.59194663163E+01  0.60745754266E+01  0.22652888209E+01  0.87790706527E+01  0.00000000000E+00 0. -1.
</event>
<event>
 7    1  0.3062695E-010  0.4778727E+02  0.7816164E-02  0.1312668E+00
        -11   -1    0    0    0    0  0.00000000000E+00  0.00000000000E+00  0.45593999997E+02  0.45594000000E+02  0.51100000000E-03 0.  1.
         11   -1    0    0    0    0 -0.00000000000E+00 -0.00000000000E+00 -0.45593999997E+02  0.45594000000E+02  0.51100000000E-03 0. -1.
    9900012    2    1    2    0    0  0.29901640219E+02  0.13028379908E+02 -0.28631739411E+02  0.47787271061E+02  0.20000000074E+02 0.  0.
        -12    1    1    2    0    0 -0.29901640219E+02 -0.13028379908E+02  0.28631739411E+02  0.43400728939E+02  0.00000000000E+00 0.  1.
         11    1    3    3    0    0  0.10158476227E+02  0.86243394893E+01 -0.47998965870E+01  0.14163787572E+02  0.51100000000E-03 0. -1.
        -11    1    3    3    0    0  0.18051960107E+02  0.11171376923E+00 -0.22449422712E+02  0.28807331081E+02  0.51100000000E-03 0.  1.
        -12    1    3    3    0    0  0.16912038849E+01  0.42923266490E+01 -0.13824201114E+01  0.48161524069E+01  0.00000000000E+00 0.  1.
</event>
<event>
 7    1  0.3062695E-010  0.4778727E+02  0.7816164E-02  0.1312668E+00
        -11   -1    0    0    0    0  0.00000000000E+00  0.00000000000E+00  0.45593999997E+02  0.45594000000E+02  0.51100000000E-03 0.  1.
         11   -1    0    0    0    0 -0.00000000000E+00 -0.00000000000E+00 -0.45593999997E+02  0.45594000000E+02  0.51100000000E-03 0. -1.
    9900012    2    1    2    0    0 -0.37814752119E+01 -0.25779612679E+02 -0.34709296752E+02  0.47787271139E+02  0.20000000433E+02 0.  0.
        -12    1    1    2    0    0  0.37814752119E+01  0.25779612679E+02  0.34709296752E+02  0.43400728861E+02  0.00000000000E+00 0.  1.
         11    1    3    3    0    0  0.35008358586E+01 -0.15480164959E+02 -0.11757477681E+02  0.19751699688E+02  0.51100000000E-03 0. -1.
        -11    1    3    3    0    0  0.21478225870E+01 -0.58437245091E+00 -0.56029582721E+01  0.60289115673E+01  0.51100000000E-03 0.  1.
         12    1    3    3    0    0 -0.94301336575E+01 -0.97150752689E+01 -0.17348860798E+02  0.22006659884E+02  0.00000000000E+00 0. -1.
</event>
<event>
 7    1  0.3062695E-010  0.4778727E+02  0.7816164E-02  0.1312668E+00
        -11   -1    0    0    0    0  0.00000000000E+00  0.00000000000E+00  0.45593999997E+02  0.45594000000E+02  0.51100000000E-03 0. -1.
         11   -1    0    0    0    0 -0.00000000000E+00 -0.00000000000E+00 -0.45593999997E+02  0.45594000000E+02  0.51100000000E-03 0.  1.
    9900012    2    1    2    0    0 -0.37336875618E+02 -0.15316189883E+02  0.15968574963E+02  0.47787270285E+02  0.19999996536E+02 0.  0.
        -12    1    1    2    0    0  0.37336875618E+02  0.15316189883E+02 -0.15968574963E+02  0.43400729715E+02  0.00000000000E+00 0.  1.
         11    1    3    3    0    0 -0.36106550275E+01 -0.21012046812E+01  0.86567440746E+01  0.96120293942E+01  0.51100000000E-03 0. -1.
        -11    1    3    3    0    0 -0.20860357438E+02 -0.54342838848E+01  0.23600225999E+00  0.21557867500E+02  0.51100000000E-03 0.  1.
         12    1    3    3    0    0 -0.12865863152E+02 -0.77807013173E+01  0.70758286282E+01  0.16617373391E+02  0.00000000000E+00 0. -1.
</event>
<event>
 7    1  0.3062695E-010  0.4778727E+02  0.7816164E-02  0.1312668E+00
        -11   -1    0    0    0    0  0.00000000000E+00  0.00000000000E+00  0.45593999997E+02  0.45594000000E+02  0.51100000000E-03 0. -1.
         11   -1    0    0    0    0 -0.00000000000E+00 -0.00000000000E+00 -0.45593999997E+02  0.45594000000E+02  0.51100000000E-03 0.  1.
    9900012    2    1    2    0    0 -0.23722756246E+02 -0.34187601882E+02  0.12331353248E+02  0.47787267756E+02  0.19999985008E+02 0.  0.
        -12    1    1    2    0    0  0.23722756246E+02  0.34187601882E+02 -0.12331353248E+02  0.43400732244E+02  0.00000000000E+00 0.  1.
         11    1    3    3    0    0  0.12139744564E+00 -0.21659614368E+01  0.15220175986E+01  0.26500309653E+01  0.51100000000E-03 0. -1.
        -11    1    3    3    0    0 -0.24898307366E+02 -0.30577635417E+02  0.13694750716E+02  0.41742828065E+02  0.51100000000E-03 0.  1.
        -12    1    3    3    0    0  0.10541536747E+01 -0.14440050287E+01 -0.28854150671E+01  0.33944087264E+01  0.00000000000E+00 0.  1.
</event>
<event>
 7    1  0.3062695E-010  0.4778727E+02  0.7816164E-02  0.1312668E+00
        -11   -1    0    0    0    0  0.00000000000E+00  0.00000000000E+00  0.45593999997E+02  0.45594000000E+02  0.51100000000E-03 0.  1.
         11   -1    0    0    0    0 -0.00000000000E+00 -0.00000000000E+00 -0.45593999997E+02  0.45594000000E+02  0.51100000000E-03 0. -1.
    9900012    2    1    2    0    0  0.23623689274E+02 -0.82796027747E+01 -0.35454090367E+02  0.47787273730E+02  0.20000012245E+02 0.  0.
        -12    1    1    2    0    0 -0.23623689274E+02  0.82796027747E+01  0.35454090367E+02  0.43400726270E+02  0.00000000000E+00 0.  1.
         11    1    3    3    0    0  0.51775113027E+01 -0.64744424573E+01 -0.74440136712E+01  0.11141739910E+02  0.51100000000E-03 0. -1.
        -11    1    3    3    0    0  0.16721951854E+02 -0.20955753060E+01 -0.29741777320E+02  0.34184622684E+02  0.51100000000E-03 0.  1.
        -12    1    3    3    0    0  0.17242261168E+01  0.29041498858E+00  0.17317006240E+01  0.24609111358E+01  0.00000000000E+00 0.  1.
</event>
<event>
 7    1 -0.3062695E-010  0.4778726E+02  0.7816164E-02  0.1312668E+00
        -11   -1    0    0    0    0  0.00000000000E+00  0.00000000000E+00  0.45593999997E+02  0.45594000000E+02  0.51100000000E-03 0.  1.
         11   -1    0    0    0    0 -0.00000000000E+00 -0.00000000000E+00 -0.45593999997E+02  0.45594000000E+02  0.51100000000E-03 0. -1.
    9900012    2    1    2    0    0  0.13024640297E+02 -0.32175682883E+02 -0.26052027443E+02  0.47787263166E+02  0.19999964079E+02 0.  0.
        -12    1    1    2    0    0 -0.13024640297E+02  0.32175682883E+02  0.26052027443E+02  0.43400736834E+02  0.00000000000E+00 0.  1.
         11    1    3    3    0    0 -0.15645272260E+01 -0.43988143491E+01 -0.60536822943E+01  0.76448925892E+01  0.51100000000E-03 0. -1.
        -11    1    3    3    0    0  0.71026163961E+01 -0.12254798061E+01 -0.37189677380E+01  0.81104674171E+01  0.51100000000E-03 0.  1.
        -12    1    3    3    0    0  0.74865511270E+01 -0.26551388728E+02 -0.16279377411E+02  0.32031903160E+02  0.00000000000E+00 0.  1.
</event>
<event>
 7    1  0.3062695E-010  0.4778727E+02  0.7816164E-02  0.1312668E+00
        -11   -1    0    0    0    0  0.00000000000E+00  0.00000000000E+00  0.45593999997E+02  0.45594000000E+02  0.51100000000E-03 0.  1.
         11   -1    0    0    0    0 -0.00000000000E+00 -0.00000000000E+00 -0.45593999997E+02  0.45594000000E+02  0.51100000000E-03 0. -1.
    9900012    2    1    2    0    0  0.39667966757E+02 -0.82770854010E+01 -0.15542376906E+02  0.47787271789E+02  0.20000003393E+02 0.  0.
        -12    1    1    2    0    0 -0.39667966757E+02  0.82770854010E+01  0.15542376906E+02  0.43400728211E+02  0.00000000000E+00 0.  1.
         11    1    3    3    0    0  0.69770998654E+01  0.14652263257E+01  0.23146580064E+01  0.74956289039E+01  0.51100000000E-03 0. -1.
        -11    1    3    3    0    0  0.14012636432E+02 -0.11819581515E+01 -0.13062484201E+02  0.19193214911E+02  0.51100000000E-03 0.  1.
        -12    1    3    3    0    0  0.18678230460E+02 -0.85603535752E+01 -0.47945507109E+01  0.21098427974E+02  0.00000000000E+00 0.  1.
</event>
<event>
 7    1  0.3062695E-010  0.4778727E+02  0.7816164E-02  0.1312668E+00
        -11   -1    0    0    0    0  0.00000000000E+00  0.00000000000E+00  0.45593999997E+02  0.45594000000E+02  0.51100000000E-03 0.  1.
         11   -1    0    0    0    0 -0.00000000000E+00 -0.00000000000E+00 -0.45593999997E+02  0.45594000000E+02  0.51100000000E-03 0. -1.
    9900012    2    1    2    0    0 -0.42209738196E+02 -0.99146191692E+01  0.19135440561E+01  0.47787270482E+02  0.19999997436E+02 0.  0.
        -12    1    1    2    0    0  0.42209738196E+02  0.99146191692E+01 -0.19135440561E+01  0.43400729518E+02  0.00000000000E+00 0.  1.
         11    1    3    3    0    0 -0.18789878774E+01 -0.10542570677E+01  0.49988256297E+00  0.22117721958E+01  0.51100000000E-03 0. -1.
        -11    1    3    3    0    0 -0.23949622826E+02 -0.74976118122E+01  0.10018630230E+02  0.27021687000E+02  0.51100000000E-03 0.  1.
        -12    1    3    3    0    0 -0.16381127493E+02 -0.13627502894E+01 -0.86049687368E+01  0.18553811286E+02  0.00000000000E+00 0.  1.
</event>
<event>
 7    1  0.3062695E-010  0.4778727E+02  0.7816164E-02  0.1312668E+00
        -11   -1    0    0    0    0  0.00000000000E+00  0.00000000000E+00  0.45593999997E+02  0.45594000000E+02  0.51100000000E-03 0.  1.
         11   -1    0    0    0    0 -0.00000000000E+00 -0.00000000000E+00 -0.45593999997E+02  0.45594000000E+02  0.51100000000E-03 0. -1.
    9900012    2    1    2    0    0 -0.13619772438E+02  0.16078502499E+02 -0.37942148363E+02  0.47787273436E+02  0.20000010904E+02 0.  0.
        -12    1    1    2    0    0  0.13619772438E+02 -0.16078502499E+02  0.37942148363E+02  0.43400726564E+02  0.00000000000E+00 0.  1.
         11    1    3    3    0    0 -0.51502750833E+01 -0.98865177809E+00 -0.11176792173E+01  0.53620866150E+01  0.51100000000E-03 0. -1.
        -11    1    3    3    0    0  0.18166158609E+01  0.36889369399E+01 -0.58268413273E+01  0.71316498125E+01  0.51100000000E-03 0.  1.
         12    1    3    3    0    0 -0.10286113215E+02  0.13378217338E+02 -0.30997627819E+02  0.35293537009E+02  0.00000000000E+00 0. -1.
</event>
<event>
 7    1  0.3062695E-010  0.4778728E+02  0.7816164E-02  0.1312668E+00
        -11   -1    0    0    0    0  0.00000000000E+00  0.00000000000E+00  0.45593999997E+02  0.45594000000E+02  0.51100000000E-03 0.  1.
         11   -1    0    0    0    0 -0.00000000000E+00 -0.00000000000E+00 -0.45593999997E+02  0.45594000000E+02  0.51100000000E-03 0. -1.
    9900012    2    1    2    0    0 -0.22610195065E+02 -0.19516907482E+02 -0.31487970530E+02  0.47787275506E+02  0.20000020340E+02 0.  0.
        -12    1    1    2    0    0  0.22610195065E+02  0.19516907482E+02  0.31487970530E+02  0.43400724494E+02  0.00000000000E+00 0.  1.
         11    1    3    3    0    0  0.24472618611E+01 -0.58091310160E+01 -0.84692256292E+01  0.10557598060E+02  0.51100000000E-03 0. -1.
        -11    1    3    3    0    0 -0.13260756737E+01 -0.14426033255E+01 -0.39473894359E+01  0.44069790863E+01  0.51100000000E-03 0.  1.
         12    1    3    3    0    0 -0.23731381252E+02 -0.12265173140E+02 -0.19071355465E+02  0.32822698359E+02  0.00000000000E+00 0. -1.
</event>
<event>
 7    1  0.3062695E-010  0.4778727E+02  0.7816164E-02  0.1312668E+00
        -11   -1    0    0    0    0  0.00000000000E+00  0.00000000000E+00  0.45593999997E+02  0.45594000000E+02  0.51100000000E-03 0.  1.
         11   -1    0    0    0    0 -0.00000000000E+00 -0.00000000000E+00 -0.45593999997E+02  0.45594000000E+02  0.51100000000E-03 0. -1.
    9900012    2    1    2    0    0  0.13866337840E+02 -0.21620541122E+02 -0.34984283396E+02  0.47787271801E+02  0.20000003450E+02 0.  0.
        -12    1    1    2    0    0 -0.13866337840E+02  0.21620541122E+02  0.34984283396E+02  0.43400728199E+02  0.00000000000E+00 0.  1.
         11    1    3    3    0    0  0.11002505777E+02 -0.53394518717E+01 -0.19302981827E+02  0.22851039086E+02  0.51100000000E-03 0. -1.
        -11    1    3    3    0    0 -0.88578666805E+00 -0.14219239334E+02 -0.14846504207E+02  0.20576444607E+02  0.51100000000E-03 0.  1.
        -12    1    3    3    0    0  0.37496187310E+01 -0.20618499162E+01 -0.83479736208E+00  0.43597881072E+01  0.00000000000E+00 0.  1.
</event>
<event>
 7    1  0.3062695E-010  0.4778727E+02  0.7816164E-02  0.1312668E+00
        -11   -1    0    0    0    0  0.00000000000E+00  0.00000000000E+00  0.45593999997E+02  0.45594000000E+02  0.51100000000E-03 0.  1.
         11   -1    0    0    0    0 -0.00000000000E+00 -0.00000000000E+00 -0.45593999997E+02  0.45594000000E+02  0.51100000000E-03 0. -1.
    9900012    2    1    2    0    0  0.20552014231E+02 -0.23435878957E+02 -0.30199304244E+02  0.47787266270E+02  0.19999978233E+02 0.  0.
        -12    1    1    2    0    0 -0.20552014231E+02  0.23435878957E+02  0.30199304244E+02  0.43400733730E+02  0.00000000000E+00 0.  1.
         11    1    3    3    0    0  0.20301366665E+02 -0.15953178472E+02 -0.16764966028E+02  0.30784955385E+02  0.51100000000E-03 0. -1.
        -11    1    3    3    0    0 -0.25798984479E+01 -0.64111267575E+01 -0.67292631976E+01  0.96457973100E+01  0.51100000000E-03 0.  1.
        -12    1    3    3    0    0  0.28305460142E+01 -0.10715737267E+01 -0.67050750184E+01  0.73565135759E+01  0.00000000000E+00 0.  1.
</event>
<event>
 7    1  0.4978662E-010  0.4778729E+02  0.7816164E-02  0.1312668E+00
        -11   -1    0    0    0    0  0.00000000000E+00  0.00000000000E+00  0.45593999997E+02  0.45594000000E+02  0.51100000000E-03 0. -1.
         11   -1    0    0    0    0 -0.00000000000E+00 -0.00000000000E+00 -0.45593999997E+02  0.45594000000E+02  0.51100000000E-03 0.  1.
    9900012    2    1    2    0    0 -0.36804321955E+02  0.20124795887E+02 -0.11138062441E+02  0.47787286193E+02  0.20000069068E+02 0.  0.
        -12    1    1    2    0    0  0.36804321955E+02 -0.20124795887E+02  0.11138062441E+02  0.43400713807E+02  0.00000000000E+00 0.  1.
         11    1    3    3    0    0 -0.20041111776E+02  0.15774765343E+02 -0.11917242428E+02  0.28151555022E+02  0.51100000000E-03 0. -1.
        -11    1    3    3    0    0 -0.29342287263E+01 -0.27682831809E+01 -0.29799266669E+00  0.40449832976E+01  0.51100000000E-03 0.  1.
        -12    1    3    3    0    0 -0.13828981453E+02  0.71183137247E+01  0.10771726542E+01  0.15590747873E+02  0.00000000000E+00 0.  1.
</event>
<event>
 7    1  0.3062695E-010  0.4778727E+02  0.7816164E-02  0.1312668E+00
        -11   -1    0    0    0    0  0.00000000000E+00  0.00000000000E+00  0.45593999997E+02  0.45594000000E+02  0.51100000000E-03 0. -1.
         11   -1    0    0    0    0 -0.00000000000E+00 -0.00000000000E+00 -0.45593999997E+02  0.45594000000E+02  0.51100000000E-03 0.  1.
    9900012    2    1    2    0    0 -0.21229372263E+02 -0.56787872368E+01  0.37425776138E+02  0.47787267394E+02  0.19999983358E+02 0.  0.
        -12    1    1    2    0    0  0.21229372263E+02  0.56787872368E+01 -0.37425776138E+02  0.43400732606E+02  0.00000000000E+00 0.  1.
         11    1    3    3    0    0 -0.15911068573E+02  0.28682259548E+01  0.18504525085E+02  0.24572469801E+02  0.51100000000E-03 0. -1.
        -11    1    3    3    0    0  0.14279264389E+01 -0.71969791975E+00  0.80841527296E+01  0.82407805836E+01  0.51100000000E-03 0.  1.
         12    1    3    3    0    0 -0.67462301288E+01 -0.78273152719E+01  0.10837098324E+02  0.14974017009E+02  0.00000000000E+00 0. -1.
</event>
<event>
 7    1  0.3062695E-010  0.4778727E+02  0.7816164E-02  0.1312668E+00
        -11   -1    0    0    0    0  0.00000000000E+00  0.00000000000E+00  0.45593999997E+02  0.45594000000E+02  0.51100000000E-03 0.  1.
         11   -1    0    0    0    0 -0.00000000000E+00 -0.00000000000E+00 -0.45593999997E+02  0.45594000000E+02  0.51100000000E-03 0. -1.
    9900012    2    1    2    0    0  0.20010352687E+02 -0.23128776009E+02 -0.30793975725E+02  0.47787269185E+02  0.19999991521E+02 0.  0.
        -12    1    1    2    0    0 -0.20010352687E+02  0.23128776009E+02  0.30793975725E+02  0.43400730815E+02  0.00000000000E+00 0.  1.
         11    1    3    3    0    0  0.44234927070E+01 -0.31576826685E+01  0.13325153473E+01  0.55958774983E+01  0.51100000000E-03 0. -1.
        -11    1    3    3    0    0  0.61346753999E+01 -0.15373712811E+02 -0.22543167047E+02  0.27967475192E+02  0.51100000000E-03 0.  1.
         12    1    3    3    0    0  0.94521845796E+01 -0.45973805298E+01 -0.95833240258E+01  0.14223916495E+02  0.00000000000E+00 0. -1.
</event>
<event>
 7    1  0.3062695E-010  0.4778725E+02  0.7816164E-02  0.1312668E+00
        -11   -1    0    0    0    0  0.00000000000E+00  0.00000000000E+00  0.45593999997E+02  0.45594000000E+02  0.51100000000E-03 0. -1.
         11   -1    0    0    0    0 -0.00000000000E+00 -0.00000000000E+00 -0.45593999997E+02  0.45594000000E+02  0.51100000000E-03 0.  1.
    9900012    2    1    2    0    0  0.18258986434E+01  0.10983944059E+02  0.41948111509E+02  0.47787251249E+02  0.19999909745E+02 0.  0.
        -12    1    1    2    0    0 -0.18258986434E+01 -0.10983944059E+02 -0.41948111509E+02  0.43400748751E+02  0.00000000000E+00 0.  1.
         11    1    3    3    0    0 -0.32575164332E+00  0.13189406977E+02  0.27245667274E+02  0.30271983020E+02  0.51100000000E-03 0. -1.
        -11    1    3    3    0    0  0.47861682836E+01 -0.28460346581E+01  0.51476581547E+01  0.75832516015E+01  0.51100000000E-03 0.  1.
        -12    1    3    3    0    0 -0.26345179969E+01  0.64057174043E+00  0.95547860809E+01  0.99320166271E+01  0.00000000000E+00 0.  1.
</event>
<event>
 7    1  0.3062695E-010  0.4778727E+02  0.7816164E-02  0.1312668E+00
        -11   -1    0    0    0    0  0.00000000000E+00  0.00000000000E+00  0.45593999997E+02  0.45594000000E+02  0.51100000000E-03 0. -1.
         11   -1    0    0    0    0 -0.00000000000E+00 -0.00000000000E+00 -0.45593999997E+02  0.45594000000E+02  0.51100000000E-03 0.  1.
    9900012    2    1    2    0    0 -0.15231520107E+02  0.27939590189E+02  0.29512770158E+02  0.47787268358E+02  0.19999987753E+02 0.  0.
        -12    1    1    2    0    0  0.15231520107E+02 -0.27939590189E+02 -0.29512770158E+02  0.43400731642E+02  0.00000000000E+00 0.  1.
         11    1    3    3    0    0  0.56310602310E+00  0.14871601646E+01  0.61334673489E+01  0.63362572336E+01  0.51100000000E-03 0. -1.
        -11    1    3    3    0    0 -0.10181270281E+02  0.22108685121E+02  0.10017679228E+02  0.26321210453E+02  0.51100000000E-03 0.  1.
        -12    1    3    3    0    0 -0.56133558484E+01  0.43437449027E+01  0.13361623580E+02  0.15129800672E+02  0.00000000000E+00 0.  1.
</event>
<event>
 7    1  0.3062695E-010  0.4778727E+02  0.7816164E-02  0.1312668E+00
        -11   -1    0    0    0    0  0.00000000000E+00  0.00000000000E+00  0.45593999997E+02  0.45594000000E+02  0.51100000000E-03 0. -1.
         11   -1    0    0    0    0 -0.00000000000E+00 -0.00000000000E+00 -0.45593999997E+02  0.45594000000E+02  0.51100000000E-03 0.  1.
    9900012    2    1    2    0    0  0.88406085257E+01  0.40529251576E+02  0.12761139244E+02  0.47787271121E+02  0.20000000350E+02 0.  0.
        -12    1    1    2    0    0 -0.88406085257E+01 -0.40529251576E+02 -0.12761139244E+02  0.43400728879E+02  0.00000000000E+00 0.  1.
         11    1    3    3    0    0 -0.43723441764E+00  0.24937965203E+02  0.44770835373E+01  0.25340433297E+02  0.51100000000E-03 0. -1.
        -11    1    3    3    0    0  0.99029717509E+01  0.67339146457E+01  0.50501969257E+01  0.12996882134E+02  0.51100000000E-03 0.  1.
        -12    1    3    3    0    0 -0.62512880760E+00  0.88573717270E+01  0.32338587814E+01  0.94499556906E+01  0.00000000000E+00 0.  1.
</event>
<event>
 7    1  0.3062695E-010  0.4778727E+02  0.7816164E-02  0.1312668E+00
        -11   -1    0    0    0    0  0.00000000000E+00  0.00000000000E+00  0.45593999997E+02  0.45594000000E+02  0.51100000000E-03 0. -1.
         11   -1    0    0    0    0 -0.00000000000E+00 -0.00000000000E+00 -0.45593999997E+02  0.45594000000E+02  0.51100000000E-03 0.  1.
    9900012    2    1    2    0    0  0.48351929841E+01 -0.15078154227E+02  0.40409073274E+02  0.47787273866E+02  0.20000012867E+02 0.  0.
        -12    1    1    2    0    0 -0.48351929841E+01  0.15078154227E+02 -0.40409073274E+02  0.43400726134E+02  0.00000000000E+00 0.  1.
         11    1    3    3    0    0 -0.65118167977E+01 -0.48373339441E+01  0.16021620610E+02  0.17958170423E+02  0.51100000000E-03 0. -1.
        -11    1    3    3    0    0  0.50615705793E+01  0.59015876640E-01  0.82552147378E+01  0.96835711508E+01  0.51100000000E-03 0.  1.
         12    1    3    3    0    0  0.62854392025E+01 -0.10299836159E+02  0.16132237926E+02  0.20145532293E+02  0.00000000000E+00 0. -1.
</event>
<event>
 7    1  0.3062695E-010  0.4778727E+02  0.7816164E-02  0.1312668E+00
        -11   -1    0    0    0    0  0.00000000000E+00  0.00000000000E+00  0.45593999997E+02  0.45594000000E+02  0.51100000000E-03 0.  1.
         11   -1    0    0    0    0 -0.00000000000E+00 -0.00000000000E+00 -0.45593999997E+02  0.45594000000E+02  0.51100000000E-03 0. -1.
    9900012    2    1    2    0    0  0.40830110047E+02  0.11329516969E+02 -0.93897630474E+01  0.47787268540E+02  0.19999988582E+02 0.  0.
        -12    1    1    2    0    0 -0.40830110047E+02 -0.11329516969E+02  0.93897630474E+01  0.43400731460E+02  0.00000000000E+00 0.  1.
         11    1    3    3    0    0  0.29594070074E+02  0.11939206371E+02 -0.66379599711E+01  0.32594725726E+02  0.51100000000E-03 0. -1.
        -11    1    3    3    0    0  0.24267251366E+01 -0.46097134545E+01 -0.33440924486E+00  0.52201803442E+01  0.51100000000E-03 0.  1.
        -12    1    3    3    0    0  0.88093148358E+01  0.40000240525E+01 -0.24173938315E+01  0.99723624701E+01  0.00000000000E+00 0.  1.
</event>
<event>
 7    1  0.3062695E-010  0.4778727E+02  0.7816164E-02  0.1312668E+00
        -11   -1    0    0    0    0  0.00000000000E+00  0.00000000000E+00  0.45593999997E+02  0.45594000000E+02  0.51100000000E-03 0.  1.
         11   -1    0    0    0    0 -0.00000000000E+00 -0.00000000000E+00 -0.45593999997E+02  0.45594000000E+02  0.51100000000E-03 0. -1.
    9900012    2    1    2    0    0  0.19769264667E+00  0.64044375637E+01 -0.42925135580E+02  0.47787272271E+02  0.20000005591E+02 0.  0.
        -12    1    1    2    0    0 -0.19769264667E+00 -0.64044375637E+01  0.42925135580E+02  0.43400727729E+02  0.00000000000E+00 0.  1.
         11    1    3    3    0    0 -0.90527975338E+01  0.46938444986E+01 -0.23826580175E+02  0.25917006819E+02  0.51100000000E-03 0. -1.
        -11    1    3    3    0    0  0.49108726642E+01  0.10659818141E+01 -0.49367738282E+01  0.70444817867E+01  0.51100000000E-03 0.  1.
         12    1    3    3    0    0  0.43396175163E+01  0.64461125094E+00 -0.14161781577E+02  0.14825783665E+02  0.00000000000E+00 0. -1.
</event>
<event>
 7    1  0.3149777E-010  0.4778727E+02  0.7816164E-02  0.1312668E+00
        -11   -1    0    0    0    0  0.00000000000E+00  0.00000000000E+00  0.45593999997E+02  0.45594000000E+02  0.51100000000E-03 0.  1.
         11   -1    0    0    0    0 -0.00000000000E+00 -0.00000000000E+00 -0.45593999997E+02  0.45594000000E+02  0.51100000000E-03 0. -1.
    9900012    2    1    2    0    0 -0.14759857584E+02  0.39222551918E+02  0.11285457938E+02  0.47787268028E+02  0.19999986248E+02 0.  0.
        -12    1    1    2    0    0  0.14759857584E+02 -0.39222551918E+02 -0.11285457938E+02  0.43400731972E+02  0.00000000000E+00 0.  1.
         11    1    3    3    0    0 -0.13358987903E+02  0.14211720415E+02  0.52193884340E+01  0.20191026988E+02  0.51100000000E-03 0. -1.
        -11    1    3    3    0    0  0.22101017608E+01  0.60935133065E+01 -0.19003298905E+01  0.67547544858E+01  0.51100000000E-03 0.  1.
        -12    1    3    3    0    0 -0.36109714413E+01  0.18917318196E+02  0.79663993945E+01  0.20841486554E+02  0.00000000000E+00 0.  1.
</event>
<event>
 7    1  0.3062695E-010  0.4778727E+02  0.7816164E-02  0.1312668E+00
        -11   -1    0    0    0    0  0.00000000000E+00  0.00000000000E+00  0.45593999997E+02  0.45594000000E+02  0.51100000000E-03 0. -1.
         11   -1    0    0    0    0 -0.00000000000E+00 -0.00000000000E+00 -0.45593999997E+02  0.45594000000E+02  0.51100000000E-03 0.  1.
    9900012    2    1    2    0    0 -0.18596195397E+02  0.56125540345E+01  0.38811137219E+02  0.47787267077E+02  0.19999981910E+02 0.  0.
        -12    1    1    2    0    0  0.18596195397E+02 -0.56125540345E+01 -0.38811137219E+02  0.43400732923E+02  0.00000000000E+00 0.  1.
         11    1    3    3    0    0  0.17887404206E+01 -0.11220794664E+01  0.78130140867E+01  0.80933209501E+01  0.51100000000E-03 0. -1.
        -11    1    3    3    0    0 -0.20931560828E+02  0.42150849321E+01  0.23433979186E+02  0.31702500855E+02  0.51100000000E-03 0.  1.
        -12    1    3    3    0    0  0.54662501051E+00  0.25195485687E+01  0.75641439461E+01  0.79914452716E+01  0.00000000000E+00 0.  1.
</event>
<event>
 7    1  0.3062695E-010  0.4778727E+02  0.7816164E-02  0.1312668E+00
        -11   -1    0    0    0    0  0.00000000000E+00  0.00000000000E+00  0.45593999997E+02  0.45594000000E+02  0.51100000000E-03 0. -1.
         11   -1    0    0    0    0 -0.00000000000E+00 -0.00000000000E+00 -0.45593999997E+02  0.45594000000E+02  0.51100000000E-03 0.  1.
    9900012    2    1    2    0    0 -0.27857701854E+02  0.30892768543E+02  0.12377753095E+02  0.47787268755E+02  0.19999989564E+02 0.  0.
        -12    1    1    2    0    0  0.27857701854E+02 -0.30892768543E+02 -0.12377753095E+02  0.43400731245E+02  0.00000000000E+00 0.  1.
         11    1    3    3    0    0 -0.67493616398E+01  0.10246752579E+02  0.11388274632E+02  0.16740448630E+02  0.51100000000E-03 0. -1.
        -11    1    3    3    0    0 -0.21067690664E+02  0.17532499831E+02  0.26170201017E+01  0.27533342237E+02  0.51100000000E-03 0.  1.
         12    1    3    3    0    0 -0.40649550574E-01  0.31135161325E+01 -0.16275416382E+01  0.35134778892E+01  0.00000000000E+00 0. -1.
</event>
<event>
 7    1  0.3062695E-010  0.4778727E+02  0.7816164E-02  0.1312668E+00
        -11   -1    0    0    0    0  0.00000000000E+00  0.00000000000E+00  0.45593999997E+02  0.45594000000E+02  0.51100000000E-03 0.  1.
         11   -1    0    0    0    0 -0.00000000000E+00 -0.00000000000E+00 -0.45593999997E+02  0.45594000000E+02  0.51100000000E-03 0. -1.
    9900012    2    1    2    0    0  0.14071176516E+02 -0.73783092312E+01 -0.40387939159E+02  0.47787273218E+02  0.20000009910E+02 0.  0.
        -12    1    1    2    0    0 -0.14071176516E+02  0.73783092312E+01  0.40387939159E+02  0.43400726782E+02  0.00000000000E+00 0.  1.
         11    1    3    3    0    0  0.95975758283E+00 -0.72016284698E+01 -0.29642712720E+02  0.30520075441E+02  0.51100000000E-03 0. -1.
        -11    1    3    3    0    0 -0.10517459519E+00 -0.17212930083E+00  0.43407752498E-01  0.20633634138E+00  0.51100000000E-03 0.  1.
         12    1    3    3    0    0  0.13216593528E+02 -0.45514605737E-02 -0.10788634192E+02  0.17060861436E+02  0.00000000000E+00 0. -1.
</event>
<event>
 7    1  0.3062695E-010  0.4778727E+02  0.7816164E-02  0.1312668E+00
        -11   -1    0    0    0    0  0.00000000000E+00  0.00000000000E+00  0.45593999997E+02  0.45594000000E+02  0.51100000000E-03 0. -1.
         11   -1    0    0    0    0 -0.00000000000E+00 -0.00000000000E+00 -0.45593999997E+02  0.45594000000E+02  0.51100000000E-03 0.  1.
    9900012    2    1    2    0    0  0.89378970258E+01  0.42460406387E+02 -0.92251949275E+00  0.47787272402E+02  0.20000006191E+02 0.  0.
        -12    1    1    2    0    0 -0.89378970258E+01 -0.42460406387E+02  0.92251949275E+00  0.43400727598E+02  0.00000000000E+00 0.  1.
         11    1    3    3    0    0  0.11106383446E+02  0.22021270411E+02  0.30729431267E+01  0.24854196496E+02  0.51100000000E-03 0.  1.
        -11    1    3    3    0    0 -0.44629470266E+01  0.40579099963E+01 -0.77795253186E+00  0.60819191135E+01  0.51100000000E-03 0. -1.
         12    1    3    3    0    0  0.22944606067E+01  0.16381225980E+02 -0.32175100876E+01  0.16851156793E+02  0.00000000000E+00 0. -1.
</event>
<event>
 7    1  0.3062695E-010  0.4778727E+02  0.7816164E-02  0.1312668E+00
        -11   -1    0    0    0    0  0.00000000000E+00  0.00000000000E+00  0.45593999997E+02  0.45594000000E+02  0.51100000000E-03 0.  1.
         11   -1    0    0    0    0 -0.00000000000E+00 -0.00000000000E+00 -0.45593999997E+02  0.45594000000E+02  0.51100000000E-03 0. -1.
    9900012    2    1    2    0    0  0.19755269067E+02  0.30920429045E+02 -0.23179290914E+02  0.47787272869E+02  0.20000008319E+02 0.  0.
        -12    1    1    2    0    0 -0.19755269067E+02 -0.30920429045E+02  0.23179290914E+02  0.43400727131E+02  0.00000000000E+00 0.  1.
         11    1    3    3    0    0  0.11011436608E+02  0.16918912503E+02 -0.31631721330E+01  0.20432987903E+02  0.51100000000E-03 0. -1.
        -11    1    3    3    0    0  0.27925197436E-01  0.23738271885E+01  0.28194958674E+00  0.23906758810E+01  0.51100000000E-03 0.  1.
         12    1    3    3    0    0  0.87159072622E+01  0.11627689354E+02 -0.20298068368E+02  0.24963609085E+02  0.00000000000E+00 0. -1.
</event>
<event>
 7    1  0.3062695E-010  0.4778728E+02  0.7816164E-02  0.1312668E+00
        -11   -1    0    0    0    0  0.00000000000E+00  0.00000000000E+00  0.45593999997E+02  0.45594000000E+02  0.51100000000E-03 0.  1.
         11   -1    0    0    0    0 -0.00000000000E+00 -0.00000000000E+00 -0.45593999997E+02  0.45594000000E+02  0.51100000000E-03 0. -1.
    9900012    2    1    2    0    0  0.15400928181E+02 -0.35372753209E+02 -0.19879685952E+02  0.47787283739E+02  0.20000057879E+02 0.  0.
        -12    1    1    2    0    0 -0.15400928181E+02  0.35372753209E+02  0.19879685952E+02  0.43400716261E+02  0.00000000000E+00 0.  1.
         11    1    3    3    0    0  0.48049299357E+01 -0.59357267978E+01 -0.11269438791E+02  0.13613245580E+02  0.51100000000E-03 0. -1.
        -11    1    3    3    0    0  0.11941337864E+01  0.77721721011E+00 -0.27048026649E+00  0.14502351282E+01  0.51100000000E-03 0.  1.
         12    1    3    3    0    0  0.94018644594E+01 -0.30214243621E+02 -0.83397668948E+01  0.32723803030E+02  0.00000000000E+00 0. -1.
</event>
<event>
 7    1  0.3062695E-010  0.4778728E+02  0.7816164E-02  0.1312668E+00
        -11   -1    0    0    0    0  0.00000000000E+00  0.00000000000E+00  0.45593999997E+02  0.45594000000E+02  0.51100000000E-03 0. -1.
         11   -1    0    0    0    0 -0.00000000000E+00 -0.00000000000E+00 -0.45593999997E+02  0.45594000000E+02  0.51100000000E-03 0.  1.
    9900012    2    1    2    0    0 -0.31512645075E+02 -0.26720675666E+02  0.13288397952E+02  0.47787276183E+02  0.20000023429E+02 0.  0.
        -12    1    1    2    0    0  0.31512645075E+02  0.26720675666E+02 -0.13288397952E+02  0.43400723817E+02  0.00000000000E+00 0.  1.
         11    1    3    3    0    0 -0.23922567473E+01 -0.92921133674E+01  0.33813331761E+01  0.10173479124E+02  0.51100000000E-03 0. -1.
        -11    1    3    3    0    0 -0.24300315131E+02 -0.11522912287E+02  0.12370625071E+02  0.29602621302E+02  0.51100000000E-03 0.  1.
        -12    1    3    3    0    0 -0.48200731968E+01 -0.59056500120E+01 -0.24635602945E+01  0.80111757571E+01  0.00000000000E+00 0.  1.
</event>
<event>
 7    1  0.3062695E-010  0.4778728E+02  0.7816164E-02  0.1312668E+00
        -11   -1    0    0    0    0  0.00000000000E+00  0.00000000000E+00  0.45593999997E+02  0.45594000000E+02  0.51100000000E-03 0.  1.
         11   -1    0    0    0    0 -0.00000000000E+00 -0.00000000000E+00 -0.45593999997E+02  0.45594000000E+02  0.51100000000E-03 0. -1.
    9900012    2    1    2    0    0  0.25318149813E+02 -0.24178227583E+02 -0.25652045120E+02  0.47787276298E+02  0.20000023954E+02 0.  0.
        -12    1    1    2    0    0 -0.25318149813E+02  0.24178227583E+02  0.25652045120E+02  0.43400723702E+02  0.00000000000E+00 0.  1.
         11    1    3    3    0    0  0.15244026249E+02 -0.23388974773E+02 -0.15596665085E+02  0.31979375217E+02  0.51100000000E-03 0.  1.
        -11    1    3    3    0    0  0.99043366102E+01 -0.47550463337E+00 -0.10993228269E+02  0.14804494466E+02  0.51100000000E-03 0. -1.
        -12    1    3    3    0    0  0.16978695345E+00 -0.31374817622E+00  0.93784823359E+00  0.10034066159E+01  0.00000000000E+00 0.  1.
</event>
<event>
 7    1  0.3062695E-010  0.4778727E+02  0.7816164E-02  0.1312668E+00
        -11   -1    0    0    0    0  0.00000000000E+00  0.00000000000E+00  0.45593999997E+02  0.45594000000E+02  0.51100000000E-03 0.  1.
         11   -1    0    0    0    0 -0.00000000000E+00 -0.00000000000E+00 -0.45593999997E+02  0.45594000000E+02  0.51100000000E-03 0. -1.
    9900012    2    1    2    0    0 -0.17186775225E+02  0.38771733152E+02  0.92190237967E+01  0.47787274960E+02  0.20000017851E+02 0.  0.
        -12    1    1    2    0    0  0.17186775225E+02 -0.38771733152E+02 -0.92190237967E+01  0.43400725040E+02  0.00000000000E+00 0.  1.
         11    1    3    3    0    0 -0.16923168666E+02  0.19165523707E+02  0.98003969856E+00  0.25586547535E+02  0.51100000000E-03 0. -1.
        -11    1    3    3    0    0 -0.13933431411E+01  0.13998494779E+01  0.22668863332E+01  0.30066189613E+01  0.51100000000E-03 0.  1.
         12    1    3    3    0    0  0.11297365824E+01  0.18206359967E+02  0.59720977650E+01  0.19194108464E+02  0.00000000000E+00 0. -1.
</event>
<event>
 7    1  0.3062695E-010  0.4778727E+02  0.7816164E-02  0.1312668E+00
        -11   -1    0    0    0    0  0.00000000000E+00  0.00000000000E+00  0.45593999997E+02  0.45594000000E+02  0.51100000000E-03 0.  1.
         11   -1    0    0    0    0 -0.00000000000E+00 -0.00000000000E+00 -0.45593999997E+02  0.45594000000E+02  0.51100000000E-03 0. -1.
    9900012    2    1    2    0    0  0.12897296852E+02 -0.14996733929E+02 -0.38631350185E+02  0.47787268305E+02  0.19999987508E+02 0.  0.
        -12    1    1    2    0    0 -0.12897296852E+02  0.14996733929E+02  0.38631350185E+02  0.43400731695E+02  0.00000000000E+00 0.  1.
         11    1    3    3    0    0  0.12843936874E+02 -0.47083707101E+01 -0.26396004206E+02  0.29730195214E+02  0.51100000000E-03 0. -1.
        -11    1    3    3    0    0 -0.90208711490E+00 -0.10914281822E+02 -0.77187812580E+01  0.13398316806E+02  0.51100000000E-03 0.  1.
        -12    1    3    3    0    0  0.95544709287E+00  0.62591860341E+00 -0.45165647205E+01  0.46587562846E+01  0.00000000000E+00 0.  1.
</event>
<event>
 7    1  0.3062695E-010  0.4778727E+02  0.7816164E-02  0.1312668E+00
        -11   -1    0    0    0    0  0.00000000000E+00  0.00000000000E+00  0.45593999997E+02  0.45594000000E+02  0.51100000000E-03 0. -1.
         11   -1    0    0    0    0 -0.00000000000E+00 -0.00000000000E+00 -0.45593999997E+02  0.45594000000E+02  0.51100000000E-03 0.  1.
    9900012    2    1    2    0    0  0.83612098439E+01 -0.73729922725E+01  0.41944636261E+02  0.47787270097E+02  0.19999995679E+02 0.  0.
        -12    1    1    2    0    0 -0.83612098439E+01  0.73729922725E+01 -0.41944636261E+02  0.43400729903E+02  0.00000000000E+00 0.  1.
         11    1    3    3    0    0 -0.37715433922E+01 -0.36644933778E+01  0.13460251593E+02  0.14451000812E+02  0.51100000000E-03 0.  1.
        -11    1    3    3    0    0  0.13703124905E+02 -0.25619253785E+01  0.28080309527E+02  0.31350324993E+02  0.51100000000E-03 0. -1.
        -12    1    3    3    0    0 -0.15703716690E+01 -0.11465735162E+01  0.40407514065E+00  0.19859442908E+01  0.00000000000E+00 0.  1.
</event>
<event>
 7    1  0.3062695E-010  0.4778727E+02  0.7816164E-02  0.1312668E+00
        -11   -1    0    0    0    0  0.00000000000E+00  0.00000000000E+00  0.45593999997E+02  0.45594000000E+02  0.51100000000E-03 0.  1.
         11   -1    0    0    0    0 -0.00000000000E+00 -0.00000000000E+00 -0.45593999997E+02  0.45594000000E+02  0.51100000000E-03 0. -1.
    9900012    2    1    2    0    0 -0.14843306321E+02  0.19404180249E+02 -0.35871679487E+02  0.47787270250E+02  0.19999996376E+02 0.  0.
        -12    1    1    2    0    0  0.14843306321E+02 -0.19404180249E+02  0.35871679487E+02  0.43400729750E+02  0.00000000000E+00 0.  1.
         11    1    3    3    0    0 -0.11593669703E+02  0.43345342239E+01 -0.20958934478E+02  0.24340877117E+02  0.51100000000E-03 0. -1.
        -11    1    3    3    0    0  0.39974667303E+00  0.87277914957E+01 -0.25859946504E+01  0.91116140385E+01  0.51100000000E-03 0.  1.
        -12    1    3    3    0    0 -0.36493832910E+01  0.63418545291E+01 -0.12326750359E+02  0.14334779094E+02  0.00000000000E+00 0.  1.
</event>
<event>
 7    1  0.3062695E-010  0.4778727E+02  0.7816164E-02  0.1312668E+00
        -11   -1    0    0    0    0  0.00000000000E+00  0.00000000000E+00  0.45593999997E+02  0.45594000000E+02  0.51100000000E-03 0.  1.
         11   -1    0    0    0    0 -0.00000000000E+00 -0.00000000000E+00 -0.45593999997E+02  0.45594000000E+02  0.51100000000E-03 0. -1.
    9900012    2    1    2    0    0  0.15607631741E+02  0.38980476813E+02 -0.10979412793E+02  0.47787271361E+02  0.20000001442E+02 0.  0.
        -12    1    1    2    0    0 -0.15607631741E+02 -0.38980476813E+02  0.10979412793E+02  0.43400728639E+02  0.00000000000E+00 0.  1.
         11    1    3    3    0    0  0.96517083243E+01  0.32939790846E+02 -0.76498628052E+01  0.35166826638E+02  0.51100000000E-03 0. -1.
        -11    1    3    3    0    0  0.80655178825E+01  0.52424979662E+01 -0.37525081679E+01  0.10325583831E+02  0.51100000000E-03 0.  1.
         12    1    3    3    0    0 -0.21095944653E+01  0.79818800023E+00  0.42295817971E+00  0.22948608920E+01  0.00000000000E+00 0. -1.
</event>
<event>
 7    1  0.3062695E-010  0.4778728E+02  0.7816164E-02  0.1312668E+00
        -11   -1    0    0    0    0  0.00000000000E+00  0.00000000000E+00  0.45593999997E+02  0.45594000000E+02  0.51100000000E-03 0.  1.
         11   -1    0    0    0    0 -0.00000000000E+00 -0.00000000000E+00 -0.45593999997E+02  0.45594000000E+02  0.51100000000E-03 0. -1.
    9900012    2    1    2    0    0 -0.14227863355E+02  0.17551391345E+02 -0.37055887587E+02  0.47787282971E+02  0.20000054376E+02 0.  0.
        -12    1    1    2    0    0  0.14227863355E+02 -0.17551391345E+02  0.37055887587E+02  0.43400717029E+02  0.00000000000E+00 0.  1.
         11    1    3    3    0    0 -0.13211130392E+02  0.10756576990E+02 -0.16643139512E+02  0.23816633008E+02  0.51100000000E-03 0. -1.
        -11    1    3    3    0    0 -0.16888051154E+01 -0.17032092126E+01 -0.11055110086E+02  0.11312313805E+02  0.51100000000E-03 0.  1.
        -12    1    3    3    0    0  0.67207215308E+00  0.84980235678E+01 -0.93576379891E+01  0.12658336157E+02  0.00000000000E+00 0.  1.
</event>
<event>
 7    1  0.3062695E-010  0.4778728E+02  0.7816164E-02  0.1312668E+00
        -11   -1    0    0    0    0  0.00000000000E+00  0.00000000000E+00  0.45593999997E+02  0.45594000000E+02  0.51100000000E-03 0. -1.
         11   -1    0    0    0    0 -0.00000000000E+00 -0.00000000000E+00 -0.45593999997E+02  0.45594000000E+02  0.51100000000E-03 0.  1.
    9900012    2    1    2    0    0  0.83228301332E+00 -0.27576516601E+02  0.33503218996E+02  0.47787278278E+02  0.20000032982E+02 0.  0.
        -12    1    1    2    0    0 -0.83228301332E+00  0.27576516601E+02 -0.33503218996E+02  0.43400721722E+02  0.00000000000E+00 0.  1.
         11    1    3    3    0    0  0.36903345841E+00 -0.12218149192E+02  0.14087049768E+02  0.18651121328E+02  0.51100000000E-03 0. -1.
        -11    1    3    3    0    0 -0.98274927710E+00 -0.12056016518E+02  0.31834017027E+01  0.12507892592E+02  0.51100000000E-03 0.  1.
        -12    1    3    3    0    0  0.14459988320E+01 -0.33023508903E+01  0.16232767525E+02  0.16628264358E+02  0.00000000000E+00 0.  1.
</event>
<event>
 7    1  0.3062695E-010  0.4778727E+02  0.7816164E-02  0.1312668E+00
        -11   -1    0    0    0    0  0.00000000000E+00  0.00000000000E+00  0.45593999997E+02  0.45594000000E+02  0.51100000000E-03 0. -1.
         11   -1    0    0    0    0 -0.00000000000E+00 -0.00000000000E+00 -0.45593999997E+02  0.45594000000E+02  0.51100000000E-03 0.  1.
    9900012    2    1    2    0    0 -0.40821776679E+02 -0.13634571609E+02  0.55950546469E+01  0.47787266934E+02  0.19999981259E+02 0.  0.
        -12    1    1    2    0    0  0.40821776679E+02  0.13634571609E+02 -0.55950546469E+01  0.43400733066E+02  0.00000000000E+00 0.  1.
         11    1    3    3    0    0 -0.12890530487E+02  0.28083904597E+01  0.19304546826E+01  0.13333397495E+02  0.51100000000E-03 0. -1.
        -11    1    3    3    0    0 -0.16001171181E+02 -0.11339085210E+02 -0.30438645535E+01  0.19846345866E+02  0.51100000000E-03 0.  1.
         12    1    3    3    0    0 -0.11930075011E+02 -0.51038768588E+01  0.67084645178E+01  0.14607523573E+02  0.00000000000E+00 0. -1.
</event>
<event>
 7    1  0.3062695E-010  0.4778726E+02  0.7816164E-02  0.1312668E+00
        -11   -1    0    0    0    0  0.00000000000E+00  0.00000000000E+00  0.45593999997E+02  0.45594000000E+02  0.51100000000E-03 0.  1.
         11   -1    0    0    0    0 -0.00000000000E+00 -0.00000000000E+00 -0.45593999997E+02  0.45594000000E+02  0.51100000000E-03 0. -1.
    9900012    2    1    2    0    0  0.38359906449E+01  0.41916331673E+02 -0.10579742100E+02  0.47787255444E+02  0.19999928869E+02 0.  0.
        -12    1    1    2    0    0 -0.38359906449E+01 -0.41916331673E+02  0.10579742100E+02  0.43400744556E+02  0.00000000000E+00 0.  1.
         11    1    3    3    0    0 -0.56150947321E+01  0.19211106284E+02 -0.15847626472E+01  0.20077533873E+02  0.51100000000E-03 0. -1.
        -11    1    3    3    0    0  0.73651707273E+01  0.63859727885E+01 -0.36978808390E+01  0.10425963325E+02  0.51100000000E-03 0.  1.
         12    1    3    3    0    0  0.20859146497E+01  0.16319252600E+02 -0.52970986143E+01  0.17283758245E+02  0.00000000000E+00 0. -1.
</event>
<event>
 7    1  0.3943548E-010  0.4778727E+02  0.7816164E-02  0.1312668E+00
        -11   -1    0    0    0    0  0.00000000000E+00  0.00000000000E+00  0.45593999997E+02  0.45594000000E+02  0.51100000000E-03 0.  1.
         11   -1    0    0    0    0 -0.00000000000E+00 -0.00000000000E+00 -0.45593999997E+02  0.45594000000E+02  0.51100000000E-03 0. -1.
    9900012    2    1    2    0    0  0.35901336910E+02 -0.16402912930E+02 -0.18046103610E+02  0.47787269592E+02  0.19999993376E+02 0.  0.
        -12    1    1    2    0    0 -0.35901336910E+02  0.16402912930E+02  0.18046103610E+02  0.43400730408E+02  0.00000000000E+00 0.  1.
         11    1    3    3    0    0  0.16513526025E+02 -0.10935362717E+02 -0.11624650440E+02  0.22965434846E+02  0.51100000000E-03 0. -1.
        -11    1    3    3    0    0 -0.52232371501E+00 -0.17934633652E+01  0.21392915714E+01  0.28400530971E+01  0.51100000000E-03 0.  1.
        -12    1    3    3    0    0  0.19910134599E+02 -0.36740868485E+01 -0.85607447411E+01  0.21981781649E+02  0.00000000000E+00 0.  1.
</event>
<event>
 7    1  0.3448397E-010  0.4778727E+02  0.7816164E-02  0.1312668E+00
        -11   -1    0    0    0    0  0.00000000000E+00  0.00000000000E+00  0.45593999997E+02  0.45594000000E+02  0.51100000000E-03 0.  1.
         11   -1    0    0    0    0 -0.00000000000E+00 -0.00000000000E+00 -0.45593999997E+02  0.45594000000E+02  0.51100000000E-03 0. -1.
    9900012    2    1    2    0    0 -0.34492644776E+02  0.12694132515E+02 -0.23081149330E+02  0.47787274219E+02  0.20000014473E+02 0.  0.
        -12    1    1    2    0    0  0.34492644776E+02 -0.12694132515E+02  0.23081149330E+02  0.43400725781E+02  0.00000000000E+00 0.  1.
         11    1    3    3    0    0 -0.21220435891E+02  0.10404439364E+02 -0.21266938791E+02  0.31793740637E+02  0.51100000000E-03 0. -1.
        -11    1    3    3    0    0 -0.35566452422E+01 -0.23211827674E+01  0.18496431582E+01  0.46323638558E+01  0.51100000000E-03 0.  1.
        -12    1    3    3    0    0 -0.97155636426E+01  0.46108759188E+01 -0.36638536978E+01  0.11361169726E+02  0.00000000000E+00 0.  1.
</event>
<event>
 7    1  0.3062695E-010  0.4778727E+02  0.7816164E-02  0.1312668E+00
        -11   -1    0    0    0    0  0.00000000000E+00  0.00000000000E+00  0.45593999997E+02  0.45594000000E+02  0.51100000000E-03 0.  1.
         11   -1    0    0    0    0 -0.00000000000E+00 -0.00000000000E+00 -0.45593999997E+02  0.45594000000E+02  0.51100000000E-03 0. -1.
    9900012    2    1    2    0    0  0.32949439973E+02  0.10808682150E+02 -0.26098468225E+02  0.47787271342E+02  0.20000001356E+02 0.  0.
        -12    1    1    2    0    0 -0.32949439973E+02 -0.10808682150E+02  0.26098468225E+02  0.43400728658E+02  0.00000000000E+00 0.  1.
         11    1    3    3    0    0  0.24753934154E+02  0.62204962005E+01 -0.24853615182E+02  0.35625187956E+02  0.51100000000E-03 0. -1.
        -11    1    3    3    0    0 -0.43153123619E+00 -0.14794214744E+01  0.57453788952E-02  0.15410841564E+01  0.51100000000E-03 0.  1.
         12    1    3    3    0    0  0.86270370557E+01  0.60676074239E+01 -0.12505984220E+01  0.10620999229E+02  0.00000000000E+00 0. -1.
</event>
<event>
 7    1  0.3062695E-010  0.4778726E+02  0.7816164E-02  0.1312668E+00
        -11   -1    0    0    0    0  0.00000000000E+00  0.00000000000E+00  0.45593999997E+02  0.45594000000E+02  0.51100000000E-03 0.  1.
         11   -1    0    0    0    0 -0.00000000000E+00 -0.00000000000E+00 -0.45593999997E+02  0.45594000000E+02  0.51100000000E-03 0. -1.
    9900012    2    1    2    0    0 -0.20182713339E+02  0.32891733508E+02 -0.19859903871E+02  0.47787264607E+02  0.19999970649E+02 0.  0.
        -12    1    1    2    0    0  0.20182713339E+02 -0.32891733508E+02  0.19859903871E+02  0.43400735393E+02  0.00000000000E+00 0.  1.
         11    1    3    3    0    0 -0.60170741153E+01  0.66567286759E+01 -0.63816142040E+01  0.11011004390E+02  0.51100000000E-03 0. -1.
        -11    1    3    3    0    0 -0.15380805563E+02  0.18337133510E+02 -0.38129818318E+01  0.24235479690E+02  0.51100000000E-03 0.  1.
        -12    1    3    3    0    0  0.12151663393E+01  0.78978713223E+01 -0.96653078353E+01  0.12540780526E+02  0.00000000000E+00 0.  1.
</event>
<event>
 7    1  0.3062695E-010  0.4778727E+02  0.7816164E-02  0.1312668E+00
        -11   -1    0    0    0    0  0.00000000000E+00  0.00000000000E+00  0.45593999997E+02  0.45594000000E+02  0.51100000000E-03 0.  1.
         11   -1    0    0    0    0 -0.00000000000E+00 -0.00000000000E+00 -0.45593999997E+02  0.45594000000E+02  0.51100000000E-03 0. -1.
    9900012    2    1    2    0    0 -0.39484966433E+02 -0.96556343367E+01 -0.15209526057E+02  0.47787268076E+02  0.19999986464E+02 0.  0.
        -12    1    1    2    0    0  0.39484966433E+02  0.96556343367E+01  0.15209526057E+02  0.43400731924E+02  0.00000000000E+00 0.  1.
         11    1    3    3    0    0 -0.33320824249E+02 -0.10939700737E+02 -0.16465333091E+02  0.38743535911E+02  0.51100000000E-03 0. -1.
        -11    1    3    3    0    0 -0.67309447691E+01  0.27048315448E+01  0.34249171259E+00  0.72621644160E+01  0.51100000000E-03 0.  1.
         12    1    3    3    0    0  0.56680258486E+00 -0.14207651443E+01  0.91331532138E+00  0.17815677483E+01  0.00000000000E+00 0. -1.
</event>
<event>
 7    1  0.3062695E-010  0.4778727E+02  0.7816164E-02  0.1312668E+00
        -11   -1    0    0    0    0  0.00000000000E+00  0.00000000000E+00  0.45593999997E+02  0.45594000000E+02  0.51100000000E-03 0.  1.
         11   -1    0    0    0    0 -0.00000000000E+00 -0.00000000000E+00 -0.45593999997E+02  0.45594000000E+02  0.51100000000E-03 0. -1.
    9900012    2    1    2    0    0  0.34132549556E+02 -0.25994819563E+02  0.65468930610E+01  0.47787269683E+02  0.19999993791E+02 0.  0.
        -12    1    1    2    0    0 -0.34132549556E+02  0.25994819563E+02 -0.65468930610E+01  0.43400730317E+02  0.00000000000E+00 0.  1.
         11    1    3    3    0    0  0.19928199929E+02 -0.15364567150E+02  0.83016105761E+01  0.26497543556E+02  0.51100000000E-03 0. -1.
        -11    1    3    3    0    0 -0.68110789666E+00  0.15197069202E+01  0.89947054456E+00  0.18927399747E+01  0.51100000000E-03 0.  1.
        -12    1    3    3    0    0  0.14885457524E+02 -0.12149959334E+02 -0.26541880598E+01  0.19396986152E+02  0.00000000000E+00 0.  1.
</event>
<event>
 7    1  0.3062695E-010  0.4778727E+02  0.7816164E-02  0.1312668E+00
        -11   -1    0    0    0    0  0.00000000000E+00  0.00000000000E+00  0.45593999997E+02  0.45594000000E+02  0.51100000000E-03 0.  1.
         11   -1    0    0    0    0 -0.00000000000E+00 -0.00000000000E+00 -0.45593999997E+02  0.45594000000E+02  0.51100000000E-03 0. -1.
    9900012    2    1    2    0    0  0.33279038094E+02  0.21721049580E+02 -0.17444910863E+02  0.47787270901E+02  0.19999999345E+02 0.  0.
        -12    1    1    2    0    0 -0.33279038094E+02 -0.21721049580E+02  0.17444910863E+02  0.43400729099E+02  0.00000000000E+00 0.  1.
         11    1    3    3    0    0  0.17545777055E+01  0.39339336685E+01 -0.40248939002E+01  0.58952648966E+01  0.51100000000E-03 0. -1.
        -11    1    3    3    0    0 -0.36867437267E+00 -0.20713667335E+01 -0.50350432794E+00  0.21633302584E+01  0.51100000000E-03 0.  1.
        -12    1    3    3    0    0  0.31893134761E+02  0.19858482645E+02 -0.12916512635E+02  0.39728675746E+02  0.00000000000E+00 0.  1.
</event>
<event>
 7    1  0.3062695E-010  0.4778727E+02  0.7816164E-02  0.1312668E+00
        -11   -1    0    0    0    0  0.00000000000E+00  0.00000000000E+00  0.45593999997E+02  0.45594000000E+02  0.51100000000E-03 0.  1.
         11   -1    0    0    0    0 -0.00000000000E+00 -0.00000000000E+00 -0.45593999997E+02  0.45594000000E+02  0.51100000000E-03 0. -1.
    9900012    2    1    2    0    0 -0.28561737969E+02  0.32668650850E+02 -0.78090692052E+00  0.47787269133E+02  0.19999991285E+02 0.  0.
        -12    1    1    2    0    0  0.28561737969E+02 -0.32668650850E+02  0.78090692052E+00  0.43400730867E+02  0.00000000000E+00 0.  1.
         11    1    3    3    0    0 -0.16038686652E+02  0.17934311774E+02  0.42030506196E+01  0.24424263410E+02  0.51100000000E-03 0. -1.
        -11    1    3    3    0    0 -0.88173857701E+01  0.10654088333E+02 -0.90378878589E+01  0.16520874893E+02  0.51100000000E-03 0.  1.
        -12    1    3    3    0    0 -0.37056655465E+01  0.40802507433E+01  0.40539303187E+01  0.68421308304E+01  0.00000000000E+00 0.  1.
</event>
<event>
 7    1  0.3062695E-010  0.4778727E+02  0.7816164E-02  0.1312668E+00
        -11   -1    0    0    0    0  0.00000000000E+00  0.00000000000E+00  0.45593999997E+02  0.45594000000E+02  0.51100000000E-03 0.  1.
         11   -1    0    0    0    0 -0.00000000000E+00 -0.00000000000E+00 -0.45593999997E+02  0.45594000000E+02  0.51100000000E-03 0. -1.
    9900012    2    1    2    0    0  0.56744585157E+01 -0.22666982892E+02 -0.36573646020E+02  0.47787272171E+02  0.20000005137E+02 0.  0.
        -12    1    1    2    0    0 -0.56744585157E+01  0.22666982892E+02  0.36573646020E+02  0.43400727829E+02  0.00000000000E+00 0.  1.
         11    1    3    3    0    0 -0.63890546389E+00 -0.17683597868E+02 -0.20608551386E+02  0.27163030469E+02  0.51100000000E-03 0. -1.
        -11    1    3    3    0    0 -0.10631473487E+01  0.23517292721E+01 -0.40990970959E+01  0.48439147512E+01  0.51100000000E-03 0.  1.
         12    1    3    3    0    0  0.73765113283E+01 -0.73351142967E+01 -0.11865997538E+02  0.15780326951E+02  0.00000000000E+00 0. -1.
</event>
<event>
 7    1  0.3062695E-010  0.4778727E+02  0.7816164E-02  0.1312668E+00
        -11   -1    0    0    0    0  0.00000000000E+00  0.00000000000E+00  0.45593999997E+02  0.45594000000E+02  0.51100000000E-03 0. -1.
         11   -1    0    0    0    0 -0.00000000000E+00 -0.00000000000E+00 -0.45593999997E+02  0.45594000000E+02  0.51100000000E-03 0.  1.
    9900012    2    1    2    0    0 -0.29049675963E+01  0.38893068217E+02 -0.19039795987E+02  0.47787269323E+02  0.19999992153E+02 0.  0.
        -12    1    1    2    0    0  0.29049675963E+01 -0.38893068217E+02  0.19039795987E+02  0.43400730677E+02  0.00000000000E+00 0.  1.
         11    1    3    3    0    0  0.45431815127E+01  0.25176122248E+02 -0.13149303639E+02  0.28764245447E+02  0.51100000000E-03 0. -1.
        -11    1    3    3    0    0  0.21207422723E+00  0.18445684727E+01 -0.44485821435E+01  0.48205074087E+01  0.51100000000E-03 0.  1.
         12    1    3    3    0    0 -0.76602233362E+01  0.11872377496E+02 -0.14419102043E+01  0.14202516468E+02  0.00000000000E+00 0. -1.
</event>
<event>
 7    1  0.3062695E-010  0.4778726E+02  0.7816164E-02  0.1312668E+00
        -11   -1    0    0    0    0  0.00000000000E+00  0.00000000000E+00  0.45593999997E+02  0.45594000000E+02  0.51100000000E-03 0.  1.
         11   -1    0    0    0    0 -0.00000000000E+00 -0.00000000000E+00 -0.45593999997E+02  0.45594000000E+02  0.51100000000E-03 0. -1.
    9900012    2    1    2    0    0  0.27666723126E+02  0.32556982454E+02 -0.76301533372E+01  0.47787263658E+02  0.19999966324E+02 0.  0.
        -12    1    1    2    0    0 -0.27666723126E+02 -0.32556982454E+02  0.76301533372E+01  0.43400736342E+02  0.00000000000E+00 0.  1.
         11    1    3    3    0    0  0.95843041869E+01  0.35150868350E+00 -0.45305451598E+01  0.10606992260E+02  0.51100000000E-03 0. -1.
        -11    1    3    3    0    0  0.11555042022E+02  0.22024019991E+02 -0.32677250538E+01  0.25084945286E+02  0.51100000000E-03 0.  1.
         12    1    3    3    0    0  0.65273769180E+01  0.10181453779E+02  0.16811687636E+00  0.12095326112E+02  0.00000000000E+00 0. -1.
</event>
<event>
 7    1  0.3062695E-010  0.4778727E+02  0.7816164E-02  0.1312668E+00
        -11   -1    0    0    0    0  0.00000000000E+00  0.00000000000E+00  0.45593999997E+02  0.45594000000E+02  0.51100000000E-03 0. -1.
         11   -1    0    0    0    0 -0.00000000000E+00 -0.00000000000E+00 -0.45593999997E+02  0.45594000000E+02  0.51100000000E-03 0.  1.
    9900012    2    1    2    0    0 -0.32447981488E+02  0.15190147170E+02  0.24495127424E+02  0.47787270268E+02  0.19999996462E+02 0.  0.
        -12    1    1    2    0    0  0.32447981488E+02 -0.15190147170E+02 -0.24495127424E+02  0.43400729732E+02  0.00000000000E+00 0.  1.
         11    1    3    3    0    0 -0.15935051743E+02  0.92595304957E+01  0.33292854546E+01  0.18728291993E+02  0.51100000000E-03 0. -1.
        -11    1    3    3    0    0 -0.77370312874E+01 -0.10292778108E+01  0.13126548759E+02  0.15271782756E+02  0.51100000000E-03 0.  1.
         12    1    3    3    0    0 -0.87758984571E+01  0.69598944854E+01  0.80392932108E+01  0.13787195520E+02  0.00000000000E+00 0. -1.
</event>
<event>
 7    1  0.3062695E-010  0.4778727E+02  0.7816164E-02  0.1312668E+00
        -11   -1    0    0    0    0  0.00000000000E+00  0.00000000000E+00  0.45593999997E+02  0.45594000000E+02  0.51100000000E-03 0. -1.
         11   -1    0    0    0    0 -0.00000000000E+00 -0.00000000000E+00 -0.45593999997E+02  0.45594000000E+02  0.51100000000E-03 0.  1.
    9900012    2    1    2    0    0 -0.35821734336E+02 -0.21849255028E+02 -0.11092197801E+02  0.47787269036E+02  0.19999990843E+02 0.  0.
        -12    1    1    2    0    0  0.35821734336E+02  0.21849255028E+02  0.11092197801E+02  0.43400730964E+02  0.00000000000E+00 0.  1.
         11    1    3    3    0    0 -0.43427233991E+01 -0.10013569133E+02  0.46235932733E+00  0.10924494940E+02  0.51100000000E-03 0. -1.
        -11    1    3    3    0    0 -0.27338463199E+02 -0.13483643281E+02 -0.10820343545E+02  0.32346252347E+02  0.51100000000E-03 0.  1.
         12    1    3    3    0    0 -0.41405477384E+01  0.16479573860E+01 -0.73421358359E+00  0.45165217487E+01  0.00000000000E+00 0. -1.
</event>
<event>
 7    1  0.3821356E-010  0.4778727E+02  0.7816164E-02  0.1312668E+00
        -11   -1    0    0    0    0  0.00000000000E+00  0.00000000000E+00  0.45593999997E+02  0.45594000000E+02  0.51100000000E-03 0.  1.
         11   -1    0    0    0    0 -0.00000000000E+00 -0.00000000000E+00 -0.45593999997E+02  0.45594000000E+02  0.51100000000E-03 0. -1.
    9900012    2    1    2    0    0 -0.37665650307E+02  0.28225170066E+01 -0.21376512292E+02  0.47787273128E+02  0.20000009498E+02 0.  0.
        -12    1    1    2    0    0  0.37665650307E+02 -0.28225170066E+01  0.21376512292E+02  0.43400726872E+02  0.00000000000E+00 0.  1.
         11    1    3    3    0    0 -0.17827717763E+02  0.39881007406E+01 -0.15692779562E+02  0.24083101935E+02  0.51100000000E-03 0. -1.
        -11    1    3    3    0    0 -0.29915197077E+01 -0.34639140315E+01  0.20626615872E+01  0.50202055400E+01  0.51100000000E-03 0.  1.
        -12    1    3    3    0    0 -0.16846412836E+02  0.22983302976E+01 -0.77463943168E+01  0.18683965653E+02  0.00000000000E+00 0.  1.
</event>
<event>
 7    1  0.3062695E-010  0.4778728E+02  0.7816164E-02  0.1312668E+00
        -11   -1    0    0    0    0  0.00000000000E+00  0.00000000000E+00  0.45593999997E+02  0.45594000000E+02  0.51100000000E-03 0. -1.
         11   -1    0    0    0    0 -0.00000000000E+00 -0.00000000000E+00 -0.45593999997E+02  0.45594000000E+02  0.51100000000E-03 0.  1.
    9900012    2    1    2    0    0 -0.11829242307E+02 -0.37325193021E+02  0.18722221418E+02  0.47787279010E+02  0.20000036317E+02 0.  0.
        -12    1    1    2    0    0  0.11829242307E+02  0.37325193021E+02 -0.18722221418E+02  0.43400720990E+02  0.00000000000E+00 0.  1.
         11    1    3    3    0    0 -0.11257538431E+02 -0.90928175911E+01  0.41173251198E+01  0.15045393637E+02  0.51100000000E-03 0. -1.
        -11    1    3    3    0    0  0.27530440128E+01 -0.48744621138E+01  0.17041036066E+01  0.58518032775E+01  0.51100000000E-03 0.  1.
         12    1    3    3    0    0 -0.33247478888E+01 -0.23357913316E+02  0.12900792692E+02  0.26890082095E+02  0.00000000000E+00 0. -1.
</event>
<event>
 7    1  0.3062695E-010  0.4778727E+02  0.7816164E-02  0.1312668E+00
        -11   -1    0    0    0    0  0.00000000000E+00  0.00000000000E+00  0.45593999997E+02  0.45594000000E+02  0.51100000000E-03 0.  1.
         11   -1    0    0    0    0 -0.00000000000E+00 -0.00000000000E+00 -0.45593999997E+02  0.45594000000E+02  0.51100000000E-03 0. -1.
    9900012    2    1    2    0    0  0.42144792101E+01  0.43134847493E+02 -0.22904230836E+01  0.47787274877E+02  0.20000017475E+02 0.  0.
        -12    1    1    2    0    0 -0.42144792101E+01 -0.43134847493E+02  0.22904230836E+01  0.43400725123E+02  0.00000000000E+00 0.  1.
         11    1    3    3    0    0  0.10062247134E+02  0.27008840074E+02 -0.40369272971E+00  0.28825149221E+02  0.51100000000E-03 0. -1.
        -11    1    3    3    0    0 -0.28896167554E+01  0.15532842691E+02 -0.20963872732E+01  0.15937814371E+02  0.51100000000E-03 0.  1.
         12    1    3    3    0    0 -0.29581511681E+01  0.59316472847E+00  0.20965691928E+00  0.30243112856E+01  0.00000000000E+00 0. -1.
</event>
<event>
 7    1  0.3062695E-010  0.4778727E+02  0.7816164E-02  0.1312668E+00
        -11   -1    0    0    0    0  0.00000000000E+00  0.00000000000E+00  0.45593999997E+02  0.45594000000E+02  0.51100000000E-03 0.  1.
         11   -1    0    0    0    0 -0.00000000000E+00 -0.00000000000E+00 -0.45593999997E+02  0.45594000000E+02  0.51100000000E-03 0. -1.
    9900012    2    1    2    0    0  0.40773726228E+02 -0.14870193333E+02  0.63982284107E-01  0.47787268508E+02  0.19999988435E+02 0.  0.
        -12    1    1    2    0    0 -0.40773726228E+02  0.14870193333E+02 -0.63982284107E-01  0.43400731492E+02  0.00000000000E+00 0.  1.
         11    1    3    3    0    0  0.33173148015E+02 -0.14763754272E+02 -0.43599236810E+01  0.36570960122E+02  0.51100000000E-03 0. -1.
        -11    1    3    3    0    0  0.19650668986E+01  0.79662100946E-01  0.51673220510E+01  0.55289285948E+01  0.51100000000E-03 0.  1.
        -12    1    3    3    0    0  0.56355113142E+01 -0.18610116260E+00 -0.74341608591E+00  0.56873797915E+01  0.00000000000E+00 0.  1.
</event>
<event>
 7    1  0.3062695E-010  0.4778727E+02  0.7816164E-02  0.1312668E+00
        -11   -1    0    0    0    0  0.00000000000E+00  0.00000000000E+00  0.45593999997E+02  0.45594000000E+02  0.51100000000E-03 0.  1.
         11   -1    0    0    0    0 -0.00000000000E+00 -0.00000000000E+00 -0.45593999997E+02  0.45594000000E+02  0.51100000000E-03 0. -1.
    9900012    2    1    2    0    0  0.29893815721E+02 -0.20939090280E+02 -0.23484841382E+02  0.47787268498E+02  0.19999988392E+02 0.  0.
        -12    1    1    2    0    0 -0.29893815721E+02  0.20939090280E+02  0.23484841382E+02  0.43400731502E+02  0.00000000000E+00 0.  1.
         11    1    3    3    0    0  0.14543371535E+02 -0.28459629405E-02 -0.13684120106E+02  0.19969096300E+02  0.51100000000E-03 0. -1.
        -11    1    3    3    0    0  0.11650371178E+02 -0.14904253496E+02 -0.64330389317E+01  0.19981289023E+02  0.51100000000E-03 0.  1.
         12    1    3    3    0    0  0.37000730076E+01 -0.60319908214E+01 -0.33676823444E+01  0.78368831753E+01  0.00000000000E+00 0. -1.
</event>
<event>
 7    1  0.3062695E-010  0.4778727E+02  0.7816164E-02  0.1312668E+00
        -11   -1    0    0    0    0  0.00000000000E+00  0.00000000000E+00  0.45593999997E+02  0.45594000000E+02  0.51100000000E-03 0.  1.
         11   -1    0    0    0    0 -0.00000000000E+00 -0.00000000000E+00 -0.45593999997E+02  0.45594000000E+02  0.51100000000E-03 0. -1.
    9900012    2    1    2    0    0  0.40728062102E+02  0.14681689659E+02 -0.30490112497E+01  0.47787268169E+02  0.19999986890E+02 0.  0.
        -12    1    1    2    0    0 -0.40728062102E+02 -0.14681689659E+02  0.30490112497E+01  0.43400731831E+02  0.00000000000E+00 0.  1.
         11    1    3    3    0    0  0.32623753671E+02  0.14121544863E+02 -0.18833205408E+01  0.35598795337E+02  0.51100000000E-03 0. -1.
        -11    1    3    3    0    0  0.20223242644E+01  0.40009279272E+01 -0.24115593720E+01  0.50904654576E+01  0.51100000000E-03 0.  1.
         12    1    3    3    0    0  0.60819841668E+01 -0.34407831315E+01  0.12458686631E+01  0.70980073746E+01  0.00000000000E+00 0. -1.
</event>
<event>
 7    1  0.3062695E-010  0.4778727E+02  0.7816164E-02  0.1312668E+00
        -11   -1    0    0    0    0  0.00000000000E+00  0.00000000000E+00  0.45593999997E+02  0.45594000000E+02  0.51100000000E-03 0.  1.
         11   -1    0    0    0    0 -0.00000000000E+00 -0.00000000000E+00 -0.45593999997E+02  0.45594000000E+02  0.51100000000E-03 0. -1.
    9900012    2    1    2    0    0 -0.42293285011E+01 -0.42260537827E+02 -0.89321382602E+01  0.47787269927E+02  0.19999994905E+02 0.  0.
        -12    1    1    2    0    0  0.42293285011E+01  0.42260537827E+02  0.89321382602E+01  0.43400730073E+02  0.00000000000E+00 0.  1.
         11    1    3    3    0    0  0.37176339970E+01 -0.23061007530E+02 -0.43789698397E+01  0.23765652694E+02  0.51100000000E-03 0.  1.
        -11    1    3    3    0    0 -0.58359255061E+01 -0.25285847841E+01 -0.33143609576E+01  0.71719422991E+01  0.51100000000E-03 0. -1.
         12    1    3    3    0    0 -0.21110369920E+01 -0.16670945513E+02 -0.12388074629E+01  0.16849674934E+02  0.00000000000E+00 0. -1.
</event>
<event>
 7    1  0.3062695E-010  0.4778724E+02  0.7816164E-02  0.1312668E+00
        -11   -1    0    0    0    0  0.00000000000E+00  0.00000000000E+00  0.45593999997E+02  0.45594000000E+02  0.51100000000E-03 0.  1.
         11   -1    0    0    0    0 -0.00000000000E+00 -0.00000000000E+00 -0.45593999997E+02  0.45594000000E+02  0.51100000000E-03 0. -1.
    9900012    2    1    2    0    0  0.17564120150E+02 -0.30466062689E+01 -0.39570766203E+02  0.47787243506E+02  0.19999874440E+02 0.  0.
        -12    1    1    2    0    0 -0.17564120150E+02  0.30466062689E+01  0.39570766203E+02  0.43400756494E+02  0.00000000000E+00 0.  1.
         11    1    3    3    0    0  0.46388352437E+01 -0.68690622338E+01 -0.28422358842E+02  0.29606304916E+02  0.51100000000E-03 0. -1.
        -11    1    3    3    0    0  0.38224515892E+01 -0.27677550501E-01 -0.86755098548E+00  0.39197636627E+01  0.51100000000E-03 0.  1.
         12    1    3    3    0    0  0.91028333173E+01  0.38501335154E+01 -0.10280856375E+02  0.14261174927E+02  0.00000000000E+00 0. -1.
</event>
<event>
 7    1  0.3062695E-010  0.4778727E+02  0.7816164E-02  0.1312668E+00
        -11   -1    0    0    0    0  0.00000000000E+00  0.00000000000E+00  0.45593999997E+02  0.45594000000E+02  0.51100000000E-03 0. -1.
         11   -1    0    0    0    0 -0.00000000000E+00 -0.00000000000E+00 -0.45593999997E+02  0.45594000000E+02  0.51100000000E-03 0.  1.
    9900012    2    1    2    0    0  0.27186463792E+02 -0.29505631028E+02  0.16551047952E+02  0.47787271156E+02  0.20000000509E+02 0.  0.
        -12    1    1    2    0    0 -0.27186463792E+02  0.29505631028E+02 -0.16551047952E+02  0.43400728844E+02  0.00000000000E+00 0.  1.
         11    1    3    3    0    0  0.75503221153E+01 -0.22410085659E+02  0.10316380811E+02  0.25800135980E+02  0.51100000000E-03 0. -1.
        -11    1    3    3    0    0  0.17197148954E+02 -0.69643913334E+01  0.48409950403E+01  0.19174981409E+02  0.51100000000E-03 0.  1.
         12    1    3    3    0    0  0.24389927231E+01 -0.13115403522E+00  0.13936721006E+01  0.28121537668E+01  0.00000000000E+00 0. -1.
</event>
<event>
 7    1  0.3062695E-010  0.4778727E+02  0.7816164E-02  0.1312668E+00
        -11   -1    0    0    0    0  0.00000000000E+00  0.00000000000E+00  0.45593999997E+02  0.45594000000E+02  0.51100000000E-03 0. -1.
         11   -1    0    0    0    0 -0.00000000000E+00 -0.00000000000E+00 -0.45593999997E+02  0.45594000000E+02  0.51100000000E-03 0.  1.
    9900012    2    1    2    0    0 -0.13978508326E+02  0.38832498388E+02 -0.13426154282E+02  0.47787271378E+02  0.20000001522E+02 0.  0.
        -12    1    1    2    0    0  0.13978508326E+02 -0.38832498388E+02  0.13426154282E+02  0.43400728622E+02  0.00000000000E+00 0.  1.
         11    1    3    3    0    0 -0.49651950707E+01  0.34260640128E+02 -0.12420055878E+02  0.36779102930E+02  0.51100000000E-03 0. -1.
        -11    1    3    3    0    0 -0.49426998738E+01  0.22053574942E+01  0.15772482104E+01  0.56375168202E+01  0.51100000000E-03 0.  1.
         12    1    3    3    0    0 -0.40706133811E+01  0.23665007658E+01 -0.25833466147E+01  0.53706516276E+01  0.00000000000E+00 0. -1.
</event>
<event>
 7    1  0.3062695E-010  0.4778727E+02  0.7816164E-02  0.1312668E+00
        -11   -1    0    0    0    0  0.00000000000E+00  0.00000000000E+00  0.45593999997E+02  0.45594000000E+02  0.51100000000E-03 0.  1.
         11   -1    0    0    0    0 -0.00000000000E+00 -0.00000000000E+00 -0.45593999997E+02  0.45594000000E+02  0.51100000000E-03 0. -1.
    9900012    2    1    2    0    0  0.69964433374E+01  0.28384211584E+02 -0.32078183281E+02  0.47787268103E+02  0.19999986587E+02 0.  0.
        -12    1    1    2    0    0 -0.69964433374E+01 -0.28384211584E+02  0.32078183281E+02  0.43400731897E+02  0.00000000000E+00 0.  1.
         11    1    3    3    0    0  0.21451548348E+01  0.25589848058E+02 -0.24129527643E+02  0.35237424954E+02  0.51100000000E-03 0. -1.
        -11    1    3    3    0    0 -0.75536121688E+00  0.23634091639E+01  0.37030051587E+00  0.25086642217E+01  0.51100000000E-03 0.  1.
         12    1    3    3    0    0  0.56066497195E+01  0.43095436229E+00 -0.83189561541E+01  0.10041178926E+02  0.00000000000E+00 0. -1.
</event>
<event>
 7    1  0.3062695E-010  0.4778727E+02  0.7816164E-02  0.1312668E+00
        -11   -1    0    0    0    0  0.00000000000E+00  0.00000000000E+00  0.45593999997E+02  0.45594000000E+02  0.51100000000E-03 0.  1.
         11   -1    0    0    0    0 -0.00000000000E+00 -0.00000000000E+00 -0.45593999997E+02  0.45594000000E+02  0.51100000000E-03 0. -1.
    9900012    2    1    2    0    0  0.22349541646E+01  0.28337535724E+02 -0.32796529435E+02  0.47787270813E+02  0.19999998945E+02 0.  0.
        -12    1    1    2    0    0 -0.22349541646E+01 -0.28337535724E+02  0.32796529435E+02  0.43400729187E+02  0.00000000000E+00 0.  1.
         11    1    3    3    0    0  0.60266249209E+01  0.19072086740E+02 -0.29040147625E+02  0.35261804759E+02  0.51100000000E-03 0. -1.
        -11    1    3    3    0    0 -0.36088930379E+01  0.99390202292E+01 -0.45124255662E+01  0.11496530643E+02  0.51100000000E-03 0.  1.
         12    1    3    3    0    0 -0.18277771836E+00 -0.67357124518E+00  0.75604375689E+00  0.10289354105E+01  0.00000000000E+00 0. -1.
</event>
<event>
 7    1  0.3062695E-010  0.4778728E+02  0.7816164E-02  0.1312668E+00
        -11   -1    0    0    0    0  0.00000000000E+00  0.00000000000E+00  0.45593999997E+02  0.45594000000E+02  0.51100000000E-03 0. -1.
         11   -1    0    0    0    0 -0.00000000000E+00 -0.00000000000E+00 -0.45593999997E+02  0.45594000000E+02  0.51100000000E-03 0.  1.
    9900012    2    1    2    0    0  0.43139867255E+02 -0.34073944189E+01  0.33112460875E+01  0.47787276110E+02  0.20000023096E+02 0.  0.
        -12    1    1    2    0    0 -0.43139867255E+02  0.34073944189E+01 -0.33112460875E+01  0.43400723890E+02  0.00000000000E+00 0.  1.
         11    1    3    3    0    0  0.30119312342E+01  0.51626040793E+01  0.23891211084E+00  0.59817463919E+01  0.51100000000E-03 0. -1.
        -11    1    3    3    0    0  0.50471996409E+00  0.81325174288E+00 -0.10379091703E+00  0.96275306025E+00  0.51100000000E-03 0.  1.
         12    1    3    3    0    0  0.39623216057E+02 -0.93832502410E+01  0.31761248937E+01  0.40842776658E+02  0.00000000000E+00 0. -1.
</event>
<event>
 7    1  0.3062695E-010  0.4778727E+02  0.7816164E-02  0.1312668E+00
        -11   -1    0    0    0    0  0.00000000000E+00  0.00000000000E+00  0.45593999997E+02  0.45594000000E+02  0.51100000000E-03 0.  1.
         11   -1    0    0    0    0 -0.00000000000E+00 -0.00000000000E+00 -0.45593999997E+02  0.45594000000E+02  0.51100000000E-03 0. -1.
    9900012    2    1    2    0    0 -0.49853913866E+01 -0.43101728647E+02  0.10049400710E+01  0.47787273690E+02  0.20000012064E+02 0.  0.
        -12    1    1    2    0    0  0.49853913866E+01  0.43101728647E+02 -0.10049400710E+01  0.43400726310E+02  0.00000000000E+00 0.  1.
         11    1    3    3    0    0  0.54242547048E+01 -0.18862169424E+02  0.73204917189E+00  0.19640261473E+02  0.51100000000E-03 0. -1.
        -11    1    3    3    0    0 -0.63457615832E+01 -0.40071025963E+01 -0.13959447015E+00  0.75063338699E+01  0.51100000000E-03 0.  1.
         12    1    3    3    0    0 -0.40638845082E+01 -0.20232456627E+02  0.41248536923E+00  0.20640678348E+02  0.00000000000E+00 0. -1.
</event>
<event>
 7    1  0.3062695E-010  0.4778727E+02  0.7816164E-02  0.1312668E+00
        -11   -1    0    0    0    0  0.00000000000E+00  0.00000000000E+00  0.45593999997E+02  0.45594000000E+02  0.51100000000E-03 0.  1.
         11   -1    0    0    0    0 -0.00000000000E+00 -0.00000000000E+00 -0.45593999997E+02  0.45594000000E+02  0.51100000000E-03 0. -1.
    9900012    2    1    2    0    0 -0.10587286164E+02  0.25079564105E+02 -0.33801598731E+02  0.47787271426E+02  0.20000001739E+02 0.  0.
        -12    1    1    2    0    0  0.10587286164E+02 -0.25079564105E+02  0.33801598731E+02  0.43400728574E+02  0.00000000000E+00 0.  1.
         11    1    3    3    0    0 -0.47524395988E+01 -0.11053686060E+01 -0.11747159191E+02  0.12720191477E+02  0.51100000000E-03 0. -1.
        -11    1    3    3    0    0 -0.36283958782E+00  0.12767432625E+02 -0.10444362184E+02  0.16499202710E+02  0.51100000000E-03 0.  1.
         12    1    3    3    0    0 -0.54720069777E+01  0.13417500086E+02 -0.11610077356E+02  0.18567877238E+02  0.00000000000E+00 0. -1.
</event>
<event>
 7    1  0.3062695E-010  0.4778727E+02  0.7816164E-02  0.1312668E+00
        -11   -1    0    0    0    0  0.00000000000E+00  0.00000000000E+00  0.45593999997E+02  0.45594000000E+02  0.51100000000E-03 0. -1.
         11   -1    0    0    0    0 -0.00000000000E+00 -0.00000000000E+00 -0.45593999997E+02  0.45594000000E+02  0.51100000000E-03 0.  1.
    9900012    2    1    2    0    0 -0.25023324047E+02 -0.35460044206E+02  0.20523010912E+00  0.47787267277E+02  0.19999982823E+02 0.  0.
        -12    1    1    2    0    0  0.25023324047E+02  0.35460044206E+02 -0.20523010912E+00  0.43400732723E+02  0.00000000000E+00 0.  1.
         11    1    3    3    0    0 -0.14164049588E+02 -0.23862344388E+02  0.77376933406E+01  0.28808048856E+02  0.51100000000E-03 0. -1.
        -11    1    3    3    0    0 -0.11474310293E+02 -0.87791286823E+01 -0.55409463594E+01  0.15473686824E+02  0.51100000000E-03 0.  1.
        -12    1    3    3    0    0  0.61503583301E+00 -0.28185711360E+01 -0.19915168721E+01  0.35055315968E+01  0.00000000000E+00 0.  1.
</event>
<event>
 7    1  0.3062695E-010  0.4778727E+02  0.7816164E-02  0.1312668E+00
        -11   -1    0    0    0    0  0.00000000000E+00  0.00000000000E+00  0.45593999997E+02  0.45594000000E+02  0.51100000000E-03 0. -1.
         11   -1    0    0    0    0 -0.00000000000E+00 -0.00000000000E+00 -0.45593999997E+02  0.45594000000E+02  0.51100000000E-03 0.  1.
    9900012    2    1    2    0    0  0.30310257632E+02 -0.22045560025E+02  0.21883896868E+02  0.47787269860E+02  0.19999994599E+02 0.  0.
        -12    1    1    2    0    0 -0.30310257632E+02  0.22045560025E+02 -0.21883896868E+02  0.43400730140E+02  0.00000000000E+00 0.  1.
         11    1    3    3    0    0  0.47028092524E+01 -0.44303764252E+01  0.52697318391E+01  0.83375490433E+01  0.51100000000E-03 0. -1.
        -11    1    3    3    0    0  0.25660868130E+02 -0.91218238205E+01  0.13566688327E+02  0.30426022669E+02  0.51100000000E-03 0.  1.
        -12    1    3    3    0    0 -0.53419750264E-01 -0.84933597794E+01  0.30474767019E+01  0.90236981477E+01  0.00000000000E+00 0.  1.
</event>
<event>
 7    1  0.3062695E-010  0.4778727E+02  0.7816164E-02  0.1312668E+00
        -11   -1    0    0    0    0  0.00000000000E+00  0.00000000000E+00  0.45593999997E+02  0.45594000000E+02  0.51100000000E-03 0. -1.
         11   -1    0    0    0    0 -0.00000000000E+00 -0.00000000000E+00 -0.45593999997E+02  0.45594000000E+02  0.51100000000E-03 0.  1.
    9900012    2    1    2    0    0 -0.23205986491E+02 -0.35923395430E+02  0.73902056572E+01  0.47787270883E+02  0.19999999264E+02 0.  0.
        -12    1    1    2    0    0  0.23205986491E+02  0.35923395430E+02 -0.73902056572E+01  0.43400729117E+02  0.00000000000E+00 0.  1.
         11    1    3    3    0    0 -0.85071278046E+01 -0.11750872503E+02  0.56331111432E+01  0.15562331749E+02  0.51100000000E-03 0. -1.
        -11    1    3    3    0    0 -0.61976632129E+01 -0.21797573551E+02 -0.17455506506E+01  0.22728664487E+02  0.51100000000E-03 0.  1.
        -12    1    3    3    0    0 -0.85011954736E+01 -0.23749493757E+01  0.35026451647E+01  0.94962746468E+01  0.00000000000E+00 0.  1.
</event>
<event>
 7    1  0.3062695E-010  0.4778727E+02  0.7816164E-02  0.1312668E+00
        -11   -1    0    0    0    0  0.00000000000E+00  0.00000000000E+00  0.45593999997E+02  0.45594000000E+02  0.51100000000E-03 0.  1.
         11   -1    0    0    0    0 -0.00000000000E+00 -0.00000000000E+00 -0.45593999997E+02  0.45594000000E+02  0.51100000000E-03 0. -1.
    9900012    2    1    2    0    0  0.33831797055E+02  0.19249419914E+02 -0.19196158774E+02  0.47787272234E+02  0.20000005422E+02 0.  0.
        -12    1    1    2    0    0 -0.33831797055E+02 -0.19249419914E+02  0.19196158774E+02  0.43400727766E+02  0.00000000000E+00 0.  1.
         11    1    3    3    0    0  0.29216749224E+02  0.19890717796E+02 -0.21550885856E+02  0.41396857019E+02  0.51100000000E-03 0. -1.
        -11    1    3    3    0    0  0.45681276529E+01 -0.15915357715E+00  0.64840227771E+00  0.46166596029E+01  0.51100000000E-03 0.  1.
         12    1    3    3    0    0  0.46920178137E-01 -0.48214430485E+00  0.17063248038E+01  0.17737556117E+01  0.00000000000E+00 0. -1.
</event>
<event>
 7    1  0.3062695E-010  0.4778727E+02  0.7816164E-02  0.1312668E+00
        -11   -1    0    0    0    0  0.00000000000E+00  0.00000000000E+00  0.45593999997E+02  0.45594000000E+02  0.51100000000E-03 0.  1.
         11   -1    0    0    0    0 -0.00000000000E+00 -0.00000000000E+00 -0.45593999997E+02  0.45594000000E+02  0.51100000000E-03 0. -1.
    9900012    2    1    2    0    0 -0.40066672245E+02 -0.44027796157E+01 -0.16090388157E+02  0.47787270926E+02  0.19999999459E+02 0.  0.
        -12    1    1    2    0    0  0.40066672245E+02  0.44027796157E+01  0.16090388157E+02  0.43400729074E+02  0.00000000000E+00 0.  1.
         11    1    3    3    0    0 -0.16873214019E+02 -0.44429666808E+01 -0.14273845044E+02  0.22543024572E+02  0.51100000000E-03 0. -1.
        -11    1    3    3    0    0 -0.20615434883E+02  0.24672551272E+01  0.89909723223E+00  0.20782008550E+02  0.51100000000E-03 0.  1.
        -12    1    3    3    0    0 -0.25780233437E+01 -0.24270680622E+01 -0.27156403450E+01  0.44622378043E+01  0.00000000000E+00 0.  1.
</event>
<event>
 7    1  0.3062695E-010  0.4778725E+02  0.7816164E-02  0.1312668E+00
        -11   -1    0    0    0    0  0.00000000000E+00  0.00000000000E+00  0.45593999997E+02  0.45594000000E+02  0.51100000000E-03 0.  1.
         11   -1    0    0    0    0 -0.00000000000E+00 -0.00000000000E+00 -0.45593999997E+02  0.45594000000E+02  0.51100000000E-03 0. -1.
    9900012    2    1    2    0    0  0.12055470442E+01  0.23054715449E+02 -0.36751211624E+02  0.47787253417E+02  0.19999919631E+02 0.  0.
        -12    1    1    2    0    0 -0.12055470442E+01 -0.23054715449E+02  0.36751211624E+02  0.43400746583E+02  0.00000000000E+00 0.  1.
         11    1    3    3    0    0  0.28284845345E+01  0.77393259848E+01 -0.54159801445E+01  0.98605442368E+01  0.51100000000E-03 0. -1.
        -11    1    3    3    0    0  0.72935563981E+00  0.13054582035E+00 -0.16667441969E+02  0.16683903138E+02  0.51100000000E-03 0.  1.
        -12    1    3    3    0    0 -0.23522931301E+01  0.15184843643E+02 -0.14667789510E+02  0.21242806043E+02  0.00000000000E+00 0.  1.
</event>
<event>
 7    1  0.3062695E-010  0.4778727E+02  0.7816164E-02  0.1312668E+00
        -11   -1    0    0    0    0  0.00000000000E+00  0.00000000000E+00  0.45593999997E+02  0.45594000000E+02  0.51100000000E-03 0.  1.
         11   -1    0    0    0    0 -0.00000000000E+00 -0.00000000000E+00 -0.45593999997E+02  0.45594000000E+02  0.51100000000E-03 0. -1.
    9900012    2    1    2    0    0 -0.24847066825E+02  0.21870956938E+02 -0.28069700441E+02  0.47787267632E+02  0.19999984443E+02 0.  0.
        -12    1    1    2    0    0  0.24847066825E+02 -0.21870956938E+02  0.28069700441E+02  0.43400732368E+02  0.00000000000E+00 0.  1.
         11    1    3    3    0    0 -0.19331155532E+00  0.27070544149E+01 -0.96323882833E+01  0.10007418112E+02  0.51100000000E-03 0. -1.
        -11    1    3    3    0    0 -0.31807450689E+01  0.70818124487E+01 -0.15696223281E+01  0.79204116854E+01  0.51100000000E-03 0.  1.
         12    1    3    3    0    0 -0.21473010201E+02  0.12082090075E+02 -0.16867689829E+02  0.29859437835E+02  0.00000000000E+00 0. -1.
</event>
<event>
 7    1  0.3062695E-010  0.4778727E+02  0.7816164E-02  0.1312668E+00
        -11   -1    0    0    0    0  0.00000000000E+00  0.00000000000E+00  0.45593999997E+02  0.45594000000E+02  0.51100000000E-03 0. -1.
         11   -1    0    0    0    0 -0.00000000000E+00 -0.00000000000E+00 -0.45593999997E+02  0.45594000000E+02  0.51100000000E-03 0.  1.
    9900012    2    1    2    0    0 -0.14123818963E+02 -0.40435438942E+02  0.70082940459E+01  0.47787272241E+02  0.20000005458E+02 0.  0.
        -12    1    1    2    0    0  0.14123818963E+02  0.40435438942E+02 -0.70082940459E+01  0.43400727759E+02  0.00000000000E+00 0.  1.
         11    1    3    3    0    0 -0.79567032358E+01 -0.29009771554E+02  0.11757216167E+02  0.32297184154E+02  0.51100000000E-03 0. -1.
        -11    1    3    3    0    0 -0.75966822063E+01 -0.84487270080E+01 -0.29907739634E+01  0.11748842401E+02  0.51100000000E-03 0.  1.
         12    1    3    3    0    0  0.14295664792E+01 -0.29769403803E+01 -0.17581481577E+01  0.37412456870E+01  0.00000000000E+00 0. -1.
</event>
<event>
 7    1  0.3062695E-010  0.4778726E+02  0.7816164E-02  0.1312668E+00
        -11   -1    0    0    0    0  0.00000000000E+00  0.00000000000E+00  0.45593999997E+02  0.45594000000E+02  0.51100000000E-03 0.  1.
         11   -1    0    0    0    0 -0.00000000000E+00 -0.00000000000E+00 -0.45593999997E+02  0.45594000000E+02  0.51100000000E-03 0. -1.
    9900012    2    1    2    0    0  0.32323380993E+02  0.38330870620E+00 -0.28959904797E+02  0.47787263022E+02  0.19999963423E+02 0.  0.
        -12    1    1    2    0    0 -0.32323380993E+02 -0.38330870620E+00  0.28959904797E+02  0.43400736978E+02  0.00000000000E+00 0.  1.
         11    1    3    3    0    0 -0.15970560274E+01 -0.96766047427E+00 -0.44943314476E+01  0.48668234168E+01  0.51100000000E-03 0. -1.
        -11    1    3    3    0    0  0.15509379289E+02 -0.14548173541E+01 -0.59966827950E+01  0.16691840650E+02  0.51100000000E-03 0.  1.
         12    1    3    3    0    0  0.18411057731E+02  0.28057865345E+01 -0.18468890555E+02  0.26228598955E+02  0.00000000000E+00 0. -1.
</event>
<event>
 7    1  0.3062695E-010  0.4778727E+02  0.7816164E-02  0.1312668E+00
        -11   -1    0    0    0    0  0.00000000000E+00  0.00000000000E+00  0.45593999997E+02  0.45594000000E+02  0.51100000000E-03 0.  1.
         11   -1    0    0    0    0 -0.00000000000E+00 -0.00000000000E+00 -0.45593999997E+02  0.45594000000E+02  0.51100000000E-03 0. -1.
    9900012    2    1    2    0    0 -0.22807541206E+02 -0.36866079268E+02  0.20812720424E+01  0.47787269248E+02  0.19999991809E+02 0.  0.
        -12    1    1    2    0    0  0.22807541206E+02  0.36866079268E+02 -0.20812720424E+01  0.43400730752E+02  0.00000000000E+00 0.  1.
         11    1    3    3    0    0 -0.86773271804E+01 -0.10129281148E+02 -0.27795934121E+01  0.13624407634E+02  0.51100000000E-03 0. -1.
        -11    1    3    3    0    0 -0.63241456794E+01 -0.71581172787E+00  0.26898983502E+01  0.69096134768E+01  0.51100000000E-03 0.  1.
        -12    1    3    3    0    0 -0.78060683466E+01 -0.26020986392E+02  0.21709671043E+01  0.27253248137E+02  0.00000000000E+00 0.  1.
</event>
<event>
 7    1  0.3062695E-010  0.4778727E+02  0.7816164E-02  0.1312668E+00
        -11   -1    0    0    0    0  0.00000000000E+00  0.00000000000E+00  0.45593999997E+02  0.45594000000E+02  0.51100000000E-03 0. -1.
         11   -1    0    0    0    0 -0.00000000000E+00 -0.00000000000E+00 -0.45593999997E+02  0.45594000000E+02  0.51100000000E-03 0.  1.
    9900012    2    1    2    0    0  0.11461730687E+02 -0.42179408216E+01  0.41646861030E+02  0.47787270413E+02  0.19999997119E+02 0.  0.
        -12    1    1    2    0    0 -0.11461730687E+02  0.42179408216E+01 -0.41646861030E+02  0.43400729587E+02  0.00000000000E+00 0.  1.
         11    1    3    3    0    0 -0.17332490975E+01  0.12760235931E+01  0.12798974498E+02  0.12978680099E+02  0.51100000000E-03 0. -1.
        -11    1    3    3    0    0  0.14183298711E+02 -0.89702201019E+00  0.17627749367E+02  0.22643059838E+02  0.51100000000E-03 0.  1.
         12    1    3    3    0    0 -0.98831892661E+00 -0.45969424045E+01  0.11220137164E+02  0.12165530476E+02  0.00000000000E+00 0. -1.
</event>
<event>
 7    1  0.3062695E-010  0.4778727E+02  0.7816164E-02  0.1312668E+00
        -11   -1    0    0    0    0  0.00000000000E+00  0.00000000000E+00  0.45593999997E+02  0.45594000000E+02  0.51100000000E-03 0.  1.
         11   -1    0    0    0    0 -0.00000000000E+00 -0.00000000000E+00 -0.45593999997E+02  0.45594000000E+02  0.51100000000E-03 0. -1.
    9900012    2    1    2    0    0 -0.35420739702E+02  0.98124341555E+01 -0.23080522159E+02  0.47787272262E+02  0.20000005550E+02 0.  0.
        -12    1    1    2    0    0  0.35420739702E+02 -0.98124341555E+01  0.23080522159E+02  0.43400727738E+02  0.00000000000E+00 0.  1.
         11    1    3    3    0    0 -0.20572683596E+02 -0.81403725302E+00 -0.11083492929E+02  0.23382510189E+02  0.51100000000E-03 0. -1.
        -11    1    3    3    0    0  0.30743777913E+00  0.43877970878E+01 -0.59324228102E+00  0.44383801028E+01  0.51100000000E-03 0.  1.
         12    1    3    3    0    0 -0.15155493885E+02  0.62386743207E+01 -0.11403786949E+02  0.19966381970E+02  0.00000000000E+00 0. -1.
</event>
<event>
 7    1  0.3062695E-010  0.4778727E+02  0.7816164E-02  0.1312668E+00
        -11   -1    0    0    0    0  0.00000000000E+00  0.00000000000E+00  0.45593999997E+02  0.45594000000E+02  0.51100000000E-03 0. -1.
         11   -1    0    0    0    0 -0.00000000000E+00 -0.00000000000E+00 -0.45593999997E+02  0.45594000000E+02  0.51100000000E-03 0.  1.
    9900012    2    1    2    0    0  0.32976975051E+02  0.75775364153E+01  0.27179461279E+02  0.47787273542E+02  0.20000011389E+02 0.  0.
        -12    1    1    2    0    0 -0.32976975051E+02 -0.75775364153E+01 -0.27179461279E+02  0.43400726458E+02  0.00000000000E+00 0.  1.
         11    1    3    3    0    0  0.16264067445E+02  0.51755921926E+01  0.24547675045E+01  0.17243332861E+02  0.51100000000E-03 0. -1.
        -11    1    3    3    0    0  0.11338471046E+02 -0.10787485005E+01  0.17608883706E+02  0.20971347349E+02  0.51100000000E-03 0.  1.
         12    1    3    3    0    0  0.53744365597E+01  0.34806927232E+01  0.71158100684E+01  0.95725933319E+01  0.00000000000E+00 0. -1.
</event>
<event>
 7    1  0.3062695E-010  0.4778727E+02  0.7816164E-02  0.1312668E+00
        -11   -1    0    0    0    0  0.00000000000E+00  0.00000000000E+00  0.45593999997E+02  0.45594000000E+02  0.51100000000E-03 0.  1.
         11   -1    0    0    0    0 -0.00000000000E+00 -0.00000000000E+00 -0.45593999997E+02  0.45594000000E+02  0.51100000000E-03 0. -1.
    9900012    2    1    2    0    0  0.36189580787E+02  0.10544804725E+02 -0.21511500690E+02  0.47787270442E+02  0.19999997255E+02 0.  0.
        -12    1    1    2    0    0 -0.36189580787E+02 -0.10544804725E+02  0.21511500690E+02  0.43400729558E+02  0.00000000000E+00 0.  1.
         11    1    3    3    0    0  0.23546360382E+02  0.51467849830E+01 -0.20108830910E+02  0.31389258732E+02  0.51100000000E-03 0. -1.
        -11    1    3    3    0    0  0.11046029023E+02  0.77408625657E+01 -0.14162420999E+01  0.13562501701E+02  0.51100000000E-03 0.  1.
         12    1    3    3    0    0  0.15971913813E+01 -0.23428428238E+01  0.13572320626E-01  0.28355100094E+01  0.00000000000E+00 0. -1.
</event>
<event>
 7    1  0.3062695E-010  0.4778727E+02  0.7816164E-02  0.1312668E+00
        -11   -1    0    0    0    0  0.00000000000E+00  0.00000000000E+00  0.45593999997E+02  0.45594000000E+02  0.51100000000E-03 0.  1.
         11   -1    0    0    0    0 -0.00000000000E+00 -0.00000000000E+00 -0.45593999997E+02  0.45594000000E+02  0.51100000000E-03 0. -1.
    9900012    2    1    2    0    0  0.19309071686E+02 -0.22979959211E+01 -0.38800799712E+02  0.47787273129E+02  0.20000009503E+02 0.  0.
        -12    1    1    2    0    0 -0.19309071686E+02  0.22979959211E+01  0.38800799712E+02  0.43400726871E+02  0.00000000000E+00 0.  1.
         11    1    3    3    0    0  0.56641885020E+00  0.26588144037E+00 -0.10528394966E+02  0.10546972270E+02  0.51100000000E-03 0. -1.
        -11    1    3    3    0    0  0.25038260749E+01 -0.10668731574E+01  0.16355451626E+01  0.31752750412E+01  0.51100000000E-03 0.  1.
        -12    1    3    3    0    0  0.16238826761E+02 -0.14970042041E+01 -0.29907949909E+02  0.34065025817E+02  0.00000000000E+00 0.  1.
</event>
<event>
 7    1  0.3062695E-010  0.4778727E+02  0.7816164E-02  0.1312668E+00
        -11   -1    0    0    0    0  0.00000000000E+00  0.00000000000E+00  0.45593999997E+02  0.45594000000E+02  0.51100000000E-03 0. -1.
         11   -1    0    0    0    0 -0.00000000000E+00 -0.00000000000E+00 -0.45593999997E+02  0.45594000000E+02  0.51100000000E-03 0.  1.
    9900012    2    1    2    0    0 -0.27389435506E+02  0.33556352209E+02 -0.27227378087E+01  0.47787271295E+02  0.20000001144E+02 0.  0.
        -12    1    1    2    0    0  0.27389435506E+02 -0.33556352209E+02  0.27227378087E+01  0.43400728705E+02  0.00000000000E+00 0.  1.
         11    1    3    3    0    0  0.19543615890E+01  0.65518593263E+01  0.29853534528E+01  0.74604775552E+01  0.51100000000E-03 0. -1.
        -11    1    3    3    0    0 -0.19651490070E+02  0.17225741698E+02 -0.43447213608E+01  0.26491203124E+02  0.51100000000E-03 0.  1.
         12    1    3    3    0    0 -0.96923070253E+01  0.97787511851E+01 -0.13633699008E+01  0.13835590616E+02  0.00000000000E+00 0. -1.
</event>
<event>
 7    1  0.3062695E-010  0.4778728E+02  0.7816164E-02  0.1312668E+00
        -11   -1    0    0    0    0  0.00000000000E+00  0.00000000000E+00  0.45593999997E+02  0.45594000000E+02  0.51100000000E-03 0.  1.
         11   -1    0    0    0    0 -0.00000000000E+00 -0.00000000000E+00 -0.45593999997E+02  0.45594000000E+02  0.51100000000E-03 0. -1.
    9900012    2    1    2    0    0  0.12993278426E+02 -0.23495682291E+02 -0.34099121821E+02  0.47787280195E+02  0.20000041722E+02 0.  0.
        -12    1    1    2    0    0 -0.12993278426E+02  0.23495682291E+02  0.34099121821E+02  0.43400719805E+02  0.00000000000E+00 0.  1.
         11    1    3    3    0    0  0.17500575767E+01 -0.31133264888E+01 -0.27629274534E+01  0.45154481197E+01  0.51100000000E-03 0. -1.
        -11    1    3    3    0    0  0.64116562662E+01 -0.16935178745E+02 -0.91175395915E+01  0.20274100317E+02  0.51100000000E-03 0.  1.
        -12    1    3    3    0    0  0.48315645832E+01 -0.34471770580E+01 -0.22218654776E+02  0.22997731759E+02  0.00000000000E+00 0.  1.
</event>
<event>
 7    1  0.3062695E-010  0.4778728E+02  0.7816164E-02  0.1312668E+00
        -11   -1    0    0    0    0  0.00000000000E+00  0.00000000000E+00  0.45593999997E+02  0.45594000000E+02  0.51100000000E-03 0. -1.
         11   -1    0    0    0    0 -0.00000000000E+00 -0.00000000000E+00 -0.45593999997E+02  0.45594000000E+02  0.51100000000E-03 0.  1.
    9900012    2    1    2    0    0  0.21418331381E+02  0.10623925288E+00  0.37747405272E+02  0.47787276381E+02  0.20000024332E+02 0.  0.
        -12    1    1    2    0    0 -0.21418331381E+02 -0.10623925288E+00 -0.37747405272E+02  0.43400723619E+02  0.00000000000E+00 0.  1.
         11    1    3    3    0    0  0.74009927311E+01  0.82433769552E+01  0.18991356667E+02  0.21986349978E+02  0.51100000000E-03 0. -1.
        -11    1    3    3    0    0  0.16215970307E+01 -0.18076166982E+01 -0.20384245092E-01  0.24284708843E+01  0.51100000000E-03 0.  1.
         12    1    3    3    0    0  0.12395741619E+02 -0.63295210042E+01  0.18776432850E+02  0.23372455519E+02  0.00000000000E+00 0. -1.
</event>
<event>
 7    1  0.3062695E-010  0.4778727E+02  0.7816164E-02  0.1312668E+00
        -11   -1    0    0    0    0  0.00000000000E+00  0.00000000000E+00  0.45593999997E+02  0.45594000000E+02  0.51100000000E-03 0.  1.
         11   -1    0    0    0    0 -0.00000000000E+00 -0.00000000000E+00 -0.45593999997E+02  0.45594000000E+02  0.51100000000E-03 0. -1.
    9900012    2    1    2    0    0 -0.85092577714E+01  0.27491121008E+02 -0.32487756666E+02  0.47787268032E+02  0.19999986267E+02 0.  0.
        -12    1    1    2    0    0  0.85092577714E+01 -0.27491121008E+02  0.32487756666E+02  0.43400731968E+02  0.00000000000E+00 0.  1.
         11    1    3    3    0    0 -0.13237155297E+02  0.11684649896E+02 -0.22040908870E+02  0.28241016051E+02  0.51100000000E-03 0. -1.
        -11    1    3    3    0    0  0.30601172092E+01  0.10925590568E+02 -0.67760364105E+01  0.13215427208E+02  0.51100000000E-03 0.  1.
         12    1    3    3    0    0  0.16677803167E+01  0.48808805443E+01 -0.36708113863E+01  0.63308247730E+01  0.00000000000E+00 0. -1.
</event>
<event>
 7    1  0.3062695E-010  0.4778721E+02  0.7816164E-02  0.1312668E+00
        -11   -1    0    0    0    0  0.00000000000E+00  0.00000000000E+00  0.45593999997E+02  0.45594000000E+02  0.51100000000E-03 0. -1.
         11   -1    0    0    0    0 -0.00000000000E+00 -0.00000000000E+00 -0.45593999997E+02  0.45594000000E+02  0.51100000000E-03 0.  1.
    9900012    2    1    2    0    0 -0.41564719025E+02 -0.11883194165E+02  0.38461126010E+01  0.47787207918E+02  0.19999712181E+02 0.  0.
        -12    1    1    2    0    0  0.41564719025E+02  0.11883194165E+02 -0.38461126010E+01  0.43400792082E+02  0.00000000000E+00 0.  1.
         11    1    3    3    0    0  0.90273736945E+00 -0.84794984289E+00  0.25648525891E+01  0.28482315143E+01  0.51100000000E-03 0. -1.
        -11    1    3    3    0    0 -0.20677942046E+02 -0.46677947288E+01 -0.41425071812E+01  0.21599212044E+02  0.51100000000E-03 0.  1.
         12    1    3    3    0    0 -0.21789514348E+02 -0.63674495928E+01  0.54237671932E+01  0.23339764360E+02  0.00000000000E+00 0. -1.
</event>
<event>
 7    1  0.3062695E-010  0.4778728E+02  0.7816164E-02  0.1312668E+00
        -11   -1    0    0    0    0  0.00000000000E+00  0.00000000000E+00  0.45593999997E+02  0.45594000000E+02  0.51100000000E-03 0.  1.
         11   -1    0    0    0    0 -0.00000000000E+00 -0.00000000000E+00 -0.45593999997E+02  0.45594000000E+02  0.51100000000E-03 0. -1.
    9900012    2    1    2    0    0  0.32624152158E+02 -0.28552776001E+02  0.20065257311E+01  0.47787280341E+02  0.20000042386E+02 0.  0.
        -12    1    1    2    0    0 -0.32624152158E+02  0.28552776001E+02 -0.20065257311E+01  0.43400719659E+02  0.00000000000E+00 0.  1.
         11    1    3    3    0    0  0.69886268410E+01 -0.33394675147E+01 -0.22605148106E+01  0.80686353167E+01  0.51100000000E-03 0. -1.
        -11    1    3    3    0    0  0.70633117318E+01 -0.16736221966E+01 -0.44235454873E+01  0.85005375605E+01  0.51100000000E-03 0.  1.
        -12    1    3    3    0    0  0.18572213585E+02 -0.23539686290E+02  0.86905860289E+01  0.31218107464E+02  0.00000000000E+00 0.  1.
</event>
<event>
 7    1  0.3062695E-010  0.4778728E+02  0.7816164E-02  0.1312668E+00
        -11   -1    0    0    0    0  0.00000000000E+00  0.00000000000E+00  0.45593999997E+02  0.45594000000E+02  0.51100000000E-03 0.  1.
         11   -1    0    0    0    0 -0.00000000000E+00 -0.00000000000E+00 -0.45593999997E+02  0.45594000000E+02  0.51100000000E-03 0. -1.
    9900012    2    1    2    0    0  0.80838152254E+01  0.35065880056E+02 -0.24262290539E+02  0.47787277024E+02  0.20000027262E+02 0.  0.
        -12    1    1    2    0    0 -0.80838152254E+01 -0.35065880056E+02  0.24262290539E+02  0.43400722976E+02  0.00000000000E+00 0.  1.
         11    1    3    3    0    0  0.59604466484E+00  0.21166998678E+02 -0.53180107926E+01  0.21832964556E+02  0.51100000000E-03 0. -1.
        -11    1    3    3    0    0  0.56483139132E+01  0.88999482962E+01 -0.17509908861E+02  0.20437941147E+02  0.51100000000E-03 0.  1.
        -12    1    3    3    0    0  0.18394566474E+01  0.49989330816E+01 -0.14343708856E+01  0.55163713209E+01  0.00000000000E+00 0.  1.
</event>
<event>
 7    1  0.3062695E-010  0.4778725E+02  0.7816164E-02  0.1312668E+00
        -11   -1    0    0    0    0  0.00000000000E+00  0.00000000000E+00  0.45593999997E+02  0.45594000000E+02  0.51100000000E-03 0. -1.
         11   -1    0    0    0    0 -0.00000000000E+00 -0.00000000000E+00 -0.45593999997E+02  0.45594000000E+02  0.51100000000E-03 0.  1.
    9900012    2    1    2    0    0 -0.19197462631E+02  0.26334460235E+02  0.28663192446E+02  0.47787251521E+02  0.19999910985E+02 0.  0.
        -12    1    1    2    0    0  0.19197462631E+02 -0.26334460235E+02 -0.28663192446E+02  0.43400748479E+02  0.00000000000E+00 0.  1.
         11    1    3    3    0    0 -0.25190244871E+01  0.67195688774E+00  0.34122185014E+01  0.42942107293E+01  0.51100000000E-03 0. -1.
        -11    1    3    3    0    0 -0.19460855286E+02  0.15565011893E+02  0.18418871396E+02  0.30987889691E+02  0.51100000000E-03 0.  1.
        -12    1    3    3    0    0  0.27824171429E+01  0.10097491454E+02  0.68321025484E+01  0.12505151101E+02  0.00000000000E+00 0.  1.
</event>
<event>
 7    1  0.3062695E-010  0.4778727E+02  0.7816164E-02  0.1312668E+00
        -11   -1    0    0    0    0  0.00000000000E+00  0.00000000000E+00  0.45593999997E+02  0.45594000000E+02  0.51100000000E-03 0.  1.
         11   -1    0    0    0    0 -0.00000000000E+00 -0.00000000000E+00 -0.45593999997E+02  0.45594000000E+02  0.51100000000E-03 0. -1.
    9900012    2    1    2    0    0 -0.13095087870E+02 -0.57743521066E+01 -0.40973146537E+02  0.47787271830E+02  0.20000003580E+02 0.  0.
        -12    1    1    2    0    0  0.13095087870E+02  0.57743521066E+01  0.40973146537E+02  0.43400728170E+02  0.00000000000E+00 0.  1.
         11    1    3    3    0    0 -0.93628726187E+01  0.18761300569E+01 -0.12898260927E+02  0.16048314020E+02  0.51100000000E-03 0. -1.
        -11    1    3    3    0    0 -0.28965620691E+01 -0.10491581741E+02 -0.25808869746E+02  0.28010018155E+02  0.51100000000E-03 0.  1.
        -12    1    3    3    0    0 -0.83565318190E+00  0.28410995777E+01 -0.22660158641E+01  0.37289396545E+01  0.00000000000E+00 0.  1.
</event>
<event>
 7    1  0.3062695E-010  0.4778727E+02  0.7816164E-02  0.1312668E+00
        -11   -1    0    0    0    0  0.00000000000E+00  0.00000000000E+00  0.45593999997E+02  0.45594000000E+02  0.51100000000E-03 0.  1.
         11   -1    0    0    0    0 -0.00000000000E+00 -0.00000000000E+00 -0.45593999997E+02  0.45594000000E+02  0.51100000000E-03 0. -1.
    9900012    2    1    2    0    0  0.13404481630E+02  0.41266624649E+02  0.10044071580E+01  0.47787271072E+02  0.20000000128E+02 0.  0.
        -12    1    1    2    0    0 -0.13404481630E+02 -0.41266624649E+02 -0.10044071580E+01  0.43400728928E+02  0.00000000000E+00 0.  1.
         11    1    3    3    0    0  0.12634082396E+02  0.24076655150E+02 -0.69736101499E+01  0.28070208407E+02  0.51100000000E-03 0.  1.
        -11    1    3    3    0    0 -0.63119811920E+00  0.14350128247E+02  0.82046195293E+01  0.16542078879E+02  0.51100000000E-03 0. -1.
         12    1    3    3    0    0  0.14015973532E+01  0.28398412525E+01 -0.22660222139E+00  0.31749837868E+01  0.00000000000E+00 0. -1.
</event>
<event>
 7    1  0.3062695E-010  0.4778727E+02  0.7816164E-02  0.1312668E+00
        -11   -1    0    0    0    0  0.00000000000E+00  0.00000000000E+00  0.45593999997E+02  0.45594000000E+02  0.51100000000E-03 0.  1.
         11   -1    0    0    0    0 -0.00000000000E+00 -0.00000000000E+00 -0.45593999997E+02  0.45594000000E+02  0.51100000000E-03 0. -1.
    9900012    2    1    2    0    0 -0.38446490498E+02 -0.19244018851E+02  0.59294612704E+01  0.47787269544E+02  0.19999993160E+02 0.  0.
        -12    1    1    2    0    0  0.38446490498E+02  0.19244018851E+02 -0.59294612704E+01  0.43400730456E+02  0.00000000000E+00 0.  1.
         11    1    3    3    0    0 -0.43799349373E+01 -0.21120584493E+00 -0.26094943391E+01  0.51027344563E+01  0.51100000000E-03 0. -1.
        -11    1    3    3    0    0 -0.32471258839E+02 -0.14729268041E+02  0.11207178270E+02  0.37375591402E+02  0.51100000000E-03 0.  1.
        -12    1    3    3    0    0 -0.15952967216E+01 -0.43035449653E+01 -0.26682226604E+01  0.53089436862E+01  0.00000000000E+00 0.  1.
</event>
<event>
 7    1  0.3062695E-010  0.4778727E+02  0.7816164E-02  0.1312668E+00
        -11   -1    0    0    0    0  0.00000000000E+00  0.00000000000E+00  0.45593999997E+02  0.45594000000E+02  0.51100000000E-03 0.  1.
         11   -1    0    0    0    0 -0.00000000000E+00 -0.00000000000E+00 -0.45593999997E+02  0.45594000000E+02  0.51100000000E-03 0. -1.
    9900012    2    1    2    0    0  0.20131166800E+02 -0.89340771552E+01 -0.37397081817E+02  0.47787270285E+02  0.19999996536E+02 0.  0.
        -12    1    1    2    0    0 -0.20131166800E+02  0.89340771552E+01  0.37397081817E+02  0.43400729715E+02  0.00000000000E+00 0.  1.
         11    1    3    3    0    0  0.19744761599E+02 -0.82869604194E+01 -0.37608394061E+02  0.43277253006E+02  0.51100000000E-03 0. -1.
        -11    1    3    3    0    0 -0.16470325848E+01  0.76006693787E+00 -0.59496757246E+00  0.19090324143E+01  0.51100000000E-03 0.  1.
         12    1    3    3    0    0  0.20334377865E+01 -0.14071836737E+01  0.80627981647E+00  0.26009848645E+01  0.00000000000E+00 0. -1.
</event>
<event>
 7    1  0.3062695E-010  0.4778727E+02  0.7816164E-02  0.1312668E+00
        -11   -1    0    0    0    0  0.00000000000E+00  0.00000000000E+00  0.45593999997E+02  0.45594000000E+02  0.51100000000E-03 0.  1.
         11   -1    0    0    0    0 -0.00000000000E+00 -0.00000000000E+00 -0.45593999997E+02  0.45594000000E+02  0.51100000000E-03 0. -1.
    9900012    2    1    2    0    0  0.70436753861E+01  0.18462988626E+02 -0.38641013600E+02  0.47787271389E+02  0.20000001571E+02 0.  0.
        -12    1    1    2    0    0 -0.70436753861E+01 -0.18462988626E+02  0.38641013600E+02  0.43400728611E+02  0.00000000000E+00 0.  1.
         11    1    3    3    0    0  0.50211545335E+01  0.40792382667E+01 -0.25060814378E+02  0.25882360697E+02  0.51100000000E-03 0. -1.
        -11    1    3    3    0    0 -0.10914263034E+01  0.13642960792E+02 -0.12474410263E+02  0.18518436819E+02  0.51100000000E-03 0.  1.
        -12    1    3    3    0    0  0.31139471560E+01  0.74078956764E+00 -0.11057889585E+01  0.33864738733E+01  0.00000000000E+00 0.  1.
</event>
<event>
 7    1  0.3062695E-010  0.4778727E+02  0.7816164E-02  0.1312668E+00
        -11   -1    0    0    0    0  0.00000000000E+00  0.00000000000E+00  0.45593999997E+02  0.45594000000E+02  0.51100000000E-03 0. -1.
         11   -1    0    0    0    0 -0.00000000000E+00 -0.00000000000E+00 -0.45593999997E+02  0.45594000000E+02  0.51100000000E-03 0.  1.
    9900012    2    1    2    0    0 -0.12441000903E+02 -0.24753928639E+00  0.41578646404E+02  0.47787267103E+02  0.19999982031E+02 0.  0.
        -12    1    1    2    0    0  0.12441000903E+02  0.24753928639E+00 -0.41578646404E+02  0.43400732897E+02  0.00000000000E+00 0.  1.
         11    1    3    3    0    0 -0.17137966734E+01 -0.62756746261E-01  0.25005012944E+01  0.30320858219E+01  0.51100000000E-03 0. -1.
        -11    1    3    3    0    0 -0.24660292486E+00 -0.84587030629E+01  0.15015236357E+02  0.17235654720E+02  0.51100000000E-03 0.  1.
        -12    1    3    3    0    0 -0.10480601305E+02  0.82739205227E+01  0.24062908752E+02  0.27519526561E+02  0.00000000000E+00 0.  1.
</event>
<event>
 7    1  0.3062695E-010  0.4778727E+02  0.7816164E-02  0.1312668E+00
        -11   -1    0    0    0    0  0.00000000000E+00  0.00000000000E+00  0.45593999997E+02  0.45594000000E+02  0.51100000000E-03 0.  1.
         11   -1    0    0    0    0 -0.00000000000E+00 -0.00000000000E+00 -0.45593999997E+02  0.45594000000E+02  0.51100000000E-03 0. -1.
    9900012    2    1    2    0    0  0.15262245631E+01  0.66007486371E+01 -0.42868682262E+02  0.47787272323E+02  0.20000005831E+02 0.  0.
        -12    1    1    2    0    0 -0.15262245631E+01 -0.66007486371E+01  0.42868682262E+02  0.43400727677E+02  0.00000000000E+00 0.  1.
         11    1    3    3    0    0  0.49417835779E+01  0.74852564008E+01 -0.29531286610E+02  0.30863363029E+02  0.51100000000E-03 0. -1.
        -11    1    3    3    0    0  0.26420882006E+01  0.33517615898E+00 -0.89701575688E+01  0.93571737286E+01  0.51100000000E-03 0.  1.
         12    1    3    3    0    0 -0.60576472153E+01 -0.12196839227E+01 -0.43672380828E+01  0.75667355662E+01  0.00000000000E+00 0. -1.
</event>
<event>
 7    1  0.3062695E-010  0.4778728E+02  0.7816164E-02  0.1312668E+00
        -11   -1    0    0    0    0  0.00000000000E+00  0.00000000000E+00  0.45593999997E+02  0.45594000000E+02  0.51100000000E-03 0. -1.
         11   -1    0    0    0    0 -0.00000000000E+00 -0.00000000000E+00 -0.45593999997E+02  0.45594000000E+02  0.51100000000E-03 0.  1.
    9900012    2    1    2    0    0  0.43372410393E+01  0.42062067285E+02 -0.97771864970E+01  0.47787279500E+02  0.20000038550E+02 0.  0.
        -12    1    1    2    0    0 -0.43372410393E+01 -0.42062067285E+02  0.97771864970E+01  0.43400720500E+02  0.00000000000E+00 0.  1.
         11    1    3    3    0    0  0.58731611560E+01  0.96171641015E+01 -0.72894934887E+01  0.13420900972E+02  0.51100000000E-03 0. -1.
        -11    1    3    3    0    0 -0.11941674654E+01 -0.12949697292E+00 -0.12979483983E+01  0.17684670500E+01  0.51100000000E-03 0.  1.
         12    1    3    3    0    0 -0.34175265137E+00  0.32574400157E+02 -0.11897446099E+01  0.32597911477E+02  0.00000000000E+00 0. -1.
</event>
<event>
 7    1  0.3062695E-010  0.4778727E+02  0.7816164E-02  0.1312668E+00
        -11   -1    0    0    0    0  0.00000000000E+00  0.00000000000E+00  0.45593999997E+02  0.45594000000E+02  0.51100000000E-03 0.  1.
         11   -1    0    0    0    0 -0.00000000000E+00 -0.00000000000E+00 -0.45593999997E+02  0.45594000000E+02  0.51100000000E-03 0. -1.
    9900012    2    1    2    0    0 -0.13071663296E+02 -0.39992696551E+02 -0.10646083334E+02  0.47787271330E+02  0.20000001302E+02 0.  0.
        -12    1    1    2    0    0  0.13071663296E+02  0.39992696551E+02  0.10646083334E+02  0.43400728670E+02  0.00000000000E+00 0.  1.
         11    1    3    3    0    0 -0.18473202955E+01 -0.77274389903E+01 -0.42537513398E+01  0.90122309305E+01  0.51100000000E-03 0. -1.
        -11    1    3    3    0    0 -0.15449550649E+02 -0.21802585300E+02 -0.64595894300E+01  0.27491228363E+02  0.51100000000E-03 0.  1.
        -12    1    3    3    0    0  0.42252076491E+01 -0.10462672261E+02  0.67257436261E-01  0.11283812037E+02  0.00000000000E+00 0.  1.
</event>
<event>
 7    1  0.3062695E-010  0.4778727E+02  0.7816164E-02  0.1312668E+00
        -11   -1    0    0    0    0  0.00000000000E+00  0.00000000000E+00  0.45593999997E+02  0.45594000000E+02  0.51100000000E-03 0. -1.
         11   -1    0    0    0    0 -0.00000000000E+00 -0.00000000000E+00 -0.45593999997E+02  0.45594000000E+02  0.51100000000E-03 0.  1.
    9900012    2    1    2    0    0 -0.72947204801E+01  0.42305340479E+02 -0.63771742167E+01  0.47787272691E+02  0.20000007509E+02 0.  0.
        -12    1    1    2    0    0  0.72947204801E+01 -0.42305340479E+02  0.63771742167E+01  0.43400727309E+02  0.00000000000E+00 0.  1.
         11    1    3    3    0    0 -0.10518180469E+02  0.17994539555E+02 -0.67020104413E+00  0.20853890377E+02  0.51100000000E-03 0. -1.
        -11    1    3    3    0    0  0.51905824469E+01  0.11716977707E+02  0.35208614537E+00  0.12820049830E+02  0.51100000000E-03 0.  1.
         12    1    3    3    0    0 -0.19671224581E+01  0.12593823217E+02 -0.60590593180E+01  0.14113332484E+02  0.00000000000E+00 0. -1.
</event>
<event>
 7    1  0.3062695E-010  0.4778727E+02  0.7816164E-02  0.1312668E+00
        -11   -1    0    0    0    0  0.00000000000E+00  0.00000000000E+00  0.45593999997E+02  0.45594000000E+02  0.51100000000E-03 0.  1.
         11   -1    0    0    0    0 -0.00000000000E+00 -0.00000000000E+00 -0.45593999997E+02  0.45594000000E+02  0.51100000000E-03 0. -1.
    9900012    2    1    2    0    0 -0.13689515566E+02  0.43711668180E+01 -0.40952573466E+02  0.47787271789E+02  0.20000003393E+02 0.  0.
        -12    1    1    2    0    0  0.13689515566E+02 -0.43711668180E+01  0.40952573466E+02  0.43400728211E+02  0.00000000000E+00 0.  1.
         11    1    3    3    0    0 -0.18130003760E+02  0.23696530465E+01 -0.28412952384E+02  0.33787692365E+02  0.51100000000E-03 0. -1.
        -11    1    3    3    0    0  0.26144182065E+01  0.32852935464E+00 -0.10394103062E+02  0.10722895730E+02  0.51100000000E-03 0.  1.
         12    1    3    3    0    0  0.18260699877E+01  0.16729844169E+01 -0.21455180198E+01  0.32766836943E+01  0.00000000000E+00 0. -1.
</event>
<event>
 7    1  0.3062695E-010  0.4778726E+02  0.7816164E-02  0.1312668E+00
        -11   -1    0    0    0    0  0.00000000000E+00  0.00000000000E+00  0.45593999997E+02  0.45594000000E+02  0.51100000000E-03 0.  1.
         11   -1    0    0    0    0 -0.00000000000E+00 -0.00000000000E+00 -0.45593999997E+02  0.45594000000E+02  0.51100000000E-03 0. -1.
    9900012    2    1    2    0    0 -0.24976897476E+02 -0.19651899442E+02 -0.29556409459E+02  0.47787263839E+02  0.19999967149E+02 0.  0.
        -12    1    1    2    0    0  0.24976897476E+02  0.19651899442E+02  0.29556409459E+02  0.43400736161E+02  0.00000000000E+00 0.  1.
         11    1    3    3    0    0 -0.46460179936E+01 -0.43672964597E+01 -0.24685059417E+01  0.68375641430E+01  0.51100000000E-03 0. -1.
        -11    1    3    3    0    0 -0.14094929686E+02 -0.18547936041E+02 -0.17915006620E+02  0.29387759981E+02  0.51100000000E-03 0.  1.
        -12    1    3    3    0    0 -0.62359497963E+01  0.32633330582E+01 -0.91728968965E+01  0.11561939715E+02  0.00000000000E+00 0.  1.
</event>
<event>
 7    1  0.3062695E-010  0.4778728E+02  0.7816164E-02  0.1312668E+00
        -11   -1    0    0    0    0  0.00000000000E+00  0.00000000000E+00  0.45593999997E+02  0.45594000000E+02  0.51100000000E-03 0.  1.
         11   -1    0    0    0    0 -0.00000000000E+00 -0.00000000000E+00 -0.45593999997E+02  0.45594000000E+02  0.51100000000E-03 0. -1.
    9900012    2    1    2    0    0  0.22003234713E+02  0.16868787919E+02 -0.33390483714E+02  0.47787277122E+02  0.20000027709E+02 0.  0.
        -12    1    1    2    0    0 -0.22003234713E+02 -0.16868787919E+02  0.33390483714E+02  0.43400722878E+02  0.00000000000E+00 0.  1.
         11    1    3    3    0    0  0.28195049214E+01  0.96681716869E+01 -0.14384892198E+02  0.17559848393E+02  0.51100000000E-03 0. -1.
        -11    1    3    3    0    0  0.13144416033E+02  0.30077029226E+00 -0.15704747579E+02  0.20481826882E+02  0.51100000000E-03 0.  1.
         12    1    3    3    0    0  0.60393137589E+01  0.68998459402E+01 -0.33008439362E+01  0.97456018474E+01  0.00000000000E+00 0. -1.
</event>
<event>
 7    1  0.3062695E-010  0.4778729E+02  0.7816164E-02  0.1312668E+00
        -11   -1    0    0    0    0  0.00000000000E+00  0.00000000000E+00  0.45593999997E+02  0.45594000000E+02  0.51100000000E-03 0. -1.
         11   -1    0    0    0    0 -0.00000000000E+00 -0.00000000000E+00 -0.45593999997E+02  0.45594000000E+02  0.51100000000E-03 0.  1.
    9900012    2    1    2    0    0  0.39927990114E+02  0.22353728596E+01  0.16863592854E+02  0.47787285141E+02  0.20000064271E+02 0.  0.
        -12    1    1    2    0    0 -0.39927990114E+02 -0.22353728596E+01 -0.16863592854E+02  0.43400714859E+02  0.00000000000E+00 0.  1.
         11    1    3    3    0    0  0.31955217182E+02 -0.66622857185E+01  0.11298788936E+02  0.34542504075E+02  0.51100000000E-03 0. -1.
        -11    1    3    3    0    0  0.17435874591E+01  0.28227140646E+01  0.15008334313E+01  0.36414712916E+01  0.51100000000E-03 0.  1.
         12    1    3    3    0    0  0.62291854730E+01  0.60749445135E+01  0.40639704865E+01  0.96033097739E+01  0.00000000000E+00 0. -1.
</event>
<event>
 7    1  0.3062695E-010  0.4778727E+02  0.7816164E-02  0.1312668E+00
        -11   -1    0    0    0    0  0.00000000000E+00  0.00000000000E+00  0.45593999997E+02  0.45594000000E+02  0.51100000000E-03 0. -1.
         11   -1    0    0    0    0 -0.00000000000E+00 -0.00000000000E+00 -0.45593999997E+02  0.45594000000E+02  0.51100000000E-03 0.  1.
    9900012    2    1    2    0    0  0.28684010392E+02  0.15025454898E+02  0.28897871152E+02  0.47787266087E+02  0.19999977398E+02 0.  0.
        -12    1    1    2    0    0 -0.28684010392E+02 -0.15025454898E+02 -0.28897871152E+02  0.43400733913E+02  0.00000000000E+00 0.  1.
         11    1    3    3    0    0  0.51615462585E+01  0.10268161040E+02  0.11374859828E+02  0.16169852420E+02  0.51100000000E-03 0. -1.
        -11    1    3    3    0    0  0.87543012692E+01 -0.28948368157E+01  0.35015898271E+01  0.98630118361E+01  0.51100000000E-03 0.  1.
        -12    1    3    3    0    0  0.14768162864E+02  0.76521306735E+01  0.14021421497E+02  0.21754401831E+02  0.00000000000E+00 0.  1.
</event>
<event>
 7    1  0.3062695E-010  0.4778727E+02  0.7816164E-02  0.1312668E+00
        -11   -1    0    0    0    0  0.00000000000E+00  0.00000000000E+00  0.45593999997E+02  0.45594000000E+02  0.51100000000E-03 0.  1.
         11   -1    0    0    0    0 -0.00000000000E+00 -0.00000000000E+00 -0.45593999997E+02  0.45594000000E+02  0.51100000000E-03 0. -1.
    9900012    2    1    2    0    0  0.29081509604E+02  0.10860954268E+02 -0.30330329368E+02  0.47787269499E+02  0.19999992955E+02 0.  0.
        -12    1    1    2    0    0 -0.29081509604E+02 -0.10860954268E+02  0.30330329368E+02  0.43400730501E+02  0.00000000000E+00 0.  1.
         11    1    3    3    0    0  0.13053052196E+02 -0.43910848635E+01 -0.13722411567E+02  0.19441408832E+02  0.51100000000E-03 0. -1.
        -11    1    3    3    0    0  0.66579985027E+00  0.64966431820E+00 -0.30416508866E+01  0.31807221734E+01  0.51100000000E-03 0.  1.
         12    1    3    3    0    0  0.15362657558E+02  0.14602374813E+02 -0.13566266914E+02  0.25165138494E+02  0.00000000000E+00 0. -1.
</event>
<event>
 7    1  0.3062695E-010  0.4778727E+02  0.7816164E-02  0.1312668E+00
        -11   -1    0    0    0    0  0.00000000000E+00  0.00000000000E+00  0.45593999997E+02  0.45594000000E+02  0.51100000000E-03 0.  1.
         11   -1    0    0    0    0 -0.00000000000E+00 -0.00000000000E+00 -0.45593999997E+02  0.45594000000E+02  0.51100000000E-03 0. -1.
    9900012    2    1    2    0    0 -0.21734434942E+02  0.28203174204E+01 -0.37460428055E+02  0.47787268178E+02  0.19999986931E+02 0.  0.
        -12    1    1    2    0    0  0.21734434942E+02 -0.28203174204E+01  0.37460428055E+02  0.43400731822E+02  0.00000000000E+00 0.  1.
         11    1    3    3    0    0 -0.59853352951E+01  0.24157089870E+01 -0.26683178665E+02  0.27452721403E+02  0.51100000000E-03 0.  1.
        -11    1    3    3    0    0 -0.49463767290E+00  0.40081426070E+00 -0.32727017329E+01  0.33340508983E+01  0.51100000000E-03 0. -1.
         12    1    3    3    0    0 -0.15254461974E+02  0.37941727118E-02 -0.75045476572E+01  0.17000495877E+02  0.00000000000E+00 0. -1.
</event>
<event>
 7    1  0.3062695E-010  0.4778727E+02  0.7816164E-02  0.1312668E+00
        -11   -1    0    0    0    0  0.00000000000E+00  0.00000000000E+00  0.45593999997E+02  0.45594000000E+02  0.51100000000E-03 0.  1.
         11   -1    0    0    0    0 -0.00000000000E+00 -0.00000000000E+00 -0.45593999997E+02  0.45594000000E+02  0.51100000000E-03 0. -1.
    9900012    2    1    2    0    0 -0.10746184874E+02 -0.13408507647E+02 -0.39854171082E+02  0.47787268217E+02  0.19999987108E+02 0.  0.
        -12    1    1    2    0    0  0.10746184874E+02  0.13408507647E+02  0.39854171082E+02  0.43400731783E+02  0.00000000000E+00 0.  1.
         11    1    3    3    0    0 -0.33858671000E+01 -0.55330823510E+01 -0.13090729525E+01  0.66176104885E+01  0.51100000000E-03 0. -1.
        -11    1    3    3    0    0 -0.82356349611E+01 -0.77380903685E+01 -0.38658561956E+02  0.40276396792E+02  0.51100000000E-03 0.  1.
        -12    1    3    3    0    0  0.87531718723E+00 -0.13733492757E+00  0.11346382658E+00  0.89326093642E+00  0.00000000000E+00 0.  1.
</event>
<event>
 7    1  0.3062695E-010  0.4778727E+02  0.7816164E-02  0.1312668E+00
        -11   -1    0    0    0    0  0.00000000000E+00  0.00000000000E+00  0.45593999997E+02  0.45594000000E+02  0.51100000000E-03 0. -1.
         11   -1    0    0    0    0 -0.00000000000E+00 -0.00000000000E+00 -0.45593999997E+02  0.45594000000E+02  0.51100000000E-03 0.  1.
    9900012    2    1    2    0    0 -0.42209039120E+02  0.72001564321E+01  0.70836295962E+01  0.47787273689E+02  0.20000012056E+02 0.  0.
        -12    1    1    2    0    0  0.42209039120E+02 -0.72001564321E+01 -0.70836295962E+01  0.43400726311E+02  0.00000000000E+00 0.  1.
         11    1    3    3    0    0 -0.13606891569E+02 -0.30492895649E+01  0.69849229975E+01  0.15595987130E+02  0.51100000000E-03 0. -1.
        -11    1    3    3    0    0 -0.18693737520E+02  0.10097752260E+02 -0.37228836243E+01  0.21570356648E+02  0.51100000000E-03 0.  1.
        -12    1    3    3    0    0 -0.99084100307E+01  0.15169373681E+00  0.38215902230E+01  0.10620929910E+02  0.00000000000E+00 0.  1.
</event>
<event>
 7    1  0.3062695E-010  0.4778727E+02  0.7816164E-02  0.1312668E+00
        -11   -1    0    0    0    0  0.00000000000E+00  0.00000000000E+00  0.45593999997E+02  0.45594000000E+02  0.51100000000E-03 0.  1.
         11   -1    0    0    0    0 -0.00000000000E+00 -0.00000000000E+00 -0.45593999997E+02  0.45594000000E+02  0.51100000000E-03 0. -1.
    9900012    2    1    2    0    0  0.69176981668E+01 -0.84557431191E+00 -0.42837528497E+02  0.47787269689E+02  0.19999993818E+02 0.  0.
        -12    1    1    2    0    0 -0.69176981668E+01  0.84557431191E+00  0.42837528497E+02  0.43400730311E+02  0.00000000000E+00 0.  1.
         11    1    3    3    0    0 -0.40080296296E+01  0.42154278240E+01 -0.20066138687E+02  0.20892200825E+02  0.51100000000E-03 0. -1.
        -11    1    3    3    0    0  0.52030035506E+01 -0.42293368587E+01 -0.54714605488E+01  0.86542138297E+01  0.51100000000E-03 0.  1.
         12    1    3    3    0    0  0.57227242458E+01 -0.83166527718E+00 -0.17299929261E+02  0.18240855034E+02  0.00000000000E+00 0. -1.
</event>
<event>
 7    1  0.3062695E-010  0.4778728E+02  0.7816164E-02  0.1312668E+00
        -11   -1    0    0    0    0  0.00000000000E+00  0.00000000000E+00  0.45593999997E+02  0.45594000000E+02  0.51100000000E-03 0. -1.
         11   -1    0    0    0    0 -0.00000000000E+00 -0.00000000000E+00 -0.45593999997E+02  0.45594000000E+02  0.51100000000E-03 0.  1.
    9900012    2    1    2    0    0  0.37686195432E+02  0.12923979611E+02  0.17214653840E+02  0.47787275560E+02  0.20000020588E+02 0.  0.
        -12    1    1    2    0    0 -0.37686195432E+02 -0.12923979611E+02 -0.17214653840E+02  0.43400724440E+02  0.00000000000E+00 0.  1.
         11    1    3    3    0    0  0.26102077696E+02  0.53898302238E+01  0.70878955249E+01  0.27579104284E+02  0.51100000000E-03 0. -1.
        -11    1    3    3    0    0  0.35122597959E+01  0.86420937194E+01  0.57721195044E+01  0.10969918713E+02  0.51100000000E-03 0.  1.
        -12    1    3    3    0    0  0.80718579402E+01 -0.11079443324E+01  0.43546388108E+01  0.92382525633E+01  0.00000000000E+00 0.  1.
</event>
<event>
 7    1  0.3062695E-010  0.4778728E+02  0.7816164E-02  0.1312668E+00
        -11   -1    0    0    0    0  0.00000000000E+00  0.00000000000E+00  0.45593999997E+02  0.45594000000E+02  0.51100000000E-03 0.  1.
         11   -1    0    0    0    0 -0.00000000000E+00 -0.00000000000E+00 -0.45593999997E+02  0.45594000000E+02  0.51100000000E-03 0. -1.
    9900012    2    1    2    0    0  0.26669293241E+02  0.18178391211E+02 -0.29015812741E+02  0.47787279983E+02  0.20000040753E+02 0.  0.
        -12    1    1    2    0    0 -0.26669293241E+02 -0.18178391211E+02  0.29015812741E+02  0.43400720017E+02  0.00000000000E+00 0.  1.
         11    1    3    3    0    0  0.14065213945E+02  0.90169499621E+00 -0.14331601706E+02  0.20100699115E+02  0.51100000000E-03 0. -1.
        -11    1    3    3    0    0  0.45327897953E+01  0.11049031158E+02 -0.32694078686E+01  0.12382095983E+02  0.51100000000E-03 0.  1.
        -12    1    3    3    0    0  0.80712895012E+01  0.62276650573E+01 -0.11414803166E+02  0.15304484885E+02  0.00000000000E+00 0.  1.
</event>
<event>
 7    1  0.3062695E-010  0.4778727E+02  0.7816164E-02  0.1312668E+00
        -11   -1    0    0    0    0  0.00000000000E+00  0.00000000000E+00  0.45593999997E+02  0.45594000000E+02  0.51100000000E-03 0.  1.
         11   -1    0    0    0    0 -0.00000000000E+00 -0.00000000000E+00 -0.45593999997E+02  0.45594000000E+02  0.51100000000E-03 0. -1.
    9900012    2    1    2    0    0 -0.28421549689E+02 -0.29387538963E+02 -0.14567476046E+02  0.47787270843E+02  0.19999999081E+02 0.  0.
        -12    1    1    2    0    0  0.28421549689E+02  0.29387538963E+02  0.14567476046E+02  0.43400729157E+02  0.00000000000E+00 0.  1.
         11    1    3    3    0    0 -0.19489848815E+02 -0.16679504042E+02 -0.13183215845E+01  0.25686534098E+02  0.51100000000E-03 0. -1.
        -11    1    3    3    0    0 -0.87751880597E+01 -0.95581315351E+01 -0.13751986933E+02  0.18907113709E+02  0.51100000000E-03 0.  1.
         12    1    3    3    0    0 -0.15651281398E+00 -0.31499033857E+01  0.50283247160E+00  0.31936230358E+01  0.00000000000E+00 0. -1.
</event>
<event>
 7    1  0.3062695E-010  0.4778727E+02  0.7816164E-02  0.1312668E+00
        -11   -1    0    0    0    0  0.00000000000E+00  0.00000000000E+00  0.45593999997E+02  0.45594000000E+02  0.51100000000E-03 0.  1.
         11   -1    0    0    0    0 -0.00000000000E+00 -0.00000000000E+00 -0.45593999997E+02  0.45594000000E+02  0.51100000000E-03 0. -1.
    9900012    2    1    2    0    0  0.15984330376E+02 -0.18432537749E+02 -0.35893820163E+02  0.47787267387E+02  0.19999983324E+02 0.  0.
        -12    1    1    2    0    0 -0.15984330376E+02  0.18432537749E+02  0.35893820163E+02  0.43400732613E+02  0.00000000000E+00 0.  1.
         11    1    3    3    0    0  0.83417477929E+01 -0.30722692472E-01 -0.82362027295E+01  0.11722659075E+02  0.51100000000E-03 0. -1.
        -11    1    3    3    0    0 -0.67234878690E+00 -0.11610530386E+02 -0.18982131775E+02  0.22261576667E+02  0.51100000000E-03 0.  1.
        -12    1    3    3    0    0  0.83149313698E+01 -0.67912846714E+01 -0.86754856583E+01  0.13803031645E+02  0.00000000000E+00 0.  1.
</event>
<event>
 7    1  0.3062695E-010  0.4778727E+02  0.7816164E-02  0.1312668E+00
        -11   -1    0    0    0    0  0.00000000000E+00  0.00000000000E+00  0.45593999997E+02  0.45594000000E+02  0.51100000000E-03 0. -1.
         11   -1    0    0    0    0 -0.00000000000E+00 -0.00000000000E+00 -0.45593999997E+02  0.45594000000E+02  0.51100000000E-03 0.  1.
    9900012    2    1    2    0    0 -0.20710660386E+02 -0.37898102089E+02  0.42925348036E+01  0.47787269009E+02  0.19999990718E+02 0.  0.
        -12    1    1    2    0    0  0.20710660386E+02  0.37898102089E+02 -0.42925348036E+01  0.43400730991E+02  0.00000000000E+00 0.  1.
         11    1    3    3    0    0 -0.18574078018E+01 -0.12519636521E+02  0.73394742276E+01  0.14630760218E+02  0.51100000000E-03 0. -1.
        -11    1    3    3    0    0 -0.24710386354E+01 -0.53266417550E+01 -0.42292756741E+01  0.72364298734E+01  0.51100000000E-03 0.  1.
         12    1    3    3    0    0 -0.16382213949E+02 -0.20051823813E+02  0.11823362501E+01  0.25920078917E+02  0.00000000000E+00 0. -1.
</event>
<event>
 7    1  0.3062695E-010  0.4778727E+02  0.7816164E-02  0.1312668E+00
        -11   -1    0    0    0    0  0.00000000000E+00  0.00000000000E+00  0.45593999997E+02  0.45594000000E+02  0.51100000000E-03 0. -1.
         11   -1    0    0    0    0 -0.00000000000E+00 -0.00000000000E+00 -0.45593999997E+02  0.45594000000E+02  0.51100000000E-03 0.  1.
    9900012    2    1    2    0    0 -0.30244912968E+02  0.52682033748E+01  0.30677590139E+02  0.47787271158E+02  0.20000000518E+02 0.  0.
        -12    1    1    2    0    0  0.30244912968E+02 -0.52682033748E+01 -0.30677590139E+02  0.43400728842E+02  0.00000000000E+00 0.  1.
         11    1    3    3    0    0 -0.91987007675E+01 -0.15591489446E+01  0.35305601575E+00  0.93365780698E+01  0.51100000000E-03 0. -1.
        -11    1    3    3    0    0 -0.35286812039E+00  0.11660498289E+01 -0.10046194675E+00  0.12224078606E+01  0.51100000000E-03 0.  1.
         12    1    3    3    0    0 -0.20693344080E+02  0.56613024905E+01  0.30424996070E+02  0.37228285228E+02  0.00000000000E+00 0. -1.
</event>
<event>
 7    1  0.3062695E-010  0.4778728E+02  0.7816164E-02  0.1312668E+00
        -11   -1    0    0    0    0  0.00000000000E+00  0.00000000000E+00  0.45593999997E+02  0.45594000000E+02  0.51100000000E-03 0. -1.
         11   -1    0    0    0    0 -0.00000000000E+00 -0.00000000000E+00 -0.45593999997E+02  0.45594000000E+02  0.51100000000E-03 0.  1.
    9900012    2    1    2    0    0  0.36276687502E+01 -0.41462375670E+02  0.12301773370E+02  0.47787283360E+02  0.20000056153E+02 0.  0.
        -12    1    1    2    0    0 -0.36276687502E+01  0.41462375670E+02 -0.12301773370E+02  0.43400716640E+02  0.00000000000E+00 0.  1.
         11    1    3    3    0    0  0.64000018561E+01 -0.38327531531E+02  0.13385795903E+02  0.41099139033E+02  0.51100000000E-03 0. -1.
        -11    1    3    3    0    0 -0.79099763695E+00  0.11939370027E+01  0.71267697898E+00  0.15997098379E+01  0.51100000000E-03 0.  1.
         12    1    3    3    0    0 -0.19813354690E+01 -0.43287811421E+01 -0.17966995124E+01  0.50884344896E+01  0.00000000000E+00 0. -1.
</event>
<event>
 7    1  0.3062695E-010  0.4778727E+02  0.7816164E-02  0.1312668E+00
        -11   -1    0    0    0    0  0.00000000000E+00  0.00000000000E+00  0.45593999997E+02  0.45594000000E+02  0.51100000000E-03 0.  1.
         11   -1    0    0    0    0 -0.00000000000E+00 -0.00000000000E+00 -0.45593999997E+02  0.45594000000E+02  0.51100000000E-03 0. -1.
    9900012    2    1    2    0    0 -0.37037708843E+02  0.11125906298E+02 -0.19698882745E+02  0.47787266726E+02  0.19999980313E+02 0.  0.
        -12    1    1    2    0    0  0.37037708843E+02 -0.11125906298E+02  0.19698882745E+02  0.43400733274E+02  0.00000000000E+00 0.  1.
         11    1    3    3    0    0 -0.31796745070E+02  0.16517128699E+02 -0.15322560259E+02  0.38969595721E+02  0.51100000000E-03 0. -1.
        -11    1    3    3    0    0 -0.25373478490E+01 -0.34734207789E+01 -0.20292698596E+01  0.47561247290E+01  0.51100000000E-03 0.  1.
         12    1    3    3    0    0 -0.27036159243E+01 -0.19178016222E+01 -0.23470526263E+01  0.40615462768E+01  0.00000000000E+00 0. -1.
</event>
<event>
 7    1  0.3062695E-010  0.4778727E+02  0.7816164E-02  0.1312668E+00
        -11   -1    0    0    0    0  0.00000000000E+00  0.00000000000E+00  0.45593999997E+02  0.45594000000E+02  0.51100000000E-03 0. -1.
         11   -1    0    0    0    0 -0.00000000000E+00 -0.00000000000E+00 -0.45593999997E+02  0.45594000000E+02  0.51100000000E-03 0.  1.
    9900012    2    1    2    0    0  0.78625598659E+00 -0.28227213023E+02  0.32957996183E+02  0.47787271136E+02  0.20000000419E+02 0.  0.
        -12    1    1    2    0    0 -0.78625598659E+00  0.28227213023E+02 -0.32957996183E+02  0.43400728864E+02  0.00000000000E+00 0.  1.
         11    1    3    3    0    0  0.85754890720E+01 -0.99632563161E+01  0.90133297892E+01  0.15938808092E+02  0.51100000000E-03 0. -1.
        -11    1    3    3    0    0 -0.48178087108E+01 -0.35885362082E+01  0.62553857303E+01  0.86728728681E+01  0.51100000000E-03 0.  1.
         12    1    3    3    0    0 -0.29714243746E+01 -0.14675420499E+02  0.17689280663E+02  0.23175590176E+02  0.00000000000E+00 0. -1.
</event>
<event>
 7    1  0.3062695E-010  0.4778727E+02  0.7816164E-02  0.1312668E+00
        -11   -1    0    0    0    0  0.00000000000E+00  0.00000000000E+00  0.45593999997E+02  0.45594000000E+02  0.51100000000E-03 0.  1.
         11   -1    0    0    0    0 -0.00000000000E+00 -0.00000000000E+00 -0.45593999997E+02  0.45594000000E+02  0.51100000000E-03 0. -1.
    9900012    2    1    2    0    0  0.37273358482E+02 -0.11507615292E+02 -0.19023532538E+02  0.47787271291E+02  0.20000001125E+02 0.  0.
        -12    1    1    2    0    0 -0.37273358482E+02  0.11507615292E+02  0.19023532538E+02  0.43400728709E+02  0.00000000000E+00 0.  1.
         11    1    3    3    0    0  0.93961978852E+01  0.44340742310E+01 -0.15029708200E+01  0.10498022220E+02  0.51100000000E-03 0. -1.
        -11    1    3    3    0    0  0.19095848829E+02 -0.14140533495E+02 -0.14468229127E+02  0.27819701371E+02  0.51100000000E-03 0.  1.
         12    1    3    3    0    0  0.87813117679E+01 -0.18011560282E+01 -0.30523325909E+01  0.94695477004E+01  0.00000000000E+00 0. -1.
</event>
<event>
 7    1  0.3062695E-010  0.4778727E+02  0.7816164E-02  0.1312668E+00
        -11   -1    0    0    0    0  0.00000000000E+00  0.00000000000E+00  0.45593999997E+02  0.45594000000E+02  0.51100000000E-03 0.  1.
         11   -1    0    0    0    0 -0.00000000000E+00 -0.00000000000E+00 -0.45593999997E+02  0.45594000000E+02  0.51100000000E-03 0. -1.
    9900012    2    1    2    0    0  0.96289593465E+01 -0.32055908732E+02 -0.27628342088E+02  0.47787269254E+02  0.19999991837E+02 0.  0.
        -12    1    1    2    0    0 -0.96289593465E+01  0.32055908732E+02  0.27628342088E+02  0.43400730746E+02  0.00000000000E+00 0.  1.
         11    1    3    3    0    0  0.57970540100E+01 -0.16525344628E+02 -0.10679190718E+02  0.20511898130E+02  0.51100000000E-03 0. -1.
        -11    1    3    3    0    0  0.34608433811E+01  0.18210238275E+01 -0.42113582279E+01  0.57470951857E+01  0.51100000000E-03 0.  1.
        -12    1    3    3    0    0  0.37106195545E+00 -0.17351587932E+02 -0.12737793142E+02  0.21528275938E+02  0.00000000000E+00 0.  1.
</event>
<event>
 7    1  0.3062695E-010  0.4778727E+02  0.7816164E-02  0.1312668E+00
        -11   -1    0    0    0    0  0.00000000000E+00  0.00000000000E+00  0.45593999997E+02  0.45594000000E+02  0.51100000000E-03 0.  1.
         11   -1    0    0    0    0 -0.00000000000E+00 -0.00000000000E+00 -0.45593999997E+02  0.45594000000E+02  0.51100000000E-03 0. -1.
    9900012    2    1    2    0    0  0.25896240459E+02  0.11273842236E+02 -0.32953124903E+02  0.47787271555E+02  0.20000002327E+02 0.  0.
        -12    1    1    2    0    0 -0.25896240459E+02 -0.11273842236E+02  0.32953124903E+02  0.43400728445E+02  0.00000000000E+00 0.  1.
         11    1    3    3    0    0  0.71594164454E+01  0.24801101951E+01 -0.86757610793E+01  0.11518551167E+02  0.51100000000E-03 0. -1.
        -11    1    3    3    0    0  0.18994039724E+02  0.10738735681E+02 -0.25796873086E+02  0.33787166947E+02  0.51100000000E-03 0.  1.
        -12    1    3    3    0    0 -0.25721571001E+00 -0.19450036399E+01  0.15195092620E+01  0.24815534405E+01  0.00000000000E+00 0.  1.
</event>
<event>
 7    1  0.3062695E-010  0.4778727E+02  0.7816164E-02  0.1312668E+00
        -11   -1    0    0    0    0  0.00000000000E+00  0.00000000000E+00  0.45593999997E+02  0.45594000000E+02  0.51100000000E-03 0.  1.
         11   -1    0    0    0    0 -0.00000000000E+00 -0.00000000000E+00 -0.45593999997E+02  0.45594000000E+02  0.51100000000E-03 0. -1.
    9900012    2    1    2    0    0  0.14872239368E+02  0.21311428808E+01 -0.40717293442E+02  0.47787271215E+02  0.20000000777E+02 0.  0.
        -12    1    1    2    0    0 -0.14872239368E+02 -0.21311428808E+01  0.40717293442E+02  0.43400728785E+02  0.00000000000E+00 0.  1.
         11    1    3    3    0    0  0.63779305139E+01  0.67212075784E+01 -0.26396890550E+02  0.27975854945E+02  0.51100000000E-03 0. -1.
        -11    1    3    3    0    0  0.93033205779E+01 -0.35597492587E+01 -0.15243014669E+02  0.18209148388E+02  0.51100000000E-03 0.  1.
         12    1    3    3    0    0 -0.80901172341E+00 -0.10303154389E+01  0.92261177681E+00  0.16022678811E+01  0.00000000000E+00 0. -1.
</event>
<event>
 7    1  0.3062695E-010  0.4778727E+02  0.7816164E-02  0.1312668E+00
        -11   -1    0    0    0    0  0.00000000000E+00  0.00000000000E+00  0.45593999997E+02  0.45594000000E+02  0.51100000000E-03 0. -1.
         11   -1    0    0    0    0 -0.00000000000E+00 -0.00000000000E+00 -0.45593999997E+02  0.45594000000E+02  0.51100000000E-03 0.  1.
    9900012    2    1    2    0    0 -0.82083628711E+01  0.42441079613E+02  0.38731363894E+01  0.47787266766E+02  0.19999980494E+02 0.  0.
        -12    1    1    2    0    0  0.82083628711E+01 -0.42441079613E+02 -0.38731363894E+01  0.43400733234E+02  0.00000000000E+00 0.  1.
         11    1    3    3    0    0 -0.12289934898E+02  0.35377119709E+02  0.54105442811E+01  0.37839887531E+02  0.51100000000E-03 0. -1.
        -11    1    3    3    0    0  0.40991693678E+01  0.46409323940E+01  0.11832824068E+01  0.63040939481E+01  0.51100000000E-03 0.  1.
        -12    1    3    3    0    0 -0.17597340977E-01  0.24230275099E+01 -0.27206902985E+01  0.36432852867E+01  0.00000000000E+00 0.  1.
</event>
<event>
 7    1  0.3062695E-010  0.4778728E+02  0.7816164E-02  0.1312668E+00
        -11   -1    0    0    0    0  0.00000000000E+00  0.00000000000E+00  0.45593999997E+02  0.45594000000E+02  0.51100000000E-03 0.  1.
         11   -1    0    0    0    0 -0.00000000000E+00 -0.00000000000E+00 -0.45593999997E+02  0.45594000000E+02  0.51100000000E-03 0. -1.
    9900012    2    1    2    0    0  0.21610545431E+02  0.13702080342E+01 -0.37612892584E+02  0.47787276130E+02  0.20000023187E+02 0.  0.
        -12    1    1    2    0    0 -0.21610545431E+02 -0.13702080342E+01  0.37612892584E+02  0.43400723870E+02  0.00000000000E+00 0.  1.
         11    1    3    3    0    0  0.19875412353E+02 -0.26114856399E+01 -0.24994918464E+02  0.32040565269E+02  0.51100000000E-03 0. -1.
        -11    1    3    3    0    0 -0.95442521091E+00 -0.39995054982E+00 -0.98566716406E+01  0.99108457771E+01  0.51100000000E-03 0.  1.
         12    1    3    3    0    0  0.26895582889E+01  0.43816442239E+01 -0.27613024798E+01  0.58358650841E+01  0.00000000000E+00 0. -1.
</event>
<event>
 7    1  0.3062695E-010  0.4778727E+02  0.7816164E-02  0.1312668E+00
        -11   -1    0    0    0    0  0.00000000000E+00  0.00000000000E+00  0.45593999997E+02  0.45594000000E+02  0.51100000000E-03 0.  1.
         11   -1    0    0    0    0 -0.00000000000E+00 -0.00000000000E+00 -0.45593999997E+02  0.45594000000E+02  0.51100000000E-03 0. -1.
    9900012    2    1    2    0    0  0.17799420643E+02 -0.27483228435E+02 -0.28486414934E+02  0.47787273551E+02  0.20000011430E+02 0.  0.
        -12    1    1    2    0    0 -0.17799420643E+02  0.27483228435E+02  0.28486414934E+02  0.43400726449E+02  0.00000000000E+00 0.  1.
         11    1    3    3    0    0  0.10046509984E+02 -0.33744897408E+01 -0.88676248994E+01  0.13818622055E+02  0.51100000000E-03 0. -1.
        -11    1    3    3    0    0 -0.54239194688E+00 -0.98737934478E+01 -0.24797141910E+01  0.10194850112E+02  0.51100000000E-03 0.  1.
        -12    1    3    3    0    0  0.82953026055E+01 -0.14234945247E+02 -0.17139075844E+02  0.23773801385E+02  0.00000000000E+00 0.  1.
</event>
<event>
 7    1  0.3062695E-010  0.4778727E+02  0.7816164E-02  0.1312668E+00
        -11   -1    0    0    0    0  0.00000000000E+00  0.00000000000E+00  0.45593999997E+02  0.45594000000E+02  0.51100000000E-03 0.  1.
         11   -1    0    0    0    0 -0.00000000000E+00 -0.00000000000E+00 -0.45593999997E+02  0.45594000000E+02  0.51100000000E-03 0. -1.
    9900012    2    1    2    0    0  0.40681698586E+01 -0.32146916241E+02 -0.28872985887E+02  0.47787267935E+02  0.19999985821E+02 0.  0.
        -12    1    1    2    0    0 -0.40681698586E+01  0.32146916241E+02  0.28872985887E+02  0.43400732065E+02  0.00000000000E+00 0.  1.
         11    1    3    3    0    0 -0.25904175531E+01 -0.13163251548E+02 -0.17522647520E+02  0.22068634547E+02  0.51100000000E-03 0. -1.
        -11    1    3    3    0    0  0.75915882188E+01 -0.98517581916E+01 -0.19670488959E+01  0.12592006701E+02  0.51100000000E-03 0.  1.
        -12    1    3    3    0    0 -0.93300080704E+00 -0.91319065014E+01 -0.93832894714E+01  0.13126626686E+02  0.00000000000E+00 0.  1.
</event>
<event>
 7    1  0.3062695E-010  0.4778727E+02  0.7816164E-02  0.1312668E+00
        -11   -1    0    0    0    0  0.00000000000E+00  0.00000000000E+00  0.45593999997E+02  0.45594000000E+02  0.51100000000E-03 0.  1.
         11   -1    0    0    0    0 -0.00000000000E+00 -0.00000000000E+00 -0.45593999997E+02  0.45594000000E+02  0.51100000000E-03 0. -1.
    9900012    2    1    2    0    0  0.11538554285E+02 -0.26531012648E+02 -0.32351054819E+02  0.47787267114E+02  0.19999982080E+02 0.  0.
        -12    1    1    2    0    0 -0.11538554285E+02  0.26531012648E+02  0.32351054819E+02  0.43400732886E+02  0.00000000000E+00 0.  1.
         11    1    3    3    0    0  0.12929453720E+02 -0.90256814998E+01 -0.11067705352E+02  0.19264677574E+02  0.51100000000E-03 0. -1.
        -11    1    3    3    0    0  0.80224009183E+00 -0.34306301007E+01 -0.86728810046E+00  0.36283606441E+01  0.51100000000E-03 0.  1.
         12    1    3    3    0    0 -0.21931395264E+01 -0.14074701048E+02 -0.20416061367E+02  0.24894228896E+02  0.00000000000E+00 0. -1.
</event>
<event>
 7    1  0.3062695E-010  0.4778728E+02  0.7816164E-02  0.1312668E+00
        -11   -1    0    0    0    0  0.00000000000E+00  0.00000000000E+00  0.45593999997E+02  0.45594000000E+02  0.51100000000E-03 0. -1.
         11   -1    0    0    0    0 -0.00000000000E+00 -0.00000000000E+00 -0.45593999997E+02  0.45594000000E+02  0.51100000000E-03 0.  1.
    9900012    2    1    2    0    0  0.83738994316E+01 -0.15269117859E+02  0.39753671972E+02  0.47787278956E+02  0.20000036072E+02 0.  0.
        -12    1    1    2    0    0 -0.83738994316E+01  0.15269117859E+02 -0.39753671972E+02  0.43400721044E+02  0.00000000000E+00 0.  1.
         11    1    3    3    0    0  0.91048737733E+00  0.25435197743E+01  0.80550834487E+01  0.84960490660E+01  0.51100000000E-03 0. -1.
        -11    1    3    3    0    0  0.74980487085E+01 -0.19109998961E+02  0.24439834394E+02  0.31917366749E+02  0.51100000000E-03 0.  1.
        -12    1    3    3    0    0 -0.34636654172E-01  0.12973613274E+01  0.72587541291E+01  0.73738631408E+01  0.00000000000E+00 0.  1.
</event>
<event>
 7    1  0.3062695E-010  0.4778727E+02  0.7816164E-02  0.1312668E+00
        -11   -1    0    0    0    0  0.00000000000E+00  0.00000000000E+00  0.45593999997E+02  0.45594000000E+02  0.51100000000E-03 0.  1.
         11   -1    0    0    0    0 -0.00000000000E+00 -0.00000000000E+00 -0.45593999997E+02  0.45594000000E+02  0.51100000000E-03 0. -1.
    9900012    2    1    2    0    0 -0.11519329013E+02 -0.11209205561E+02 -0.40314789072E+02  0.47787269037E+02  0.19999990849E+02 0.  0.
        -12    1    1    2    0    0  0.11519329013E+02  0.11209205561E+02  0.40314789072E+02  0.43400730963E+02  0.00000000000E+00 0.  1.
         11    1    3    3    0    0  0.23976913526E+01 -0.58074015921E+01 -0.17588754609E+02  0.18677235503E+02  0.51100000000E-03 0. -1.
        -11    1    3    3    0    0 -0.98724089105E+01 -0.47522935420E+01 -0.73400664459E+01  0.13188075193E+02  0.51100000000E-03 0.  1.
         12    1    3    3    0    0 -0.40446114548E+01 -0.64951042651E+00 -0.15385968016E+02  0.15921958341E+02  0.00000000000E+00 0. -1.
</event>
<event>
 7    1  0.3062695E-010  0.4778727E+02  0.7816164E-02  0.1312668E+00
        -11   -1    0    0    0    0  0.00000000000E+00  0.00000000000E+00  0.45593999997E+02  0.45594000000E+02  0.51100000000E-03 0.  1.
         11   -1    0    0    0    0 -0.00000000000E+00 -0.00000000000E+00 -0.45593999997E+02  0.45594000000E+02  0.51100000000E-03 0. -1.
    9900012    2    1    2    0    0 -0.12611063485E+02  0.79596348429E+01 -0.40758169535E+02  0.47787273130E+02  0.20000009508E+02 0.  0.
        -12    1    1    2    0    0  0.12611063485E+02 -0.79596348429E+01  0.40758169535E+02  0.43400726870E+02  0.00000000000E+00 0.  1.
         11    1    3    3    0    0  0.36136297904E+01  0.36868325753E+01 -0.15584911499E+02  0.16417689283E+02  0.51100000000E-03 0. -1.
        -11    1    3    3    0    0 -0.89443572951E+01  0.31319646469E+01 -0.70687649410E+01  0.11822781738E+02  0.51100000000E-03 0.  1.
        -12    1    3    3    0    0 -0.72803359804E+01  0.11408376207E+01 -0.18104493094E+02  0.19546802109E+02  0.00000000000E+00 0.  1.
</event>
<event>
 7    1  0.3062695E-010  0.4778727E+02  0.7816164E-02  0.1312668E+00
        -11   -1    0    0    0    0  0.00000000000E+00  0.00000000000E+00  0.45593999997E+02  0.45594000000E+02  0.51100000000E-03 0.  1.
         11   -1    0    0    0    0 -0.00000000000E+00 -0.00000000000E+00 -0.45593999997E+02  0.45594000000E+02  0.51100000000E-03 0. -1.
    9900012    2    1    2    0    0 -0.37293691530E+02  0.21365877145E+02  0.60252110311E+01  0.47787270719E+02  0.19999998518E+02 0.  0.
        -12    1    1    2    0    0  0.37293691530E+02 -0.21365877145E+02 -0.60252110311E+01  0.43400729281E+02  0.00000000000E+00 0.  1.
         11    1    3    3    0    0 -0.23000025901E+02  0.11193332415E+02  0.82647752362E+01  0.26881190301E+02  0.51100000000E-03 0. -1.
        -11    1    3    3    0    0 -0.60268684375E+01  0.96440772442E+01 -0.46385873549E+01  0.12282013759E+02  0.51100000000E-03 0.  1.
         12    1    3    3    0    0 -0.82667971915E+01  0.52846748548E+00  0.23990231498E+01  0.86240666604E+01  0.00000000000E+00 0. -1.
</event>
<event>
 7    1  0.3062695E-010  0.4778728E+02  0.7816164E-02  0.1312668E+00
        -11   -1    0    0    0    0  0.00000000000E+00  0.00000000000E+00  0.45593999997E+02  0.45594000000E+02  0.51100000000E-03 0. -1.
         11   -1    0    0    0    0 -0.00000000000E+00 -0.00000000000E+00 -0.45593999997E+02  0.45594000000E+02  0.51100000000E-03 0.  1.
    9900012    2    1    2    0    0  0.35307509455E+02  0.22655858174E+02  0.11122682694E+02  0.47787283372E+02  0.20000056207E+02 0.  0.
        -12    1    1    2    0    0 -0.35307509455E+02 -0.22655858174E+02 -0.11122682694E+02  0.43400716628E+02  0.00000000000E+00 0.  1.
         11    1    3    3    0    0  0.89870995197E+01  0.13672730221E+02 -0.14660235001E+01  0.16427438468E+02  0.51100000000E-03 0.  1.
        -11    1    3    3    0    0  0.22608870673E+02  0.80194103690E+01  0.13345432920E+02  0.27451276034E+02  0.51100000000E-03 0. -1.
         12    1    3    3    0    0  0.37115392617E+01  0.96371758430E+00 -0.75672672631E+00  0.39085688700E+01  0.00000000000E+00 0. -1.
</event>
<event>
 7    1  0.3062695E-010  0.4778727E+02  0.7816164E-02  0.1312668E+00
        -11   -1    0    0    0    0  0.00000000000E+00  0.00000000000E+00  0.45593999997E+02  0.45594000000E+02  0.51100000000E-03 0.  1.
         11   -1    0    0    0    0 -0.00000000000E+00 -0.00000000000E+00 -0.45593999997E+02  0.45594000000E+02  0.51100000000E-03 0. -1.
    9900012    2    1    2    0    0 -0.26046508340E+02 -0.19519978177E+02  0.28708419693E+02  0.47787268370E+02  0.19999987805E+02 0.  0.
        -12    1    1    2    0    0  0.26046508340E+02  0.19519978177E+02 -0.28708419693E+02  0.43400731630E+02  0.00000000000E+00 0.  1.
         11    1    3    3    0    0 -0.14277285941E+02 -0.85925413636E+01  0.48474632630E+01  0.17354266371E+02  0.51100000000E-03 0. -1.
        -11    1    3    3    0    0 -0.11207575265E+02 -0.41886124740E+01  0.17104612525E+02  0.20873954769E+02  0.51100000000E-03 0.  1.
         12    1    3    3    0    0 -0.56164713414E+00 -0.67388243398E+01  0.67563439050E+01  0.95590472301E+01  0.00000000000E+00 0. -1.
</event>
<event>
 7    1  0.3062695E-010  0.4778727E+02  0.7816164E-02  0.1312668E+00
        -11   -1    0    0    0    0  0.00000000000E+00  0.00000000000E+00  0.45593999997E+02  0.45594000000E+02  0.51100000000E-03 0. -1.
         11   -1    0    0    0    0 -0.00000000000E+00 -0.00000000000E+00 -0.45593999997E+02  0.45594000000E+02  0.51100000000E-03 0.  1.
    9900012    2    1    2    0    0 -0.15902212868E+01 -0.26541997752E+02  0.34301844487E+02  0.47787274389E+02  0.20000015247E+02 0.  0.
        -12    1    1    2    0    0  0.15902212868E+01  0.26541997752E+02 -0.34301844487E+02  0.43400725611E+02  0.00000000000E+00 0.  1.
         11    1    3    3    0    0 -0.28193990403E+01 -0.12281897474E+02  0.16006501819E+02  0.20371600753E+02  0.51100000000E-03 0. -1.
        -11    1    3    3    0    0  0.67217792959E+01 -0.21168833321E+01  0.54915793259E+01  0.89342574229E+01  0.51100000000E-03 0.  1.
        -12    1    3    3    0    0 -0.54926015423E+01 -0.12143216946E+02  0.12803763342E+02  0.18481416212E+02  0.00000000000E+00 0.  1.
</event>
<event>
 7    1  0.3062695E-010  0.4778727E+02  0.7816164E-02  0.1312668E+00
        -11   -1    0    0    0    0  0.00000000000E+00  0.00000000000E+00  0.45593999997E+02  0.45594000000E+02  0.51100000000E-03 0. -1.
         11   -1    0    0    0    0 -0.00000000000E+00 -0.00000000000E+00 -0.45593999997E+02  0.45594000000E+02  0.51100000000E-03 0.  1.
    9900012    2    1    2    0    0 -0.25441061034E+02  0.90662084067E+01  0.33973216012E+02  0.47787272729E+02  0.20000007682E+02 0.  0.
        -12    1    1    2    0    0  0.25441061034E+02 -0.90662084067E+01 -0.33973216012E+02  0.43400727271E+02  0.00000000000E+00 0.  1.
         11    1    3    3    0    0 -0.21850064931E+02  0.38830648807E+01  0.30293867043E+02  0.37552921471E+02  0.51100000000E-03 0. -1.
        -11    1    3    3    0    0 -0.32532955400E+01  0.19984976075E+01 -0.15349758633E+01  0.41151033668E+01  0.51100000000E-03 0.  1.
        -12    1    3    3    0    0 -0.33770056360E+00  0.31846459185E+01  0.52143248326E+01  0.61192478914E+01  0.00000000000E+00 0.  1.
</event>
<event>
 7    1  0.3062695E-010  0.4778727E+02  0.7816164E-02  0.1312668E+00
        -11   -1    0    0    0    0  0.00000000000E+00  0.00000000000E+00  0.45593999997E+02  0.45594000000E+02  0.51100000000E-03 0.  1.
         11   -1    0    0    0    0 -0.00000000000E+00 -0.00000000000E+00 -0.45593999997E+02  0.45594000000E+02  0.51100000000E-03 0. -1.
    9900012    2    1    2    0    0  0.38057311779E+01 -0.42900758771E+02  0.53539608863E+01  0.47787267401E+02  0.19999983388E+02 0.  0.
        -12    1    1    2    0    0 -0.38057311779E+01  0.42900758771E+02 -0.53539608863E+01  0.43400732599E+02  0.00000000000E+00 0.  1.
         11    1    3    3    0    0 -0.50916718447E+01 -0.67882274476E+01 -0.10345247554E+01  0.85484148113E+01  0.51100000000E-03 0. -1.
        -11    1    3    3    0    0  0.76145297246E+01 -0.17835568928E+02 -0.11491281232E+01  0.19427019267E+02  0.51100000000E-03 0.  1.
        -12    1    3    3    0    0  0.12828732979E+01 -0.18276962396E+02  0.75376137649E+01  0.19811833323E+02  0.00000000000E+00 0.  1.
</event>
<event>
 7    1  0.3062695E-010  0.4778728E+02  0.7816164E-02  0.1312668E+00
        -11   -1    0    0    0    0  0.00000000000E+00  0.00000000000E+00  0.45593999997E+02  0.45594000000E+02  0.51100000000E-03 0.  1.
         11   -1    0    0    0    0 -0.00000000000E+00 -0.00000000000E+00 -0.45593999997E+02  0.45594000000E+02  0.51100000000E-03 0. -1.
    9900012    2    1    2    0    0 -0.37324418398E+02 -0.16378132540E+02 -0.14908609310E+02  0.47787284962E+02  0.20000063456E+02 0.  0.
        -12    1    1    2    0    0  0.37324418398E+02  0.16378132540E+02  0.14908609310E+02  0.43400715038E+02  0.00000000000E+00 0.  1.
         11    1    3    3    0    0 -0.55973854522E+01 -0.48276824794E+01 -0.69599666283E+01  0.10152752225E+02  0.51100000000E-03 0. -1.
        -11    1    3    3    0    0 -0.17206049966E+02 -0.52721375574E-01  0.64064799281E+00  0.17218053464E+02  0.51100000000E-03 0.  1.
        -12    1    3    3    0    0 -0.14520982980E+02 -0.11497728685E+02 -0.85892906745E+01  0.20416479273E+02  0.00000000000E+00 0.  1.
</event>
<event>
 7    1  0.3062695E-010  0.4778727E+02  0.7816164E-02  0.1312668E+00
        -11   -1    0    0    0    0  0.00000000000E+00  0.00000000000E+00  0.45593999997E+02  0.45594000000E+02  0.51100000000E-03 0.  1.
         11   -1    0    0    0    0 -0.00000000000E+00 -0.00000000000E+00 -0.45593999997E+02  0.45594000000E+02  0.51100000000E-03 0. -1.
    9900012    2    1    2    0    0  0.30075030396E+02  0.24182090323E+02 -0.19858053853E+02  0.47787271336E+02  0.20000001331E+02 0.  0.
        -12    1    1    2    0    0 -0.30075030396E+02 -0.24182090323E+02  0.19858053853E+02  0.43400728664E+02  0.00000000000E+00 0.  1.
         11    1    3    3    0    0  0.27673004555E+01  0.40709218815E+01  0.18806062267E+01  0.52694436915E+01  0.51100000000E-03 0. -1.
        -11    1    3    3    0    0  0.11179265886E+02  0.39491492223E+01 -0.13974409740E+01  0.11938367010E+02  0.51100000000E-03 0.  1.
         12    1    3    3    0    0  0.16128464055E+02  0.16162019219E+02 -0.20341219106E+02  0.30579460635E+02  0.00000000000E+00 0. -1.
</event>
<event>
 7    1  0.3062695E-010  0.4778725E+02  0.7816164E-02  0.1312668E+00
        -11   -1    0    0    0    0  0.00000000000E+00  0.00000000000E+00  0.45593999997E+02  0.45594000000E+02  0.51100000000E-03 0.  1.
         11   -1    0    0    0    0 -0.00000000000E+00 -0.00000000000E+00 -0.45593999997E+02  0.45594000000E+02  0.51100000000E-03 0. -1.
    9900012    2    1    2    0    0 -0.40441767272E+02 -0.15359660854E+02 -0.34884747828E+01  0.47787249108E+02  0.19999899984E+02 0.  0.
        -12    1    1    2    0    0  0.40441767272E+02  0.15359660854E+02  0.34884747828E+01  0.43400750892E+02  0.00000000000E+00 0.  1.
         11    1    3    3    0    0 -0.29568210974E+02 -0.18543152560E+02 -0.25068223296E+01  0.34991595641E+02  0.51100000000E-03 0. -1.
        -11    1    3    3    0    0 -0.28353146546E+01  0.13059706673E+01  0.23363983891E+01  0.38991442994E+01  0.51100000000E-03 0.  1.
         12    1    3    3    0    0 -0.80382416437E+01  0.18775210389E+01 -0.33180508423E+01  0.88965091675E+01  0.00000000000E+00 0. -1.
</event>
<event>
 7    1  0.3062695E-010  0.4778726E+02  0.7816164E-02  0.1312668E+00
        -11   -1    0    0    0    0  0.00000000000E+00  0.00000000000E+00  0.45593999997E+02  0.45594000000E+02  0.51100000000E-03 0.  1.
         11   -1    0    0    0    0 -0.00000000000E+00 -0.00000000000E+00 -0.45593999997E+02  0.45594000000E+02  0.51100000000E-03 0. -1.
    9900012    2    1    2    0    0  0.32103411662E+02  0.28191581954E+02 -0.76308239743E+01  0.47787264892E+02  0.19999971948E+02 0.  0.
        -12    1    1    2    0    0 -0.32103411662E+02 -0.28191581954E+02  0.76308239743E+01  0.43400735108E+02  0.00000000000E+00 0.  1.
         11    1    3    3    0    0  0.44516569149E+00  0.77575374810E+01 -0.39223600652E+01  0.87041638888E+01  0.51100000000E-03 0. -1.
        -11    1    3    3    0    0  0.11431738958E+02  0.22577887873E+01 -0.21148138340E+01  0.11842917868E+02  0.51100000000E-03 0.  1.
         12    1    3    3    0    0  0.20226507012E+02  0.18176255685E+02 -0.15936500751E+01  0.27240183135E+02  0.00000000000E+00 0. -1.
</event>
<event>
 7    1  0.3062695E-010  0.4778726E+02  0.7816164E-02  0.1312668E+00
        -11   -1    0    0    0    0  0.00000000000E+00  0.00000000000E+00  0.45593999997E+02  0.45594000000E+02  0.51100000000E-03 0. -1.
         11   -1    0    0    0    0 -0.00000000000E+00 -0.00000000000E+00 -0.45593999997E+02  0.45594000000E+02  0.51100000000E-03 0.  1.
    9900012    2    1    2    0    0  0.35956110781E+02 -0.96034613937E+01  0.22328362022E+02  0.47787261252E+02  0.19999955352E+02 0.  0.
        -12    1    1    2    0    0 -0.35956110781E+02  0.96034613937E+01 -0.22328362022E+02  0.43400738748E+02  0.00000000000E+00 0.  1.
         11    1    3    3    0    0  0.11203505833E+02 -0.64678753838E+00  0.15075078116E+02  0.18793479122E+02  0.51100000000E-03 0. -1.
        -11    1    3    3    0    0  0.17604917860E+02 -0.10745487441E+02  0.62897523480E+01  0.21562922299E+02  0.51100000000E-03 0.  1.
         12    1    3    3    0    0  0.71476870887E+01  0.17888135854E+01  0.96353155831E+00  0.74308598308E+01  0.00000000000E+00 0. -1.
</event>
<event>
 7    1  0.3062695E-010  0.4778727E+02  0.7816164E-02  0.1312668E+00
        -11   -1    0    0    0    0  0.00000000000E+00  0.00000000000E+00  0.45593999997E+02  0.45594000000E+02  0.51100000000E-03 0.  1.
         11   -1    0    0    0    0 -0.00000000000E+00 -0.00000000000E+00 -0.45593999997E+02  0.45594000000E+02  0.51100000000E-03 0. -1.
    9900012    2    1    2    0    0 -0.27093942766E+02  0.25889574689E+02 -0.21892268380E+02  0.47787271585E+02  0.20000002463E+02 0.  0.
        -12    1    1    2    0    0  0.27093942766E+02 -0.25889574689E+02  0.21892268380E+02  0.43400728415E+02  0.00000000000E+00 0.  1.
         11    1    3    3    0    0 -0.11962785575E+02  0.11991085259E+01 -0.70046618626E+01  0.13914430928E+02  0.51100000000E-03 0. -1.
        -11    1    3    3    0    0 -0.37308540367E+01  0.11627493258E+01 -0.38766738478E+01  0.55045306994E+01  0.51100000000E-03 0.  1.
         12    1    3    3    0    0 -0.11400303154E+02  0.23527716837E+02 -0.11010932670E+02  0.28368309957E+02  0.00000000000E+00 0. -1.
</event>
<event>
 7    1  0.3062695E-010  0.4778727E+02  0.7816164E-02  0.1312668E+00
        -11   -1    0    0    0    0  0.00000000000E+00  0.00000000000E+00  0.45593999997E+02  0.45594000000E+02  0.51100000000E-03 0.  1.
         11   -1    0    0    0    0 -0.00000000000E+00 -0.00000000000E+00 -0.45593999997E+02  0.45594000000E+02  0.51100000000E-03 0. -1.
    9900012    2    1    2    0    0 -0.78923544195E+01  0.38852703639E+02 -0.17657891001E+02  0.47787274741E+02  0.20000016855E+02 0.  0.
        -12    1    1    2    0    0  0.78923544195E+01 -0.38852703639E+02  0.17657891001E+02  0.43400725259E+02  0.00000000000E+00 0.  1.
         11    1    3    3    0    0 -0.50073566930E+01  0.10431825880E+02 -0.14376418575E+02  0.18454756123E+02  0.51100000000E-03 0. -1.
        -11    1    3    3    0    0 -0.86995911360E+00  0.17834016957E+02  0.63367825193E+00  0.17866464062E+02  0.51100000000E-03 0.  1.
         12    1    3    3    0    0 -0.20150386130E+01  0.10586860802E+02 -0.39151506782E+01  0.11466054557E+02  0.00000000000E+00 0. -1.
</event>
<event>
 7    1  0.3062695E-010  0.4778724E+02  0.7816164E-02  0.1312668E+00
        -11   -1    0    0    0    0  0.00000000000E+00  0.00000000000E+00  0.45593999997E+02  0.45594000000E+02  0.51100000000E-03 0.  1.
         11   -1    0    0    0    0 -0.00000000000E+00 -0.00000000000E+00 -0.45593999997E+02  0.45594000000E+02  0.51100000000E-03 0. -1.
    9900012    2    1    2    0    0  0.34050614053E+02  0.36308679640E+01 -0.26664550992E+02  0.47787241952E+02  0.19999867354E+02 0.  0.
        -12    1    1    2    0    0 -0.34050614053E+02 -0.36308679640E+01  0.26664550992E+02  0.43400758048E+02  0.00000000000E+00 0.  1.
         11    1    3    3    0    0  0.16010888189E+02  0.78889357124E+01 -0.19062305311E+02  0.26114274474E+02  0.51100000000E-03 0. -1.
        -11    1    3    3    0    0  0.17919849540E+02 -0.57336460501E+01 -0.70012596741E+01  0.20075192200E+02  0.51100000000E-03 0.  1.
        -12    1    3    3    0    0  0.11987632346E+00  0.14755783017E+01 -0.60098600697E+00  0.15977752776E+01  0.00000000000E+00 0.  1.
</event>
<event>
 7    1  0.3062695E-010  0.4778727E+02  0.7816164E-02  0.1312668E+00
        -11   -1    0    0    0    0  0.00000000000E+00  0.00000000000E+00  0.45593999997E+02  0.45594000000E+02  0.51100000000E-03 0.  1.
         11   -1    0    0    0    0 -0.00000000000E+00 -0.00000000000E+00 -0.45593999997E+02  0.45594000000E+02  0.51100000000E-03 0. -1.
    9900012    2    1    2    0    0 -0.29414516632E+02  0.19684982657E+02 -0.25117945931E+02  0.47787267994E+02  0.19999986090E+02 0.  0.
        -12    1    1    2    0    0  0.29414516632E+02 -0.19684982657E+02  0.25117945931E+02  0.43400732006E+02  0.00000000000E+00 0.  1.
         11    1    3    3    0    0 -0.15597388909E+02  0.17062705666E+01 -0.11979344719E+02  0.19740683884E+02  0.51100000000E-03 0. -1.
        -11    1    3    3    0    0 -0.14266847664E+02  0.18323532233E+02 -0.10747290015E+02  0.25589040988E+02  0.51100000000E-03 0.  1.
        -12    1    3    3    0    0  0.44971994181E+00 -0.34482014178E+00 -0.23913111969E+01  0.24575431221E+01  0.00000000000E+00 0.  1.
</event>
<event>
 7    1  0.3062695E-010  0.4778727E+02  0.7816164E-02  0.1312668E+00
        -11   -1    0    0    0    0  0.00000000000E+00  0.00000000000E+00  0.45593999997E+02  0.45594000000E+02  0.51100000000E-03 0. -1.
         11   -1    0    0    0    0 -0.00000000000E+00 -0.00000000000E+00 -0.45593999997E+02  0.45594000000E+02  0.51100000000E-03 0.  1.
    9900012    2    1    2    0    0 -0.12600310204E+02  0.21959347579E+02  0.35251133815E+02  0.47787271912E+02  0.20000003955E+02 0.  0.
        -12    1    1    2    0    0  0.12600310204E+02 -0.21959347579E+02 -0.35251133815E+02  0.43400728088E+02  0.00000000000E+00 0.  1.
         11    1    3    3    0    0 -0.14743287386E+02  0.12201183902E+02  0.23279455929E+02  0.30135800639E+02  0.51100000000E-03 0. -1.
        -11    1    3    3    0    0 -0.96820806060E+00 -0.11831084327E+01  0.88053308630E+00  0.17642310476E+01  0.51100000000E-03 0.  1.
         12    1    3    3    0    0  0.31111852432E+01  0.10941272110E+02  0.11091144800E+02  0.15887240225E+02  0.00000000000E+00 0. -1.
</event>
<event>
 7    1  0.3062695E-010  0.4778727E+02  0.7816164E-02  0.1312668E+00
        -11   -1    0    0    0    0  0.00000000000E+00  0.00000000000E+00  0.45593999997E+02  0.45594000000E+02  0.51100000000E-03 0.  1.
         11   -1    0    0    0    0 -0.00000000000E+00 -0.00000000000E+00 -0.45593999997E+02  0.45594000000E+02  0.51100000000E-03 0. -1.
    9900012    2    1    2    0    0 -0.27029797531E+02 -0.97786885951E+01 -0.32517542220E+02  0.47787271236E+02  0.20000000873E+02 0.  0.
        -12    1    1    2    0    0  0.27029797531E+02  0.97786885951E+01  0.32517542220E+02  0.43400728764E+02  0.00000000000E+00 0.  1.
         11    1    3    3    0    0 -0.25128359807E+02 -0.99872167212E+01 -0.17400327037E+02  0.32155098284E+02  0.51100000000E-03 0.  1.
        -11    1    3    3    0    0 -0.24777226960E+01  0.25619101225E+00 -0.14723235429E+02  0.14932461463E+02  0.51100000000E-03 0. -1.
        -12    1    3    3    0    0  0.57628497216E+00 -0.47662886172E-01 -0.39397975443E+00  0.69971148823E+00  0.00000000000E+00 0.  1.
</event>
<event>
 7    1  0.3062695E-010  0.4778727E+02  0.7816164E-02  0.1312668E+00
        -11   -1    0    0    0    0  0.00000000000E+00  0.00000000000E+00  0.45593999997E+02  0.45594000000E+02  0.51100000000E-03 0.  1.
         11   -1    0    0    0    0 -0.00000000000E+00 -0.00000000000E+00 -0.45593999997E+02  0.45594000000E+02  0.51100000000E-03 0. -1.
    9900012    2    1    2    0    0  0.16850565448E+02  0.39816284424E+02 -0.37875040710E+01  0.47787271338E+02  0.20000001339E+02 0.  0.
        -12    1    1    2    0    0 -0.16850565448E+02 -0.39816284424E+02  0.37875040710E+01  0.43400728662E+02  0.00000000000E+00 0.  1.
         11    1    3    3    0    0  0.14498190398E+02  0.15946128335E+02 -0.39188747295E+01  0.21905116140E+02  0.51100000000E-03 0.  1.
        -11    1    3    3    0    0 -0.20489516901E+01  0.19483711264E+02  0.95217834063E+00  0.19614276727E+02  0.51100000000E-03 0. -1.
         12    1    3    3    0    0  0.44013267406E+01  0.43864448254E+01 -0.82080768213E+00  0.62678784716E+01  0.00000000000E+00 0. -1.
</event>
<event>
 7    1  0.3062695E-010  0.4778727E+02  0.7816164E-02  0.1312668E+00
        -11   -1    0    0    0    0  0.00000000000E+00  0.00000000000E+00  0.45593999997E+02  0.45594000000E+02  0.51100000000E-03 0. -1.
         11   -1    0    0    0    0 -0.00000000000E+00 -0.00000000000E+00 -0.45593999997E+02  0.45594000000E+02  0.51100000000E-03 0.  1.
    9900012    2    1    2    0    0  0.45431966925E+01  0.10182833425E+02  0.41943922779E+02  0.47787269697E+02  0.19999993856E+02 0.  0.
        -12    1    1    2    0    0 -0.45431966925E+01 -0.10182833425E+02 -0.41943922779E+02  0.43400730303E+02  0.00000000000E+00 0.  1.
         11    1    3    3    0    0  0.24637254682E+01  0.11877169857E+02  0.21712413092E+02  0.24870986903E+02  0.51100000000E-03 0. -1.
        -11    1    3    3    0    0  0.53740764425E+01 -0.28573976260E+01  0.17352721371E+02  0.18389191338E+02  0.51100000000E-03 0.  1.
        -12    1    3    3    0    0 -0.32946052182E+01  0.11630611935E+01  0.28787883159E+01  0.45270914560E+01  0.00000000000E+00 0.  1.
</event>
<event>
 7    1  0.3062695E-010  0.4778727E+02  0.7816164E-02  0.1312668E+00
        -11   -1    0    0    0    0  0.00000000000E+00  0.00000000000E+00  0.45593999997E+02  0.45594000000E+02  0.51100000000E-03 0. -1.
         11   -1    0    0    0    0 -0.00000000000E+00 -0.00000000000E+00 -0.45593999997E+02  0.45594000000E+02  0.51100000000E-03 0.  1.
    9900012    2    1    2    0    0 -0.26006206857E+02  0.19734669995E+02  0.28597958704E+02  0.47787271470E+02  0.20000001939E+02 0.  0.
        -12    1    1    2    0    0  0.26006206857E+02 -0.19734669995E+02 -0.28597958704E+02  0.43400728530E+02  0.00000000000E+00 0.  1.
         11    1    3    3    0    0  0.28272918682E+01  0.46677793267E+01  0.42584902148E+01  0.69221732368E+01  0.51100000000E-03 0. -1.
        -11    1    3    3    0    0 -0.54193015552E+00  0.76368117342E+00  0.67930613918E-01  0.93888873543E+00  0.51100000000E-03 0.  1.
         12    1    3    3    0    0 -0.28291568569E+02  0.14303209495E+02  0.24271537876E+02  0.39926209497E+02  0.00000000000E+00 0. -1.
</event>
<event>
 7    1  0.3062695E-010  0.4778727E+02  0.7816164E-02  0.1312668E+00
        -11   -1    0    0    0    0  0.00000000000E+00  0.00000000000E+00  0.45593999997E+02  0.45594000000E+02  0.51100000000E-03 0.  1.
         11   -1    0    0    0    0 -0.00000000000E+00 -0.00000000000E+00 -0.45593999997E+02  0.45594000000E+02  0.51100000000E-03 0. -1.
    9900012    2    1    2    0    0 -0.41813878191E+02  0.52733747638E+01 -0.10364114178E+02  0.47787265520E+02  0.19999974810E+02 0.  0.
        -12    1    1    2    0    0  0.41813878191E+02 -0.52733747638E+01  0.10364114178E+02  0.43400734480E+02  0.00000000000E+00 0.  1.
         11    1    3    3    0    0 -0.17634609395E+02  0.85742188427E+01  0.29396940507E+01  0.19827719956E+02  0.51100000000E-03 0. -1.
        -11    1    3    3    0    0 -0.79446924207E+01 -0.25165755910E+01 -0.47577462484E+01  0.95962200886E+01  0.51100000000E-03 0.  1.
         12    1    3    3    0    0 -0.16234576375E+02 -0.78426848782E+00 -0.85460619803E+01  0.18363325475E+02  0.00000000000E+00 0. -1.
</event>
<event>
 7    1  0.3062695E-010  0.4778729E+02  0.7816164E-02  0.1312668E+00
        -11   -1    0    0    0    0  0.00000000000E+00  0.00000000000E+00  0.45593999997E+02  0.45594000000E+02  0.51100000000E-03 0.  1.
         11   -1    0    0    0    0 -0.00000000000E+00 -0.00000000000E+00 -0.45593999997E+02  0.45594000000E+02  0.51100000000E-03 0. -1.
    9900012    2    1    2    0    0  0.32456363623E+02 -0.16796844727E+02 -0.23410934786E+02  0.47787292632E+02  0.20000098428E+02 0.  0.
        -12    1    1    2    0    0 -0.32456363623E+02  0.16796844727E+02  0.23410934786E+02  0.43400707368E+02  0.00000000000E+00 0.  1.
         11    1    3    3    0    0  0.18749495518E+01 -0.31260062100E+01 -0.93115533234E+01  0.99996188029E+01  0.51100000000E-03 0. -1.
        -11    1    3    3    0    0  0.23379217789E+02 -0.58630467986E+01 -0.12133834574E+02  0.26985052972E+02  0.51100000000E-03 0.  1.
        -12    1    3    3    0    0  0.72021962828E+01 -0.78077917184E+01 -0.19655468890E+01  0.10802620857E+02  0.00000000000E+00 0.  1.
</event>
<event>
 7    1  0.3062695E-010  0.4778728E+02  0.7816164E-02  0.1312668E+00
        -11   -1    0    0    0    0  0.00000000000E+00  0.00000000000E+00  0.45593999997E+02  0.45594000000E+02  0.51100000000E-03 0.  1.
         11   -1    0    0    0    0 -0.00000000000E+00 -0.00000000000E+00 -0.45593999997E+02  0.45594000000E+02  0.51100000000E-03 0. -1.
    9900012    2    1    2    0    0  0.96498489186E+01 -0.16774575921E+02 -0.38847343933E+02  0.47787284428E+02  0.20000061023E+02 0.  0.
        -12    1    1    2    0    0 -0.96498489186E+01  0.16774575921E+02  0.38847343933E+02  0.43400715572E+02  0.00000000000E+00 0.  1.
         11    1    3    3    0    0  0.36945865115E+01 -0.27295239211E+01 -0.98187808366E-01  0.45945523649E+01  0.51100000000E-03 0. -1.
        -11    1    3    3    0    0  0.85707714042E+01 -0.77576282837E+01 -0.29677691640E+02  0.31849714291E+02  0.51100000000E-03 0.  1.
        -12    1    3    3    0    0 -0.26155089971E+01 -0.62874237161E+01 -0.90714644843E+01  0.11343017773E+02  0.00000000000E+00 0.  1.
</event>
<event>
 7    1  0.3062695E-010  0.4778727E+02  0.7816164E-02  0.1312668E+00
        -11   -1    0    0    0    0  0.00000000000E+00  0.00000000000E+00  0.45593999997E+02  0.45594000000E+02  0.51100000000E-03 0. -1.
         11   -1    0    0    0    0 -0.00000000000E+00 -0.00000000000E+00 -0.45593999997E+02  0.45594000000E+02  0.51100000000E-03 0.  1.
    9900012    2    1    2    0    0  0.92335522646E+01 -0.22455183606E+02  0.35974009285E+02  0.47787273021E+02  0.20000009013E+02 0.  0.
        -12    1    1    2    0    0 -0.92335522646E+01  0.22455183606E+02 -0.35974009285E+02  0.43400726979E+02  0.00000000000E+00 0.  1.
         11    1    3    3    0    0  0.16102096294E+01 -0.88805169460E+01  0.84974788854E+01  0.12396108419E+02  0.51100000000E-03 0. -1.
        -11    1    3    3    0    0 -0.19522467535E+01 -0.12199379858E+02  0.18133279117E+02  0.21942013310E+02  0.51100000000E-03 0.  1.
        -12    1    3    3    0    0  0.95755893886E+01 -0.13752868028E+01  0.93432512828E+01  0.13449151292E+02  0.00000000000E+00 0.  1.
</event>
<event>
 7    1  0.6955109E-010  0.4778727E+02  0.7816164E-02  0.1312668E+00
        -11   -1    0    0    0    0  0.00000000000E+00  0.00000000000E+00  0.45593999997E+02  0.45594000000E+02  0.51100000000E-03 0. -1.
         11   -1    0    0    0    0 -0.00000000000E+00 -0.00000000000E+00 -0.45593999997E+02  0.45594000000E+02  0.51100000000E-03 0.  1.
    9900012    2    1    2    0    0  0.42687591358E+02 -0.30521322133E+01 -0.72164419749E+01  0.47787274179E+02  0.20000014292E+02 0.  0.
        -12    1    1    2    0    0 -0.42687591358E+02  0.30521322133E+01  0.72164419749E+01  0.43400725821E+02  0.00000000000E+00 0.  1.
         11    1    3    3    0    0  0.23712310969E+02 -0.87329583800E+00 -0.62786461243E+01  0.24545014454E+02  0.51100000000E-03 0. -1.
        -11    1    3    3    0    0  0.71531700901E+01  0.47535636329E+01  0.28059600935E+01  0.90353539974E+01  0.51100000000E-03 0.  1.
        -12    1    3    3    0    0  0.11822110299E+02 -0.69324000082E+01 -0.37437559441E+01  0.14206905728E+02  0.00000000000E+00 0.  1.
</event>
<event>
 7    1  0.3062695E-010  0.4778727E+02  0.7816164E-02  0.1312668E+00
        -11   -1    0    0    0    0  0.00000000000E+00  0.00000000000E+00  0.45593999997E+02  0.45594000000E+02  0.51100000000E-03 0.  1.
         11   -1    0    0    0    0 -0.00000000000E+00 -0.00000000000E+00 -0.45593999997E+02  0.45594000000E+02  0.51100000000E-03 0. -1.
    9900012    2    1    2    0    0 -0.16665198465E+02  0.16222691544E+02 -0.36643128457E+02  0.47787269316E+02  0.19999992118E+02 0.  0.
        -12    1    1    2    0    0  0.16665198465E+02 -0.16222691544E+02  0.36643128457E+02  0.43400730684E+02  0.00000000000E+00 0.  1.
         11    1    3    3    0    0 -0.43086911460E+01  0.87759799501E+01 -0.13579198979E+02  0.16732521885E+02  0.51100000000E-03 0. -1.
        -11    1    3    3    0    0  0.17366946910E+01 -0.26293297666E+01 -0.18083077238E+01  0.36331061857E+01  0.51100000000E-03 0.  1.
        -12    1    3    3    0    0 -0.14093202010E+02  0.10076041361E+02 -0.21255621754E+02  0.27421641245E+02  0.00000000000E+00 0.  1.
</event>
<event>
 7    1  0.3062695E-010  0.4778728E+02  0.7816164E-02  0.1312668E+00
        -11   -1    0    0    0    0  0.00000000000E+00  0.00000000000E+00  0.45593999997E+02  0.45594000000E+02  0.51100000000E-03 0. -1.
         11   -1    0    0    0    0 -0.00000000000E+00 -0.00000000000E+00 -0.45593999997E+02  0.45594000000E+02  0.51100000000E-03 0.  1.
    9900012    2    1    2    0    0 -0.12472436291E+02 -0.28542568001E+02  0.30222225346E+02  0.47787276964E+02  0.20000026991E+02 0.  0.
        -12    1    1    2    0    0  0.12472436291E+02  0.28542568001E+02 -0.30222225346E+02  0.43400723036E+02  0.00000000000E+00 0.  1.
         11    1    3    3    0    0 -0.97634638057E+01 -0.69857594555E+01  0.26341334340E+01  0.12290838859E+02  0.51100000000E-03 0. -1.
        -11    1    3    3    0    0  0.11127380079E+01 -0.10721064265E+02  0.14732558982E+02  0.18254525447E+02  0.51100000000E-03 0.  1.
         12    1    3    3    0    0 -0.38217104937E+01 -0.10835744280E+02  0.12855532930E+02  0.17241912658E+02  0.00000000000E+00 0. -1.
</event>
<event>
 7    1  0.3062695E-010  0.4778727E+02  0.7816164E-02  0.1312668E+00
        -11   -1    0    0    0    0  0.00000000000E+00  0.00000000000E+00  0.45593999997E+02  0.45594000000E+02  0.51100000000E-03 0. -1.
         11   -1    0    0    0    0 -0.00000000000E+00 -0.00000000000E+00 -0.45593999997E+02  0.45594000000E+02  0.51100000000E-03 0.  1.
    9900012    2    1    2    0    0  0.21484525428E+02 -0.18808001126E+02  0.32684828668E+02  0.47787265394E+02  0.19999974238E+02 0.  0.
        -12    1    1    2    0    0 -0.21484525428E+02  0.18808001126E+02 -0.32684828668E+02  0.43400734606E+02  0.00000000000E+00 0.  1.
         11    1    3    3    0    0  0.13533568653E+02 -0.13835118936E+02  0.26740443118E+02  0.33009381922E+02  0.51100000000E-03 0. -1.
        -11    1    3    3    0    0  0.90763300509E+01 -0.72552029176E+00  0.35408092835E+01  0.97695177737E+01  0.51100000000E-03 0.  1.
         12    1    3    3    0    0 -0.11253732750E+01 -0.42473618979E+01  0.24035762673E+01  0.50083656987E+01  0.00000000000E+00 0. -1.
</event>
<event>
 7    1  0.3062695E-010  0.4778727E+02  0.7816164E-02  0.1312668E+00
        -11   -1    0    0    0    0  0.00000000000E+00  0.00000000000E+00  0.45593999997E+02  0.45594000000E+02  0.51100000000E-03 0.  1.
         11   -1    0    0    0    0 -0.00000000000E+00 -0.00000000000E+00 -0.45593999997E+02  0.45594000000E+02  0.51100000000E-03 0. -1.
    9900012    2    1    2    0    0 -0.66103668921E+01 -0.28053843699E+01 -0.42802523789E+02  0.47787272188E+02  0.20000005214E+02 0.  0.
        -12    1    1    2    0    0  0.66103668921E+01  0.28053843699E+01  0.42802523789E+02  0.43400727812E+02  0.00000000000E+00 0.  1.
         11    1    3    3    0    0 -0.46998196567E+01  0.66363676089E+01 -0.12692947736E+02  0.15074501727E+02  0.51100000000E-03 0. -1.
        -11    1    3    3    0    0 -0.19732327293E+01 -0.73308962226E+01 -0.10324247838E+02  0.12815060691E+02  0.51100000000E-03 0.  1.
         12    1    3    3    0    0  0.62685493844E-01 -0.21108557562E+01 -0.19785328215E+02  0.19897709769E+02  0.00000000000E+00 0. -1.
</event>
<event>
 7    1  0.3062695E-010  0.4778727E+02  0.7816164E-02  0.1312668E+00
        -11   -1    0    0    0    0  0.00000000000E+00  0.00000000000E+00  0.45593999997E+02  0.45594000000E+02  0.51100000000E-03 0. -1.
         11   -1    0    0    0    0 -0.00000000000E+00 -0.00000000000E+00 -0.45593999997E+02  0.45594000000E+02  0.51100000000E-03 0.  1.
    9900012    2    1    2    0    0  0.32777847246E+02  0.66864538578E+01  0.27650091666E+02  0.47787268388E+02  0.19999987890E+02 0.  0.
        -12    1    1    2    0    0 -0.32777847246E+02 -0.66864538578E+01 -0.27650091666E+02  0.43400731612E+02  0.00000000000E+00 0.  1.
         11    1    3    3    0    0  0.99371370154E+01  0.78295552192E+01  0.61368353018E+01  0.14060916570E+02  0.51100000000E-03 0. -1.
        -11    1    3    3    0    0  0.20291114387E+02 -0.46708662720E+01  0.20577567032E+02  0.29274264808E+02  0.51100000000E-03 0.  1.
        -12    1    3    3    0    0  0.25495958430E+01  0.35277649106E+01  0.93568933256E+00  0.44520870111E+01  0.00000000000E+00 0.  1.
</event>
<event>
 7    1  0.3062695E-010  0.4778727E+02  0.7816164E-02  0.1312668E+00
        -11   -1    0    0    0    0  0.00000000000E+00  0.00000000000E+00  0.45593999997E+02  0.45594000000E+02  0.51100000000E-03 0.  1.
         11   -1    0    0    0    0 -0.00000000000E+00 -0.00000000000E+00 -0.45593999997E+02  0.45594000000E+02  0.51100000000E-03 0. -1.
    9900012    2    1    2    0    0  0.13359662451E+02  0.71604262186E+01 -0.40667813099E+02  0.47787270667E+02  0.19999998278E+02 0.  0.
        -12    1    1    2    0    0 -0.13359662451E+02 -0.71604262186E+01  0.40667813099E+02  0.43400729333E+02  0.00000000000E+00 0.  1.
         11    1    3    3    0    0  0.33673323994E+01  0.86669762767E+01 -0.32847215773E+02  0.34137882031E+02  0.51100000000E-03 0. -1.
        -11    1    3    3    0    0  0.86627912850E+01 -0.18760887464E+01 -0.83443410866E+01  0.12173400932E+02  0.51100000000E-03 0.  1.
         12    1    3    3    0    0  0.13295387668E+01  0.36953868829E+00  0.52374376062E+00  0.14759877037E+01  0.00000000000E+00 0. -1.
</event>
<event>
 7    1  0.3062695E-010  0.4778726E+02  0.7816164E-02  0.1312668E+00
        -11   -1    0    0    0    0  0.00000000000E+00  0.00000000000E+00  0.45593999997E+02  0.45594000000E+02  0.51100000000E-03 0. -1.
         11   -1    0    0    0    0 -0.00000000000E+00 -0.00000000000E+00 -0.45593999997E+02  0.45594000000E+02  0.51100000000E-03 0.  1.
    9900012    2    1    2    0    0 -0.40901406850E+02 -0.13446101155E+02 -0.54681910530E+01  0.47787264615E+02  0.19999970684E+02 0.  0.
        -12    1    1    2    0    0  0.40901406850E+02  0.13446101155E+02  0.54681910530E+01  0.43400735385E+02  0.00000000000E+00 0.  1.
         11    1    3    3    0    0 -0.17971664651E+02 -0.98636816732E+00 -0.59457306657E+01  0.18955351907E+02  0.51100000000E-03 0. -1.
        -11    1    3    3    0    0 -0.29694691567E+01 -0.68705743720E+01 -0.24996112040E+01  0.78911720109E+01  0.51100000000E-03 0.  1.
         12    1    3    3    0    0 -0.19960273042E+02 -0.55891586155E+01  0.29771508167E+01  0.20940740697E+02  0.00000000000E+00 0. -1.
</event>
<event>
 7    1  0.3062695E-010  0.4778727E+02  0.7816164E-02  0.1312668E+00
        -11   -1    0    0    0    0  0.00000000000E+00  0.00000000000E+00  0.45593999997E+02  0.45594000000E+02  0.51100000000E-03 0. -1.
         11   -1    0    0    0    0 -0.00000000000E+00 -0.00000000000E+00 -0.45593999997E+02  0.45594000000E+02  0.51100000000E-03 0.  1.
    9900012    2    1    2    0    0  0.21586371244E+00  0.21202705853E+02  0.37868482400E+02  0.47787270837E+02  0.19999999052E+02 0.  0.
        -12    1    1    2    0    0 -0.21586371244E+00 -0.21202705853E+02 -0.37868482400E+02  0.43400729163E+02  0.00000000000E+00 0.  1.
         11    1    3    3    0    0 -0.31828131999E+00  0.21886035433E+02  0.37247409482E+02  0.43202654587E+02  0.51100000000E-03 0. -1.
        -11    1    3    3    0    0 -0.11106019797E+01 -0.20644344335E+01 -0.16508909512E-01  0.23442694155E+01  0.51100000000E-03 0.  1.
         12    1    3    3    0    0  0.16447470121E+01  0.13811048535E+01  0.63758182750E+00  0.22403468341E+01  0.00000000000E+00 0. -1.
</event>
<event>
 7    1  0.3062695E-010  0.4778727E+02  0.7816164E-02  0.1312668E+00
        -11   -1    0    0    0    0  0.00000000000E+00  0.00000000000E+00  0.45593999997E+02  0.45594000000E+02  0.51100000000E-03 0.  1.
         11   -1    0    0    0    0 -0.00000000000E+00 -0.00000000000E+00 -0.45593999997E+02  0.45594000000E+02  0.51100000000E-03 0. -1.
    9900012    2    1    2    0    0 -0.19721162134E+02  0.32129930996E+02 -0.21502711343E+02  0.47787270780E+02  0.19999998795E+02 0.  0.
        -12    1    1    2    0    0  0.19721162134E+02 -0.32129930996E+02  0.21502711343E+02  0.43400729220E+02  0.00000000000E+00 0.  1.
         11    1    3    3    0    0 -0.14164281385E+02  0.19647158993E+02 -0.17787287185E+02  0.30050379520E+02  0.51100000000E-03 0. -1.
        -11    1    3    3    0    0 -0.25993097656E+01  0.12064777138E+02  0.75020627053E+00  0.12364387100E+02  0.51100000000E-03 0.  1.
        -12    1    3    3    0    0 -0.29575709836E+01  0.41799486487E+00 -0.44656304281E+01  0.53725041601E+01  0.00000000000E+00 0.  1.
</event>
<event>
 7    1  0.3062695E-010  0.4778727E+02  0.7816164E-02  0.1312668E+00
        -11   -1    0    0    0    0  0.00000000000E+00  0.00000000000E+00  0.45593999997E+02  0.45594000000E+02  0.51100000000E-03 0.  1.
         11   -1    0    0    0    0 -0.00000000000E+00 -0.00000000000E+00 -0.45593999997E+02  0.45594000000E+02  0.51100000000E-03 0. -1.
    9900012    2    1    2    0    0  0.10915335857E+02 -0.15939157583E+02 -0.38864148404E+02  0.47787270369E+02  0.19999996921E+02 0.  0.
        -12    1    1    2    0    0 -0.10915335857E+02  0.15939157583E+02  0.38864148404E+02  0.43400729631E+02  0.00000000000E+00 0.  1.
         11    1    3    3    0    0  0.92493686302E+01 -0.30598708887E+01 -0.81331401659E+01  0.12691004654E+02  0.51100000000E-03 0. -1.
        -11    1    3    3    0    0  0.36577935661E+00  0.45226775661E+00  0.71178393274E+00  0.91922646253E+00  0.51100000000E-03 0.  1.
         12    1    3    3    0    0  0.13001878702E+01 -0.13331554450E+02 -0.31442792171E+02  0.34177039252E+02  0.00000000000E+00 0. -1.
</event>
<event>
 7    1  0.3062695E-010  0.4778727E+02  0.7816164E-02  0.1312668E+00
        -11   -1    0    0    0    0  0.00000000000E+00  0.00000000000E+00  0.45593999997E+02  0.45594000000E+02  0.51100000000E-03 0.  1.
         11   -1    0    0    0    0 -0.00000000000E+00 -0.00000000000E+00 -0.45593999997E+02  0.45594000000E+02  0.51100000000E-03 0. -1.
    9900012    2    1    2    0    0  0.30203030313E+01 -0.18994521066E+02 -0.38906415885E+02  0.47787271228E+02  0.20000000837E+02 0.  0.
        -12    1    1    2    0    0 -0.30203030313E+01  0.18994521066E+02  0.38906415885E+02  0.43400728772E+02  0.00000000000E+00 0.  1.
         11    1    3    3    0    0  0.45180601454E+01 -0.19657285563E+02 -0.28980858665E+02  0.35308807858E+02  0.51100000000E-03 0. -1.
        -11    1    3    3    0    0  0.24649735891E+01  0.10083441214E+01 -0.12656402959E+01  0.29486773784E+01  0.51100000000E-03 0.  1.
         12    1    3    3    0    0 -0.39627307033E+01 -0.34557962482E+00 -0.86599169244E+01  0.95297859913E+01  0.00000000000E+00 0. -1.
</event>
<event>
 7    1  0.3062695E-010  0.4778727E+02  0.7816164E-02  0.1312668E+00
        -11   -1    0    0    0    0  0.00000000000E+00  0.00000000000E+00  0.45593999997E+02  0.45594000000E+02  0.51100000000E-03 0.  1.
         11   -1    0    0    0    0 -0.00000000000E+00 -0.00000000000E+00 -0.45593999997E+02  0.45594000000E+02  0.51100000000E-03 0. -1.
    9900012    2    1    2    0    0  0.37285718473E+01 -0.28431614645E+02 -0.32578585890E+02  0.47787271689E+02  0.20000002938E+02 0.  0.
        -12    1    1    2    0    0 -0.37285718473E+01  0.28431614645E+02  0.32578585890E+02  0.43400728311E+02  0.00000000000E+00 0.  1.
         11    1    3    3    0    0  0.90138573619E+00 -0.32067097099E+01 -0.41360890200E+01  0.53106229438E+01  0.51100000000E-03 0. -1.
        -11    1    3    3    0    0 -0.40518643674E+01 -0.23309687571E+02 -0.25408411694E+02  0.34718100821E+02  0.51100000000E-03 0.  1.
        -12    1    3    3    0    0  0.68790504785E+01 -0.19152173638E+01 -0.30340851758E+01  0.77585479241E+01  0.00000000000E+00 0.  1.
</event>
<event>
 7    1  0.3062695E-010  0.4778727E+02  0.7816164E-02  0.1312668E+00
        -11   -1    0    0    0    0  0.00000000000E+00  0.00000000000E+00  0.45593999997E+02  0.45594000000E+02  0.51100000000E-03 0.  1.
         11   -1    0    0    0    0 -0.00000000000E+00 -0.00000000000E+00 -0.45593999997E+02  0.45594000000E+02  0.51100000000E-03 0. -1.
    9900012    2    1    2    0    0  0.30756302949E+02  0.27118097494E+02 -0.14222585747E+02  0.47787270419E+02  0.19999997151E+02 0.  0.
        -12    1    1    2    0    0 -0.30756302949E+02 -0.27118097494E+02  0.14222585747E+02  0.43400729581E+02  0.00000000000E+00 0.  1.
         11    1    3    3    0    0  0.28447943180E+02  0.28920448194E+02 -0.10422682491E+02  0.41884485260E+02  0.51100000000E-03 0. -1.
        -11    1    3    3    0    0 -0.44435769853E+00 -0.11214038677E+01 -0.25155374810E+01  0.27897902212E+01  0.51100000000E-03 0.  1.
         12    1    3    3    0    0  0.27527174673E+01 -0.68094683196E+00 -0.12843657748E+01  0.31129949384E+01  0.00000000000E+00 0. -1.
</event>
<event>
 7    1  0.3062695E-010  0.4778727E+02  0.7816164E-02  0.1312668E+00
        -11   -1    0    0    0    0  0.00000000000E+00  0.00000000000E+00  0.45593999997E+02  0.45594000000E+02  0.51100000000E-03 0.  1.
         11   -1    0    0    0    0 -0.00000000000E+00 -0.00000000000E+00 -0.45593999997E+02  0.45594000000E+02  0.51100000000E-03 0. -1.
    9900012    2    1    2    0    0  0.28539150945E+02  0.77292168856E+01 -0.31771045182E+02  0.47787271408E+02  0.20000001657E+02 0.  0.
        -12    1    1    2    0    0 -0.28539150945E+02 -0.77292168856E+01  0.31771045182E+02  0.43400728592E+02  0.00000000000E+00 0.  1.
         11    1    3    3    0    0  0.55012978436E+01  0.97703777883E+00 -0.96344914942E+01  0.11137428222E+02  0.51100000000E-03 0. -1.
        -11    1    3    3    0    0 -0.13834005143E+01 -0.11684735140E+01 -0.61377109536E+01  0.63992674071E+01  0.51100000000E-03 0.  1.
        -12    1    3    3    0    0  0.24421253616E+02  0.79206526208E+01 -0.15998842735E+02  0.30250575779E+02  0.00000000000E+00 0.  1.
</event>
<event>
 7    1  0.3062695E-010  0.4778727E+02  0.7816164E-02  0.1312668E+00
        -11   -1    0    0    0    0  0.00000000000E+00  0.00000000000E+00  0.45593999997E+02  0.45594000000E+02  0.51100000000E-03 0.  1.
         11   -1    0    0    0    0 -0.00000000000E+00 -0.00000000000E+00 -0.45593999997E+02  0.45594000000E+02  0.51100000000E-03 0. -1.
    9900012    2    1    2    0    0  0.42829956368E+01  0.40635050618E+02 -0.14631196505E+02  0.47787270726E+02  0.19999998548E+02 0.  0.
        -12    1    1    2    0    0 -0.42829956368E+01 -0.40635050618E+02  0.14631196505E+02  0.43400729274E+02  0.00000000000E+00 0.  1.
         11    1    3    3    0    0  0.72305306988E+01  0.31129858603E+02 -0.10026124814E+02  0.33494355493E+02  0.51100000000E-03 0. -1.
        -11    1    3    3    0    0 -0.15394710166E+01  0.98583312567E+01 -0.64981966309E+01  0.11907276174E+02  0.51100000000E-03 0.  1.
         12    1    3    3    0    0 -0.14080640453E+01 -0.35313924170E+00  0.18931249403E+01  0.23856390589E+01  0.00000000000E+00 0. -1.
</event>
<event>
 7    1  0.3062695E-010  0.4778729E+02  0.7816164E-02  0.1312668E+00
        -11   -1    0    0    0    0  0.00000000000E+00  0.00000000000E+00  0.45593999997E+02  0.45594000000E+02  0.51100000000E-03 0.  1.
         11   -1    0    0    0    0 -0.00000000000E+00 -0.00000000000E+00 -0.45593999997E+02  0.45594000000E+02  0.51100000000E-03 0. -1.
    9900012    2    1    2    0    0  0.39032704763E+01 -0.23360282181E+02 -0.36368717953E+02  0.47787286302E+02  0.20000069563E+02 0.  0.
        -12    1    1    2    0    0 -0.39032704763E+01  0.23360282181E+02  0.36368717953E+02  0.43400713698E+02  0.00000000000E+00 0.  1.
         11    1    3    3    0    0  0.48762879533E+01 -0.86811563433E+01 -0.33664591608E+01  0.10510647326E+02  0.51100000000E-03 0. -1.
        -11    1    3    3    0    0  0.15361563743E+01 -0.13019401053E+01 -0.55244085315E+00  0.20880650376E+01  0.51100000000E-03 0.  1.
         12    1    3    3    0    0 -0.25091738512E+01 -0.13377185733E+02 -0.32449817939E+02  0.35188573938E+02  0.00000000000E+00 0. -1.
</event>
<event>
 7    1  0.3062695E-010  0.4778727E+02  0.7816164E-02  0.1312668E+00
        -11   -1    0    0    0    0  0.00000000000E+00  0.00000000000E+00  0.45593999997E+02  0.45594000000E+02  0.51100000000E-03 0.  1.
         11   -1    0    0    0    0 -0.00000000000E+00 -0.00000000000E+00 -0.45593999997E+02  0.45594000000E+02  0.51100000000E-03 0. -1.
    9900012    2    1    2    0    0  0.36884227026E+02  0.13401391573E+02 -0.18535908727E+02  0.47787269456E+02  0.19999992758E+02 0.  0.
        -12    1    1    2    0    0 -0.36884227026E+02 -0.13401391573E+02  0.18535908727E+02  0.43400730544E+02  0.00000000000E+00 0.  1.
         11    1    3    3    0    0  0.10845281543E+02  0.29899535887E+01 -0.13987048599E+02  0.17949860250E+02  0.51100000000E-03 0. -1.
        -11    1    3    3    0    0  0.20869382973E+02  0.44971393745E+01 -0.51450673872E+01  0.21959670464E+02  0.51100000000E-03 0.  1.
        -12    1    3    3    0    0  0.51695625104E+01  0.59142986097E+01  0.59620725925E+00  0.78777387422E+01  0.00000000000E+00 0.  1.
</event>
<event>
 7    1  0.3062695E-010  0.4778728E+02  0.7816164E-02  0.1312668E+00
        -11   -1    0    0    0    0  0.00000000000E+00  0.00000000000E+00  0.45593999997E+02  0.45594000000E+02  0.51100000000E-03 0.  1.
         11   -1    0    0    0    0 -0.00000000000E+00 -0.00000000000E+00 -0.45593999997E+02  0.45594000000E+02  0.51100000000E-03 0. -1.
    9900012    2    1    2    0    0 -0.13666403238E+02  0.10466013042E+02 -0.39841114705E+02  0.47787280796E+02  0.20000044461E+02 0.  0.
        -12    1    1    2    0    0  0.13666403238E+02 -0.10466013042E+02  0.39841114705E+02  0.43400719204E+02  0.00000000000E+00 0.  1.
         11    1    3    3    0    0 -0.43842720952E+01 -0.29026651423E+01 -0.58554636321E+01  0.78698005910E+01  0.51100000000E-03 0. -1.
        -11    1    3    3    0    0  0.62411262520E+00  0.94946956186E+01 -0.21524720465E+02  0.23534067919E+02  0.51100000000E-03 0.  1.
        -12    1    3    3    0    0 -0.99062437680E+01  0.38739825660E+01 -0.12460930608E+02  0.16383412286E+02  0.00000000000E+00 0.  1.
</event>
<event>
 7    1  0.3062695E-010  0.4778725E+02  0.7816164E-02  0.1312668E+00
        -11   -1    0    0    0    0  0.00000000000E+00  0.00000000000E+00  0.45593999997E+02  0.45594000000E+02  0.51100000000E-03 0.  1.
         11   -1    0    0    0    0 -0.00000000000E+00 -0.00000000000E+00 -0.45593999997E+02  0.45594000000E+02  0.51100000000E-03 0. -1.
    9900012    2    1    2    0    0  0.37099660120E+02  0.46389397707E+01  0.22039066826E+02  0.47787251046E+02  0.19999908817E+02 0.  0.
        -12    1    1    2    0    0 -0.37099660120E+02 -0.46389397707E+01 -0.22039066826E+02  0.43400748954E+02  0.00000000000E+00 0.  1.
         11    1    3    3    0    0 -0.79443040802E-01 -0.10536870663E+01 -0.17135666900E+01  0.20131762696E+01  0.51100000000E-03 0.  1.
        -11    1    3    3    0    0 -0.23802159063E-01 -0.24517001613E+00  0.25139881087E+01  0.25260267915E+01  0.51100000000E-03 0. -1.
         12    1    3    3    0    0  0.37202905320E+02  0.59377968531E+01  0.21238645408E+02  0.43248047984E+02  0.00000000000E+00 0. -1.
</event>
<event>
 7    1  0.3062695E-010  0.4778727E+02  0.7816164E-02  0.1312668E+00
        -11   -1    0    0    0    0  0.00000000000E+00  0.00000000000E+00  0.45593999997E+02  0.45594000000E+02  0.51100000000E-03 0.  1.
         11   -1    0    0    0    0 -0.00000000000E+00 -0.00000000000E+00 -0.45593999997E+02  0.45594000000E+02  0.51100000000E-03 0. -1.
    9900012    2    1    2    0    0 -0.15674356876E+02 -0.39496895999E+02 -0.88279747327E+01  0.47787269650E+02  0.19999993644E+02 0.  0.
        -12    1    1    2    0    0  0.15674356876E+02  0.39496895999E+02  0.88279747327E+01  0.43400730350E+02  0.00000000000E+00 0.  1.
         11    1    3    3    0    0 -0.10532184876E+02 -0.21839553012E+02 -0.14625071162E+02  0.28315820680E+02  0.51100000000E-03 0. -1.
        -11    1    3    3    0    0 -0.42393436823E+01 -0.12813866885E+02  0.53703153579E+01  0.14526097436E+02  0.51100000000E-03 0.  1.
         12    1    3    3    0    0 -0.90282831755E+00 -0.48434761017E+01  0.42678107168E+00  0.49453515347E+01  0.00000000000E+00 0. -1.
</event>
<event>
 7    1  0.3062695E-010  0.4778727E+02  0.7816164E-02  0.1312668E+00
        -11   -1    0    0    0    0  0.00000000000E+00  0.00000000000E+00  0.45593999997E+02  0.45594000000E+02  0.51100000000E-03 0. -1.
         11   -1    0    0    0    0 -0.00000000000E+00 -0.00000000000E+00 -0.45593999997E+02  0.45594000000E+02  0.51100000000E-03 0.  1.
    9900012    2    1    2    0    0  0.10201573915E+02 -0.40257105027E+02 -0.12606235671E+02  0.47787265060E+02  0.19999972715E+02 0.  0.
        -12    1    1    2    0    0 -0.10201573915E+02  0.40257105027E+02  0.12606235671E+02  0.43400734940E+02  0.00000000000E+00 0.  1.
         11    1    3    3    0    0  0.38021473155E+01 -0.16158194804E+02 -0.38259774293E+00  0.16603914142E+02  0.51100000000E-03 0. -1.
        -11    1    3    3    0    0 -0.32761068864E+01 -0.28879154950E+01 -0.52915612170E+01  0.68610168788E+01  0.51100000000E-03 0.  1.
        -12    1    3    3    0    0  0.96755334859E+01 -0.21210994728E+02 -0.69320767112E+01  0.24322334040E+02  0.00000000000E+00 0.  1.
</event>
<event>
 7    1  0.3062695E-010  0.4778727E+02  0.7816164E-02  0.1312668E+00
        -11   -1    0    0    0    0  0.00000000000E+00  0.00000000000E+00  0.45593999997E+02  0.45594000000E+02  0.51100000000E-03 0.  1.
         11   -1    0    0    0    0 -0.00000000000E+00 -0.00000000000E+00 -0.45593999997E+02  0.45594000000E+02  0.51100000000E-03 0. -1.
    9900012    2    1    2    0    0  0.46117073187E+01  0.21007266729E+02 -0.37696823835E+02  0.47787266975E+02  0.19999981447E+02 0.  0.
        -12    1    1    2    0    0 -0.46117073187E+01 -0.21007266729E+02  0.37696823835E+02  0.43400733025E+02  0.00000000000E+00 0.  1.
         11    1    3    3    0    0  0.45425574402E+01 -0.11609163158E+01 -0.51756779415E+01  0.69835662240E+01  0.51100000000E-03 0. -1.
        -11    1    3    3    0    0 -0.17359453114E+01  0.20315883545E+02 -0.22112028883E+02  0.30078072610E+02  0.51100000000E-03 0.  1.
        -12    1    3    3    0    0  0.18050951899E+01  0.18522994999E+01 -0.10409117011E+02  0.10725628142E+02  0.00000000000E+00 0.  1.
</event>
<event>
 7    1  0.3062695E-010  0.4778725E+02  0.7816164E-02  0.1312668E+00
        -11   -1    0    0    0    0  0.00000000000E+00  0.00000000000E+00  0.45593999997E+02  0.45594000000E+02  0.51100000000E-03 0. -1.
         11   -1    0    0    0    0 -0.00000000000E+00 -0.00000000000E+00 -0.45593999997E+02  0.45594000000E+02  0.51100000000E-03 0.  1.
    9900012    2    1    2    0    0 -0.28975485391E+02 -0.15091594946E+01  0.32276444711E+02  0.47787248864E+02  0.19999898870E+02 0.  0.
        -12    1    1    2    0    0  0.28975485391E+02  0.15091594946E+01 -0.32276444711E+02  0.43400751136E+02  0.00000000000E+00 0.  1.
         11    1    3    3    0    0 -0.12299902829E+02 -0.78300156515E+00  0.22323715122E+02  0.25499979572E+02  0.51100000000E-03 0. -1.
        -11    1    3    3    0    0 -0.12938163452E+02  0.41028206029E+01  0.51453571667E+01  0.14515643666E+02  0.51100000000E-03 0.  1.
        -12    1    3    3    0    0 -0.37374191092E+01 -0.48289785324E+01  0.48073724219E+01  0.77716256258E+01  0.00000000000E+00 0.  1.
</event>
<event>
 7    1  0.3062695E-010  0.4778728E+02  0.7816164E-02  0.1312668E+00
        -11   -1    0    0    0    0  0.00000000000E+00  0.00000000000E+00  0.45593999997E+02  0.45594000000E+02  0.51100000000E-03 0.  1.
         11   -1    0    0    0    0 -0.00000000000E+00 -0.00000000000E+00 -0.45593999997E+02  0.45594000000E+02  0.51100000000E-03 0. -1.
    9900012    2    1    2    0    0 -0.11157484840E+02 -0.37746905189E+02 -0.18283990819E+02  0.47787278352E+02  0.20000033319E+02 0.  0.
        -12    1    1    2    0    0  0.11157484840E+02  0.37746905189E+02  0.18283990819E+02  0.43400721648E+02  0.00000000000E+00 0.  1.
         11    1    3    3    0    0 -0.33909240909E+01 -0.19723680309E+02  0.69089739331E+00  0.20024966182E+02  0.51100000000E-03 0. -1.
        -11    1    3    3    0    0 -0.17154443945E+01 -0.10048893280E+02 -0.10650954202E+02  0.14743331757E+02  0.51100000000E-03 0.  1.
         12    1    3    3    0    0 -0.60511163544E+01 -0.79743316004E+01 -0.83239340103E+01  0.13018980414E+02  0.00000000000E+00 0. -1.
</event>
<event>
 7    1  0.3062695E-010  0.4778728E+02  0.7816164E-02  0.1312668E+00
        -11   -1    0    0    0    0  0.00000000000E+00  0.00000000000E+00  0.45593999997E+02  0.45594000000E+02  0.51100000000E-03 0.  1.
         11   -1    0    0    0    0 -0.00000000000E+00 -0.00000000000E+00 -0.45593999997E+02  0.45594000000E+02  0.51100000000E-03 0. -1.
    9900012    2    1    2    0    0 -0.35828464850E+02  0.10784574373E+02 -0.21991735694E+02  0.47787281380E+02  0.20000047123E+02 0.  0.
        -12    1    1    2    0    0  0.35828464850E+02 -0.10784574373E+02  0.21991735694E+02  0.43400718620E+02  0.00000000000E+00 0.  1.
         11    1    3    3    0    0 -0.18190021023E+02  0.16084971599E+01 -0.17053903640E+02  0.24985991226E+02  0.51100000000E-03 0. -1.
        -11    1    3    3    0    0 -0.44004503547E+01  0.77481315426E+01 -0.26066461970E+01  0.92839706151E+01  0.51100000000E-03 0.  1.
         12    1    3    3    0    0 -0.13237993472E+02  0.14279456709E+01 -0.23311858568E+01  0.13517319538E+02  0.00000000000E+00 0. -1.
</event>
<event>
 7    1  0.3062695E-010  0.4778727E+02  0.7816164E-02  0.1312668E+00
        -11   -1    0    0    0    0  0.00000000000E+00  0.00000000000E+00  0.45593999997E+02  0.45594000000E+02  0.51100000000E-03 0.  1.
         11   -1    0    0    0    0 -0.00000000000E+00 -0.00000000000E+00 -0.45593999997E+02  0.45594000000E+02  0.51100000000E-03 0. -1.
    9900012    2    1    2    0    0  0.38481687022E+02  0.20060575167E+02 -0.59700173001E+00  0.47787270477E+02  0.19999997414E+02 0.  0.
        -12    1    1    2    0    0 -0.38481687022E+02 -0.20060575167E+02  0.59700173001E+00  0.43400729523E+02  0.00000000000E+00 0.  1.
         11    1    3    3    0    0 -0.17754198827E+01  0.15193293182E+01 -0.49917049885E+00  0.23894871385E+01  0.51100000000E-03 0.  1.
        -11    1    3    3    0    0  0.24421226034E+02  0.11929189307E+02  0.46918433115E+01  0.27581066558E+02  0.51100000000E-03 0. -1.
        -12    1    3    3    0    0  0.15835880870E+02  0.66120565410E+01 -0.47896745427E+01  0.17816716781E+02  0.00000000000E+00 0.  1.
</event>
<event>
 7    1  0.3062695E-010  0.4778724E+02  0.7816164E-02  0.1312668E+00
        -11   -1    0    0    0    0  0.00000000000E+00  0.00000000000E+00  0.45593999997E+02  0.45594000000E+02  0.51100000000E-03 0. -1.
         11   -1    0    0    0    0 -0.00000000000E+00 -0.00000000000E+00 -0.45593999997E+02  0.45594000000E+02  0.51100000000E-03 0.  1.
    9900012    2    1    2    0    0  0.74548106380E+00 -0.41555919611E+02  0.12497032616E+02  0.47787239397E+02  0.19999855708E+02 0.  0.
        -12    1    1    2    0    0 -0.74548106380E+00  0.41555919611E+02 -0.12497032616E+02  0.43400760603E+02  0.00000000000E+00 0.  1.
         11    1    3    3    0    0  0.85042612663E-02 -0.19279294355E+01  0.19469542089E+01  0.27400027707E+01  0.51100000000E-03 0. -1.
        -11    1    3    3    0    0 -0.77917398728E+01 -0.92454098982E+01  0.12886665357E+01  0.12159336994E+02  0.51100000000E-03 0.  1.
        -12    1    3    3    0    0  0.85287166753E+01 -0.30382580277E+02  0.92614118711E+01  0.32887899633E+02  0.00000000000E+00 0.  1.
</event>
<event>
 7    1  0.3062695E-010  0.4778727E+02  0.7816164E-02  0.1312668E+00
        -11   -1    0    0    0    0  0.00000000000E+00  0.00000000000E+00  0.45593999997E+02  0.45594000000E+02  0.51100000000E-03 0.  1.
         11   -1    0    0    0    0 -0.00000000000E+00 -0.00000000000E+00 -0.45593999997E+02  0.45594000000E+02  0.51100000000E-03 0. -1.
    9900012    2    1    2    0    0  0.32646605593E+02  0.16969016790E+02 -0.23019009425E+02  0.47787272097E+02  0.20000004798E+02 0.  0.
        -12    1    1    2    0    0 -0.32646605593E+02 -0.16969016790E+02  0.23019009425E+02  0.43400727903E+02  0.00000000000E+00 0.  1.
         11    1    3    3    0    0  0.23367019055E+02  0.38094431318E+01 -0.18123786566E+02  0.29816121080E+02  0.51100000000E-03 0. -1.
        -11    1    3    3    0    0  0.87676865550E+01  0.12303848938E+02 -0.61983913400E+01  0.16330250509E+02  0.51100000000E-03 0.  1.
        -12    1    3    3    0    0  0.51189998352E+00  0.85572471976E+00  0.13031684804E+01  0.16409005081E+01  0.00000000000E+00 0.  1.
</event>
<event>
 7    1  0.3062695E-010  0.4778727E+02  0.7816164E-02  0.1312668E+00
        -11   -1    0    0    0    0  0.00000000000E+00  0.00000000000E+00  0.45593999997E+02  0.45594000000E+02  0.51100000000E-03 0.  1.
         11   -1    0    0    0    0 -0.00000000000E+00 -0.00000000000E+00 -0.45593999997E+02  0.45594000000E+02  0.51100000000E-03 0. -1.
    9900012    2    1    2    0    0 -0.19671362445E+02 -0.38155172470E+02 -0.63908913339E+01  0.47787272141E+02  0.20000005000E+02 0.  0.
        -12    1    1    2    0    0  0.19671362445E+02  0.38155172470E+02  0.63908913339E+01  0.43400727859E+02  0.00000000000E+00 0.  1.
         11    1    3    3    0    0 -0.11021009871E+02 -0.84317679972E+01 -0.60381585531E+01  0.15133298686E+02  0.51100000000E-03 0. -1.
        -11    1    3    3    0    0  0.17111141362E+01 -0.90396870157E+01  0.19538565898E+01  0.94053925364E+01  0.51100000000E-03 0.  1.
         12    1    3    3    0    0 -0.10361466710E+02 -0.20683717457E+02 -0.23065893705E+01  0.23248580919E+02  0.00000000000E+00 0. -1.
</event>
<event>
 7    1  0.3062695E-010  0.4778727E+02  0.7816164E-02  0.1312668E+00
        -11   -1    0    0    0    0  0.00000000000E+00  0.00000000000E+00  0.45593999997E+02  0.45594000000E+02  0.51100000000E-03 0.  1.
         11   -1    0    0    0    0 -0.00000000000E+00 -0.00000000000E+00 -0.45593999997E+02  0.45594000000E+02  0.51100000000E-03 0. -1.
    9900012    2    1    2    0    0 -0.15237019521E+02 -0.39627340900E+02 -0.90072266536E+01  0.47787273708E+02  0.20000012142E+02 0.  0.
        -12    1    1    2    0    0  0.15237019521E+02  0.39627340900E+02  0.90072266536E+01  0.43400726292E+02  0.00000000000E+00 0.  1.
         11    1    3    3    0    0 -0.14696951378E+02 -0.39925155805E+02 -0.10249052303E+02  0.43761415873E+02  0.51100000000E-03 0. -1.
        -11    1    3    3    0    0  0.10398976468E+01 -0.93707585133E+00  0.14430948585E+01  0.20104778782E+01  0.51100000000E-03 0.  1.
         12    1    3    3    0    0 -0.15799657895E+01  0.12348907556E+01 -0.20126920915E+00  0.20153799564E+01  0.00000000000E+00 0. -1.
</event>
<event>
 7    1  0.3062695E-010  0.4778727E+02  0.7816164E-02  0.1312668E+00
        -11   -1    0    0    0    0  0.00000000000E+00  0.00000000000E+00  0.45593999997E+02  0.45594000000E+02  0.51100000000E-03 0.  1.
         11   -1    0    0    0    0 -0.00000000000E+00 -0.00000000000E+00 -0.45593999997E+02  0.45594000000E+02  0.51100000000E-03 0. -1.
    9900012    2    1    2    0    0 -0.39743244494E+02  0.70180507546E+01 -0.15963866102E+02  0.47787267976E+02  0.19999986008E+02 0.  0.
        -12    1    1    2    0    0  0.39743244494E+02 -0.70180507546E+01  0.15963866102E+02  0.43400732024E+02  0.00000000000E+00 0.  1.
         11    1    3    3    0    0 -0.69989216448E+01  0.77514417537E+00 -0.28897814875E+01  0.76116088962E+01  0.51100000000E-03 0. -1.
        -11    1    3    3    0    0 -0.16363580567E+02 -0.29912441804E+01  0.10349118270E+01  0.16666893936E+02  0.51100000000E-03 0.  1.
        -12    1    3    3    0    0 -0.16380742283E+02  0.92341507596E+01 -0.14108996442E+02  0.23508765144E+02  0.00000000000E+00 0.  1.
</event>
<event>
 7    1  0.3062695E-010  0.4778727E+02  0.7816164E-02  0.1312668E+00
        -11   -1    0    0    0    0  0.00000000000E+00  0.00000000000E+00  0.45593999997E+02  0.45594000000E+02  0.51100000000E-03 0.  1.
         11   -1    0    0    0    0 -0.00000000000E+00 -0.00000000000E+00 -0.45593999997E+02  0.45594000000E+02  0.51100000000E-03 0. -1.
    9900012    2    1    2    0    0 -0.16634463591E+02  0.35060408599E+02 -0.19434140710E+02  0.47787268955E+02  0.19999990474E+02 0.  0.
        -12    1    1    2    0    0  0.16634463591E+02 -0.35060408599E+02  0.19434140710E+02  0.43400731045E+02  0.00000000000E+00 0.  1.
         11    1    3    3    0    0  0.51435039874E-01  0.14647024990E+02 -0.80412850775E+01  0.16709286417E+02  0.51100000000E-03 0.  1.
        -11    1    3    3    0    0 -0.12737531218E+02  0.75327747716E+01 -0.92097726370E+01  0.17430069121E+02  0.51100000000E-03 0. -1.
         12    1    3    3    0    0 -0.39483674132E+01  0.12880608838E+02 -0.21830829953E+01  0.13647913416E+02  0.00000000000E+00 0. -1.
</event>
<event>
 7    1  0.3062695E-010  0.4778727E+02  0.7816164E-02  0.1312668E+00
        -11   -1    0    0    0    0  0.00000000000E+00  0.00000000000E+00  0.45593999997E+02  0.45594000000E+02  0.51100000000E-03 0.  1.
         11   -1    0    0    0    0 -0.00000000000E+00 -0.00000000000E+00 -0.45593999997E+02  0.45594000000E+02  0.51100000000E-03 0. -1.
    9900012    2    1    2    0    0  0.24987983401E+02 -0.27858787387E+02 -0.21979808597E+02  0.47787270339E+02  0.19999996784E+02 0.  0.
        -12    1    1    2    0    0 -0.24987983401E+02  0.27858787387E+02  0.21979808597E+02  0.43400729661E+02  0.00000000000E+00 0.  1.
         11    1    3    3    0    0  0.25022839731E+02 -0.25374668093E+02 -0.12285252051E+02  0.37695406978E+02  0.51100000000E-03 0. -1.
        -11    1    3    3    0    0 -0.64538873149E+00 -0.13408790221E+01 -0.57716802806E+01  0.59604342702E+01  0.51100000000E-03 0.  1.
         12    1    3    3    0    0  0.61053240079E+00 -0.11432402723E+01 -0.39228762660E+01  0.41314290906E+01  0.00000000000E+00 0. -1.
</event>
<event>
 7    1  0.3062695E-010  0.4778727E+02  0.7816164E-02  0.1312668E+00
        -11   -1    0    0    0    0  0.00000000000E+00  0.00000000000E+00  0.45593999997E+02  0.45594000000E+02  0.51100000000E-03 0. -1.
         11   -1    0    0    0    0 -0.00000000000E+00 -0.00000000000E+00 -0.45593999997E+02  0.45594000000E+02  0.51100000000E-03 0.  1.
    9900012    2    1    2    0    0 -0.36772740646E+02 -0.80305343386E+01 -0.21607860042E+02  0.47787267840E+02  0.19999985392E+02 0.  0.
        -12    1    1    2    0    0  0.36772740646E+02  0.80305343386E+01  0.21607860042E+02  0.43400732160E+02  0.00000000000E+00 0.  1.
         11    1    3    3    0    0 -0.10305153969E+02 -0.49869783400E+01 -0.37592612810E+01  0.12049821448E+02  0.51100000000E-03 0. -1.
        -11    1    3    3    0    0 -0.85100683911E+01  0.61502562428E+01 -0.84677531858E+01  0.13488875422E+02  0.51100000000E-03 0.  1.
        -12    1    3    3    0    0 -0.17957518286E+02 -0.91938122413E+01 -0.93808455755E+01  0.22248570970E+02  0.00000000000E+00 0.  1.
</event>
<event>
 7    1  0.3062695E-010  0.4778727E+02  0.7816164E-02  0.1312668E+00
        -11   -1    0    0    0    0  0.00000000000E+00  0.00000000000E+00  0.45593999997E+02  0.45594000000E+02  0.51100000000E-03 0.  1.
         11   -1    0    0    0    0 -0.00000000000E+00 -0.00000000000E+00 -0.45593999997E+02  0.45594000000E+02  0.51100000000E-03 0. -1.
    9900012    2    1    2    0    0  0.24110019787E+02 -0.20743415336E+02 -0.29530333624E+02  0.47787274915E+02  0.20000017647E+02 0.  0.
        -12    1    1    2    0    0 -0.24110019787E+02  0.20743415336E+02  0.29530333624E+02  0.43400725085E+02  0.00000000000E+00 0.  1.
         11    1    3    3    0    0  0.14329127769E+02 -0.12448609699E+02 -0.29212455749E+02  0.34837614115E+02  0.51100000000E-03 0. -1.
        -11    1    3    3    0    0  0.56014445664E+01 -0.58689155900E+01 -0.24317391028E+00  0.81166178452E+01  0.51100000000E-03 0.  1.
         12    1    3    3    0    0  0.41794474515E+01 -0.24258900476E+01 -0.74703965101E-01  0.48330429550E+01  0.00000000000E+00 0. -1.
</event>
<event>
 7    1  0.3062695E-010  0.4778722E+02  0.7816164E-02  0.1312668E+00
        -11   -1    0    0    0    0  0.00000000000E+00  0.00000000000E+00  0.45593999997E+02  0.45594000000E+02  0.51100000000E-03 0.  1.
         11   -1    0    0    0    0 -0.00000000000E+00 -0.00000000000E+00 -0.45593999997E+02  0.45594000000E+02  0.51100000000E-03 0. -1.
    9900012    2    1    2    0    0  0.22337315695E+02  0.29142956906E+01 -0.37096887781E+02  0.47787218039E+02  0.19999758324E+02 0.  0.
        -12    1    1    2    0    0 -0.22337315695E+02 -0.29142956906E+01  0.37096887781E+02  0.43400781961E+02  0.00000000000E+00 0.  1.
         11    1    3    3    0    0  0.62161585093E+01 -0.49617509816E+01 -0.14956621974E+02  0.16939897891E+02  0.51100000000E-03 0.  1.
        -11    1    3    3    0    0  0.16698684076E+02  0.98722802855E+01 -0.19851888446E+02  0.27756178467E+02  0.51100000000E-03 0. -1.
         12    1    3    3    0    0 -0.57752689113E+00 -0.19962336133E+01 -0.22883773601E+01  0.30911416808E+01  0.00000000000E+00 0. -1.
</event>
<event>
 7    1  0.3062695E-010  0.4778727E+02  0.7816164E-02  0.1312668E+00
        -11   -1    0    0    0    0  0.00000000000E+00  0.00000000000E+00  0.45593999997E+02  0.45594000000E+02  0.51100000000E-03 0.  1.
         11   -1    0    0    0    0 -0.00000000000E+00 -0.00000000000E+00 -0.45593999997E+02  0.45594000000E+02  0.51100000000E-03 0. -1.
    9900012    2    1    2    0    0  0.27132680996E+02 -0.52049352107E+01 -0.33471626678E+02  0.47787268197E+02  0.19999987017E+02 0.  0.
        -12    1    1    2    0    0 -0.27132680996E+02  0.52049352107E+01  0.33471626678E+02  0.43400731803E+02  0.00000000000E+00 0.  1.
         11    1    3    3    0    0  0.19243682825E+01 -0.41664466037E+01  0.49205813430E+00  0.46156897704E+01  0.51100000000E-03 0.  1.
        -11    1    3    3    0    0  0.10510736063E+02  0.14547685761E+01 -0.20503456491E+02  0.23086438715E+02  0.51100000000E-03 0. -1.
         12    1    3    3    0    0  0.14697576651E+02 -0.24932571831E+01 -0.13460228321E+02  0.20085139712E+02  0.00000000000E+00 0. -1.
</event>
<event>
 7    1  0.3062695E-010  0.4778727E+02  0.7816164E-02  0.1312668E+00
        -11   -1    0    0    0    0  0.00000000000E+00  0.00000000000E+00  0.45593999997E+02  0.45594000000E+02  0.51100000000E-03 0.  1.
         11   -1    0    0    0    0 -0.00000000000E+00 -0.00000000000E+00 -0.45593999997E+02  0.45594000000E+02  0.51100000000E-03 0. -1.
    9900012    2    1    2    0    0  0.17135860133E+02 -0.30645546869E+02 -0.25511497338E+02  0.47787265654E+02  0.19999975421E+02 0.  0.
        -12    1    1    2    0    0 -0.17135860133E+02  0.30645546869E+02  0.25511497338E+02  0.43400734346E+02  0.00000000000E+00 0.  1.
         11    1    3    3    0    0  0.20881055550E+02 -0.24345635136E+02 -0.19180886126E+02  0.37371577755E+02  0.51100000000E-03 0. -1.
        -11    1    3    3    0    0 -0.12471776390E+01 -0.16366117259E+01 -0.42670104094E+01  0.47372278919E+01  0.51100000000E-03 0.  1.
         12    1    3    3    0    0 -0.24980177780E+01 -0.46633000067E+01 -0.20636008024E+01  0.56784600063E+01  0.00000000000E+00 0. -1.
</event>
<event>
 7    1  0.3062695E-010  0.4778727E+02  0.7816164E-02  0.1312668E+00
        -11   -1    0    0    0    0  0.00000000000E+00  0.00000000000E+00  0.45593999997E+02  0.45594000000E+02  0.51100000000E-03 0.  1.
         11   -1    0    0    0    0 -0.00000000000E+00 -0.00000000000E+00 -0.45593999997E+02  0.45594000000E+02  0.51100000000E-03 0. -1.
    9900012    2    1    2    0    0 -0.22727227611E+02  0.48601639839E+01 -0.36653446752E+02  0.47787271577E+02  0.20000002429E+02 0.  0.
        -12    1    1    2    0    0  0.22727227611E+02 -0.48601639839E+01  0.36653446752E+02  0.43400728423E+02  0.00000000000E+00 0.  1.
         11    1    3    3    0    0 -0.16031746482E+02  0.11286400308E+02 -0.17434942153E+02  0.26236938376E+02  0.51100000000E-03 0. -1.
        -11    1    3    3    0    0 -0.37580675503E+01 -0.53773637408E+01 -0.14188143322E+02  0.15631459423E+02  0.51100000000E-03 0.  1.
         12    1    3    3    0    0 -0.29374135780E+01 -0.10488725834E+01 -0.50303612768E+01  0.59188737780E+01  0.00000000000E+00 0. -1.
</event>
<event>
 7    1  0.3062695E-010  0.4778727E+02  0.7816164E-02  0.1312668E+00
        -11   -1    0    0    0    0  0.00000000000E+00  0.00000000000E+00  0.45593999997E+02  0.45594000000E+02  0.51100000000E-03 0.  1.
         11   -1    0    0    0    0 -0.00000000000E+00 -0.00000000000E+00 -0.45593999997E+02  0.45594000000E+02  0.51100000000E-03 0. -1.
    9900012    2    1    2    0    0  0.25873348295E+02  0.27970553411E+02 -0.20780788801E+02  0.47787271973E+02  0.20000004231E+02 0.  0.
        -12    1    1    2    0    0 -0.25873348295E+02 -0.27970553411E+02  0.20780788801E+02  0.43400728027E+02  0.00000000000E+00 0.  1.
         11    1    3    3    0    0  0.97477379845E+00  0.12815462105E+02 -0.65302415735E+01  0.14416320896E+02  0.51100000000E-03 0. -1.
        -11    1    3    3    0    0  0.20524587194E+02  0.15428827782E+02 -0.13168367626E+02  0.28856772384E+02  0.51100000000E-03 0.  1.
        -12    1    3    3    0    0  0.43739873018E+01 -0.27373647565E+00 -0.10821796023E+01  0.45141786923E+01  0.00000000000E+00 0.  1.
</event>
<event>
 7    1  0.3062695E-010  0.4778726E+02  0.7816164E-02  0.1312668E+00
        -11   -1    0    0    0    0  0.00000000000E+00  0.00000000000E+00  0.45593999997E+02  0.45594000000E+02  0.51100000000E-03 0.  1.
         11   -1    0    0    0    0 -0.00000000000E+00 -0.00000000000E+00 -0.45593999997E+02  0.45594000000E+02  0.51100000000E-03 0. -1.
    9900012    2    1    2    0    0  0.17695599955E+02 -0.34140807726E+02 -0.20122017366E+02  0.47787255849E+02  0.19999930717E+02 0.  0.
        -12    1    1    2    0    0 -0.17695599955E+02  0.34140807726E+02  0.20122017366E+02  0.43400744151E+02  0.00000000000E+00 0.  1.
         11    1    3    3    0    0 -0.36013571265E+00 -0.13337297660E+02 -0.27145376240E+01  0.13615502979E+02  0.51100000000E-03 0. -1.
        -11    1    3    3    0    0  0.11341105798E+02 -0.10861588462E+02 -0.15425215243E+02  0.22012088729E+02  0.51100000000E-03 0.  1.
        -12    1    3    3    0    0  0.67146298703E+01 -0.99419216040E+01 -0.19822644991E+01  0.12159664141E+02  0.00000000000E+00 0.  1.
</event>
<event>
 7    1  0.3062695E-010  0.4778728E+02  0.7816164E-02  0.1312668E+00
        -11   -1    0    0    0    0  0.00000000000E+00  0.00000000000E+00  0.45593999997E+02  0.45594000000E+02  0.51100000000E-03 0. -1.
         11   -1    0    0    0    0 -0.00000000000E+00 -0.00000000000E+00 -0.45593999997E+02  0.45594000000E+02  0.51100000000E-03 0.  1.
    9900012    2    1    2    0    0  0.76885674462E+01  0.16851526918E+02  0.39249641530E+02  0.47787281238E+02  0.20000046475E+02 0.  0.
        -12    1    1    2    0    0 -0.76885674462E+01 -0.16851526918E+02 -0.39249641530E+02  0.43400718762E+02  0.00000000000E+00 0.  1.
         11    1    3    3    0    0  0.10903548637E+02  0.44718852338E+01  0.21266702762E+02  0.24313736386E+02  0.51100000000E-03 0. -1.
        -11    1    3    3    0    0 -0.27956855715E+01  0.38576441192E+01  0.12382560307E+02  0.13267444214E+02  0.51100000000E-03 0.  1.
         12    1    3    3    0    0 -0.41929561921E+00  0.85219975649E+01  0.56003784613E+01  0.10206100637E+02  0.00000000000E+00 0. -1.
</event>
<event>
 7    1  0.3062695E-010  0.4778727E+02  0.7816164E-02  0.1312668E+00
        -11   -1    0    0    0    0  0.00000000000E+00  0.00000000000E+00  0.45593999997E+02  0.45594000000E+02  0.51100000000E-03 0.  1.
         11   -1    0    0    0    0 -0.00000000000E+00 -0.00000000000E+00 -0.45593999997E+02  0.45594000000E+02  0.51100000000E-03 0. -1.
    9900012    2    1    2    0    0  0.20588313521E+02  0.10757100676E+02 -0.36661005427E+02  0.47787272040E+02  0.20000004540E+02 0.  0.
        -12    1    1    2    0    0 -0.20588313521E+02 -0.10757100676E+02  0.36661005427E+02  0.43400727960E+02  0.00000000000E+00 0.  1.
         11    1    3    3    0    0  0.16980791318E+01  0.56122726415E+01 -0.55636005815E+01  0.80829900799E+01  0.51100000000E-03 0. -1.
        -11    1    3    3    0    0 -0.21912793111E+01  0.37345039521E+00 -0.69462621773E+01  0.72932659840E+01  0.51100000000E-03 0.  1.
        -12    1    3    3    0    0  0.21081513700E+02  0.47713776388E+01 -0.24151142668E+02  0.32411015976E+02  0.00000000000E+00 0.  1.
</event>
<event>
 7    1  0.3062695E-010  0.4778727E+02  0.7816164E-02  0.1312668E+00
        -11   -1    0    0    0    0  0.00000000000E+00  0.00000000000E+00  0.45593999997E+02  0.45594000000E+02  0.51100000000E-03 0.  1.
         11   -1    0    0    0    0 -0.00000000000E+00 -0.00000000000E+00 -0.45593999997E+02  0.45594000000E+02  0.51100000000E-03 0. -1.
    9900012    2    1    2    0    0 -0.21723691033E+01  0.43062966961E+02 -0.49482384466E+01  0.47787269882E+02  0.19999994701E+02 0.  0.
        -12    1    1    2    0    0  0.21723691033E+01 -0.43062966961E+02  0.49482384466E+01  0.43400730118E+02  0.00000000000E+00 0.  1.
         11    1    3    3    0    0 -0.60077089099E+00  0.18210150529E+02  0.29006913148E+01  0.18449512685E+02  0.51100000000E-03 0. -1.
        -11    1    3    3    0    0  0.52300046853E+01  0.99469898268E+01 -0.16066050592E+00  0.11239277899E+02  0.51100000000E-03 0.  1.
         12    1    3    3    0    0 -0.68016028976E+01  0.14905826605E+02 -0.76882692555E+01  0.18098479298E+02  0.00000000000E+00 0. -1.
</event>
<event>
 7    1  0.3062695E-010  0.4778727E+02  0.7816164E-02  0.1312668E+00
        -11   -1    0    0    0    0  0.00000000000E+00  0.00000000000E+00  0.45593999997E+02  0.45594000000E+02  0.51100000000E-03 0. -1.
         11   -1    0    0    0    0 -0.00000000000E+00 -0.00000000000E+00 -0.45593999997E+02  0.45594000000E+02  0.51100000000E-03 0.  1.
    9900012    2    1    2    0    0 -0.63537757871E+01 -0.40256733878E+02  0.14921398260E+02  0.47787271719E+02  0.20000003076E+02 0.  0.
        -12    1    1    2    0    0  0.63537757871E+01  0.40256733878E+02 -0.14921398260E+02  0.43400728281E+02  0.00000000000E+00 0.  1.
         11    1    3    3    0    0  0.40445342272E+01 -0.96963750730E+01 -0.20832548351E+01  0.10710644128E+02  0.51100000000E-03 0. -1.
        -11    1    3    3    0    0 -0.90249569419E+01 -0.16674604023E+02  0.89680332092E+01  0.20974219581E+02  0.51100000000E-03 0.  1.
         12    1    3    3    0    0 -0.13733530724E+01 -0.13885754783E+02  0.80366198854E+01  0.16102408010E+02  0.00000000000E+00 0. -1.
</event>
<event>
 7    1  0.3062695E-010  0.4778726E+02  0.7816164E-02  0.1312668E+00
        -11   -1    0    0    0    0  0.00000000000E+00  0.00000000000E+00  0.45593999997E+02  0.45594000000E+02  0.51100000000E-03 0.  1.
         11   -1    0    0    0    0 -0.00000000000E+00 -0.00000000000E+00 -0.45593999997E+02  0.45594000000E+02  0.51100000000E-03 0. -1.
    9900012    2    1    2    0    0 -0.41186009823E+02 -0.12801195637E+01  0.13627097448E+02  0.47787263876E+02  0.19999967318E+02 0.  0.
        -12    1    1    2    0    0  0.41186009823E+02  0.12801195637E+01 -0.13627097448E+02  0.43400736124E+02  0.00000000000E+00 0.  1.
         11    1    3    3    0    0 -0.16746813419E+00 -0.39342786831E+01  0.16423259618E+01  0.42665945622E+01  0.51100000000E-03 0. -1.
        -11    1    3    3    0    0 -0.32914555704E+02 -0.10086442747E+01  0.89627057181E+01  0.34127927486E+02  0.51100000000E-03 0.  1.
        -12    1    3    3    0    0 -0.81039859846E+01  0.36628033940E+01  0.30220657681E+01  0.93927418280E+01  0.00000000000E+00 0.  1.
</event>
<event>
 7    1  0.3062695E-010  0.4778727E+02  0.7816164E-02  0.1312668E+00
        -11   -1    0    0    0    0  0.00000000000E+00  0.00000000000E+00  0.45593999997E+02  0.45594000000E+02  0.51100000000E-03 0.  1.
         11   -1    0    0    0    0 -0.00000000000E+00 -0.00000000000E+00 -0.45593999997E+02  0.45594000000E+02  0.51100000000E-03 0. -1.
    9900012    2    1    2    0    0  0.17625261686E+02 -0.78847539884E+01 -0.38869064098E+02  0.47787270296E+02  0.19999996588E+02 0.  0.
        -12    1    1    2    0    0 -0.17625261686E+02  0.78847539884E+01  0.38869064098E+02  0.43400729704E+02  0.00000000000E+00 0.  1.
         11    1    3    3    0    0  0.62492441330E+01 -0.85871117480E+01 -0.16840345013E+02  0.19909514329E+02  0.51100000000E-03 0. -1.
        -11    1    3    3    0    0  0.89384054710E+01  0.44369370215E+01 -0.69691347496E+01  0.12171702507E+02  0.51100000000E-03 0.  1.
        -12    1    3    3    0    0  0.24376120819E+01 -0.37345792619E+01 -0.15059584336E+02  0.15706053460E+02  0.00000000000E+00 0.  1.
</event>
<event>
 7    1  0.3062695E-010  0.4778727E+02  0.7816164E-02  0.1312668E+00
        -11   -1    0    0    0    0  0.00000000000E+00  0.00000000000E+00  0.45593999997E+02  0.45594000000E+02  0.51100000000E-03 0.  1.
         11   -1    0    0    0    0 -0.00000000000E+00 -0.00000000000E+00 -0.45593999997E+02  0.45594000000E+02  0.51100000000E-03 0. -1.
    9900012    2    1    2    0    0  0.73171193698E+01 -0.37693036454E+02 -0.20231614280E+02  0.47787269023E+02  0.19999990783E+02 0.  0.
        -12    1    1    2    0    0 -0.73171193698E+01  0.37693036454E+02  0.20231614280E+02  0.43400730977E+02  0.00000000000E+00 0.  1.
         11    1    3    3    0    0 -0.53839511080E+01 -0.11031448753E+02 -0.33015849486E+01  0.12711422208E+02  0.51100000000E-03 0. -1.
        -11    1    3    3    0    0  0.56085815275E+01 -0.45438549055E+01 -0.60885081662E+01  0.94431316894E+01  0.51100000000E-03 0.  1.
         12    1    3    3    0    0  0.70924889503E+01 -0.22117732795E+02 -0.10841521166E+02  0.25632715125E+02  0.00000000000E+00 0. -1.
</event>
<event>
 7    1  0.3062695E-010  0.4778727E+02  0.7816164E-02  0.1312668E+00
        -11   -1    0    0    0    0  0.00000000000E+00  0.00000000000E+00  0.45593999997E+02  0.45594000000E+02  0.51100000000E-03 0.  1.
         11   -1    0    0    0    0 -0.00000000000E+00 -0.00000000000E+00 -0.45593999997E+02  0.45594000000E+02  0.51100000000E-03 0. -1.
    9900012    2    1    2    0    0  0.39913097704E+02 -0.64625724907E+01 -0.15773503921E+02  0.47787266856E+02  0.19999980902E+02 0.  0.
        -12    1    1    2    0    0 -0.39913097704E+02  0.64625724907E+01  0.15773503921E+02  0.43400733144E+02  0.00000000000E+00 0.  1.
         11    1    3    3    0    0  0.29580080494E+01 -0.58591220011E+01 -0.26633796186E+01  0.70832699721E+01  0.51100000000E-03 0.  1.
        -11    1    3    3    0    0  0.32177280451E+02 -0.21148027177E+01 -0.73586041976E+01  0.33075653036E+02  0.51100000000E-03 0. -1.
         12    1    3    3    0    0  0.47778092034E+01  0.15113522280E+01 -0.57515201047E+01  0.76283438475E+01  0.00000000000E+00 0. -1.
</event>
<event>
 7    1  0.3584185E-010  0.4778727E+02  0.7816164E-02  0.1312668E+00
        -11   -1    0    0    0    0  0.00000000000E+00  0.00000000000E+00  0.45593999997E+02  0.45594000000E+02  0.51100000000E-03 0.  1.
         11   -1    0    0    0    0 -0.00000000000E+00 -0.00000000000E+00 -0.45593999997E+02  0.45594000000E+02  0.51100000000E-03 0. -1.
    9900012    2    1    2    0    0  0.31973689485E+02  0.19218037154E+02 -0.22180475990E+02  0.47787270899E+02  0.19999999337E+02 0.  0.
        -12    1    1    2    0    0 -0.31973689485E+02 -0.19218037154E+02  0.22180475990E+02  0.43400729101E+02  0.00000000000E+00 0.  1.
         11    1    3    3    0    0  0.19630735556E+02  0.75070220013E+01 -0.14049002584E+02  0.25280340814E+02  0.51100000000E-03 0. -1.
        -11    1    3    3    0    0  0.88016294583E+01  0.13761921816E+02 -0.42799371356E+01  0.16887185537E+02  0.51100000000E-03 0.  1.
        -12    1    3    3    0    0  0.35413244714E+01 -0.20509066637E+01 -0.38515362700E+01  0.56197445488E+01  0.00000000000E+00 0.  1.
</event>
<event>
 7    1  0.3062695E-010  0.4778727E+02  0.7816164E-02  0.1312668E+00
        -11   -1    0    0    0    0  0.00000000000E+00  0.00000000000E+00  0.45593999997E+02  0.45594000000E+02  0.51100000000E-03 0.  1.
         11   -1    0    0    0    0 -0.00000000000E+00 -0.00000000000E+00 -0.45593999997E+02  0.45594000000E+02  0.51100000000E-03 0. -1.
    9900012    2    1    2    0    0  0.16013003414E+02  0.12950048590E+02 -0.38203448732E+02  0.47787268073E+02  0.19999986451E+02 0.  0.
        -12    1    1    2    0    0 -0.16013003414E+02 -0.12950048590E+02  0.38203448732E+02  0.43400731927E+02  0.00000000000E+00 0.  1.
         11    1    3    3    0    0  0.99626020920E+01 -0.14313317703E+01 -0.17788980304E+02  0.20438932741E+02  0.51100000000E-03 0. -1.
        -11    1    3    3    0    0 -0.25454712721E+01  0.29682424823E+01 -0.44208915935E+01  0.59020479643E+01  0.51100000000E-03 0.  1.
         12    1    3    3    0    0  0.85958725936E+01  0.11413137878E+02 -0.15993576834E+02  0.21446287367E+02  0.00000000000E+00 0. -1.
</event>
<event>
 7    1  0.3062695E-010  0.4778727E+02  0.7816164E-02  0.1312668E+00
        -11   -1    0    0    0    0  0.00000000000E+00  0.00000000000E+00  0.45593999997E+02  0.45594000000E+02  0.51100000000E-03 0.  1.
         11   -1    0    0    0    0 -0.00000000000E+00 -0.00000000000E+00 -0.45593999997E+02  0.45594000000E+02  0.51100000000E-03 0. -1.
    9900012    2    1    2    0    0 -0.54841467605E+01  0.42997215041E+02 -0.21879000604E+01  0.47787271047E+02  0.20000000012E+02 0.  0.
        -12    1    1    2    0    0  0.54841467605E+01 -0.42997215041E+02  0.21879000604E+01  0.43400728953E+02  0.00000000000E+00 0.  1.
         11    1    3    3    0    0 -0.20953917406E+01  0.27005029846E+02 -0.80047006175E+01  0.28244247835E+02  0.51100000000E-03 0. -1.
        -11    1    3    3    0    0 -0.51066268782E+01  0.87376807242E+01  0.65449357689E+01  0.12052422453E+02  0.51100000000E-03 0.  1.
         12    1    3    3    0    0  0.17178718583E+01  0.72545044711E+01 -0.72813521180E+00  0.74906007589E+01  0.00000000000E+00 0. -1.
</event>
<event>
 7    1  0.3062695E-010  0.4778727E+02  0.7816164E-02  0.1312668E+00
        -11   -1    0    0    0    0  0.00000000000E+00  0.00000000000E+00  0.45593999997E+02  0.45594000000E+02  0.51100000000E-03 0. -1.
         11   -1    0    0    0    0 -0.00000000000E+00 -0.00000000000E+00 -0.45593999997E+02  0.45594000000E+02  0.51100000000E-03 0.  1.
    9900012    2    1    2    0    0 -0.17193651640E+02 -0.14940253621E+01  0.39821718749E+02  0.47787273593E+02  0.20000011620E+02 0.  0.
        -12    1    1    2    0    0  0.17193651640E+02  0.14940253621E+01 -0.39821718749E+02  0.43400726407E+02  0.00000000000E+00 0.  1.
         11    1    3    3    0    0 -0.96780715427E+01 -0.15390672829E+01  0.49010638083E+01  0.10956925828E+02  0.51100000000E-03 0. -1.
        -11    1    3    3    0    0 -0.50654920832E+01  0.43883054950E+01  0.19033376953E+02  0.20178847183E+02  0.51100000000E-03 0.  1.
         12    1    3    3    0    0 -0.24500880143E+01 -0.43432635743E+01  0.15887277988E+02  0.16651500582E+02  0.00000000000E+00 0. -1.
</event>
<event>
 7    1  0.3062695E-010  0.4778727E+02  0.7816164E-02  0.1312668E+00
        -11   -1    0    0    0    0  0.00000000000E+00  0.00000000000E+00  0.45593999997E+02  0.45594000000E+02  0.51100000000E-03 0. -1.
         11   -1    0    0    0    0 -0.00000000000E+00 -0.00000000000E+00 -0.45593999997E+02  0.45594000000E+02  0.51100000000E-03 0.  1.
    9900012    2    1    2    0    0  0.38405521709E+02 -0.45310170876E+01  0.19700486503E+02  0.47787269798E+02  0.19999994317E+02 0.  0.
        -12    1    1    2    0    0 -0.38405521709E+02  0.45310170876E+01 -0.19700486503E+02  0.43400730202E+02  0.00000000000E+00 0.  1.
         11    1    3    3    0    0  0.35537766992E+01 -0.37528382183E+01  0.15082653671E+01  0.53840494239E+01  0.51100000000E-03 0.  1.
        -11    1    3    3    0    0  0.29970303569E+02 -0.58462624841E+01  0.11315547410E+02  0.32564389976E+02  0.51100000000E-03 0. -1.
        -12    1    3    3    0    0  0.48814414404E+01  0.50680836148E+01  0.68766737263E+01  0.98388303980E+01  0.00000000000E+00 0.  1.
</event>
<event>
 7    1  0.3062695E-010  0.4778727E+02  0.7816164E-02  0.1312668E+00
        -11   -1    0    0    0    0  0.00000000000E+00  0.00000000000E+00  0.45593999997E+02  0.45594000000E+02  0.51100000000E-03 0.  1.
         11   -1    0    0    0    0 -0.00000000000E+00 -0.00000000000E+00 -0.45593999997E+02  0.45594000000E+02  0.51100000000E-03 0. -1.
    9900012    2    1    2    0    0 -0.79947616313E+01  0.42543932786E+02 -0.31178431840E+01  0.47787269861E+02  0.19999994604E+02 0.  0.
        -12    1    1    2    0    0  0.79947616313E+01 -0.42543932786E+02  0.31178431840E+01  0.43400730139E+02  0.00000000000E+00 0.  1.
         11    1    3    3    0    0 -0.40483154779E+00  0.14876280804E+01 -0.47802155875E+01  0.50226872500E+01  0.51100000000E-03 0.  1.
        -11    1    3    3    0    0 -0.95287705136E+01  0.30023878390E+02  0.50834216503E+00  0.31503795852E+02  0.51100000000E-03 0. -1.
        -12    1    3    3    0    0  0.19388404301E+01  0.11032426316E+02  0.11540302385E+01  0.11260786759E+02  0.00000000000E+00 0.  1.
</event>
<event>
 7    1  0.3062695E-010  0.4778729E+02  0.7816164E-02  0.1312668E+00
        -11   -1    0    0    0    0  0.00000000000E+00  0.00000000000E+00  0.45593999997E+02  0.45594000000E+02  0.51100000000E-03 0.  1.
         11   -1    0    0    0    0 -0.00000000000E+00 -0.00000000000E+00 -0.45593999997E+02  0.45594000000E+02  0.51100000000E-03 0. -1.
    9900012    2    1    2    0    0 -0.35671468363E+01 -0.86443452779E+00 -0.43245232609E+02  0.47787286561E+02  0.20000070748E+02 0.  0.
        -12    1    1    2    0    0  0.35671468363E+01  0.86443452779E+00  0.43245232609E+02  0.43400713439E+02  0.00000000000E+00 0.  1.
         11    1    3    3    0    0 -0.58075675607E+01 -0.15686467562E+01 -0.23926797603E+01  0.64740567123E+01  0.51100000000E-03 0.  1.
        -11    1    3    3    0    0  0.16153577466E+01 -0.93923898611E-01 -0.39865451952E+02  0.39898276428E+02  0.51100000000E-03 0. -1.
         12    1    3    3    0    0  0.62506297786E+00  0.79813612707E+00 -0.98710089677E+00  0.14149534212E+01  0.00000000000E+00 0. -1.
</event>
<event>
 7    1  0.3062695E-010  0.4778727E+02  0.7816164E-02  0.1312668E+00
        -11   -1    0    0    0    0  0.00000000000E+00  0.00000000000E+00  0.45593999997E+02  0.45594000000E+02  0.51100000000E-03 0.  1.
         11   -1    0    0    0    0 -0.00000000000E+00 -0.00000000000E+00 -0.45593999997E+02  0.45594000000E+02  0.51100000000E-03 0. -1.
    9900012    2    1    2    0    0 -0.25327187006E+02 -0.23550608108E+02 -0.26220708738E+02  0.47787272926E+02  0.20000008577E+02 0.  0.
        -12    1    1    2    0    0  0.25327187006E+02  0.23550608108E+02  0.26220708738E+02  0.43400727074E+02  0.00000000000E+00 0.  1.
         11    1    3    3    0    0 -0.31658749701E+01 -0.15593520886E+02 -0.79554538379E+01  0.17789601007E+02  0.51100000000E-03 0. -1.
        -11    1    3    3    0    0 -0.72746780041E+01 -0.12251944723E+01 -0.45619338283E+01  0.86737121277E+01  0.51100000000E-03 0.  1.
         12    1    3    3    0    0 -0.14886634032E+02 -0.67318927494E+01 -0.13703321071E+02  0.21323959791E+02  0.00000000000E+00 0. -1.
</event>
<event>
 7    1  0.3062695E-010  0.4778727E+02  0.7816164E-02  0.1312668E+00
        -11   -1    0    0    0    0  0.00000000000E+00  0.00000000000E+00  0.45593999997E+02  0.45594000000E+02  0.51100000000E-03 0. -1.
         11   -1    0    0    0    0 -0.00000000000E+00 -0.00000000000E+00 -0.45593999997E+02  0.45594000000E+02  0.51100000000E-03 0.  1.
    9900012    2    1    2    0    0 -0.77523312501E+01  0.27009741613E+02 -0.33075649614E+02  0.47787269831E+02  0.19999994467E+02 0.  0.
        -12    1    1    2    0    0  0.77523312501E+01 -0.27009741613E+02  0.33075649614E+02  0.43400730169E+02  0.00000000000E+00 0.  1.
         11    1    3    3    0    0  0.41615503531E+00  0.18279700152E+02 -0.93770114973E+01  0.20548697466E+02  0.51100000000E-03 0. -1.
        -11    1    3    3    0    0 -0.51364987988E+01  0.14105476338E+01 -0.11762648209E+02  0.12912519416E+02  0.51100000000E-03 0.  1.
         12    1    3    3    0    0 -0.30319874866E+01  0.73194938280E+01 -0.11935989908E+02  0.14326052949E+02  0.00000000000E+00 0. -1.
</event>
<event>
 7    1  0.3062695E-010  0.4778728E+02  0.7816164E-02  0.1312668E+00
        -11   -1    0    0    0    0  0.00000000000E+00  0.00000000000E+00  0.45593999997E+02  0.45594000000E+02  0.51100000000E-03 0. -1.
         11   -1    0    0    0    0 -0.00000000000E+00 -0.00000000000E+00 -0.45593999997E+02  0.45594000000E+02  0.51100000000E-03 0.  1.
    9900012    2    1    2    0    0 -0.37581735032E+02  0.48364150723E+01  0.21162350688E+02  0.47787276441E+02  0.20000024605E+02 0.  0.
        -12    1    1    2    0    0  0.37581735032E+02 -0.48364150723E+01 -0.21162350688E+02  0.43400723559E+02  0.00000000000E+00 0.  1.
         11    1    3    3    0    0 -0.12745942656E+02  0.89364183928E+01  0.97345355270E+01  0.18359733388E+02  0.51100000000E-03 0. -1.
        -11    1    3    3    0    0 -0.16667965151E+02 -0.72537501677E+01  0.92924114020E+01  0.20415358525E+02  0.51100000000E-03 0.  1.
         12    1    3    3    0    0 -0.81678272247E+01  0.31537468472E+01  0.21354037595E+01  0.90121845279E+01  0.00000000000E+00 0. -1.
</event>
<event>
 7    1  0.3062695E-010  0.4778727E+02  0.7816164E-02  0.1312668E+00
        -11   -1    0    0    0    0  0.00000000000E+00  0.00000000000E+00  0.45593999997E+02  0.45594000000E+02  0.51100000000E-03 0.  1.
         11   -1    0    0    0    0 -0.00000000000E+00 -0.00000000000E+00 -0.45593999997E+02  0.45594000000E+02  0.51100000000E-03 0. -1.
    9900012    2    1    2    0    0  0.26737843358E+02 -0.29391150910E+02 -0.17460569439E+02  0.47787268389E+02  0.19999987893E+02 0.  0.
        -12    1    1    2    0    0 -0.26737843358E+02  0.29391150910E+02  0.17460569439E+02  0.43400731611E+02  0.00000000000E+00 0.  1.
         11    1    3    3    0    0  0.13495333089E+02 -0.18150564539E+02 -0.12141332130E+01  0.22650411210E+02  0.51100000000E-03 0. -1.
        -11    1    3    3    0    0  0.11504447084E+02 -0.11710860828E+02 -0.11453781784E+02  0.20017134696E+02  0.51100000000E-03 0.  1.
         12    1    3    3    0    0  0.17380631848E+01  0.47027445676E+00 -0.47926544423E+01  0.51197224829E+01  0.00000000000E+00 0. -1.
</event>
<event>
 7    1  0.3062695E-010  0.4778727E+02  0.7816164E-02  0.1312668E+00
        -11   -1    0    0    0    0  0.00000000000E+00  0.00000000000E+00  0.45593999997E+02  0.45594000000E+02  0.51100000000E-03 0.  1.
         11   -1    0    0    0    0 -0.00000000000E+00 -0.00000000000E+00 -0.45593999997E+02  0.45594000000E+02  0.51100000000E-03 0. -1.
    9900012    2    1    2    0    0  0.10919190606E+02 -0.10367307157E+02 -0.40705205333E+02  0.47787268182E+02  0.19999986947E+02 0.  0.
        -12    1    1    2    0    0 -0.10919190606E+02  0.10367307157E+02  0.40705205333E+02  0.43400731818E+02  0.00000000000E+00 0.  1.
         11    1    3    3    0    0  0.67142500840E+01 -0.62879343928E+01 -0.82634547175E+01  0.12365433969E+02  0.51100000000E-03 0. -1.
        -11    1    3    3    0    0 -0.33114524689E+01 -0.32387856731E+01 -0.22268659708E+02  0.22745299636E+02  0.51100000000E-03 0.  1.
        -12    1    3    3    0    0  0.75163929912E+01 -0.84058709155E+00 -0.10173090908E+02  0.12676534577E+02  0.00000000000E+00 0.  1.
</event>
<event>
 7    1  0.5125216E-010  0.4778727E+02  0.7816164E-02  0.1312668E+00
        -11   -1    0    0    0    0  0.00000000000E+00  0.00000000000E+00  0.45593999997E+02  0.45594000000E+02  0.51100000000E-03 0. -1.
         11   -1    0    0    0    0 -0.00000000000E+00 -0.00000000000E+00 -0.45593999997E+02  0.45594000000E+02  0.51100000000E-03 0.  1.
    9900012    2    1    2    0    0 -0.21449247912E+02 -0.31755222425E+02  0.20375457848E+02  0.47787266484E+02  0.19999979207E+02 0.  0.
        -12    1    1    2    0    0  0.21449247912E+02  0.31755222425E+02 -0.20375457848E+02  0.43400733516E+02  0.00000000000E+00 0.  1.
         11    1    3    3    0    0 -0.52081079958E+01 -0.14676552613E+02  0.11873213607E+02  0.19583125060E+02  0.51100000000E-03 0. -1.
        -11    1    3    3    0    0 -0.15240145699E+02 -0.13684559642E+02  0.17203133973E+01  0.20554529719E+02  0.51100000000E-03 0.  1.
        -12    1    3    3    0    0 -0.10009942166E+01 -0.33941101698E+01  0.67819308437E+01  0.76496117049E+01  0.00000000000E+00 0.  1.
</event>
<event>
 7    1  0.3062695E-010  0.4778727E+02  0.7816164E-02  0.1312668E+00
        -11   -1    0    0    0    0  0.00000000000E+00  0.00000000000E+00  0.45593999997E+02  0.45594000000E+02  0.51100000000E-03 0.  1.
         11   -1    0    0    0    0 -0.00000000000E+00 -0.00000000000E+00 -0.45593999997E+02  0.45594000000E+02  0.51100000000E-03 0. -1.
    9900012    2    1    2    0    0  0.30882949188E+02 -0.28120063319E+02 -0.11795286510E+02  0.47787270796E+02  0.19999998867E+02 0.  0.
        -12    1    1    2    0    0 -0.30882949188E+02  0.28120063319E+02  0.11795286510E+02  0.43400729204E+02  0.00000000000E+00 0.  1.
         11    1    3    3    0    0  0.70020005297E+01 -0.83782694754E+01 -0.65937404545E+01  0.12755423327E+02  0.51100000000E-03 0. -1.
        -11    1    3    3    0    0 -0.53785242995E+00 -0.61139459738E+01  0.14083775149E+01  0.62970745662E+01  0.51100000000E-03 0.  1.
        -12    1    3    3    0    0  0.24418801088E+02 -0.13627847870E+02 -0.66099235709E+01  0.28734772902E+02  0.00000000000E+00 0.  1.
</event>
