<event>
 7    1  0.6230310E-012  0.5930194E+02  0.7816164E-02  0.1266605E+00
        -11   -1    0    0    0    0  0.00000000000E+00  0.00000000000E+00  0.45593999997E+02  0.45594000000E+02  0.51100000000E-03 0. -1.
         11   -1    0    0    0    0 -0.00000000000E+00 -0.00000000000E+00 -0.45593999997E+02  0.45594000000E+02  0.51100000000E-03 0.  1.
    9900012    2    1    2    0    0  0.21944771525E+02  0.73437925004E+01 -0.21936654832E+02  0.59301935477E+02  0.49999984405E+02 0.  0.
         12    1    1    2    0    0 -0.21944771525E+02 -0.73437925004E+01  0.21936654832E+02  0.31886064523E+02  0.00000000000E+00 0. -1.
         11    1    3    3    0    0 -0.60649591637E+01  0.18358484630E+01 -0.26253617200E+02  0.27007526461E+02  0.51100000000E-03 0.  1.
        -11    1    3    3    0    0  0.41444362899E+01  0.67736351936E+01  0.25063729970E+01  0.83270878318E+01  0.51100000000E-03 0. -1.
        -12    1    3    3    0    0  0.23865294399E+02 -0.12656911562E+01  0.18105893709E+01  0.23967321184E+02  0.00000000000E+00 0.  1.
</event>
<event>
 7    1  0.6230310E-012  0.5930196E+02  0.7816164E-02  0.1266605E+00
        -11   -1    0    0    0    0  0.00000000000E+00  0.00000000000E+00  0.45593999997E+02  0.45594000000E+02  0.51100000000E-03 0.  1.
         11   -1    0    0    0    0 -0.00000000000E+00 -0.00000000000E+00 -0.45593999997E+02  0.45594000000E+02  0.51100000000E-03 0. -1.
    9900012    2    1    2    0    0 -0.12087293701E+02  0.19180518417E+02  0.22421519910E+02  0.59301960566E+02  0.50000030161E+02 0.  0.
         12    1    1    2    0    0  0.12087293701E+02 -0.19180518417E+02 -0.22421519910E+02  0.31886039434E+02  0.00000000000E+00 0. -1.
         11    1    3    3    0    0 -0.13532157646E+02  0.27587245999E+02  0.29904930516E+02  0.42877503446E+02  0.51100000000E-03 0. -1.
        -11    1    3    3    0    0 -0.39198702396E+01 -0.41285334417E+01  0.71023069846E+00  0.57371246266E+01  0.51100000000E-03 0.  1.
        -12    1    3    3    0    0  0.53647341843E+01 -0.42781941408E+01 -0.81936413046E+01  0.10687332492E+02  0.00000000000E+00 0.  1.
</event>
<event>
 7    1  0.6230310E-012  0.5930194E+02  0.7816164E-02  0.1266605E+00
        -11   -1    0    0    0    0  0.00000000000E+00  0.00000000000E+00  0.45593999997E+02  0.45594000000E+02  0.51100000000E-03 0.  1.
         11   -1    0    0    0    0 -0.00000000000E+00 -0.00000000000E+00 -0.45593999997E+02  0.45594000000E+02  0.51100000000E-03 0. -1.
    9900012    2    1    2    0    0 -0.27045199248E+01 -0.17746959010E+00  0.31770656845E+02  0.59301944116E+02  0.50000000162E+02 0.  0.
         12    1    1    2    0    0  0.27045199248E+01  0.17746959010E+00 -0.31770656845E+02  0.31886055884E+02  0.00000000000E+00 0. -1.
         11    1    3    3    0    0  0.96649185270E+01  0.66755563520E+01  0.31387865988E+02  0.33513755897E+02  0.51100000000E-03 0. -1.
        -11    1    3    3    0    0 -0.84434457133E+01 -0.32222005413E+01  0.10797695594E+02  0.14080645661E+02  0.51100000000E-03 0.  1.
        -12    1    3    3    0    0 -0.39259927385E+01 -0.36308254008E+01 -0.10414904737E+02  0.11707542559E+02  0.00000000000E+00 0.  1.
</event>
<event>
 7    1  0.6230310E-012  0.5930195E+02  0.7816164E-02  0.1266605E+00
        -11   -1    0    0    0    0  0.00000000000E+00  0.00000000000E+00  0.45593999997E+02  0.45594000000E+02  0.51100000000E-03 0.  1.
         11   -1    0    0    0    0 -0.00000000000E+00 -0.00000000000E+00 -0.45593999997E+02  0.45594000000E+02  0.51100000000E-03 0. -1.
    9900012    2    1    2    0    0 -0.12532938216E+02  0.10948066881E+02  0.27198996649E+02  0.59301950896E+02  0.50000012526E+02 0.  0.
         12    1    1    2    0    0  0.12532938216E+02 -0.10948066881E+02 -0.27198996649E+02  0.31886049104E+02  0.00000000000E+00 0. -1.
         11    1    3    3    0    0  0.20027980538E+01  0.50366735078E+01 -0.76598558304E+01  0.93836385093E+01  0.51100000000E-03 0. -1.
        -11    1    3    3    0    0  0.40568594198E+01  0.14157913634E+02  0.19472413947E+02  0.24414740056E+02  0.51100000000E-03 0.  1.
        -12    1    3    3    0    0 -0.18592595690E+02 -0.82465202616E+01  0.15386438533E+02  0.25503572331E+02  0.00000000000E+00 0.  1.
</event>
<event>
 7    1  0.6230310E-012  0.5930195E+02  0.7816164E-02  0.1266605E+00
        -11   -1    0    0    0    0  0.00000000000E+00  0.00000000000E+00  0.45593999997E+02  0.45594000000E+02  0.51100000000E-03 0. -1.
         11   -1    0    0    0    0 -0.00000000000E+00 -0.00000000000E+00 -0.45593999997E+02  0.45594000000E+02  0.51100000000E-03 0.  1.
    9900012    2    1    2    0    0  0.17123493849E+02 -0.19955312759E+02 -0.18035849857E+02  0.59301946168E+02  0.50000003903E+02 0.  0.
         12    1    1    2    0    0 -0.17123493849E+02  0.19955312759E+02  0.18035849857E+02  0.31886053832E+02  0.00000000000E+00 0. -1.
         11    1    3    3    0    0 -0.91113871706E+01 -0.17559572493E+02  0.17789383613E+01  0.19862542240E+02  0.51100000000E-03 0. -1.
        -11    1    3    3    0    0 -0.34558349398E+01 -0.13229566415E+01 -0.50559341325E+01  0.62654193490E+01  0.51100000000E-03 0.  1.
         12    1    3    3    0    0  0.29690715960E+02 -0.10727836250E+01 -0.14758854085E+02  0.33173984579E+02  0.00000000000E+00 0. -1.
</event>
<event>
 7    1  0.6230310E-012  0.5930196E+02  0.7816164E-02  0.1266605E+00
        -11   -1    0    0    0    0  0.00000000000E+00  0.00000000000E+00  0.45593999997E+02  0.45594000000E+02  0.51100000000E-03 0. -1.
         11   -1    0    0    0    0 -0.00000000000E+00 -0.00000000000E+00 -0.45593999997E+02  0.45594000000E+02  0.51100000000E-03 0.  1.
    9900012    2    1    2    0    0 -0.17872685288E+02  0.26291578179E+02  0.24576098115E+01  0.59301955897E+02  0.50000021647E+02 0.  0.
         12    1    1    2    0    0  0.17872685288E+02 -0.26291578179E+02 -0.24576098115E+01  0.31886044103E+02  0.00000000000E+00 0. -1.
         11    1    3    3    0    0 -0.56029146097E+01  0.22365591537E+01  0.10297554450E+02  0.11934591609E+02  0.51100000000E-03 0. -1.
        -11    1    3    3    0    0 -0.20487408473E+02  0.27496008361E+00  0.14659334606E+01  0.20541627739E+02  0.51100000000E-03 0.  1.
        -12    1    3    3    0    0  0.82176377947E+01  0.23780058942E+02 -0.93058780991E+01  0.26825736549E+02  0.00000000000E+00 0.  1.
</event>
<event>
 7    1  0.6230310E-012  0.5930198E+02  0.7816164E-02  0.1266605E+00
        -11   -1    0    0    0    0  0.00000000000E+00  0.00000000000E+00  0.45593999997E+02  0.45594000000E+02  0.51100000000E-03 0. -1.
         11   -1    0    0    0    0 -0.00000000000E+00 -0.00000000000E+00 -0.45593999997E+02  0.45594000000E+02  0.51100000000E-03 0.  1.
    9900012    2    1    2    0    0 -0.55499446735E+01  0.28145994941E+02 -0.13918317348E+02  0.59301976810E+02  0.50000059786E+02 0.  0.
         12    1    1    2    0    0  0.55499446735E+01 -0.28145994941E+02  0.13918317348E+02  0.31886023190E+02  0.00000000000E+00 0. -1.
         11    1    3    3    0    0 -0.10860107025E+01 -0.69957270077E+01 -0.59422777943E+01  0.92428502778E+01  0.51100000000E-03 0. -1.
        -11    1    3    3    0    0  0.22460985511E+01 -0.65199634403E+01  0.84762528085E+00  0.69479026218E+01  0.51100000000E-03 0.  1.
        -12    1    3    3    0    0 -0.67100325221E+01  0.41661685389E+02 -0.88236648349E+01  0.43111223910E+02  0.00000000000E+00 0.  1.
</event>
<event>
 7    1  0.6230310E-012  0.5930211E+02  0.7816164E-02  0.1266604E+00
        -11   -1    0    0    0    0  0.00000000000E+00  0.00000000000E+00  0.45593999997E+02  0.45594000000E+02  0.51100000000E-03 0. -1.
         11   -1    0    0    0    0 -0.00000000000E+00 -0.00000000000E+00 -0.45593999997E+02  0.45594000000E+02  0.51100000000E-03 0.  1.
    9900012    2    1    2    0    0 -0.24739797451E+02 -0.45261955760E+01 -0.19600145471E+02  0.59302113988E+02  0.50000309965E+02 0.  0.
         12    1    1    2    0    0  0.24739797451E+02  0.45261955760E+01  0.19600145471E+02  0.31885886012E+02  0.00000000000E+00 0. -1.
         11    1    3    3    0    0 -0.12826499235E+02 -0.15748759920E+02  0.15219005103E+01  0.20368080495E+02  0.51100000000E-03 0. -1.
        -11    1    3    3    0    0 -0.13285747971E+02 -0.61727620697E+01 -0.59530550403E+01  0.15813062805E+02  0.51100000000E-03 0.  1.
         12    1    3    3    0    0  0.13724497549E+01  0.17395326413E+02 -0.15168990941E+02  0.23120970687E+02  0.00000000000E+00 0. -1.
</event>
<event>
 7    1  0.6230310E-012  0.5930196E+02  0.7816164E-02  0.1266605E+00
        -11   -1    0    0    0    0  0.00000000000E+00  0.00000000000E+00  0.45593999997E+02  0.45594000000E+02  0.51100000000E-03 0. -1.
         11   -1    0    0    0    0 -0.00000000000E+00 -0.00000000000E+00 -0.45593999997E+02  0.45594000000E+02  0.51100000000E-03 0.  1.
    9900012    2    1    2    0    0  0.13342114466E+02  0.17641441222E+02 -0.22967086616E+02  0.59301960195E+02  0.50000029485E+02 0.  0.
         12    1    1    2    0    0 -0.13342114466E+02 -0.17641441222E+02  0.22967086616E+02  0.31886039805E+02  0.00000000000E+00 0. -1.
         11    1    3    3    0    0  0.96487014165E+01  0.43337022202E+01 -0.80989998560E+01  0.13321869722E+02  0.51100000000E-03 0. -1.
        -11    1    3    3    0    0 -0.14414218427E+02  0.18645261233E+02 -0.13240992715E+02  0.27032190952E+02  0.51100000000E-03 0.  1.
         12    1    3    3    0    0  0.18107631476E+02 -0.53375222319E+01 -0.16270940455E+01  0.18947899522E+02  0.00000000000E+00 0. -1.
</event>
<event>
 7    1  0.6230310E-012  0.5930196E+02  0.7816164E-02  0.1266605E+00
        -11   -1    0    0    0    0  0.00000000000E+00  0.00000000000E+00  0.45593999997E+02  0.45594000000E+02  0.51100000000E-03 0.  1.
         11   -1    0    0    0    0 -0.00000000000E+00 -0.00000000000E+00 -0.45593999997E+02  0.45594000000E+02  0.51100000000E-03 0. -1.
    9900012    2    1    2    0    0 -0.40546920055E+00  0.23837072840E+02  0.21174258112E+02  0.59301958329E+02  0.50000026082E+02 0.  0.
         12    1    1    2    0    0  0.40546920055E+00 -0.23837072840E+02 -0.21174258112E+02  0.31886041671E+02  0.00000000000E+00 0. -1.
         11    1    3    3    0    0 -0.84956807199E+01  0.75139018180E+01  0.11292727351E+02  0.16005030544E+02  0.51100000000E-03 0. -1.
        -11    1    3    3    0    0 -0.13106977103E+02  0.59291159351E+01 -0.51838532713E+01  0.15291160831E+02  0.51100000000E-03 0.  1.
         12    1    3    3    0    0  0.21197188623E+02  0.10394055087E+02  0.15065384033E+02  0.28005766954E+02  0.00000000000E+00 0. -1.
</event>
<event>
 7    1  0.6230310E-012  0.5930202E+02  0.7816164E-02  0.1266605E+00
        -11   -1    0    0    0    0  0.00000000000E+00  0.00000000000E+00  0.45593999997E+02  0.45594000000E+02  0.51100000000E-03 0. -1.
         11   -1    0    0    0    0 -0.00000000000E+00 -0.00000000000E+00 -0.45593999997E+02  0.45594000000E+02  0.51100000000E-03 0.  1.
    9900012    2    1    2    0    0 -0.41925892446E+01  0.30368639443E+02 -0.87683452927E+01  0.59302016475E+02  0.50000132126E+02 0.  0.
         12    1    1    2    0    0  0.41925892446E+01 -0.30368639443E+02  0.87683452927E+01  0.31885983525E+02  0.00000000000E+00 0. -1.
         11    1    3    3    0    0  0.11814376393E+01  0.92911932733E+01  0.45277943986E+01  0.10403027911E+02  0.51100000000E-03 0. -1.
        -11    1    3    3    0    0  0.34435518655E+01  0.23824846733E+02 -0.24521528227E+02  0.34362577293E+02  0.51100000000E-03 0.  1.
         12    1    3    3    0    0 -0.88175787495E+01 -0.27474005635E+01  0.11225388536E+02  0.14536411271E+02  0.00000000000E+00 0. -1.
</event>
<event>
 7    1  0.6230310E-012  0.5930196E+02  0.7816164E-02  0.1266605E+00
        -11   -1    0    0    0    0  0.00000000000E+00  0.00000000000E+00  0.45593999997E+02  0.45594000000E+02  0.51100000000E-03 0.  1.
         11   -1    0    0    0    0 -0.00000000000E+00 -0.00000000000E+00 -0.45593999997E+02  0.45594000000E+02  0.51100000000E-03 0. -1.
    9900012    2    1    2    0    0 -0.13849193177E+02  0.28642562962E+02  0.21267461475E+01  0.59301958950E+02  0.50000027214E+02 0.  0.
         12    1    1    2    0    0  0.13849193177E+02 -0.28642562962E+02 -0.21267461475E+01  0.31886041050E+02  0.00000000000E+00 0. -1.
         11    1    3    3    0    0 -0.10678280165E+02 -0.21098290748E+01  0.45968143285E+01  0.11815572278E+02  0.51100000000E-03 0. -1.
        -11    1    3    3    0    0  0.19667266175E+01  0.11970900891E+02  0.16381450300E+02  0.20384366459E+02  0.51100000000E-03 0.  1.
         12    1    3    3    0    0 -0.51376396296E+01  0.18781491146E+02 -0.18851518481E+02  0.27102020214E+02  0.00000000000E+00 0. -1.
</event>
<event>
 7    1  0.6230310E-012  0.5930197E+02  0.7816164E-02  0.1266605E+00
        -11   -1    0    0    0    0  0.00000000000E+00  0.00000000000E+00  0.45593999997E+02  0.45594000000E+02  0.51100000000E-03 0. -1.
         11   -1    0    0    0    0 -0.00000000000E+00 -0.00000000000E+00 -0.45593999997E+02  0.45594000000E+02  0.51100000000E-03 0.  1.
    9900012    2    1    2    0    0 -0.59132422279E+01 -0.26242190958E+02  0.17120155133E+02  0.59301972783E+02  0.50000052443E+02 0.  0.
         12    1    1    2    0    0  0.59132422279E+01  0.26242190958E+02 -0.17120155133E+02  0.31886027217E+02  0.00000000000E+00 0. -1.
         11    1    3    3    0    0 -0.86656740206E+01 -0.25250800474E+01  0.95184072289E+01  0.13117545956E+02  0.51100000000E-03 0. -1.
        -11    1    3    3    0    0 -0.17623914195E+02 -0.65631535350E+01  0.15504884097E+01  0.18870117923E+02  0.51100000000E-03 0.  1.
        -12    1    3    3    0    0  0.20376345987E+02 -0.17153957375E+02  0.60512594943E+01  0.27314308904E+02  0.00000000000E+00 0.  1.
</event>
<event>
 7    1  0.6230310E-012  0.5930196E+02  0.7816164E-02  0.1266605E+00
        -11   -1    0    0    0    0  0.00000000000E+00  0.00000000000E+00  0.45593999997E+02  0.45594000000E+02  0.51100000000E-03 0. -1.
         11   -1    0    0    0    0 -0.00000000000E+00 -0.00000000000E+00 -0.45593999997E+02  0.45594000000E+02  0.51100000000E-03 0.  1.
    9900012    2    1    2    0    0  0.12131198144E+02 -0.71219117958E+01 -0.28615234845E+02  0.59301964479E+02  0.50000037297E+02 0.  0.
         12    1    1    2    0    0 -0.12131198144E+02  0.71219117958E+01  0.28615234845E+02  0.31886035521E+02  0.00000000000E+00 0. -1.
         11    1    3    3    0    0  0.10534513474E+02 -0.11050414616E+01 -0.45125262187E+01  0.11513469672E+02  0.51100000000E-03 0. -1.
        -11    1    3    3    0    0  0.10695544291E+02  0.14009453886E+02 -0.17463458484E+02  0.24811929557E+02  0.51100000000E-03 0.  1.
         12    1    3    3    0    0 -0.90988596209E+01 -0.20026324220E+02 -0.66392501422E+01  0.22976565249E+02  0.00000000000E+00 0. -1.
</event>
<event>
 7    1  0.6230310E-012  0.5930194E+02  0.7816164E-02  0.1266605E+00
        -11   -1    0    0    0    0  0.00000000000E+00  0.00000000000E+00  0.45593999997E+02  0.45594000000E+02  0.51100000000E-03 0. -1.
         11   -1    0    0    0    0 -0.00000000000E+00 -0.00000000000E+00 -0.45593999997E+02  0.45594000000E+02  0.51100000000E-03 0.  1.
    9900012    2    1    2    0    0  0.72497037271E+01  0.11930294354E+02 -0.28667588107E+02  0.59301941363E+02  0.49999995141E+02 0.  0.
         12    1    1    2    0    0 -0.72497037271E+01 -0.11930294354E+02  0.28667588107E+02  0.31886058637E+02  0.00000000000E+00 0. -1.
         11    1    3    3    0    0  0.73388966331E+01 -0.74317727751E+01 -0.36988817407E+01  0.11080269706E+02  0.51100000000E-03 0. -1.
        -11    1    3    3    0    0  0.22694840920E+01  0.95991355316E+01 -0.33575630978E+02  0.34994527527E+02  0.51100000000E-03 0.  1.
        -12    1    3    3    0    0 -0.23586769980E+01  0.97629315975E+01  0.86069246119E+01  0.13227144130E+02  0.00000000000E+00 0.  1.
</event>
<event>
 7    1  0.6230310E-012  0.5930193E+02  0.7816164E-02  0.1266605E+00
        -11   -1    0    0    0    0  0.00000000000E+00  0.00000000000E+00  0.45593999997E+02  0.45594000000E+02  0.51100000000E-03 0. -1.
         11   -1    0    0    0    0 -0.00000000000E+00 -0.00000000000E+00 -0.45593999997E+02  0.45594000000E+02  0.51100000000E-03 0.  1.
    9900012    2    1    2    0    0  0.10617456644E+02  0.29708981163E+02 -0.46224742716E+01  0.59301933832E+02  0.49999981405E+02 0.  0.
         12    1    1    2    0    0 -0.10617456644E+02 -0.29708981163E+02  0.46224742716E+01  0.31886066168E+02  0.00000000000E+00 0. -1.
         11    1    3    3    0    0  0.13153804283E+01 -0.77293844125E+01  0.21938687905E+01  0.81416625820E+01  0.51100000000E-03 0. -1.
        -11    1    3    3    0    0  0.11947866473E+02 -0.10721041500E+01 -0.20949086487E+00  0.11997700082E+02  0.51100000000E-03 0.  1.
        -12    1    3    3    0    0 -0.26457902578E+01  0.38510469725E+02 -0.66068521972E+01  0.39162571168E+02  0.00000000000E+00 0.  1.
</event>
<event>
 7    1  0.6230310E-012  0.5930194E+02  0.7816164E-02  0.1266605E+00
        -11   -1    0    0    0    0  0.00000000000E+00  0.00000000000E+00  0.45593999997E+02  0.45594000000E+02  0.51100000000E-03 0.  1.
         11   -1    0    0    0    0 -0.00000000000E+00 -0.00000000000E+00 -0.45593999997E+02  0.45594000000E+02  0.51100000000E-03 0. -1.
    9900012    2    1    2    0    0  0.30229928724E+02  0.88180996975E+01 -0.50113405009E+01  0.59301937111E+02  0.49999987385E+02 0.  0.
         12    1    1    2    0    0 -0.30229928724E+02 -0.88180996975E+01  0.50113405009E+01  0.31886062889E+02  0.00000000000E+00 0. -1.
         11    1    3    3    0    0 -0.24121554858E+01  0.21142154184E+01 -0.99296369324E+00  0.33577340693E+01  0.51100000000E-03 0. -1.
        -11    1    3    3    0    0  0.22108310709E+02 -0.15865806027E+02  0.78956939772E+01  0.28334487589E+02  0.51100000000E-03 0.  1.
         12    1    3    3    0    0  0.10533773501E+02  0.22569690306E+02 -0.11914070785E+02  0.27609715452E+02  0.00000000000E+00 0. -1.
</event>
<event>
 7    1  0.6230310E-012  0.5930193E+02  0.7816164E-02  0.1266605E+00
        -11   -1    0    0    0    0  0.00000000000E+00  0.00000000000E+00  0.45593999997E+02  0.45594000000E+02  0.51100000000E-03 0.  1.
         11   -1    0    0    0    0 -0.00000000000E+00 -0.00000000000E+00 -0.45593999997E+02  0.45594000000E+02  0.51100000000E-03 0. -1.
    9900012    2    1    2    0    0 -0.32224529867E+01 -0.72696959038E+01  0.30878615660E+02  0.59301928011E+02  0.49999970790E+02 0.  0.
         12    1    1    2    0    0  0.32224529867E+01  0.72696959038E+01 -0.30878615660E+02  0.31886071989E+02  0.00000000000E+00 0. -1.
         11    1    3    3    0    0  0.27478201007E+00 -0.77741389461E+01  0.14185816423E+02  0.16178693685E+02  0.51100000000E-03 0. -1.
        -11    1    3    3    0    0 -0.55237408511E+01 -0.15925650816E+02 -0.32894344591E+01  0.17174354318E+02  0.51100000000E-03 0.  1.
         12    1    3    3    0    0  0.20265058544E+01  0.16430093859E+02  0.19982233696E+02  0.25948880008E+02  0.00000000000E+00 0. -1.
</event>
<event>
 7    1  0.6230310E-012  0.5930194E+02  0.7816164E-02  0.1266605E+00
        -11   -1    0    0    0    0  0.00000000000E+00  0.00000000000E+00  0.45593999997E+02  0.45594000000E+02  0.51100000000E-03 0. -1.
         11   -1    0    0    0    0 -0.00000000000E+00 -0.00000000000E+00 -0.45593999997E+02  0.45594000000E+02  0.51100000000E-03 0.  1.
    9900012    2    1    2    0    0 -0.99665619827E+01 -0.26155973203E+02  0.15272648004E+02  0.59301936132E+02  0.49999985600E+02 0.  0.
         12    1    1    2    0    0  0.99665619827E+01  0.26155973203E+02 -0.15272648004E+02  0.31886063868E+02  0.00000000000E+00 0. -1.
         11    1    3    3    0    0 -0.15341109316E+02  0.12637766326E+01  0.16542327819E+02  0.22596357590E+02  0.51100000000E-03 0. -1.
        -11    1    3    3    0    0 -0.92134261047E+01 -0.72690373433E+01 -0.14736728945E+01  0.11827841584E+02  0.51100000000E-03 0.  1.
         12    1    3    3    0    0  0.14587973438E+02 -0.20150712492E+02  0.20399307984E+00  0.24877736958E+02  0.00000000000E+00 0. -1.
</event>
<event>
 7    1  0.6230310E-012  0.5930192E+02  0.7816164E-02  0.1266605E+00
        -11   -1    0    0    0    0  0.00000000000E+00  0.00000000000E+00  0.45593999997E+02  0.45594000000E+02  0.51100000000E-03 0. -1.
         11   -1    0    0    0    0 -0.00000000000E+00 -0.00000000000E+00 -0.45593999997E+02  0.45594000000E+02  0.51100000000E-03 0.  1.
    9900012    2    1    2    0    0 -0.35615648905E+01  0.47864504778E+01 -0.31322954159E+02  0.59301916673E+02  0.49999950112E+02 0.  0.
         12    1    1    2    0    0  0.35615648905E+01 -0.47864504778E+01  0.31322954159E+02  0.31886083327E+02  0.00000000000E+00 0. -1.
         11    1    3    3    0    0 -0.14400577158E+02  0.35478999184E+01 -0.16086963042E+01  0.14918180867E+02  0.51100000000E-03 0. -1.
        -11    1    3    3    0    0  0.66492289326E+01  0.12242886985E+02 -0.29480161645E+02  0.32606448105E+02  0.51100000000E-03 0.  1.
        -12    1    3    3    0    0  0.41897833348E+01 -0.11004336426E+02 -0.23409621004E+00  0.11777287701E+02  0.00000000000E+00 0.  1.
</event>
<event>
 7    1  0.6230310E-012  0.5930193E+02  0.7816164E-02  0.1266605E+00
        -11   -1    0    0    0    0  0.00000000000E+00  0.00000000000E+00  0.45593999997E+02  0.45594000000E+02  0.51100000000E-03 0. -1.
         11   -1    0    0    0    0 -0.00000000000E+00 -0.00000000000E+00 -0.45593999997E+02  0.45594000000E+02  0.51100000000E-03 0.  1.
    9900012    2    1    2    0    0 -0.86691275495E+01 -0.12684106721E+02 -0.27940672631E+02  0.59301929015E+02  0.49999972621E+02 0.  0.
         12    1    1    2    0    0  0.86691275495E+01  0.12684106721E+02  0.27940672631E+02  0.31886070985E+02  0.00000000000E+00 0. -1.
         11    1    3    3    0    0 -0.12979417285E+02 -0.12937127594E+02  0.70051912909E+01  0.19619053207E+02  0.51100000000E-03 0. -1.
        -11    1    3    3    0    0  0.42046008816E+01 -0.23358061918E+01 -0.17231783737E+00  0.48129359893E+01  0.51100000000E-03 0.  1.
        -12    1    3    3    0    0  0.10568885352E+00  0.25888270648E+01 -0.34773546085E+02  0.34869939819E+02  0.00000000000E+00 0.  1.
</event>
<event>
 7    1  0.6230310E-012  0.5930195E+02  0.7816164E-02  0.1266605E+00
        -11   -1    0    0    0    0  0.00000000000E+00  0.00000000000E+00  0.45593999997E+02  0.45594000000E+02  0.51100000000E-03 0.  1.
         11   -1    0    0    0    0 -0.00000000000E+00 -0.00000000000E+00 -0.45593999997E+02  0.45594000000E+02  0.51100000000E-03 0. -1.
    9900012    2    1    2    0    0 -0.14743858224E+02 -0.22767378065E+02  0.16762610167E+02  0.59301953539E+02  0.50000017346E+02 0.  0.
         12    1    1    2    0    0  0.14743858224E+02  0.22767378065E+02 -0.16762610167E+02  0.31886046461E+02  0.00000000000E+00 0. -1.
         11    1    3    3    0    0  0.40767678888E+01 -0.25276975925E+02  0.10711308162E+02  0.27753876686E+02  0.51100000000E-03 0. -1.
        -11    1    3    3    0    0 -0.90001673004E+01 -0.11008105287E+02  0.35285463141E+01  0.14650325348E+02  0.51100000000E-03 0.  1.
         12    1    3    3    0    0 -0.98204588129E+01  0.13517703146E+02  0.25227556916E+01  0.16897751505E+02  0.00000000000E+00 0. -1.
</event>
<event>
 7    1  0.6230310E-012  0.5930194E+02  0.7816164E-02  0.1266605E+00
        -11   -1    0    0    0    0  0.00000000000E+00  0.00000000000E+00  0.45593999997E+02  0.45594000000E+02  0.51100000000E-03 0.  1.
         11   -1    0    0    0    0 -0.00000000000E+00 -0.00000000000E+00 -0.45593999997E+02  0.45594000000E+02  0.51100000000E-03 0. -1.
    9900012    2    1    2    0    0 -0.15765665456E+02 -0.26660780155E+02  0.75741482313E+01  0.59301935220E+02  0.49999983936E+02 0.  0.
         12    1    1    2    0    0  0.15765665456E+02  0.26660780155E+02 -0.75741482313E+01  0.31886064780E+02  0.00000000000E+00 0. -1.
         11    1    3    3    0    0  0.60423626987E+00  0.77111916094E+01 -0.48808159899E+01  0.91460342496E+01  0.51100000000E-03 0. -1.
        -11    1    3    3    0    0 -0.58636470798E+01 -0.14756699855E+02 -0.98204821628E+01  0.18670415578E+02  0.51100000000E-03 0.  1.
        -12    1    3    3    0    0 -0.10506254646E+02 -0.19615271910E+02  0.22275446384E+02  0.31485485392E+02  0.00000000000E+00 0.  1.
</event>
<event>
 7    1  0.6230310E-012  0.5930198E+02  0.7816164E-02  0.1266605E+00
        -11   -1    0    0    0    0  0.00000000000E+00  0.00000000000E+00  0.45593999997E+02  0.45594000000E+02  0.51100000000E-03 0.  1.
         11   -1    0    0    0    0 -0.00000000000E+00 -0.00000000000E+00 -0.45593999997E+02  0.45594000000E+02  0.51100000000E-03 0. -1.
    9900012    2    1    2    0    0  0.13375748324E+01  0.15623729155E+02  0.27763794792E+02  0.59301979233E+02  0.50000064205E+02 0.  0.
         12    1    1    2    0    0 -0.13375748324E+01 -0.15623729155E+02 -0.27763794792E+02  0.31886020767E+02  0.00000000000E+00 0. -1.
         11    1    3    3    0    0 -0.68771592957E+01 -0.13799058684E+01  0.10623394750E+02  0.12730120834E+02  0.51100000000E-03 0.  1.
        -11    1    3    3    0    0  0.12392840205E+02  0.62976888850E+01  0.27682399786E+02  0.30976743402E+02  0.51100000000E-03 0. -1.
         12    1    3    3    0    0 -0.41781060769E+01  0.10705946139E+02 -0.10541999744E+02  0.15595114996E+02  0.00000000000E+00 0. -1.
</event>
<event>
 7    1  0.6230310E-012  0.5930195E+02  0.7816164E-02  0.1266605E+00
        -11   -1    0    0    0    0  0.00000000000E+00  0.00000000000E+00  0.45593999997E+02  0.45594000000E+02  0.51100000000E-03 0.  1.
         11   -1    0    0    0    0 -0.00000000000E+00 -0.00000000000E+00 -0.45593999997E+02  0.45594000000E+02  0.51100000000E-03 0. -1.
    9900012    2    1    2    0    0  0.29108093200E+02  0.12795975134E+02 -0.23878540944E+01  0.59301954203E+02  0.50000018558E+02 0.  0.
         12    1    1    2    0    0 -0.29108093200E+02 -0.12795975134E+02  0.23878540944E+01  0.31886045797E+02  0.00000000000E+00 0. -1.
         11    1    3    3    0    0  0.11099939402E+02  0.14946709574E+02 -0.20133688142E+02  0.27422220557E+02  0.51100000000E-03 0. -1.
        -11    1    3    3    0    0  0.57544151536E+01  0.59526644539E+01 -0.68816955620E+00  0.83078929615E+01  0.51100000000E-03 0.  1.
         12    1    3    3    0    0  0.12253738644E+02 -0.81033988933E+01  0.18434003604E+02  0.23571840685E+02  0.00000000000E+00 0. -1.
</event>
<event>
 7    1  0.6230310E-012  0.5930194E+02  0.7816164E-02  0.1266605E+00
        -11   -1    0    0    0    0  0.00000000000E+00  0.00000000000E+00  0.45593999997E+02  0.45594000000E+02  0.51100000000E-03 0.  1.
         11   -1    0    0    0    0 -0.00000000000E+00 -0.00000000000E+00 -0.45593999997E+02  0.45594000000E+02  0.51100000000E-03 0. -1.
    9900012    2    1    2    0    0 -0.53216195640E+00 -0.28762541444E+02 -0.13753314136E+02  0.59301942916E+02  0.49999997972E+02 0.  0.
         12    1    1    2    0    0  0.53216195640E+00  0.28762541444E+02  0.13753314136E+02  0.31886057084E+02  0.00000000000E+00 0. -1.
         11    1    3    3    0    0  0.31766595792E+01 -0.16505465752E+02 -0.29156722117E+02  0.33654658082E+02  0.51100000000E-03 0. -1.
        -11    1    3    3    0    0 -0.11805598143E+01 -0.88665020745E+01 -0.72448337110E+00  0.89740435105E+01  0.51100000000E-03 0.  1.
        -12    1    3    3    0    0 -0.25282617212E+01 -0.33905736173E+01  0.16127891351E+02  0.16673241323E+02  0.00000000000E+00 0.  1.
</event>
<event>
 7    1  0.6230310E-012  0.5930196E+02  0.7816164E-02  0.1266605E+00
        -11   -1    0    0    0    0  0.00000000000E+00  0.00000000000E+00  0.45593999997E+02  0.45594000000E+02  0.51100000000E-03 0. -1.
         11   -1    0    0    0    0 -0.00000000000E+00 -0.00000000000E+00 -0.45593999997E+02  0.45594000000E+02  0.51100000000E-03 0.  1.
    9900012    2    1    2    0    0 -0.19064015891E+02  0.25247200178E+02 -0.39826898193E+01  0.59301958588E+02  0.50000026555E+02 0.  0.
         12    1    1    2    0    0  0.19064015891E+02 -0.25247200178E+02  0.39826898193E+01  0.31886041412E+02  0.00000000000E+00 0. -1.
         11    1    3    3    0    0 -0.80226175598E+01  0.15460635621E+02 -0.58422514849E+00  0.17427993734E+02  0.51100000000E-03 0. -1.
        -11    1    3    3    0    0  0.40321898165E+01  0.20738086366E+02  0.45608970222E+01  0.21613157168E+02  0.51100000000E-03 0.  1.
         12    1    3    3    0    0 -0.15073588147E+02 -0.10951521808E+02 -0.79593616930E+01  0.20260807687E+02  0.00000000000E+00 0. -1.
</event>
<event>
 7    1  0.6230310E-012  0.5930192E+02  0.7816164E-02  0.1266605E+00
        -11   -1    0    0    0    0  0.00000000000E+00  0.00000000000E+00  0.45593999997E+02  0.45594000000E+02  0.51100000000E-03 0. -1.
         11   -1    0    0    0    0 -0.00000000000E+00 -0.00000000000E+00 -0.45593999997E+02  0.45594000000E+02  0.51100000000E-03 0.  1.
    9900012    2    1    2    0    0 -0.21820420635E+02  0.18151975742E+02 -0.14529174900E+02  0.59301923049E+02  0.49999961740E+02 0.  0.
         12    1    1    2    0    0  0.21820420635E+02 -0.18151975742E+02  0.14529174900E+02  0.31886076951E+02  0.00000000000E+00 0. -1.
         11    1    3    3    0    0  0.10395953145E+02  0.79694039596E+01  0.93244725701E+01  0.16078962349E+02  0.51100000000E-03 0. -1.
        -11    1    3    3    0    0 -0.32693869013E+01  0.46461592899E+01 -0.66017217027E+00  0.57193980814E+01  0.51100000000E-03 0.  1.
         12    1    3    3    0    0 -0.28946986878E+02  0.55364124925E+01 -0.23193475300E+02  0.37503562619E+02  0.00000000000E+00 0. -1.
</event>
<event>
 7    1  0.6230310E-012  0.5930191E+02  0.7816164E-02  0.1266605E+00
        -11   -1    0    0    0    0  0.00000000000E+00  0.00000000000E+00  0.45593999997E+02  0.45594000000E+02  0.51100000000E-03 0. -1.
         11   -1    0    0    0    0 -0.00000000000E+00 -0.00000000000E+00 -0.45593999997E+02  0.45594000000E+02  0.51100000000E-03 0.  1.
    9900012    2    1    2    0    0  0.15881815379E+02  0.27605819427E+02 -0.15522875914E+01  0.59301907064E+02  0.49999932587E+02 0.  0.
         12    1    1    2    0    0 -0.15881815379E+02 -0.27605819427E+02  0.15522875914E+01  0.31886092936E+02  0.00000000000E+00 0. -1.
         11    1    3    3    0    0  0.72493502589E+01 -0.39108790987E+00  0.68233653696E+01  0.99631493092E+01  0.51100000000E-03 0. -1.
        -11    1    3    3    0    0  0.16592747297E+02 -0.50097769470E+00 -0.10551835223E+02  0.19670065286E+02  0.51100000000E-03 0.  1.
        -12    1    3    3    0    0 -0.79602821762E+01  0.28497885031E+02  0.21761822622E+01  0.29668692469E+02  0.00000000000E+00 0.  1.
</event>
<event>
 7    1  0.6230310E-012  0.5930189E+02  0.7816164E-02  0.1266605E+00
        -11   -1    0    0    0    0  0.00000000000E+00  0.00000000000E+00  0.45593999997E+02  0.45594000000E+02  0.51100000000E-03 0.  1.
         11   -1    0    0    0    0 -0.00000000000E+00 -0.00000000000E+00 -0.45593999997E+02  0.45594000000E+02  0.51100000000E-03 0. -1.
    9900012    2    1    2    0    0 -0.22960748031E+01  0.97136481108E+01  0.30283615319E+02  0.59301885845E+02  0.49999893888E+02 0.  0.
         12    1    1    2    0    0  0.22960748031E+01 -0.97136481108E+01 -0.30283615319E+02  0.31886114155E+02  0.00000000000E+00 0. -1.
         11    1    3    3    0    0 -0.29567779200E+01  0.31329680281E+01 -0.55485592598E+01  0.70245664958E+01  0.51100000000E-03 0. -1.
        -11    1    3    3    0    0 -0.81847937594E+01 -0.78922730145E+01 -0.13100403783E+01  0.11445305949E+02  0.51100000000E-03 0.  1.
        -12    1    3    3    0    0  0.88454968764E+01  0.14472953097E+02  0.37142214957E+02  0.40832013400E+02  0.00000000000E+00 0.  1.
</event>
<event>
 7    1  0.6230310E-012  0.5930195E+02  0.7816164E-02  0.1266605E+00
        -11   -1    0    0    0    0  0.00000000000E+00  0.00000000000E+00  0.45593999997E+02  0.45594000000E+02  0.51100000000E-03 0.  1.
         11   -1    0    0    0    0 -0.00000000000E+00 -0.00000000000E+00 -0.45593999997E+02  0.45594000000E+02  0.51100000000E-03 0. -1.
    9900012    2    1    2    0    0  0.16415334194E+02  0.18450076954E+02  0.20170569801E+02  0.59301946271E+02  0.50000004092E+02 0.  0.
         12    1    1    2    0    0 -0.16415334194E+02 -0.18450076954E+02 -0.20170569801E+02  0.31886053729E+02  0.00000000000E+00 0. -1.
         11    1    3    3    0    0 -0.42578213299E+01 -0.78263511451E+01  0.76511380470E+01  0.11743965616E+02  0.51100000000E-03 0. -1.
        -11    1    3    3    0    0 -0.62057780594E+01  0.11250954958E+02 -0.28208930684E+01  0.13154965099E+02  0.51100000000E-03 0.  1.
        -12    1    3    3    0    0  0.26878933584E+02  0.15025473141E+02  0.15340324822E+02  0.34403015556E+02  0.00000000000E+00 0.  1.
</event>
<event>
 7    1  0.6230310E-012  0.5930195E+02  0.7816164E-02  0.1266605E+00
        -11   -1    0    0    0    0  0.00000000000E+00  0.00000000000E+00  0.45593999997E+02  0.45594000000E+02  0.51100000000E-03 0.  1.
         11   -1    0    0    0    0 -0.00000000000E+00 -0.00000000000E+00 -0.45593999997E+02  0.45594000000E+02  0.51100000000E-03 0. -1.
    9900012    2    1    2    0    0 -0.26468679164E+02 -0.13533703990E+02  0.11531177165E+02  0.59301950273E+02  0.50000011390E+02 0.  0.
         12    1    1    2    0    0  0.26468679164E+02  0.13533703990E+02 -0.11531177165E+02  0.31886049727E+02  0.00000000000E+00 0. -1.
         11    1    3    3    0    0 -0.61122769561E+01  0.30110931578E+00 -0.10281004792E+02  0.11964516547E+02  0.51100000000E-03 0. -1.
        -11    1    3    3    0    0 -0.20683025298E+02 -0.66141275586E+00 -0.12980571642E+01  0.20734270061E+02  0.51100000000E-03 0.  1.
         12    1    3    3    0    0  0.32662309038E+00 -0.13173400550E+02  0.23110239122E+02  0.26603163664E+02  0.00000000000E+00 0. -1.
</event>
<event>
 7    1  0.6230310E-012  0.5930186E+02  0.7816164E-02  0.1266605E+00
        -11   -1    0    0    0    0  0.00000000000E+00  0.00000000000E+00  0.45593999997E+02  0.45594000000E+02  0.51100000000E-03 0.  1.
         11   -1    0    0    0    0 -0.00000000000E+00 -0.00000000000E+00 -0.45593999997E+02  0.45594000000E+02  0.51100000000E-03 0. -1.
    9900012    2    1    2    0    0 -0.24543252926E+02 -0.23584463771E+01  0.20218612975E+02  0.59301861253E+02  0.49999849039E+02 0.  0.
         12    1    1    2    0    0  0.24543252926E+02  0.23584463771E+01 -0.20218612975E+02  0.31886138747E+02  0.00000000000E+00 0. -1.
         11    1    3    3    0    0  0.28786241799E+01 -0.13770869056E+01  0.24696896671E+02  0.24902199722E+02  0.51100000000E-03 0. -1.
        -11    1    3    3    0    0 -0.12941839458E+02 -0.51308920692E+01  0.68850431416E+01  0.15531293614E+02  0.51100000000E-03 0.  1.
        -12    1    3    3    0    0 -0.14480037648E+02  0.41495325977E+01 -0.11363326838E+02  0.18868367918E+02  0.00000000000E+00 0.  1.
</event>
<event>
 7    1  0.6230310E-012  0.5930196E+02  0.7816164E-02  0.1266605E+00
        -11   -1    0    0    0    0  0.00000000000E+00  0.00000000000E+00  0.45593999997E+02  0.45594000000E+02  0.51100000000E-03 0.  1.
         11   -1    0    0    0    0 -0.00000000000E+00 -0.00000000000E+00 -0.45593999997E+02  0.45594000000E+02  0.51100000000E-03 0. -1.
    9900012    2    1    2    0    0  0.29254980386E+02  0.91658466143E+01  0.87665802969E+01  0.59301959925E+02  0.50000028993E+02 0.  0.
         12    1    1    2    0    0 -0.29254980386E+02 -0.91658466143E+01 -0.87665802969E+01  0.31886040075E+02  0.00000000000E+00 0. -1.
         11    1    3    3    0    0 -0.37630227349E+01 -0.52689811828E+01  0.69618998639E+01  0.95073946370E+01  0.51100000000E-03 0. -1.
        -11    1    3    3    0    0 -0.48793416512E+01  0.93628170694E+01 -0.36523996823E+01  0.11171854910E+02  0.51100000000E-03 0.  1.
         12    1    3    3    0    0  0.37897344772E+02  0.50720107276E+01  0.54570801153E+01  0.38622710379E+02  0.00000000000E+00 0. -1.
</event>
<event>
 7    1  0.6230310E-012  0.5930194E+02  0.7816164E-02  0.1266605E+00
        -11   -1    0    0    0    0  0.00000000000E+00  0.00000000000E+00  0.45593999997E+02  0.45594000000E+02  0.51100000000E-03 0. -1.
         11   -1    0    0    0    0 -0.00000000000E+00 -0.00000000000E+00 -0.45593999997E+02  0.45594000000E+02  0.51100000000E-03 0.  1.
    9900012    2    1    2    0    0 -0.17521412020E+02  0.26555776336E+02 -0.21240989798E+01  0.59301938273E+02  0.49999989506E+02 0.  0.
         12    1    1    2    0    0  0.17521412020E+02 -0.26555776336E+02  0.21240989798E+01  0.31886061727E+02  0.00000000000E+00 0. -1.
         11    1    3    3    0    0  0.20049383692E+01 -0.14267527888E+01 -0.48577713350E+01  0.54454884068E+01  0.51100000000E-03 0. -1.
        -11    1    3    3    0    0  0.73154780878E+01 -0.48300250022E+01 -0.59352001954E+01  0.10586404621E+02  0.51100000000E-03 0.  1.
         12    1    3    3    0    0 -0.26841828477E+02  0.32812554127E+02  0.86688725505E+01  0.43270045246E+02  0.00000000000E+00 0. -1.
</event>
<event>
 7    1  0.6230310E-012  0.5930194E+02  0.7816164E-02  0.1266605E+00
        -11   -1    0    0    0    0  0.00000000000E+00  0.00000000000E+00  0.45593999997E+02  0.45594000000E+02  0.51100000000E-03 0.  1.
         11   -1    0    0    0    0 -0.00000000000E+00 -0.00000000000E+00 -0.45593999997E+02  0.45594000000E+02  0.51100000000E-03 0. -1.
    9900012    2    1    2    0    0 -0.20483497292E+02  0.20866696102E+02  0.12717240515E+02  0.59301939193E+02  0.49999991182E+02 0.  0.
         12    1    1    2    0    0  0.20483497292E+02 -0.20866696102E+02 -0.12717240515E+02  0.31886060807E+02  0.00000000000E+00 0. -1.
         11    1    3    3    0    0 -0.22359352335E+02  0.30805726532E+01  0.10162457293E+02  0.24752900905E+02  0.51100000000E-03 0. -1.
        -11    1    3    3    0    0 -0.78500462307E+01  0.16609303656E+02  0.11172294346E+02  0.21501450067E+02  0.51100000000E-03 0.  1.
        -12    1    3    3    0    0  0.97259012743E+01  0.11768197928E+01 -0.86175111237E+01  0.13047588221E+02  0.00000000000E+00 0.  1.
</event>
<event>
 7    1  0.6230310E-012  0.5930194E+02  0.7816164E-02  0.1266605E+00
        -11   -1    0    0    0    0  0.00000000000E+00  0.00000000000E+00  0.45593999997E+02  0.45594000000E+02  0.51100000000E-03 0. -1.
         11   -1    0    0    0    0 -0.00000000000E+00 -0.00000000000E+00 -0.45593999997E+02  0.45594000000E+02  0.51100000000E-03 0.  1.
    9900012    2    1    2    0    0  0.86856372657E+01 -0.29122228126E+02 -0.96527787412E+01  0.59301943437E+02  0.49999998922E+02 0.  0.
         12    1    1    2    0    0 -0.86856372657E+01  0.29122228126E+02  0.96527787412E+01  0.31886056563E+02  0.00000000000E+00 0. -1.
         11    1    3    3    0    0  0.57446534600E+00 -0.10871623118E+02  0.44066453099E+01  0.11744816848E+02  0.51100000000E-03 0. -1.
        -11    1    3    3    0    0  0.50760526677E+01 -0.27246597836E+02 -0.21836548963E+02  0.35284249675E+02  0.51100000000E-03 0.  1.
        -12    1    3    3    0    0  0.30351192521E+01  0.89959928277E+01  0.77771249115E+01  0.12272876913E+02  0.00000000000E+00 0.  1.
</event>
<event>
 7    1  0.6230310E-012  0.5930195E+02  0.7816164E-02  0.1266605E+00
        -11   -1    0    0    0    0  0.00000000000E+00  0.00000000000E+00  0.45593999997E+02  0.45594000000E+02  0.51100000000E-03 0.  1.
         11   -1    0    0    0    0 -0.00000000000E+00 -0.00000000000E+00 -0.45593999997E+02  0.45594000000E+02  0.51100000000E-03 0. -1.
    9900012    2    1    2    0    0 -0.19834825009E+01 -0.22712548069E+02  0.22291842176E+02  0.59301948658E+02  0.50000008444E+02 0.  0.
         12    1    1    2    0    0  0.19834825009E+01  0.22712548069E+02 -0.22291842176E+02  0.31886051342E+02  0.00000000000E+00 0. -1.
         11    1    3    3    0    0 -0.37709034013E+01  0.90431779451E+01  0.44724334516E+01  0.10770396513E+02  0.51100000000E-03 0. -1.
        -11    1    3    3    0    0 -0.14404775141E+02 -0.14982532336E+02  0.32412702487E+01  0.21035200383E+02  0.51100000000E-03 0.  1.
        -12    1    3    3    0    0  0.16192196042E+02 -0.16773193678E+02  0.14578138475E+02  0.27496351762E+02  0.00000000000E+00 0.  1.
</event>
<event>
 7    1  0.6230310E-012  0.5930196E+02  0.7816164E-02  0.1266605E+00
        -11   -1    0    0    0    0  0.00000000000E+00  0.00000000000E+00  0.45593999997E+02  0.45594000000E+02  0.51100000000E-03 0.  1.
         11   -1    0    0    0    0 -0.00000000000E+00 -0.00000000000E+00 -0.45593999997E+02  0.45594000000E+02  0.51100000000E-03 0. -1.
    9900012    2    1    2    0    0  0.19637583737E+02 -0.16382705684E+02  0.19044462771E+02  0.59301963828E+02  0.50000036110E+02 0.  0.
         12    1    1    2    0    0 -0.19637583737E+02  0.16382705684E+02 -0.19044462771E+02  0.31886036172E+02  0.00000000000E+00 0. -1.
         11    1    3    3    0    0  0.78048845974E+00 -0.66616802366E+01 -0.12928949903E+02  0.14565194529E+02  0.51100000000E-03 0. -1.
        -11    1    3    3    0    0 -0.12512856459E+01 -0.11033771245E+02  0.10363523978E+02  0.15189221611E+02  0.51100000000E-03 0.  1.
         12    1    3    3    0    0  0.20108380923E+02  0.13127457979E+01  0.21609888696E+02  0.29547547687E+02  0.00000000000E+00 0. -1.
</event>
<event>
 7    1  0.6230310E-012  0.5930193E+02  0.7816164E-02  0.1266605E+00
        -11   -1    0    0    0    0  0.00000000000E+00  0.00000000000E+00  0.45593999997E+02  0.45594000000E+02  0.51100000000E-03 0. -1.
         11   -1    0    0    0    0 -0.00000000000E+00 -0.00000000000E+00 -0.45593999997E+02  0.45594000000E+02  0.51100000000E-03 0.  1.
    9900012    2    1    2    0    0  0.14250715538E+02  0.10214986417E+02 -0.26632543270E+02  0.59301934048E+02  0.49999981800E+02 0.  0.
         12    1    1    2    0    0 -0.14250715538E+02 -0.10214986417E+02  0.26632543270E+02  0.31886065952E+02  0.00000000000E+00 0. -1.
         11    1    3    3    0    0  0.12338592355E+02 -0.36677610407E+01 -0.13242730270E+02  0.18467897488E+02  0.51100000000E-03 0. -1.
        -11    1    3    3    0    0 -0.11902656938E+02 -0.23712177078E+01 -0.15170931234E+02  0.19428151492E+02  0.51100000000E-03 0.  1.
         12    1    3    3    0    0  0.13814780121E+02  0.16253965166E+02  0.17811182342E+01  0.21405885069E+02  0.00000000000E+00 0. -1.
</event>
<event>
 7    1  0.6230310E-012  0.5930196E+02  0.7816164E-02  0.1266605E+00
        -11   -1    0    0    0    0  0.00000000000E+00  0.00000000000E+00  0.45593999997E+02  0.45594000000E+02  0.51100000000E-03 0.  1.
         11   -1    0    0    0    0 -0.00000000000E+00 -0.00000000000E+00 -0.45593999997E+02  0.45594000000E+02  0.51100000000E-03 0. -1.
    9900012    2    1    2    0    0 -0.27444009715E+02  0.15809253750E+02 -0.36896449053E+01  0.59301958338E+02  0.50000026098E+02 0.  0.
         12    1    1    2    0    0  0.27444009715E+02 -0.15809253750E+02  0.36896449053E+01  0.31886041662E+02  0.00000000000E+00 0. -1.
         11    1    3    3    0    0  0.10303922380E+01  0.45694627109E+01 -0.87952393088E+01  0.99648347899E+01  0.51100000000E-03 0. -1.
        -11    1    3    3    0    0  0.14264864943E+01  0.14392465712E+02  0.11644043061E+02  0.18567758940E+02  0.51100000000E-03 0.  1.
        -12    1    3    3    0    0 -0.29900888447E+02 -0.31526746729E+01 -0.65384486574E+01  0.30769364608E+02  0.00000000000E+00 0.  1.
</event>
<event>
 7    1  0.6230310E-012  0.5930196E+02  0.7816164E-02  0.1266605E+00
        -11   -1    0    0    0    0  0.00000000000E+00  0.00000000000E+00  0.45593999997E+02  0.45594000000E+02  0.51100000000E-03 0.  1.
         11   -1    0    0    0    0 -0.00000000000E+00 -0.00000000000E+00 -0.45593999997E+02  0.45594000000E+02  0.51100000000E-03 0. -1.
    9900012    2    1    2    0    0  0.72007632604E+01  0.94563515555E+01  0.29587940509E+02  0.59301956034E+02  0.50000021896E+02 0.  0.
         12    1    1    2    0    0 -0.72007632604E+01 -0.94563515555E+01 -0.29587940509E+02  0.31886043966E+02  0.00000000000E+00 0. -1.
         11    1    3    3    0    0 -0.13792999912E+02 -0.27146100551E+01  0.88184978916E+01  0.16594633459E+02  0.51100000000E-03 0. -1.
        -11    1    3    3    0    0 -0.40391275204E+00  0.15631403678E+02  0.90324765578E+01  0.18057950036E+02  0.51100000000E-03 0.  1.
         12    1    3    3    0    0  0.21397675925E+02 -0.34604420676E+01  0.11736966059E+02  0.24649372539E+02  0.00000000000E+00 0. -1.
</event>
<event>
 7    1  0.6230310E-012  0.5930193E+02  0.7816164E-02  0.1266605E+00
        -11   -1    0    0    0    0  0.00000000000E+00  0.00000000000E+00  0.45593999997E+02  0.45594000000E+02  0.51100000000E-03 0. -1.
         11   -1    0    0    0    0 -0.00000000000E+00 -0.00000000000E+00 -0.45593999997E+02  0.45594000000E+02  0.51100000000E-03 0.  1.
    9900012    2    1    2    0    0  0.43513480088E+01 -0.19015989290E+02 -0.25222599781E+02  0.59301927525E+02  0.49999969903E+02 0.  0.
         12    1    1    2    0    0 -0.43513480088E+01  0.19015989290E+02  0.25222599781E+02  0.31886072475E+02  0.00000000000E+00 0. -1.
         11    1    3    3    0    0  0.21410839699E+02  0.32607058235E+01 -0.19802853894E+02  0.29346367437E+02  0.51100000000E-03 0. -1.
        -11    1    3    3    0    0 -0.57643298588E+01 -0.12626988792E+02  0.67768706837E+00  0.13897035825E+02  0.51100000000E-03 0.  1.
        -12    1    3    3    0    0 -0.11295161832E+02 -0.96497063211E+01 -0.60974329549E+01  0.16058524264E+02  0.00000000000E+00 0.  1.
</event>
<event>
 7    1  0.6230310E-012  0.5930195E+02  0.7816164E-02  0.1266605E+00
        -11   -1    0    0    0    0  0.00000000000E+00  0.00000000000E+00  0.45593999997E+02  0.45594000000E+02  0.51100000000E-03 0. -1.
         11   -1    0    0    0    0 -0.00000000000E+00 -0.00000000000E+00 -0.45593999997E+02  0.45594000000E+02  0.51100000000E-03 0.  1.
    9900012    2    1    2    0    0 -0.22940925174E+02  0.11935636256E+02 -0.18654084230E+02  0.59301947890E+02  0.50000007044E+02 0.  0.
         12    1    1    2    0    0  0.22940925174E+02 -0.11935636256E+02  0.18654084230E+02  0.31886052110E+02  0.00000000000E+00 0. -1.
         11    1    3    3    0    0  0.35929415759E+01  0.77778708977E+01  0.87605330254E+01  0.12253629830E+02  0.51100000000E-03 0. -1.
        -11    1    3    3    0    0 -0.46691227609E+01  0.93242697737E+01  0.13875750567E+01  0.10519889684E+02  0.51100000000E-03 0.  1.
         12    1    3    3    0    0 -0.21864743989E+02 -0.51665044150E+01 -0.28802192313E+02  0.36528428376E+02  0.00000000000E+00 0. -1.
</event>
<event>
 7    1  0.6230310E-012  0.5930194E+02  0.7816164E-02  0.1266605E+00
        -11   -1    0    0    0    0  0.00000000000E+00  0.00000000000E+00  0.45593999997E+02  0.45594000000E+02  0.51100000000E-03 0.  1.
         11   -1    0    0    0    0 -0.00000000000E+00 -0.00000000000E+00 -0.45593999997E+02  0.45594000000E+02  0.51100000000E-03 0. -1.
    9900012    2    1    2    0    0  0.16207021007E+02  0.14204029619E+02  0.23501044842E+02  0.59301935708E+02  0.49999984827E+02 0.  0.
         12    1    1    2    0    0 -0.16207021007E+02 -0.14204029619E+02 -0.23501044842E+02  0.31886064292E+02  0.00000000000E+00 0. -1.
         11    1    3    3    0    0  0.65732888657E+01 -0.57709895554E+01 -0.18843718152E+01  0.89478100315E+01  0.51100000000E-03 0. -1.
        -11    1    3    3    0    0  0.17207129853E+02  0.45277461226E+01 -0.21125570154E+01  0.17917831903E+02  0.51100000000E-03 0.  1.
         12    1    3    3    0    0 -0.75733977115E+01  0.15447273052E+02  0.27497973673E+02  0.32436293773E+02  0.00000000000E+00 0. -1.
</event>
<event>
 7    1  0.6230310E-012  0.5930188E+02  0.7816164E-02  0.1266605E+00
        -11   -1    0    0    0    0  0.00000000000E+00  0.00000000000E+00  0.45593999997E+02  0.45594000000E+02  0.51100000000E-03 0.  1.
         11   -1    0    0    0    0 -0.00000000000E+00 -0.00000000000E+00 -0.45593999997E+02  0.45594000000E+02  0.51100000000E-03 0. -1.
    9900012    2    1    2    0    0 -0.28158054365E+00  0.17614878869E+02  0.26577458717E+02  0.59301881437E+02  0.49999885849E+02 0.  0.
         12    1    1    2    0    0  0.28158054365E+00 -0.17614878869E+02 -0.26577458717E+02  0.31886118563E+02  0.00000000000E+00 0. -1.
         11    1    3    3    0    0  0.96637351761E+01  0.23220705505E+01  0.11970375262E+02  0.15558588412E+02  0.51100000000E-03 0. -1.
        -11    1    3    3    0    0 -0.23257275791E+01  0.93094895854E+01  0.26628110865E+02  0.28304273416E+02  0.51100000000E-03 0.  1.
        -12    1    3    3    0    0 -0.76195881407E+01  0.59833187329E+01 -0.12021027410E+02  0.15439019609E+02  0.00000000000E+00 0.  1.
</event>
<event>
 7    1  0.6230310E-012  0.5930197E+02  0.7816164E-02  0.1266605E+00
        -11   -1    0    0    0    0  0.00000000000E+00  0.00000000000E+00  0.45593999997E+02  0.45594000000E+02  0.51100000000E-03 0.  1.
         11   -1    0    0    0    0 -0.00000000000E+00 -0.00000000000E+00 -0.45593999997E+02  0.45594000000E+02  0.51100000000E-03 0. -1.
    9900012    2    1    2    0    0 -0.27408583880E+02  0.87307856242E+01  0.13757235474E+02  0.59301974600E+02  0.50000055757E+02 0.  0.
         12    1    1    2    0    0  0.27408583880E+02 -0.87307856242E+01 -0.13757235474E+02  0.31886025400E+02  0.00000000000E+00 0. -1.
         11    1    3    3    0    0 -0.22419032077E+02 -0.15014640127E+02 -0.54863474896E+00  0.26988023598E+02  0.51100000000E-03 0. -1.
        -11    1    3    3    0    0 -0.85829415590E+01  0.73126648264E+01  0.19513091495E+01  0.11443319463E+02  0.51100000000E-03 0.  1.
        -12    1    3    3    0    0  0.35933897560E+01  0.16432760925E+02  0.12354561073E+02  0.20870631539E+02  0.00000000000E+00 0.  1.
</event>
<event>
 7    1  0.6230310E-012  0.5930201E+02  0.7816164E-02  0.1266605E+00
        -11   -1    0    0    0    0  0.00000000000E+00  0.00000000000E+00  0.45593999997E+02  0.45594000000E+02  0.51100000000E-03 0.  1.
         11   -1    0    0    0    0 -0.00000000000E+00 -0.00000000000E+00 -0.45593999997E+02  0.45594000000E+02  0.51100000000E-03 0. -1.
    9900012    2    1    2    0    0 -0.65684139972E+00  0.17184741582E+02  0.26850878857E+02  0.59302008103E+02  0.50000116858E+02 0.  0.
         12    1    1    2    0    0  0.65684139972E+00 -0.17184741582E+02 -0.26850878857E+02  0.31885991897E+02  0.00000000000E+00 0. -1.
         11    1    3    3    0    0 -0.34928341487E+00  0.21028176423E+02 -0.85072509149E+00  0.21048276320E+02  0.51100000000E-03 0. -1.
        -11    1    3    3    0    0 -0.93539666724E+01  0.51737609981E+01  0.21595648402E+02  0.24096400676E+02  0.51100000000E-03 0.  1.
         12    1    3    3    0    0  0.90464086875E+01 -0.90171958391E+01  0.61059555463E+01  0.14157331107E+02  0.00000000000E+00 0. -1.
</event>
<event>
 7    1  0.6230310E-012  0.5930194E+02  0.7816164E-02  0.1266605E+00
        -11   -1    0    0    0    0  0.00000000000E+00  0.00000000000E+00  0.45593999997E+02  0.45594000000E+02  0.51100000000E-03 0.  1.
         11   -1    0    0    0    0 -0.00000000000E+00 -0.00000000000E+00 -0.45593999997E+02  0.45594000000E+02  0.51100000000E-03 0. -1.
    9900012    2    1    2    0    0 -0.26197836261E+02  0.25098796644E+01  0.18002627805E+02  0.59301941470E+02  0.49999995335E+02 0.  0.
         12    1    1    2    0    0  0.26197836261E+02 -0.25098796644E+01 -0.18002627805E+02  0.31886058530E+02  0.00000000000E+00 0. -1.
         11    1    3    3    0    0 -0.13493180964E+01  0.57182163787E+01 -0.37751078109E+01  0.69835590585E+01  0.51100000000E-03 0. -1.
        -11    1    3    3    0    0 -0.30407300487E+02  0.45328306477E+01  0.27461132914E+02  0.41222133591E+02  0.51100000000E-03 0.  1.
         12    1    3    3    0    0  0.55587823225E+01 -0.77411673620E+01 -0.56833972979E+01  0.11096248820E+02  0.00000000000E+00 0. -1.
</event>
<event>
 7    1  0.6230310E-012  0.5930193E+02  0.7816164E-02  0.1266605E+00
        -11   -1    0    0    0    0  0.00000000000E+00  0.00000000000E+00  0.45593999997E+02  0.45594000000E+02  0.51100000000E-03 0. -1.
         11   -1    0    0    0    0 -0.00000000000E+00 -0.00000000000E+00 -0.45593999997E+02  0.45594000000E+02  0.51100000000E-03 0.  1.
    9900012    2    1    2    0    0  0.23464696824E+02  0.17922015752E+02  0.12038714917E+02  0.59301932470E+02  0.49999978921E+02 0.  0.
         12    1    1    2    0    0 -0.23464696824E+02 -0.17922015752E+02 -0.12038714917E+02  0.31886067530E+02  0.00000000000E+00 0. -1.
         11    1    3    3    0    0  0.91444598003E+01  0.63055039583E+01  0.77873521032E+01  0.13565521673E+02  0.51100000000E-03 0. -1.
        -11    1    3    3    0    0  0.18953135109E+02  0.13317545435E+02 -0.13840122633E+02  0.26983834820E+02  0.51100000000E-03 0.  1.
         12    1    3    3    0    0 -0.46328980847E+01 -0.17010336413E+01  0.18091485446E+02  0.18752575977E+02  0.00000000000E+00 0. -1.
</event>
<event>
 7    1  0.6230310E-012  0.5930194E+02  0.7816164E-02  0.1266605E+00
        -11   -1    0    0    0    0  0.00000000000E+00  0.00000000000E+00  0.45593999997E+02  0.45594000000E+02  0.51100000000E-03 0. -1.
         11   -1    0    0    0    0 -0.00000000000E+00 -0.00000000000E+00 -0.45593999997E+02  0.45594000000E+02  0.51100000000E-03 0.  1.
    9900012    2    1    2    0    0 -0.81206471957E+01  0.22453086941E+02 -0.21133729047E+02  0.59301944623E+02  0.50000001086E+02 0.  0.
         12    1    1    2    0    0  0.81206471957E+01 -0.22453086941E+02  0.21133729047E+02  0.31886055377E+02  0.00000000000E+00 0. -1.
         11    1    3    3    0    0  0.19788176443E+02  0.70449803548E+01 -0.16502851930E+02  0.26712315460E+02  0.51100000000E-03 0. -1.
        -11    1    3    3    0    0 -0.25280286362E+01  0.14801307629E+01  0.10009055696E+01  0.30957273913E+01  0.51100000000E-03 0.  1.
        -12    1    3    3    0    0 -0.25380795002E+02  0.13927975824E+02 -0.56317826863E+01  0.29493901772E+02  0.00000000000E+00 0.  1.
</event>
<event>
 7    1  0.6230310E-012  0.5930194E+02  0.7816164E-02  0.1266605E+00
        -11   -1    0    0    0    0  0.00000000000E+00  0.00000000000E+00  0.45593999997E+02  0.45594000000E+02  0.51100000000E-03 0.  1.
         11   -1    0    0    0    0 -0.00000000000E+00 -0.00000000000E+00 -0.45593999997E+02  0.45594000000E+02  0.51100000000E-03 0. -1.
    9900012    2    1    2    0    0 -0.14720710387E+01  0.30755790463E+02  0.82846501201E+01  0.59301936151E+02  0.49999985635E+02 0.  0.
         12    1    1    2    0    0  0.14720710387E+01 -0.30755790463E+02 -0.82846501201E+01  0.31886063849E+02  0.00000000000E+00 0. -1.
         11    1    3    3    0    0  0.28042103038E+01  0.18037251635E+01  0.91312854722E+01  0.97209770357E+01  0.51100000000E-03 0. -1.
        -11    1    3    3    0    0  0.10485996415E+01  0.37306520049E+02  0.56316385126E+01  0.37743759112E+02  0.51100000000E-03 0.  1.
         12    1    3    3    0    0 -0.53248809840E+01 -0.83544547490E+01 -0.64782738647E+01  0.11837200003E+02  0.00000000000E+00 0. -1.
</event>
<event>
 7    1  0.6230310E-012  0.5930193E+02  0.7816164E-02  0.1266605E+00
        -11   -1    0    0    0    0  0.00000000000E+00  0.00000000000E+00  0.45593999997E+02  0.45594000000E+02  0.51100000000E-03 0. -1.
         11   -1    0    0    0    0 -0.00000000000E+00 -0.00000000000E+00 -0.45593999997E+02  0.45594000000E+02  0.51100000000E-03 0.  1.
    9900012    2    1    2    0    0 -0.27673874419E+01  0.29465088978E+02  0.11868934383E+02  0.59301929293E+02  0.49999973127E+02 0.  0.
         12    1    1    2    0    0  0.27673874419E+01 -0.29465088978E+02 -0.11868934383E+02  0.31886070707E+02  0.00000000000E+00 0. -1.
         11    1    3    3    0    0 -0.14732491237E+02 -0.13720145467E+01  0.78496663668E+01  0.16749506987E+02  0.51100000000E-03 0. -1.
        -11    1    3    3    0    0 -0.17341068153E+01  0.70189432987E+01 -0.94931560991E+01  0.11932841424E+02  0.51100000000E-03 0.  1.
         12    1    3    3    0    0  0.13699210610E+02  0.23818160226E+02  0.13512424115E+02  0.30619580882E+02  0.00000000000E+00 0. -1.
</event>
<event>
 7    1  0.6230310E-012  0.5930196E+02  0.7816164E-02  0.1266605E+00
        -11   -1    0    0    0    0  0.00000000000E+00  0.00000000000E+00  0.45593999997E+02  0.45594000000E+02  0.51100000000E-03 0.  1.
         11   -1    0    0    0    0 -0.00000000000E+00 -0.00000000000E+00 -0.45593999997E+02  0.45594000000E+02  0.51100000000E-03 0. -1.
    9900012    2    1    2    0    0 -0.23834676920E+02 -0.94083315749E+01  0.18976599350E+02  0.59301955250E+02  0.50000020467E+02 0.  0.
         12    1    1    2    0    0  0.23834676920E+02  0.94083315749E+01 -0.18976599350E+02  0.31886044750E+02  0.00000000000E+00 0. -1.
         11    1    3    3    0    0 -0.11082484630E+02 -0.96776907903E+01  0.19068411622E+02  0.24084922393E+02  0.51100000000E-03 0. -1.
        -11    1    3    3    0    0 -0.59134644827E+01 -0.16018580295E+02  0.28406710656E+01  0.17309921699E+02  0.51100000000E-03 0.  1.
         12    1    3    3    0    0 -0.68387278072E+01  0.16287939511E+02 -0.29324833382E+01  0.17907111159E+02  0.00000000000E+00 0. -1.
</event>
<event>
 7    1  0.6230310E-012  0.5930196E+02  0.7816164E-02  0.1266605E+00
        -11   -1    0    0    0    0  0.00000000000E+00  0.00000000000E+00  0.45593999997E+02  0.45594000000E+02  0.51100000000E-03 0.  1.
         11   -1    0    0    0    0 -0.00000000000E+00 -0.00000000000E+00 -0.45593999997E+02  0.45594000000E+02  0.51100000000E-03 0. -1.
    9900012    2    1    2    0    0  0.28638885627E+02  0.12836132501E+02 -0.56362406570E+01  0.59301964244E+02  0.50000036869E+02 0.  0.
         12    1    1    2    0    0 -0.28638885627E+02 -0.12836132501E+02  0.56362406570E+01  0.31886035756E+02  0.00000000000E+00 0. -1.
         11    1    3    3    0    0  0.12920191815E+01 -0.81143674593E+01 -0.42639745359E+01  0.92570919804E+01  0.51100000000E-03 0. -1.
        -11    1    3    3    0    0  0.13919754180E+02 -0.19146930427E+01  0.13632853091E+02  0.19577545544E+02  0.51100000000E-03 0.  1.
        -12    1    3    3    0    0  0.13427112265E+02  0.22865193003E+02 -0.15005119212E+02  0.30467326719E+02  0.00000000000E+00 0.  1.
</event>
<event>
 7    1  0.6230310E-012  0.5930194E+02  0.7816164E-02  0.1266605E+00
        -11   -1    0    0    0    0  0.00000000000E+00  0.00000000000E+00  0.45593999997E+02  0.45594000000E+02  0.51100000000E-03 0.  1.
         11   -1    0    0    0    0 -0.00000000000E+00 -0.00000000000E+00 -0.45593999997E+02  0.45594000000E+02  0.51100000000E-03 0. -1.
    9900012    2    1    2    0    0  0.25403267739E+02  0.74367660987E+01  0.17778905832E+02  0.59301937302E+02  0.49999987734E+02 0.  0.
         12    1    1    2    0    0 -0.25403267739E+02 -0.74367660987E+01 -0.17778905832E+02  0.31886062698E+02  0.00000000000E+00 0. -1.
         11    1    3    3    0    0  0.90933355831E+01  0.12387252138E+02  0.74441366873E+01  0.17074774928E+02  0.51100000000E-03 0. -1.
        -11    1    3    3    0    0  0.39948820963E+01  0.57026661014E+01  0.21423562600E+02  0.22526617996E+02  0.51100000000E-03 0.  1.
         12    1    3    3    0    0  0.12315050059E+02 -0.10653152141E+02 -0.11088793455E+02  0.19700544378E+02  0.00000000000E+00 0. -1.
</event>
<event>
 7    1  0.6230310E-012  0.5930195E+02  0.7816164E-02  0.1266605E+00
        -11   -1    0    0    0    0  0.00000000000E+00  0.00000000000E+00  0.45593999997E+02  0.45594000000E+02  0.51100000000E-03 0.  1.
         11   -1    0    0    0    0 -0.00000000000E+00 -0.00000000000E+00 -0.45593999997E+02  0.45594000000E+02  0.51100000000E-03 0. -1.
    9900012    2    1    2    0    0  0.12040163767E+02 -0.29232042626E+02 -0.41524058289E+01  0.59301947661E+02  0.50000006626E+02 0.  0.
         12    1    1    2    0    0 -0.12040163767E+02  0.29232042626E+02  0.41524058289E+01  0.31886052339E+02  0.00000000000E+00 0. -1.
         11    1    3    3    0    0 -0.29419450875E+01  0.42462561663E+00  0.28903501007E-01  0.29725718638E+01  0.51100000000E-03 0. -1.
        -11    1    3    3    0    0  0.10908817300E+02 -0.23620711408E+02  0.18879531596E+02  0.32146181980E+02  0.51100000000E-03 0.  1.
         12    1    3    3    0    0  0.40732915546E+01 -0.60359568343E+01 -0.23060840926E+02  0.24183193817E+02  0.00000000000E+00 0. -1.
</event>
<event>
 7    1  0.6230310E-012  0.5930198E+02  0.7816164E-02  0.1266605E+00
        -11   -1    0    0    0    0  0.00000000000E+00  0.00000000000E+00  0.45593999997E+02  0.45594000000E+02  0.51100000000E-03 0.  1.
         11   -1    0    0    0    0 -0.00000000000E+00 -0.00000000000E+00 -0.45593999997E+02  0.45594000000E+02  0.51100000000E-03 0. -1.
    9900012    2    1    2    0    0  0.12820824684E+02  0.22712956162E+02  0.18343018114E+02  0.59301980545E+02  0.50000066598E+02 0.  0.
         12    1    1    2    0    0 -0.12820824684E+02 -0.22712956162E+02 -0.18343018114E+02  0.31886019455E+02  0.00000000000E+00 0. -1.
         11    1    3    3    0    0  0.74474508763E+01 -0.86077849224E+01  0.90719122385E+01  0.14555345333E+02  0.51100000000E-03 0. -1.
        -11    1    3    3    0    0  0.85566970527E+00  0.11803940905E+02  0.19071340848E+02  0.22445071475E+02  0.51100000000E-03 0.  1.
         12    1    3    3    0    0  0.45177041027E+01  0.19516800179E+02 -0.98002349726E+01  0.22301563737E+02  0.00000000000E+00 0. -1.
</event>
<event>
 7    1  0.6230310E-012  0.5930198E+02  0.7816164E-02  0.1266605E+00
        -11   -1    0    0    0    0  0.00000000000E+00  0.00000000000E+00  0.45593999997E+02  0.45594000000E+02  0.51100000000E-03 0. -1.
         11   -1    0    0    0    0 -0.00000000000E+00 -0.00000000000E+00 -0.45593999997E+02  0.45594000000E+02  0.51100000000E-03 0.  1.
    9900012    2    1    2    0    0 -0.16894950735E+02 -0.26762736542E+02  0.38774785267E+01  0.59301980065E+02  0.50000065724E+02 0.  0.
         12    1    1    2    0    0  0.16894950735E+02  0.26762736542E+02 -0.38774785267E+01  0.31886019935E+02  0.00000000000E+00 0. -1.
         11    1    3    3    0    0 -0.21132602577E+02 -0.59687434220E+01  0.94102112882E+01  0.23890685768E+02  0.51100000000E-03 0. -1.
        -11    1    3    3    0    0  0.17436865077E+01  0.23655115147E+01  0.79649176573E+01  0.84897585897E+01  0.51100000000E-03 0.  1.
        -12    1    3    3    0    0  0.24939653342E+01 -0.23159504635E+02 -0.13497650419E+02  0.26921535707E+02  0.00000000000E+00 0.  1.
</event>
<event>
 7    1  0.6230310E-012  0.5930186E+02  0.7816164E-02  0.1266605E+00
        -11   -1    0    0    0    0  0.00000000000E+00  0.00000000000E+00  0.45593999997E+02  0.45594000000E+02  0.51100000000E-03 0.  1.
         11   -1    0    0    0    0 -0.00000000000E+00 -0.00000000000E+00 -0.45593999997E+02  0.45594000000E+02  0.51100000000E-03 0. -1.
    9900012    2    1    2    0    0 -0.19796657529E+01 -0.18617136889E+02  0.25811026781E+02  0.59301859344E+02  0.49999845557E+02 0.  0.
         12    1    1    2    0    0  0.19796657529E+01  0.18617136889E+02 -0.25811026781E+02  0.31886140656E+02  0.00000000000E+00 0. -1.
         11    1    3    3    0    0 -0.10856257001E+02 -0.68594496505E+01 -0.13659229936E+01  0.12914182570E+02  0.51100000000E-03 0. -1.
        -11    1    3    3    0    0  0.34958127805E+01 -0.17947786590E+02  0.30042178250E+00  0.18287536849E+02  0.51100000000E-03 0.  1.
        -12    1    3    3    0    0  0.53807784672E+01  0.61900993515E+01  0.26876527992E+02  0.28100139925E+02  0.00000000000E+00 0.  1.
</event>
<event>
 7    1  0.6230310E-012  0.5930202E+02  0.7816164E-02  0.1266604E+00
        -11   -1    0    0    0    0  0.00000000000E+00  0.00000000000E+00  0.45593999997E+02  0.45594000000E+02  0.51100000000E-03 0. -1.
         11   -1    0    0    0    0 -0.00000000000E+00 -0.00000000000E+00 -0.45593999997E+02  0.45594000000E+02  0.51100000000E-03 0.  1.
    9900012    2    1    2    0    0 -0.64910594107E+01 -0.30310817736E+02 -0.74723467120E+01  0.59302023624E+02  0.50000145164E+02 0.  0.
         12    1    1    2    0    0  0.64910594107E+01  0.30310817736E+02  0.74723467120E+01  0.31885976376E+02  0.00000000000E+00 0. -1.
         11    1    3    3    0    0  0.13505196404E+02  0.17860364611E+01  0.17519695651E+01  0.13734979205E+02  0.51100000000E-03 0. -1.
        -11    1    3    3    0    0 -0.52681870101E+01 -0.18076688133E+00  0.53539619827E+01  0.75134133530E+01  0.51100000000E-03 0.  1.
        -12    1    3    3    0    0 -0.14728068805E+02 -0.31916087316E+02 -0.14578278260E+02  0.38053631065E+02  0.00000000000E+00 0.  1.
</event>
<event>
 7    1  0.6230310E-012  0.5930202E+02  0.7816164E-02  0.1266604E+00
        -11   -1    0    0    0    0  0.00000000000E+00  0.00000000000E+00  0.45593999997E+02  0.45594000000E+02  0.51100000000E-03 0.  1.
         11   -1    0    0    0    0 -0.00000000000E+00 -0.00000000000E+00 -0.45593999997E+02  0.45594000000E+02  0.51100000000E-03 0. -1.
    9900012    2    1    2    0    0 -0.30353803873E+02  0.97384501129E+01 -0.72449358789E+00  0.59302020148E+02  0.50000138826E+02 0.  0.
         12    1    1    2    0    0  0.30353803873E+02 -0.97384501129E+01  0.72449358789E+00  0.31885979852E+02  0.00000000000E+00 0. -1.
         11    1    3    3    0    0 -0.16557351366E+02 -0.12566479285E+02  0.80363181061E+01  0.22285526578E+02  0.51100000000E-03 0. -1.
        -11    1    3    3    0    0 -0.93336837339E+01  0.67849689472E+00  0.53801587065E+01  0.10794633762E+02  0.51100000000E-03 0.  1.
         12    1    3    3    0    0 -0.44627687725E+01  0.21626432504E+02 -0.14140970401E+02  0.26221859809E+02  0.00000000000E+00 0. -1.
</event>
<event>
 7    1  0.6230310E-012  0.5930197E+02  0.7816164E-02  0.1266605E+00
        -11   -1    0    0    0    0  0.00000000000E+00  0.00000000000E+00  0.45593999997E+02  0.45594000000E+02  0.51100000000E-03 0.  1.
         11   -1    0    0    0    0 -0.00000000000E+00 -0.00000000000E+00 -0.45593999997E+02  0.45594000000E+02  0.51100000000E-03 0. -1.
    9900012    2    1    2    0    0 -0.10329153722E+02  0.35156368171E+01  0.29961105539E+02  0.59301969141E+02  0.50000045801E+02 0.  0.
         12    1    1    2    0    0  0.10329153722E+02 -0.35156368171E+01 -0.29961105539E+02  0.31886030859E+02  0.00000000000E+00 0. -1.
         11    1    3    3    0    0 -0.21572235025E+01 -0.12276229843E+01 -0.61962441152E+01  0.66748867277E+01  0.51100000000E-03 0. -1.
        -11    1    3    3    0    0  0.79556153681E+01  0.16192709974E+02  0.13383578734E+02  0.22463656251E+02  0.51100000000E-03 0.  1.
         12    1    3    3    0    0 -0.16127545588E+02 -0.11449450172E+02  0.22773770920E+02  0.30163426162E+02  0.00000000000E+00 0. -1.
</event>
<event>
 7    1  0.6230310E-012  0.5930193E+02  0.7816164E-02  0.1266605E+00
        -11   -1    0    0    0    0  0.00000000000E+00  0.00000000000E+00  0.45593999997E+02  0.45594000000E+02  0.51100000000E-03 0.  1.
         11   -1    0    0    0    0 -0.00000000000E+00 -0.00000000000E+00 -0.45593999997E+02  0.45594000000E+02  0.51100000000E-03 0. -1.
    9900012    2    1    2    0    0 -0.30462702712E+02 -0.76464209473E+00 -0.93893986178E+01  0.59301925603E+02  0.49999966398E+02 0.  0.
         12    1    1    2    0    0  0.30462702712E+02  0.76464209473E+00  0.93893986178E+01  0.31886074397E+02  0.00000000000E+00 0. -1.
         11    1    3    3    0    0  0.10894104349E+02  0.30957999602E+01 -0.38894173820E+01  0.11974683912E+02  0.51100000000E-03 0. -1.
        -11    1    3    3    0    0 -0.80523816528E+01  0.81641985190E+01  0.16451379821E+00  0.11468306448E+02  0.51100000000E-03 0.  1.
         12    1    3    3    0    0 -0.33304425409E+02 -0.12024640574E+02 -0.56644950340E+01  0.35858935242E+02  0.00000000000E+00 0. -1.
</event>
<event>
 7    1  0.6230310E-012  0.5930194E+02  0.7816164E-02  0.1266605E+00
        -11   -1    0    0    0    0  0.00000000000E+00  0.00000000000E+00  0.45593999997E+02  0.45594000000E+02  0.51100000000E-03 0.  1.
         11   -1    0    0    0    0 -0.00000000000E+00 -0.00000000000E+00 -0.45593999997E+02  0.45594000000E+02  0.51100000000E-03 0. -1.
    9900012    2    1    2    0    0  0.36838418991E+01  0.20820303163E+02  0.23867653314E+02  0.59301943649E+02  0.49999999309E+02 0.  0.
         12    1    1    2    0    0 -0.36838418991E+01 -0.20820303163E+02 -0.23867653314E+02  0.31886056351E+02  0.00000000000E+00 0. -1.
         11    1    3    3    0    0  0.11277154612E+02 -0.44773557005E+00 -0.24105266816E+01  0.11540594544E+02  0.51100000000E-03 0. -1.
        -11    1    3    3    0    0  0.18629207440E+01  0.24284333107E+02  0.58483596616E+01  0.25048006291E+02  0.51100000000E-03 0.  1.
        -12    1    3    3    0    0 -0.94562334566E+01 -0.30162943744E+01  0.20429820334E+02  0.22713342815E+02  0.00000000000E+00 0.  1.
</event>
<event>
 7    1  0.6230310E-012  0.5930194E+02  0.7816164E-02  0.1266605E+00
        -11   -1    0    0    0    0  0.00000000000E+00  0.00000000000E+00  0.45593999997E+02  0.45594000000E+02  0.51100000000E-03 0.  1.
         11   -1    0    0    0    0 -0.00000000000E+00 -0.00000000000E+00 -0.45593999997E+02  0.45594000000E+02  0.51100000000E-03 0. -1.
    9900012    2    1    2    0    0 -0.25125978911E+02  0.14189559315E+02 -0.13566969653E+02  0.59301936033E+02  0.49999985419E+02 0.  0.
         12    1    1    2    0    0  0.25125978911E+02 -0.14189559315E+02  0.13566969653E+02  0.31886063967E+02  0.00000000000E+00 0. -1.
         11    1    3    3    0    0  0.42699130508E+01 -0.15864784179E+01 -0.45426856649E+01  0.64331224567E+01  0.51100000000E-03 0. -1.
        -11    1    3    3    0    0 -0.70905230962E+01 -0.75610281183E+01 -0.16728773075E+02  0.19679850428E+02  0.51100000000E-03 0.  1.
        -12    1    3    3    0    0 -0.22305368865E+02  0.23337065851E+02  0.77044890875E+01  0.33188963148E+02  0.00000000000E+00 0.  1.
</event>
<event>
 7    1  0.6230310E-012  0.5930195E+02  0.7816164E-02  0.1266605E+00
        -11   -1    0    0    0    0  0.00000000000E+00  0.00000000000E+00  0.45593999997E+02  0.45594000000E+02  0.51100000000E-03 0.  1.
         11   -1    0    0    0    0 -0.00000000000E+00 -0.00000000000E+00 -0.45593999997E+02  0.45594000000E+02  0.51100000000E-03 0. -1.
    9900012    2    1    2    0    0  0.15546047060E+02 -0.12078020132E+02  0.25083104571E+02  0.59301948435E+02  0.50000008037E+02 0.  0.
         12    1    1    2    0    0 -0.15546047060E+02  0.12078020132E+02 -0.25083104571E+02  0.31886051565E+02  0.00000000000E+00 0. -1.
         11    1    3    3    0    0  0.31637540747E+00 -0.15784544314E+02  0.23937336905E+02  0.28674867583E+02  0.51100000000E-03 0. -1.
        -11    1    3    3    0    0  0.83985379350E+01 -0.80278379721E+01  0.92180379983E+01  0.14830841067E+02  0.51100000000E-03 0.  1.
         12    1    3    3    0    0  0.68311337177E+01  0.11734362154E+02 -0.80722703320E+01  0.15796239785E+02  0.00000000000E+00 0. -1.
</event>
<event>
 7    1  0.6230310E-012  0.5930194E+02  0.7816164E-02  0.1266605E+00
        -11   -1    0    0    0    0  0.00000000000E+00  0.00000000000E+00  0.45593999997E+02  0.45594000000E+02  0.51100000000E-03 0.  1.
         11   -1    0    0    0    0 -0.00000000000E+00 -0.00000000000E+00 -0.45593999997E+02  0.45594000000E+02  0.51100000000E-03 0. -1.
    9900012    2    1    2    0    0 -0.21983900230E+02 -0.21287612191E+02  0.89591690223E+01  0.59301937031E+02  0.49999987239E+02 0.  0.
         12    1    1    2    0    0  0.21983900230E+02  0.21287612191E+02 -0.89591690223E+01  0.31886062969E+02  0.00000000000E+00 0. -1.
         11    1    3    3    0    0 -0.10366690569E+02  0.17163595002E+01 -0.13310139752E+02  0.16958006480E+02  0.51100000000E-03 0. -1.
        -11    1    3    3    0    0 -0.47416647357E+01  0.28213346496E+01  0.12889499071E+02  0.14020788146E+02  0.51100000000E-03 0.  1.
         12    1    3    3    0    0 -0.68755449252E+01 -0.25825306341E+02  0.93798097037E+01  0.28323142405E+02  0.00000000000E+00 0. -1.
</event>
<event>
 7    1  0.6230310E-012  0.5930193E+02  0.7816164E-02  0.1266605E+00
        -11   -1    0    0    0    0  0.00000000000E+00  0.00000000000E+00  0.45593999997E+02  0.45594000000E+02  0.51100000000E-03 0.  1.
         11   -1    0    0    0    0 -0.00000000000E+00 -0.00000000000E+00 -0.45593999997E+02  0.45594000000E+02  0.51100000000E-03 0. -1.
    9900012    2    1    2    0    0  0.31573137602E+02  0.44510573378E+01 -0.21501569748E+00  0.59301934686E+02  0.49999982963E+02 0.  0.
         12    1    1    2    0    0 -0.31573137602E+02 -0.44510573378E+01  0.21501569748E+00  0.31886065314E+02  0.00000000000E+00 0. -1.
         11    1    3    3    0    0  0.17843154143E+02  0.10626068484E+02 -0.57393193941E+01  0.21546026746E+02  0.51100000000E-03 0. -1.
        -11    1    3    3    0    0  0.93760723451E+01  0.44413094842E+01  0.18018692524E+02  0.20792047593E+02  0.51100000000E-03 0.  1.
         12    1    3    3    0    0  0.43539111140E+01 -0.10616320630E+02 -0.12494388828E+02  0.16963860347E+02  0.00000000000E+00 0. -1.
</event>
<event>
 7    1  0.6230310E-012  0.5930188E+02  0.7816164E-02  0.1266605E+00
        -11   -1    0    0    0    0  0.00000000000E+00  0.00000000000E+00  0.45593999997E+02  0.45594000000E+02  0.51100000000E-03 0. -1.
         11   -1    0    0    0    0 -0.00000000000E+00 -0.00000000000E+00 -0.45593999997E+02  0.45594000000E+02  0.51100000000E-03 0.  1.
    9900012    2    1    2    0    0  0.30852595202E+02  0.69174387392E+01 -0.41220550914E+01  0.59301875626E+02  0.49999875252E+02 0.  0.
         12    1    1    2    0    0 -0.30852595202E+02 -0.69174387392E+01  0.41220550914E+01  0.31886124374E+02  0.00000000000E+00 0. -1.
         11    1    3    3    0    0  0.25840625883E+02 -0.79375640569E+01  0.15462798632E+02  0.31142270485E+02  0.51100000000E-03 0. -1.
        -11    1    3    3    0    0 -0.36520187458E+01  0.14380284611E+01 -0.20023449440E+01  0.44061947654E+01  0.51100000000E-03 0.  1.
        -12    1    3    3    0    0  0.86639880652E+01  0.13416974335E+02 -0.17582508780E+02  0.23753410376E+02  0.00000000000E+00 0.  1.
</event>
<event>
 7    1  0.6230310E-012  0.5930194E+02  0.7816164E-02  0.1266605E+00
        -11   -1    0    0    0    0  0.00000000000E+00  0.00000000000E+00  0.45593999997E+02  0.45594000000E+02  0.51100000000E-03 0.  1.
         11   -1    0    0    0    0 -0.00000000000E+00 -0.00000000000E+00 -0.45593999997E+02  0.45594000000E+02  0.51100000000E-03 0. -1.
    9900012    2    1    2    0    0  0.13097945852E+02  0.26230278465E+01  0.28953142568E+02  0.59301938387E+02  0.49999989713E+02 0.  0.
         12    1    1    2    0    0 -0.13097945852E+02 -0.26230278465E+01 -0.28953142568E+02  0.31886061613E+02  0.00000000000E+00 0. -1.
         11    1    3    3    0    0 -0.14284669349E+02  0.30544066370E+01  0.23158091046E+01  0.14790001703E+02  0.51100000000E-03 0. -1.
        -11    1    3    3    0    0 -0.77692949134E+00 -0.67371909769E+01  0.57076437099E+01  0.88640035353E+01  0.51100000000E-03 0.  1.
        -12    1    3    3    0    0  0.28159544693E+02  0.63058121864E+01  0.20929689753E+02  0.35647933149E+02  0.00000000000E+00 0.  1.
</event>
<event>
 7    1  0.6230310E-012  0.5930196E+02  0.7816164E-02  0.1266605E+00
        -11   -1    0    0    0    0  0.00000000000E+00  0.00000000000E+00  0.45593999997E+02  0.45594000000E+02  0.51100000000E-03 0.  1.
         11   -1    0    0    0    0 -0.00000000000E+00 -0.00000000000E+00 -0.45593999997E+02  0.45594000000E+02  0.51100000000E-03 0. -1.
    9900012    2    1    2    0    0 -0.26235416801E+02 -0.69790772590E+01  0.16724673920E+02  0.59301963372E+02  0.50000035279E+02 0.  0.
         12    1    1    2    0    0  0.26235416801E+02  0.69790772590E+01 -0.16724673920E+02  0.31886036628E+02  0.00000000000E+00 0. -1.
         11    1    3    3    0    0 -0.12898791011E+01  0.46055580592E+01  0.90904238698E+01  0.10271843044E+02  0.51100000000E-03 0. -1.
        -11    1    3    3    0    0 -0.70504177511E+01  0.82911175726E+01  0.17429178621E+02  0.20548169961E+02  0.51100000000E-03 0.  1.
        -12    1    3    3    0    0 -0.17895119949E+02 -0.19875752891E+02 -0.97949285711E+01  0.28481950367E+02  0.00000000000E+00 0.  1.
</event>
<event>
 7    1  0.6230310E-012  0.5930194E+02  0.7816164E-02  0.1266605E+00
        -11   -1    0    0    0    0  0.00000000000E+00  0.00000000000E+00  0.45593999997E+02  0.45594000000E+02  0.51100000000E-03 0. -1.
         11   -1    0    0    0    0 -0.00000000000E+00 -0.00000000000E+00 -0.45593999997E+02  0.45594000000E+02  0.51100000000E-03 0.  1.
    9900012    2    1    2    0    0  0.10039795014E+02 -0.10278357388E+01 -0.30246764645E+02  0.59301941891E+02  0.49999996103E+02 0.  0.
         12    1    1    2    0    0 -0.10039795014E+02  0.10278357388E+01  0.30246764645E+02  0.31886058109E+02  0.00000000000E+00 0. -1.
         11    1    3    3    0    0 -0.51995202396E+01  0.13260522297E+02 -0.15326164121E+02  0.20922900593E+02  0.51100000000E-03 0. -1.
        -11    1    3    3    0    0  0.18568592259E+02  0.16952677455E+01 -0.51173513856E+01  0.19335300274E+02  0.51100000000E-03 0.  1.
         12    1    3    3    0    0 -0.33292770060E+01 -0.15983625781E+02 -0.98032491388E+01  0.19043741024E+02  0.00000000000E+00 0. -1.
</event>
<event>
 7    1  0.6230310E-012  0.5930193E+02  0.7816164E-02  0.1266605E+00
        -11   -1    0    0    0    0  0.00000000000E+00  0.00000000000E+00  0.45593999997E+02  0.45594000000E+02  0.51100000000E-03 0. -1.
         11   -1    0    0    0    0 -0.00000000000E+00 -0.00000000000E+00 -0.45593999997E+02  0.45594000000E+02  0.51100000000E-03 0.  1.
    9900012    2    1    2    0    0 -0.31437716567E+01 -0.67732741551E+01 -0.30999367487E+02  0.59301932077E+02  0.49999978205E+02 0.  0.
         12    1    1    2    0    0  0.31437716567E+01  0.67732741551E+01  0.30999367487E+02  0.31886067923E+02  0.00000000000E+00 0. -1.
         11    1    3    3    0    0  0.19187149534E+02 -0.22230759991E+01 -0.13706461919E+01  0.19364076156E+02  0.51100000000E-03 0. -1.
        -11    1    3    3    0    0 -0.62344820356E+01 -0.27887494643E+01 -0.80477056341E+00  0.68770303000E+01  0.51100000000E-03 0.  1.
        -12    1    3    3    0    0 -0.16096439155E+02 -0.17614486917E+01 -0.28823950731E+02  0.33060825621E+02  0.00000000000E+00 0.  1.
</event>
<event>
 7    1  0.6230310E-012  0.5930194E+02  0.7816164E-02  0.1266605E+00
        -11   -1    0    0    0    0  0.00000000000E+00  0.00000000000E+00  0.45593999997E+02  0.45594000000E+02  0.51100000000E-03 0.  1.
         11   -1    0    0    0    0 -0.00000000000E+00 -0.00000000000E+00 -0.45593999997E+02  0.45594000000E+02  0.51100000000E-03 0. -1.
    9900012    2    1    2    0    0 -0.21315619059E+02 -0.21659358916E+02  0.96559508735E+01  0.59301939851E+02  0.49999992383E+02 0.  0.
         12    1    1    2    0    0  0.21315619059E+02  0.21659358916E+02 -0.96559508735E+01  0.31886060149E+02  0.00000000000E+00 0. -1.
         11    1    3    3    0    0 -0.15136774546E+02 -0.79012792359E+01 -0.22287820275E+01  0.17219745260E+02  0.51100000000E-03 0. -1.
        -11    1    3    3    0    0 -0.15752784412E+02  0.71978952228E+01  0.55725602469E+01  0.18193772021E+02  0.51100000000E-03 0.  1.
         12    1    3    3    0    0  0.95739398989E+01 -0.20955974903E+02  0.63121726541E+01  0.23888422571E+02  0.00000000000E+00 0. -1.
</event>
<event>
 7    1  0.6230310E-012  0.5930198E+02  0.7816164E-02  0.1266605E+00
        -11   -1    0    0    0    0  0.00000000000E+00  0.00000000000E+00  0.45593999997E+02  0.45594000000E+02  0.51100000000E-03 0.  1.
         11   -1    0    0    0    0 -0.00000000000E+00 -0.00000000000E+00 -0.45593999997E+02  0.45594000000E+02  0.51100000000E-03 0. -1.
    9900012    2    1    2    0    0 -0.23433279740E+01 -0.18932128827E+02  0.25549977862E+02  0.59301983368E+02  0.50000071748E+02 0.  0.
         12    1    1    2    0    0  0.23433279740E+01  0.18932128827E+02 -0.25549977862E+02  0.31886016632E+02  0.00000000000E+00 0. -1.
         11    1    3    3    0    0  0.89786406751E+01  0.43024651922E+01  0.23130128422E+02  0.25181938690E+02  0.51100000000E-03 0. -1.
        -11    1    3    3    0    0 -0.11133174403E+02 -0.23985132465E+02  0.86654468785E+01  0.27826680031E+02  0.51100000000E-03 0.  1.
         12    1    3    3    0    0 -0.18879424593E+00  0.75053844651E+00 -0.62455974384E+01  0.62933646478E+01  0.00000000000E+00 0. -1.
</event>
<event>
 7    1  0.6230310E-012  0.5930194E+02  0.7816164E-02  0.1266605E+00
        -11   -1    0    0    0    0  0.00000000000E+00  0.00000000000E+00  0.45593999997E+02  0.45594000000E+02  0.51100000000E-03 0.  1.
         11   -1    0    0    0    0 -0.00000000000E+00 -0.00000000000E+00 -0.45593999997E+02  0.45594000000E+02  0.51100000000E-03 0. -1.
    9900012    2    1    2    0    0 -0.13870241288E+02 -0.28692349266E+02  0.10422206595E+01  0.59301941546E+02  0.49999995474E+02 0.  0.
         12    1    1    2    0    0  0.13870241288E+02  0.28692349266E+02 -0.10422206595E+01  0.31886058454E+02  0.00000000000E+00 0. -1.
         11    1    3    3    0    0 -0.10775955565E+02  0.25298633532E+01 -0.63039355149E+01  0.12738172167E+02  0.51100000000E-03 0. -1.
        -11    1    3    3    0    0  0.15193901780E+02 -0.12151363224E+02  0.46547591694E+01  0.20004426077E+02  0.51100000000E-03 0.  1.
         12    1    3    3    0    0 -0.18288187503E+02 -0.19070849395E+02  0.26913970051E+01  0.26559343302E+02  0.00000000000E+00 0. -1.
</event>
<event>
 7    1  0.6230310E-012  0.5930195E+02  0.7816164E-02  0.1266605E+00
        -11   -1    0    0    0    0  0.00000000000E+00  0.00000000000E+00  0.45593999997E+02  0.45594000000E+02  0.51100000000E-03 0. -1.
         11   -1    0    0    0    0 -0.00000000000E+00 -0.00000000000E+00 -0.45593999997E+02  0.45594000000E+02  0.51100000000E-03 0.  1.
    9900012    2    1    2    0    0  0.13885525584E+02  0.14217997875E+01 -0.28668640650E+02  0.59301948314E+02  0.50000007818E+02 0.  0.
         12    1    1    2    0    0 -0.13885525584E+02 -0.14217997875E+01  0.28668640650E+02  0.31886051686E+02  0.00000000000E+00 0. -1.
         11    1    3    3    0    0  0.16692422168E+02 -0.98407639238E+01 -0.22111161638E+01  0.19502990216E+02  0.51100000000E-03 0. -1.
        -11    1    3    3    0    0  0.53160918429E+01 -0.48959402081E+01 -0.18833030067E+02  0.20172111560E+02  0.51100000000E-03 0.  1.
         12    1    3    3    0    0 -0.81229884266E+01  0.16158503919E+02 -0.76244944190E+01  0.19626846538E+02  0.00000000000E+00 0. -1.
</event>
<event>
 7    1  0.6230310E-012  0.5930194E+02  0.7816164E-02  0.1266605E+00
        -11   -1    0    0    0    0  0.00000000000E+00  0.00000000000E+00  0.45593999997E+02  0.45594000000E+02  0.51100000000E-03 0. -1.
         11   -1    0    0    0    0 -0.00000000000E+00 -0.00000000000E+00 -0.45593999997E+02  0.45594000000E+02  0.51100000000E-03 0.  1.
    9900012    2    1    2    0    0 -0.69576012532E+01  0.48718234547E+01 -0.30733984526E+02  0.59301942172E+02  0.49999996615E+02 0.  0.
         12    1    1    2    0    0  0.69576012532E+01 -0.48718234547E+01  0.30733984526E+02  0.31886057828E+02  0.00000000000E+00 0. -1.
         11    1    3    3    0    0 -0.11962748056E+02  0.75930973571E+01 -0.19188040555E+02  0.23852533809E+02  0.51100000000E-03 0. -1.
        -11    1    3    3    0    0 -0.13273484056E+02 -0.20163393154E+01 -0.10647128405E+02  0.17135120273E+02  0.51100000000E-03 0.  1.
         12    1    3    3    0    0  0.18278630858E+02 -0.70493458707E+00 -0.89881556608E+00  0.18314288090E+02  0.00000000000E+00 0. -1.
</event>
<event>
 7    1  0.6230310E-012  0.5930196E+02  0.7816164E-02  0.1266605E+00
        -11   -1    0    0    0    0  0.00000000000E+00  0.00000000000E+00  0.45593999997E+02  0.45594000000E+02  0.51100000000E-03 0. -1.
         11   -1    0    0    0    0 -0.00000000000E+00 -0.00000000000E+00 -0.45593999997E+02  0.45594000000E+02  0.51100000000E-03 0.  1.
    9900012    2    1    2    0    0  0.20076228324E+02 -0.29720254346E+01 -0.24593322492E+02  0.59301962459E+02  0.50000033613E+02 0.  0.
         12    1    1    2    0    0 -0.20076228324E+02  0.29720254346E+01  0.24593322492E+02  0.31886037541E+02  0.00000000000E+00 0. -1.
         11    1    3    3    0    0 -0.56474509424E+01 -0.14533997171E+02 -0.12234687538E+02  0.19819645691E+02  0.51100000000E-03 0. -1.
        -11    1    3    3    0    0  0.45466768728E+01 -0.52365015407E+00 -0.14307435001E+02  0.15021623635E+02  0.51100000000E-03 0.  1.
        -12    1    3    3    0    0  0.21177002394E+02  0.12085621891E+02  0.19488000467E+01  0.24460693132E+02  0.00000000000E+00 0.  1.
</event>
<event>
 7    1  0.6230310E-012  0.5930196E+02  0.7816164E-02  0.1266605E+00
        -11   -1    0    0    0    0  0.00000000000E+00  0.00000000000E+00  0.45593999997E+02  0.45594000000E+02  0.51100000000E-03 0. -1.
         11   -1    0    0    0    0 -0.00000000000E+00 -0.00000000000E+00 -0.45593999997E+02  0.45594000000E+02  0.51100000000E-03 0.  1.
    9900012    2    1    2    0    0  0.19141949608E+02  0.14230653286E+02 -0.21161140472E+02  0.59301959264E+02  0.50000027787E+02 0.  0.
         12    1    1    2    0    0 -0.19141949608E+02 -0.14230653286E+02  0.21161140472E+02  0.31886040736E+02  0.00000000000E+00 0. -1.
         11    1    3    3    0    0  0.51981178303E+01  0.65425205459E+01 -0.22319080992E+02  0.23832045247E+02  0.51100000000E-03 0. -1.
        -11    1    3    3    0    0  0.21091680774E+02  0.69743293118E+01 -0.81937045554E+01  0.23677775694E+02  0.51100000000E-03 0.  1.
         12    1    3    3    0    0 -0.71478489955E+01  0.71380342798E+00  0.93516450758E+01  0.11792138323E+02  0.00000000000E+00 0. -1.
</event>
<event>
 7    1  0.6230310E-012  0.5930193E+02  0.7816164E-02  0.1266605E+00
        -11   -1    0    0    0    0  0.00000000000E+00  0.00000000000E+00  0.45593999997E+02  0.45594000000E+02  0.51100000000E-03 0. -1.
         11   -1    0    0    0    0 -0.00000000000E+00 -0.00000000000E+00 -0.45593999997E+02  0.45594000000E+02  0.51100000000E-03 0.  1.
    9900012    2    1    2    0    0 -0.18806532610E+02 -0.23124267959E+02 -0.11327128999E+02  0.59301932685E+02  0.49999979314E+02 0.  0.
         12    1    1    2    0    0  0.18806532610E+02  0.23124267959E+02  0.11327128999E+02  0.31886067315E+02  0.00000000000E+00 0. -1.
         11    1    3    3    0    0 -0.13218648697E+02 -0.17316935784E+02 -0.49208453544E+01  0.22334360470E+02  0.51100000000E-03 0. -1.
        -11    1    3    3    0    0 -0.17317735558E+02 -0.35551601628E+00 -0.13730197229E+02  0.22103137169E+02  0.51100000000E-03 0.  1.
         12    1    3    3    0    0  0.11729851646E+02 -0.54518161583E+01  0.73239135846E+01  0.14864435046E+02  0.00000000000E+00 0. -1.
</event>
<event>
 7    1  0.6230310E-012  0.5930198E+02  0.7816164E-02  0.1266605E+00
        -11   -1    0    0    0    0  0.00000000000E+00  0.00000000000E+00  0.45593999997E+02  0.45594000000E+02  0.51100000000E-03 0. -1.
         11   -1    0    0    0    0 -0.00000000000E+00 -0.00000000000E+00 -0.45593999997E+02  0.45594000000E+02  0.51100000000E-03 0.  1.
    9900012    2    1    2    0    0 -0.23791200388E+02 -0.95058807232E+00 -0.21208333122E+02  0.59301980691E+02  0.50000066865E+02 0.  0.
         12    1    1    2    0    0  0.23791200388E+02  0.95058807232E+00  0.21208333122E+02  0.31886019309E+02  0.00000000000E+00 0. -1.
         11    1    3    3    0    0 -0.19084614265E+02 -0.15740809527E+02 -0.18067617814E+02  0.30633876672E+02  0.51100000000E-03 0. -1.
        -11    1    3    3    0    0 -0.97551781457E+01 -0.91508503780E+00  0.41391581397E+01  0.10636423818E+02  0.51100000000E-03 0.  1.
        -12    1    3    3    0    0  0.50485920228E+01  0.15705306493E+02 -0.72798734477E+01  0.18031680200E+02  0.00000000000E+00 0.  1.
</event>
<event>
 7    1  0.6230310E-012  0.5930192E+02  0.7816164E-02  0.1266605E+00
        -11   -1    0    0    0    0  0.00000000000E+00  0.00000000000E+00  0.45593999997E+02  0.45594000000E+02  0.51100000000E-03 0.  1.
         11   -1    0    0    0    0 -0.00000000000E+00 -0.00000000000E+00 -0.45593999997E+02  0.45594000000E+02  0.51100000000E-03 0. -1.
    9900012    2    1    2    0    0 -0.11696788016E+02  0.29188144717E+02  0.52876426930E+01  0.59301924557E+02  0.49999964489E+02 0.  0.
         12    1    1    2    0    0  0.11696788016E+02 -0.29188144717E+02 -0.52876426930E+01  0.31886075443E+02  0.00000000000E+00 0. -1.
         11    1    3    3    0    0 -0.16209542925E+02  0.10026114830E+02 -0.67167971800E+01  0.20208602748E+02  0.51100000000E-03 0. -1.
        -11    1    3    3    0    0  0.23062135449E+01  0.10861925367E+02 -0.10329052258E+02  0.15165400239E+02  0.51100000000E-03 0.  1.
        -12    1    3    3    0    0  0.22065413633E+01  0.83001045200E+01  0.22333492132E+02  0.23927921569E+02  0.00000000000E+00 0.  1.
</event>
<event>
 7    1  0.6230310E-012  0.5930193E+02  0.7816164E-02  0.1266605E+00
        -11   -1    0    0    0    0  0.00000000000E+00  0.00000000000E+00  0.45593999997E+02  0.45594000000E+02  0.51100000000E-03 0. -1.
         11   -1    0    0    0    0 -0.00000000000E+00 -0.00000000000E+00 -0.45593999997E+02  0.45594000000E+02  0.51100000000E-03 0.  1.
    9900012    2    1    2    0    0 -0.54617672656E+01 -0.31011655802E+02  0.50167635263E+01  0.59301927593E+02  0.49999970028E+02 0.  0.
         12    1    1    2    0    0  0.54617672656E+01  0.31011655802E+02 -0.50167635263E+01  0.31886072407E+02  0.00000000000E+00 0. -1.
         11    1    3    3    0    0  0.14644710671E+01 -0.91512258551E+01  0.18031049458E+02  0.20273340992E+02  0.51100000000E-03 0. -1.
        -11    1    3    3    0    0 -0.13657653258E+02 -0.32743892048E+01  0.20257138170E+01  0.14190018813E+02  0.51100000000E-03 0.  1.
        -12    1    3    3    0    0  0.67314149255E+01 -0.18586040742E+02 -0.15039999748E+02  0.24838567789E+02  0.00000000000E+00 0.  1.
</event>
<event>
 7    1  0.6230310E-012  0.5930194E+02  0.7816164E-02  0.1266605E+00
        -11   -1    0    0    0    0  0.00000000000E+00  0.00000000000E+00  0.45593999997E+02  0.45594000000E+02  0.51100000000E-03 0.  1.
         11   -1    0    0    0    0 -0.00000000000E+00 -0.00000000000E+00 -0.45593999997E+02  0.45594000000E+02  0.51100000000E-03 0. -1.
    9900012    2    1    2    0    0  0.63953026505E+01 -0.20097281743E+02  0.23914851815E+02  0.59301940871E+02  0.49999994243E+02 0.  0.
         12    1    1    2    0    0 -0.63953026505E+01  0.20097281743E+02 -0.23914851815E+02  0.31886059129E+02  0.00000000000E+00 0. -1.
         11    1    3    3    0    0  0.83308114485E+01 -0.26963163790E+01 -0.11807817598E+02  0.14700241429E+02  0.51100000000E-03 0. -1.
        -11    1    3    3    0    0 -0.23546856755E+00  0.45114295997E+01  0.41630367762E+01  0.61432335085E+01  0.51100000000E-03 0.  1.
        -12    1    3    3    0    0 -0.17000402305E+01 -0.21912394964E+02  0.31559632636E+02  0.38458465933E+02  0.00000000000E+00 0.  1.
</event>
<event>
 7    1  0.6230310E-012  0.5930191E+02  0.7816164E-02  0.1266605E+00
        -11   -1    0    0    0    0  0.00000000000E+00  0.00000000000E+00  0.45593999997E+02  0.45594000000E+02  0.51100000000E-03 0.  1.
         11   -1    0    0    0    0 -0.00000000000E+00 -0.00000000000E+00 -0.45593999997E+02  0.45594000000E+02  0.51100000000E-03 0. -1.
    9900012    2    1    2    0    0 -0.61342618962E+01  0.25436538467E+02  0.18222955785E+02  0.59301909369E+02  0.49999936790E+02 0.  0.
         12    1    1    2    0    0  0.61342618962E+01 -0.25436538467E+02 -0.18222955785E+02  0.31886090631E+02  0.00000000000E+00 0. -1.
         11    1    3    3    0    0  0.11168475535E+02 -0.27513240630E+01  0.83923272387E+00  0.11532950260E+02  0.51100000000E-03 0. -1.
        -11    1    3    3    0    0  0.53200193643E+01  0.24286710116E+01  0.11614705054E+02  0.13003938737E+02  0.51100000000E-03 0.  1.
         12    1    3    3    0    0 -0.22622756795E+02  0.25759191519E+02  0.57690180074E+01  0.34765020372E+02  0.00000000000E+00 0. -1.
</event>
<event>
 7    1  0.6230310E-012  0.5930189E+02  0.7816164E-02  0.1266605E+00
        -11   -1    0    0    0    0  0.00000000000E+00  0.00000000000E+00  0.45593999997E+02  0.45594000000E+02  0.51100000000E-03 0. -1.
         11   -1    0    0    0    0 -0.00000000000E+00 -0.00000000000E+00 -0.45593999997E+02  0.45594000000E+02  0.51100000000E-03 0.  1.
    9900012    2    1    2    0    0 -0.57510636087E+01  0.12902557376E+02 -0.28586242638E+02  0.59301890365E+02  0.49999902132E+02 0.  0.
         12    1    1    2    0    0  0.57510636087E+01 -0.12902557376E+02  0.28586242638E+02  0.31886109635E+02  0.00000000000E+00 0. -1.
         11    1    3    3    0    0 -0.12599558802E+02 -0.51562944415E+01 -0.15915317232E+02  0.20943580812E+02  0.51100000000E-03 0. -1.
        -11    1    3    3    0    0 -0.27576143654E+01  0.10388679574E+02 -0.20943977557E+02  0.23541013072E+02  0.51100000000E-03 0.  1.
        -12    1    3    3    0    0  0.96061095589E+01  0.76701722443E+01  0.82730521506E+01  0.14817296481E+02  0.00000000000E+00 0.  1.
</event>
<event>
 7    1  0.6230310E-012  0.5930194E+02  0.7816164E-02  0.1266605E+00
        -11   -1    0    0    0    0  0.00000000000E+00  0.00000000000E+00  0.45593999997E+02  0.45594000000E+02  0.51100000000E-03 0. -1.
         11   -1    0    0    0    0 -0.00000000000E+00 -0.00000000000E+00 -0.45593999997E+02  0.45594000000E+02  0.51100000000E-03 0.  1.
    9900012    2    1    2    0    0 -0.88702863804E+01 -0.77222040337E+01 -0.29637920047E+02  0.59301941600E+02  0.49999995572E+02 0.  0.
         12    1    1    2    0    0  0.88702863804E+01  0.77222040337E+01  0.29637920047E+02  0.31886058400E+02  0.00000000000E+00 0. -1.
         11    1    3    3    0    0 -0.14753276422E+02  0.12363116946E+02 -0.33677542005E+01  0.19540921023E+02  0.51100000000E-03 0. -1.
        -11    1    3    3    0    0  0.81628231606E+01 -0.11453444258E+01 -0.16230787410E+02  0.18203899473E+02  0.51100000000E-03 0.  1.
        -12    1    3    3    0    0 -0.22798331191E+01 -0.18939976554E+02 -0.10039378436E+02  0.21557121104E+02  0.00000000000E+00 0.  1.
</event>
<event>
 7    1  0.6230310E-012  0.5930189E+02  0.7816164E-02  0.1266605E+00
        -11   -1    0    0    0    0  0.00000000000E+00  0.00000000000E+00  0.45593999997E+02  0.45594000000E+02  0.51100000000E-03 0.  1.
         11   -1    0    0    0    0 -0.00000000000E+00 -0.00000000000E+00 -0.45593999997E+02  0.45594000000E+02  0.51100000000E-03 0. -1.
    9900012    2    1    2    0    0  0.10089855553E+02  0.24809905666E+02  0.17302807430E+02  0.59301894104E+02  0.49999908952E+02 0.  0.
         12    1    1    2    0    0 -0.10089855553E+02 -0.24809905666E+02 -0.17302807430E+02  0.31886105896E+02  0.00000000000E+00 0. -1.
         11    1    3    3    0    0  0.44675286602E+00  0.48288324438E+01 -0.10764860366E+02  0.11806753569E+02  0.51100000000E-03 0. -1.
        -11    1    3    3    0    0  0.63704539077E+01 -0.56648248242E+01 -0.10115992421E+01  0.85846523847E+01  0.51100000000E-03 0.  1.
        -12    1    3    3    0    0  0.32726487793E+01  0.25645898046E+02  0.29079267038E+02  0.38910488150E+02  0.00000000000E+00 0.  1.
</event>
<event>
 7    1  0.6230310E-012  0.5930195E+02  0.7816164E-02  0.1266605E+00
        -11   -1    0    0    0    0  0.00000000000E+00  0.00000000000E+00  0.45593999997E+02  0.45594000000E+02  0.51100000000E-03 0.  1.
         11   -1    0    0    0    0 -0.00000000000E+00 -0.00000000000E+00 -0.45593999997E+02  0.45594000000E+02  0.51100000000E-03 0. -1.
    9900012    2    1    2    0    0 -0.24106181753E+02  0.20237999550E+02  0.51024868524E+01  0.59301952948E+02  0.50000016269E+02 0.  0.
         12    1    1    2    0    0  0.24106181753E+02 -0.20237999550E+02 -0.51024868524E+01  0.31886047052E+02  0.00000000000E+00 0. -1.
         11    1    3    3    0    0 -0.17693672586E+02 -0.72143961612E+01  0.62417320072E+01  0.20101561637E+02  0.51100000000E-03 0. -1.
        -11    1    3    3    0    0 -0.16682100335E+02  0.12599042206E+02 -0.26828426359E+01  0.21076669115E+02  0.51100000000E-03 0.  1.
         12    1    3    3    0    0  0.10269591167E+02  0.14853353505E+02  0.15435974811E+01  0.18123722197E+02  0.00000000000E+00 0. -1.
</event>
<event>
 7    1  0.6230310E-012  0.5930192E+02  0.7816164E-02  0.1266605E+00
        -11   -1    0    0    0    0  0.00000000000E+00  0.00000000000E+00  0.45593999997E+02  0.45594000000E+02  0.51100000000E-03 0.  1.
         11   -1    0    0    0    0 -0.00000000000E+00 -0.00000000000E+00 -0.45593999997E+02  0.45594000000E+02  0.51100000000E-03 0. -1.
    9900012    2    1    2    0    0  0.76845156476E+00  0.25559442745E+02  0.19048530578E+02  0.59301919206E+02  0.49999954731E+02 0.  0.
         12    1    1    2    0    0 -0.76845156476E+00 -0.25559442745E+02 -0.19048530578E+02  0.31886080794E+02  0.00000000000E+00 0. -1.
         11    1    3    3    0    0  0.61792249753E+00  0.28009270862E+00  0.17006013486E+02  0.17019540977E+02  0.51100000000E-03 0. -1.
        -11    1    3    3    0    0  0.86919643743E+01 -0.55002906905E+01  0.75165429801E+00  0.10313507008E+02  0.51100000000E-03 0.  1.
        -12    1    3    3    0    0 -0.85414353071E+01  0.30779640727E+02  0.12908627939E+01  0.31968871220E+02  0.00000000000E+00 0.  1.
</event>
<event>
 7    1  0.6230310E-012  0.5930200E+02  0.7816164E-02  0.1266605E+00
        -11   -1    0    0    0    0  0.00000000000E+00  0.00000000000E+00  0.45593999997E+02  0.45594000000E+02  0.51100000000E-03 0. -1.
         11   -1    0    0    0    0 -0.00000000000E+00 -0.00000000000E+00 -0.45593999997E+02  0.45594000000E+02  0.51100000000E-03 0.  1.
    9900012    2    1    2    0    0 -0.25113831791E+01  0.31785372018E+02  0.31585221813E+00  0.59302004918E+02  0.50000111049E+02 0.  0.
         12    1    1    2    0    0  0.25113831791E+01 -0.31785372018E+02 -0.31585221813E+00  0.31885995082E+02  0.00000000000E+00 0. -1.
         11    1    3    3    0    0 -0.39195605041E+01  0.90500249619E+01  0.96001624908E+01  0.13763321782E+02  0.51100000000E-03 0. -1.
        -11    1    3    3    0    0  0.16114369644E+02  0.12723360608E+02  0.67250874311E+01  0.21605175663E+02  0.51100000000E-03 0.  1.
        -12    1    3    3    0    0 -0.14706192319E+02  0.10011986447E+02 -0.16009397704E+02  0.23933507473E+02  0.00000000000E+00 0.  1.
</event>
<event>
 7    1  0.6230310E-012  0.5930191E+02  0.7816164E-02  0.1266605E+00
        -11   -1    0    0    0    0  0.00000000000E+00  0.00000000000E+00  0.45593999997E+02  0.45594000000E+02  0.51100000000E-03 0. -1.
         11   -1    0    0    0    0 -0.00000000000E+00 -0.00000000000E+00 -0.45593999997E+02  0.45594000000E+02  0.51100000000E-03 0.  1.
    9900012    2    1    2    0    0  0.16578161354E+02 -0.20467512759E+02 -0.17971317233E+02  0.59301909686E+02  0.49999937369E+02 0.  0.
         12    1    1    2    0    0 -0.16578161354E+02  0.20467512759E+02  0.17971317233E+02  0.31886090314E+02  0.00000000000E+00 0. -1.
         11    1    3    3    0    0  0.10381227392E+02  0.22858713624E+01  0.19507233170E+01  0.10807423919E+02  0.51100000000E-03 0. -1.
        -11    1    3    3    0    0  0.18472121436E+02 -0.23047840151E+02 -0.63863702239E+01  0.30219330417E+02  0.51100000000E-03 0.  1.
         12    1    3    3    0    0 -0.12275187474E+02  0.29445602934E+00 -0.13535670326E+02  0.18275155349E+02  0.00000000000E+00 0. -1.
</event>
<event>
 7    1  0.6230310E-012  0.5930194E+02  0.7816164E-02  0.1266605E+00
        -11   -1    0    0    0    0  0.00000000000E+00  0.00000000000E+00  0.45593999997E+02  0.45594000000E+02  0.51100000000E-03 0.  1.
         11   -1    0    0    0    0 -0.00000000000E+00 -0.00000000000E+00 -0.45593999997E+02  0.45594000000E+02  0.51100000000E-03 0. -1.
    9900012    2    1    2    0    0  0.26388300131E+02  0.78236138456E+01  0.16098749800E+02  0.59301936233E+02  0.49999985784E+02 0.  0.
         12    1    1    2    0    0 -0.26388300131E+02 -0.78236138456E+01 -0.16098749800E+02  0.31886063767E+02  0.00000000000E+00 0. -1.
         11    1    3    3    0    0  0.21957131545E+02 -0.44542213609E+01  0.14653486258E+02  0.26770886676E+02  0.51100000000E-03 0.  1.
        -11    1    3    3    0    0  0.34802502500E+01 -0.65938555457E+01 -0.83939494055E+01  0.11227175052E+02  0.51100000000E-03 0. -1.
         12    1    3    3    0    0  0.95091833637E+00  0.18871690752E+02  0.98392129474E+01  0.21303874506E+02  0.00000000000E+00 0. -1.
</event>
<event>
 7    1  0.6230310E-012  0.5930194E+02  0.7816164E-02  0.1266605E+00
        -11   -1    0    0    0    0  0.00000000000E+00  0.00000000000E+00  0.45593999997E+02  0.45594000000E+02  0.51100000000E-03 0.  1.
         11   -1    0    0    0    0 -0.00000000000E+00 -0.00000000000E+00 -0.45593999997E+02  0.45594000000E+02  0.51100000000E-03 0. -1.
    9900012    2    1    2    0    0 -0.16756898798E+02  0.46934704810E+01  0.26718878623E+02  0.59301940392E+02  0.49999993368E+02 0.  0.
         12    1    1    2    0    0  0.16756898798E+02 -0.46934704810E+01 -0.26718878623E+02  0.31886059608E+02  0.00000000000E+00 0. -1.
         11    1    3    3    0    0 -0.24518169090E+02 -0.50177510594E+01  0.17644466561E+00  0.25026976929E+02  0.51100000000E-03 0. -1.
        -11    1    3    3    0    0  0.15093981408E+01 -0.43605012699E+01  0.12908325101E+02  0.13708286226E+02  0.51100000000E-03 0.  1.
        -12    1    3    3    0    0  0.62518721513E+01  0.14071722810E+02  0.13634108856E+02  0.20566677237E+02  0.00000000000E+00 0.  1.
</event>
<event>
 7    1  0.6230310E-012  0.5930193E+02  0.7816164E-02  0.1266605E+00
        -11   -1    0    0    0    0  0.00000000000E+00  0.00000000000E+00  0.45593999997E+02  0.45594000000E+02  0.51100000000E-03 0. -1.
         11   -1    0    0    0    0 -0.00000000000E+00 -0.00000000000E+00 -0.45593999997E+02  0.45594000000E+02  0.51100000000E-03 0.  1.
    9900012    2    1    2    0    0 -0.21369418917E+02 -0.17012176817E+02 -0.16451601901E+02  0.59301930470E+02  0.49999975275E+02 0.  0.
         12    1    1    2    0    0  0.21369418917E+02  0.17012176817E+02  0.16451601901E+02  0.31886069530E+02  0.00000000000E+00 0. -1.
         11    1    3    3    0    0 -0.25062682995E+02  0.82890255396E+00 -0.34858294528E+01  0.25317507096E+02  0.51100000000E-03 0. -1.
        -11    1    3    3    0    0  0.22994123449E+01  0.18887867883E+01  0.59270555110E+01  0.66321037352E+01  0.51100000000E-03 0.  1.
        -12    1    3    3    0    0  0.13938517325E+01 -0.19729866160E+02 -0.18892827959E+02  0.27352319639E+02  0.00000000000E+00 0.  1.
</event>
<event>
 7    1  0.6230310E-012  0.5930196E+02  0.7816164E-02  0.1266605E+00
        -11   -1    0    0    0    0  0.00000000000E+00  0.00000000000E+00  0.45593999997E+02  0.45594000000E+02  0.51100000000E-03 0. -1.
         11   -1    0    0    0    0 -0.00000000000E+00 -0.00000000000E+00 -0.45593999997E+02  0.45594000000E+02  0.51100000000E-03 0.  1.
    9900012    2    1    2    0    0  0.28891385013E+02 -0.12920845198E+02  0.38805929468E+01  0.59301962770E+02  0.50000034182E+02 0.  0.
         12    1    1    2    0    0 -0.28891385013E+02  0.12920845198E+02 -0.38805929468E+01  0.31886037230E+02  0.00000000000E+00 0. -1.
         11    1    3    3    0    0  0.11148359843E+02 -0.43839855306E+01 -0.24532602932E+01  0.12227990131E+02  0.51100000000E-03 0. -1.
        -11    1    3    3    0    0  0.25872931626E+02  0.75923040508E+01 -0.22853637742E+01  0.27060572048E+02  0.51100000000E-03 0.  1.
         12    1    3    3    0    0 -0.81299064566E+01 -0.16129163719E+02  0.86192170141E+01  0.20013400590E+02  0.00000000000E+00 0. -1.
</event>
<event>
 7    1  0.6230310E-012  0.5930194E+02  0.7816164E-02  0.1266605E+00
        -11   -1    0    0    0    0  0.00000000000E+00  0.00000000000E+00  0.45593999997E+02  0.45594000000E+02  0.51100000000E-03 0.  1.
         11   -1    0    0    0    0 -0.00000000000E+00 -0.00000000000E+00 -0.45593999997E+02  0.45594000000E+02  0.51100000000E-03 0. -1.
    9900012    2    1    2    0    0  0.95548118781E+01  0.94712873549E+01  0.28908845510E+02  0.59301936228E+02  0.49999985775E+02 0.  0.
         12    1    1    2    0    0 -0.95548118781E+01 -0.94712873549E+01 -0.28908845510E+02  0.31886063772E+02  0.00000000000E+00 0. -1.
         11    1    3    3    0    0  0.11201813410E+02  0.35823120589E+01 -0.62847760150E+01  0.13334616349E+02  0.51100000000E-03 0. -1.
        -11    1    3    3    0    0 -0.23348302127E+01  0.36624008424E+01 -0.44715625076E+01  0.62337375284E+01  0.51100000000E-03 0.  1.
        -12    1    3    3    0    0  0.68782868084E+00  0.22265744536E+01  0.39665184032E+02  0.39733582350E+02  0.00000000000E+00 0.  1.
</event>
<event>
 7    1  0.6230310E-012  0.5930194E+02  0.7816164E-02  0.1266605E+00
        -11   -1    0    0    0    0  0.00000000000E+00  0.00000000000E+00  0.45593999997E+02  0.45594000000E+02  0.51100000000E-03 0.  1.
         11   -1    0    0    0    0 -0.00000000000E+00 -0.00000000000E+00 -0.45593999997E+02  0.45594000000E+02  0.51100000000E-03 0. -1.
    9900012    2    1    2    0    0 -0.74420868306E+01 -0.10847262282E+02  0.29046055649E+02  0.59301935580E+02  0.49999984594E+02 0.  0.
         12    1    1    2    0    0  0.74420868306E+01  0.10847262282E+02 -0.29046055649E+02  0.31886064420E+02  0.00000000000E+00 0. -1.
         11    1    3    3    0    0 -0.20906531678E+02  0.53358753102E+01  0.12262617132E+02  0.24817864761E+02  0.51100000000E-03 0. -1.
        -11    1    3    3    0    0  0.66147119447E+01  0.29601169651E+01  0.11302893000E+02  0.13426544492E+02  0.51100000000E-03 0.  1.
        -12    1    3    3    0    0  0.68497329022E+01 -0.19143254557E+02  0.54805455173E+01  0.21057526328E+02  0.00000000000E+00 0.  1.
</event>
<event>
 7    1  0.6230310E-012  0.5930199E+02  0.7816164E-02  0.1266605E+00
        -11   -1    0    0    0    0  0.00000000000E+00  0.00000000000E+00  0.45593999997E+02  0.45594000000E+02  0.51100000000E-03 0. -1.
         11   -1    0    0    0    0 -0.00000000000E+00 -0.00000000000E+00 -0.45593999997E+02  0.45594000000E+02  0.51100000000E-03 0.  1.
    9900012    2    1    2    0    0 -0.29377783110E+02  0.12395967146E+02  0.56591760366E-01  0.59301994534E+02  0.50000092111E+02 0.  0.
         12    1    1    2    0    0  0.29377783110E+02 -0.12395967146E+02 -0.56591760366E-01  0.31886005466E+02  0.00000000000E+00 0. -1.
         11    1    3    3    0    0 -0.52716946666E+01  0.13863098592E+02  0.40219642192E+01  0.15367252964E+02  0.51100000000E-03 0. -1.
        -11    1    3    3    0    0  0.63196949458E+00  0.13225417416E+02 -0.70450742634E+01  0.14998137314E+02  0.51100000000E-03 0.  1.
        -12    1    3    3    0    0 -0.24738057938E+02 -0.14692548861E+02  0.30797018046E+01  0.28936604255E+02  0.00000000000E+00 0.  1.
</event>
<event>
 7    1  0.6230310E-012  0.5930195E+02  0.7816164E-02  0.1266605E+00
        -11   -1    0    0    0    0  0.00000000000E+00  0.00000000000E+00  0.45593999997E+02  0.45594000000E+02  0.51100000000E-03 0.  1.
         11   -1    0    0    0    0 -0.00000000000E+00 -0.00000000000E+00 -0.45593999997E+02  0.45594000000E+02  0.51100000000E-03 0. -1.
    9900012    2    1    2    0    0 -0.34387812748E+01  0.30490874712E+02  0.86718933573E+01  0.59301946752E+02  0.50000004969E+02 0.  0.
         12    1    1    2    0    0  0.34387812748E+01 -0.30490874712E+02 -0.86718933573E+01  0.31886053248E+02  0.00000000000E+00 0. -1.
         11    1    3    3    0    0 -0.10663136491E+02  0.29012668218E+02 -0.13370607017E+00  0.30910439572E+02  0.51100000000E-03 0. -1.
        -11    1    3    3    0    0  0.34296787727E+01  0.92160573277E+01  0.14888481322E+02  0.17842793657E+02  0.51100000000E-03 0.  1.
         12    1    3    3    0    0  0.37946764431E+01 -0.77378508347E+01 -0.60828818944E+01  0.10548713523E+02  0.00000000000E+00 0. -1.
</event>
<event>
 7    1  0.6230310E-012  0.5930195E+02  0.7816164E-02  0.1266605E+00
        -11   -1    0    0    0    0  0.00000000000E+00  0.00000000000E+00  0.45593999997E+02  0.45594000000E+02  0.51100000000E-03 0.  1.
         11   -1    0    0    0    0 -0.00000000000E+00 -0.00000000000E+00 -0.45593999997E+02  0.45594000000E+02  0.51100000000E-03 0. -1.
    9900012    2    1    2    0    0 -0.92918948495E+01 -0.13101593899E+02  0.27545036445E+02  0.59301951242E+02  0.50000013158E+02 0.  0.
         12    1    1    2    0    0  0.92918948495E+01  0.13101593899E+02 -0.27545036445E+02  0.31886048758E+02  0.00000000000E+00 0. -1.
         11    1    3    3    0    0  0.12681381416E+02 -0.43727690391E+01  0.12948920060E+02  0.18644384534E+02  0.51100000000E-03 0. -1.
        -11    1    3    3    0    0 -0.13931584137E+02  0.10263196019E+02  0.73004895230E+01  0.18780824705E+02  0.51100000000E-03 0.  1.
         12    1    3    3    0    0 -0.80416921283E+01 -0.18992020878E+02  0.72956268623E+01  0.21876742003E+02  0.00000000000E+00 0. -1.
</event>
<event>
 7    1  0.6230310E-012  0.5930169E+02  0.7816164E-02  0.1266606E+00
        -11   -1    0    0    0    0  0.00000000000E+00  0.00000000000E+00  0.45593999997E+02  0.45594000000E+02  0.51100000000E-03 0.  1.
         11   -1    0    0    0    0 -0.00000000000E+00 -0.00000000000E+00 -0.45593999997E+02  0.45594000000E+02  0.51100000000E-03 0. -1.
    9900012    2    1    2    0    0  0.22297462714E+02  0.22748728778E+02  0.14335801679E+01  0.59301691706E+02  0.49999539824E+02 0.  0.
         12    1    1    2    0    0 -0.22297462714E+02 -0.22748728778E+02 -0.14335801679E+01  0.31886308294E+02  0.00000000000E+00 0. -1.
         11    1    3    3    0    0  0.19411912839E+01  0.86725613464E+01  0.38140088371E+01  0.96709982721E+01  0.51100000000E-03 0. -1.
        -11    1    3    3    0    0  0.21760282199E+02  0.55474177546E+01  0.17161158300E+02  0.28262856890E+02  0.51100000000E-03 0.  1.
         12    1    3    3    0    0 -0.14040107687E+01  0.85287496774E+01 -0.19541586969E+02  0.21367836544E+02  0.00000000000E+00 0. -1.
</event>
<event>
 7    1  0.6230310E-012  0.5930194E+02  0.7816164E-02  0.1266605E+00
        -11   -1    0    0    0    0  0.00000000000E+00  0.00000000000E+00  0.45593999997E+02  0.45594000000E+02  0.51100000000E-03 0. -1.
         11   -1    0    0    0    0 -0.00000000000E+00 -0.00000000000E+00 -0.45593999997E+02  0.45594000000E+02  0.51100000000E-03 0.  1.
    9900012    2    1    2    0    0  0.15600180422E+02  0.65330217686E+01 -0.27030992374E+02  0.59301944249E+02  0.50000000403E+02 0.  0.
         12    1    1    2    0    0 -0.15600180422E+02 -0.65330217686E+01  0.27030992374E+02  0.31886055751E+02  0.00000000000E+00 0. -1.
         11    1    3    3    0    0 -0.70648352641E+01 -0.56079209133E+01  0.25167910963E+01  0.93645561541E+01  0.51100000000E-03 0. -1.
        -11    1    3    3    0    0 -0.16288608033E+01  0.79509212838E+01  0.33900112630E+01  0.87955962505E+01  0.51100000000E-03 0.  1.
        -12    1    3    3    0    0  0.24293876490E+02  0.41900213981E+01 -0.32937794734E+02  0.41141791844E+02  0.00000000000E+00 0.  1.
</event>
<event>
 7    1  0.6230310E-012  0.5930194E+02  0.7816164E-02  0.1266605E+00
        -11   -1    0    0    0    0  0.00000000000E+00  0.00000000000E+00  0.45593999997E+02  0.45594000000E+02  0.51100000000E-03 0. -1.
         11   -1    0    0    0    0 -0.00000000000E+00 -0.00000000000E+00 -0.45593999997E+02  0.45594000000E+02  0.51100000000E-03 0.  1.
    9900012    2    1    2    0    0  0.14241879321E+02 -0.55045746489E+01 -0.27992668315E+02  0.59301938028E+02  0.49999989059E+02 0.  0.
         12    1    1    2    0    0 -0.14241879321E+02  0.55045746489E+01  0.27992668315E+02  0.31886061972E+02  0.00000000000E+00 0. -1.
         11    1    3    3    0    0 -0.90687609834E+01 -0.25183415654E+01 -0.11282352425E+01  0.94793135320E+01  0.51100000000E-03 0. -1.
        -11    1    3    3    0    0  0.13677050457E+02 -0.17013135477E+02 -0.24213947660E+02  0.32600977739E+02  0.51100000000E-03 0.  1.
         12    1    3    3    0    0  0.96335898479E+01  0.14026902394E+02 -0.26504854121E+01  0.17221646758E+02  0.00000000000E+00 0. -1.
</event>
<event>
 7    1  0.6230310E-012  0.5930187E+02  0.7816164E-02  0.1266605E+00
        -11   -1    0    0    0    0  0.00000000000E+00  0.00000000000E+00  0.45593999997E+02  0.45594000000E+02  0.51100000000E-03 0.  1.
         11   -1    0    0    0    0 -0.00000000000E+00 -0.00000000000E+00 -0.45593999997E+02  0.45594000000E+02  0.51100000000E-03 0. -1.
    9900012    2    1    2    0    0 -0.14810979056E+02 -0.25500510173E+02  0.12127836178E+02  0.59301866179E+02  0.49999858022E+02 0.  0.
         12    1    1    2    0    0  0.14810979056E+02  0.25500510173E+02 -0.12127836178E+02  0.31886133821E+02  0.00000000000E+00 0. -1.
         11    1    3    3    0    0  0.19803430900E+01  0.10424012596E+02  0.62976174116E+01  0.12338629692E+02  0.51100000000E-03 0. -1.
        -11    1    3    3    0    0  0.36654031387E+01 -0.12099507276E+02 -0.52137948639E+01  0.13675412741E+02  0.51100000000E-03 0.  1.
        -12    1    3    3    0    0 -0.20456725285E+02 -0.23825015493E+02  0.11044013631E+02  0.33287823745E+02  0.00000000000E+00 0.  1.
</event>
<event>
 7    1  0.6230310E-012  0.5930194E+02  0.7816164E-02  0.1266605E+00
        -11   -1    0    0    0    0  0.00000000000E+00  0.00000000000E+00  0.45593999997E+02  0.45594000000E+02  0.51100000000E-03 0.  1.
         11   -1    0    0    0    0 -0.00000000000E+00 -0.00000000000E+00 -0.45593999997E+02  0.45594000000E+02  0.51100000000E-03 0. -1.
    9900012    2    1    2    0    0  0.60658165614E+00  0.72084487384E+01  0.31054652129E+02  0.59301935749E+02  0.49999984902E+02 0.  0.
         12    1    1    2    0    0 -0.60658165614E+00 -0.72084487384E+01 -0.31054652129E+02  0.31886064251E+02  0.00000000000E+00 0. -1.
         11    1    3    3    0    0 -0.25713426228E-01  0.69375632513E+01 -0.10290480082E+02  0.12410657744E+02  0.51100000000E-03 0. -1.
        -11    1    3    3    0    0  0.56548732517E+01 -0.11097313825E+01  0.57679775108E+00  0.57915275308E+01  0.51100000000E-03 0.  1.
        -12    1    3    3    0    0 -0.50225781693E+01  0.13806168695E+01  0.40768334461E+02  0.41099750475E+02  0.00000000000E+00 0.  1.
</event>
<event>
 7    1  0.6230310E-012  0.5930166E+02  0.7816164E-02  0.1266606E+00
        -11   -1    0    0    0    0  0.00000000000E+00  0.00000000000E+00  0.45593999997E+02  0.45594000000E+02  0.51100000000E-03 0.  1.
         11   -1    0    0    0    0 -0.00000000000E+00 -0.00000000000E+00 -0.45593999997E+02  0.45594000000E+02  0.51100000000E-03 0. -1.
    9900012    2    1    2    0    0  0.20774000511E+01 -0.31399321893E+02 -0.51483647016E+01  0.59301660206E+02  0.49999482375E+02 0.  0.
         12    1    1    2    0    0 -0.20774000511E+01  0.31399321893E+02  0.51483647016E+01  0.31886339794E+02  0.00000000000E+00 0. -1.
         11    1    3    3    0    0  0.12264625272E+02 -0.21421007299E+02  0.70428146314E+01  0.25668693480E+02  0.51100000000E-03 0. -1.
        -11    1    3    3    0    0 -0.40139363495E+01 -0.67223671991E+01  0.86422936945E+01  0.11661524186E+02  0.51100000000E-03 0.  1.
         12    1    3    3    0    0 -0.61732888715E+01 -0.32559473955E+01 -0.20833473028E+02  0.21971442541E+02  0.00000000000E+00 0. -1.
</event>
<event>
 7    1  0.6230310E-012  0.5930206E+02  0.7816164E-02  0.1266604E+00
        -11   -1    0    0    0    0  0.00000000000E+00  0.00000000000E+00  0.45593999997E+02  0.45594000000E+02  0.51100000000E-03 0. -1.
         11   -1    0    0    0    0 -0.00000000000E+00 -0.00000000000E+00 -0.45593999997E+02  0.45594000000E+02  0.51100000000E-03 0.  1.
    9900012    2    1    2    0    0 -0.20986366851E+02  0.16414195055E+02 -0.17517406177E+02  0.59302064039E+02  0.50000218872E+02 0.  0.
         12    1    1    2    0    0  0.20986366851E+02 -0.16414195055E+02  0.17517406177E+02  0.31885935961E+02  0.00000000000E+00 0. -1.
         11    1    3    3    0    0  0.56857117248E+01 -0.10950483113E+02 -0.58342303965E+01  0.13648393415E+02  0.51100000000E-03 0.  1.
        -11    1    3    3    0    0  0.30258491641E+00 -0.18025641402E+01  0.28200672110E+01  0.33605913835E+01  0.51100000000E-03 0. -1.
        -12    1    3    3    0    0 -0.26974663492E+02  0.29167242309E+02 -0.14503242992E+02  0.42293079241E+02  0.00000000000E+00 0.  1.
</event>
<event>
 7    1  0.6230310E-012  0.5930191E+02  0.7816164E-02  0.1266605E+00
        -11   -1    0    0    0    0  0.00000000000E+00  0.00000000000E+00  0.45593999997E+02  0.45594000000E+02  0.51100000000E-03 0. -1.
         11   -1    0    0    0    0 -0.00000000000E+00 -0.00000000000E+00 -0.45593999997E+02  0.45594000000E+02  0.51100000000E-03 0.  1.
    9900012    2    1    2    0    0 -0.29388717095E+02 -0.12114147962E+02 -0.25046317867E+01  0.59301914418E+02  0.49999945999E+02 0.  0.
         12    1    1    2    0    0  0.29388717095E+02  0.12114147962E+02  0.25046317867E+01  0.31886085582E+02  0.00000000000E+00 0. -1.
         11    1    3    3    0    0 -0.63458695730E+01 -0.96294638336E+01 -0.79810655885E+01  0.14024765330E+02  0.51100000000E-03 0. -1.
        -11    1    3    3    0    0  0.52119774986E+01 -0.13509669357E+02  0.34157739930E+01  0.14877613647E+02  0.51100000000E-03 0.  1.
         12    1    3    3    0    0 -0.28254825021E+02  0.11024985229E+02  0.20606598088E+01  0.30399535442E+02  0.00000000000E+00 0. -1.
</event>
<event>
 7    1  0.6230310E-012  0.5930183E+02  0.7816164E-02  0.1266605E+00
        -11   -1    0    0    0    0  0.00000000000E+00  0.00000000000E+00  0.45593999997E+02  0.45594000000E+02  0.51100000000E-03 0.  1.
         11   -1    0    0    0    0 -0.00000000000E+00 -0.00000000000E+00 -0.45593999997E+02  0.45594000000E+02  0.51100000000E-03 0. -1.
    9900012    2    1    2    0    0  0.11807123793E+02  0.25297659008E+02  0.15406104997E+02  0.59301830667E+02  0.49999793257E+02 0.  0.
         12    1    1    2    0    0 -0.11807123793E+02 -0.25297659008E+02 -0.15406104997E+02  0.31886169333E+02  0.00000000000E+00 0. -1.
         11    1    3    3    0    0 -0.10149485989E+01 -0.22538746944E+01  0.24452692471E+00  0.24839213906E+01  0.51100000000E-03 0. -1.
        -11    1    3    3    0    0  0.27318019014E+02  0.81964439656E+01  0.47375626657E+00  0.28525081977E+02  0.51100000000E-03 0.  1.
        -12    1    3    3    0    0 -0.14495946622E+02  0.19355089737E+02  0.14687821806E+02  0.28292827299E+02  0.00000000000E+00 0.  1.
</event>
<event>
 7    1  0.6230310E-012  0.5930191E+02  0.7816164E-02  0.1266605E+00
        -11   -1    0    0    0    0  0.00000000000E+00  0.00000000000E+00  0.45593999997E+02  0.45594000000E+02  0.51100000000E-03 0. -1.
         11   -1    0    0    0    0 -0.00000000000E+00 -0.00000000000E+00 -0.45593999997E+02  0.45594000000E+02  0.51100000000E-03 0.  1.
    9900012    2    1    2    0    0 -0.24089217541E+02 -0.17708444382E+02 -0.11083480256E+02  0.59301906813E+02  0.49999932129E+02 0.  0.
         12    1    1    2    0    0  0.24089217541E+02  0.17708444382E+02  0.11083480256E+02  0.31886093187E+02  0.00000000000E+00 0. -1.
         11    1    3    3    0    0 -0.77941277721E+01 -0.24721040603E+02 -0.12644543309E+02  0.28840297363E+02  0.51100000000E-03 0. -1.
        -11    1    3    3    0    0 -0.10014520846E+02 -0.46996014583E+01 -0.83691558763E+01  0.13871541082E+02  0.51100000000E-03 0.  1.
         12    1    3    3    0    0 -0.62805689232E+01  0.11712197679E+02  0.99302189298E+01  0.16590068368E+02  0.00000000000E+00 0. -1.
</event>
<event>
 7    1  0.6230310E-012  0.5930188E+02  0.7816164E-02  0.1266605E+00
        -11   -1    0    0    0    0  0.00000000000E+00  0.00000000000E+00  0.45593999997E+02  0.45594000000E+02  0.51100000000E-03 0.  1.
         11   -1    0    0    0    0 -0.00000000000E+00 -0.00000000000E+00 -0.45593999997E+02  0.45594000000E+02  0.51100000000E-03 0. -1.
    9900012    2    1    2    0    0 -0.52227861728E+00  0.64208638918E+00  0.31875372031E+02  0.59301884025E+02  0.49999890569E+02 0.  0.
         12    1    1    2    0    0  0.52227861728E+00 -0.64208638918E+00 -0.31875372031E+02  0.31886115975E+02  0.00000000000E+00 0. -1.
         11    1    3    3    0    0 -0.10102016379E+02  0.97694464613E+01  0.15995167232E+02  0.21291740044E+02  0.51100000000E-03 0. -1.
        -11    1    3    3    0    0  0.18756474998E+02 -0.46655382175E+01  0.19235600502E+02  0.27268680352E+02  0.51100000000E-03 0.  1.
         12    1    3    3    0    0 -0.91767372363E+01 -0.44618218546E+01 -0.33553957030E+01  0.10741463629E+02  0.00000000000E+00 0. -1.
</event>
<event>
 7    1  0.6230310E-012  0.5930195E+02  0.7816164E-02  0.1266605E+00
        -11   -1    0    0    0    0  0.00000000000E+00  0.00000000000E+00  0.45593999997E+02  0.45594000000E+02  0.51100000000E-03 0.  1.
         11   -1    0    0    0    0 -0.00000000000E+00 -0.00000000000E+00 -0.45593999997E+02  0.45594000000E+02  0.51100000000E-03 0. -1.
    9900012    2    1    2    0    0  0.26642151782E+02 -0.66889740648E+01  0.16191765198E+02  0.59301954684E+02  0.50000019435E+02 0.  0.
         12    1    1    2    0    0 -0.26642151782E+02  0.66889740648E+01 -0.16191765198E+02  0.31886045316E+02  0.00000000000E+00 0. -1.
         11    1    3    3    0    0 -0.95572497943E+01  0.19757698412E+00 -0.78486632713E+01  0.12368572096E+02  0.51100000000E-03 0. -1.
        -11    1    3    3    0    0  0.44849229419E+01 -0.66198925303E+01  0.17980252420E+01  0.81957553611E+01  0.51100000000E-03 0.  1.
        -12    1    3    3    0    0  0.31714478635E+02 -0.26665851863E+00  0.22242403227E+02  0.38737627227E+02  0.00000000000E+00 0.  1.
</event>
<event>
 7    1  0.6230310E-012  0.5930194E+02  0.7816164E-02  0.1266605E+00
        -11   -1    0    0    0    0  0.00000000000E+00  0.00000000000E+00  0.45593999997E+02  0.45594000000E+02  0.51100000000E-03 0. -1.
         11   -1    0    0    0    0 -0.00000000000E+00 -0.00000000000E+00 -0.45593999997E+02  0.45594000000E+02  0.51100000000E-03 0.  1.
    9900012    2    1    2    0    0  0.97093740904E+01  0.19015706909E+02 -0.23682311053E+02  0.59301938605E+02  0.49999990110E+02 0.  0.
         12    1    1    2    0    0 -0.97093740904E+01 -0.19015706909E+02  0.23682311053E+02  0.31886061395E+02  0.00000000000E+00 0. -1.
         11    1    3    3    0    0  0.10154873169E+02 -0.87095823732E+00  0.91038245584E+01  0.13666003043E+02  0.51100000000E-03 0. -1.
        -11    1    3    3    0    0  0.11293245256E+02  0.11375900245E+02 -0.10906730433E+02  0.19388276452E+02  0.51100000000E-03 0.  1.
         12    1    3    3    0    0 -0.11738744334E+02  0.85107649016E+01 -0.21879405178E+02  0.26247659109E+02  0.00000000000E+00 0. -1.
</event>
<event>
 7    1  0.6230310E-012  0.5930193E+02  0.7816164E-02  0.1266605E+00
        -11   -1    0    0    0    0  0.00000000000E+00  0.00000000000E+00  0.45593999997E+02  0.45594000000E+02  0.51100000000E-03 0. -1.
         11   -1    0    0    0    0 -0.00000000000E+00 -0.00000000000E+00 -0.45593999997E+02  0.45594000000E+02  0.51100000000E-03 0.  1.
    9900012    2    1    2    0    0  0.14795871374E+02 -0.20760003499E+02 -0.19152693046E+02  0.59301933985E+02  0.49999981684E+02 0.  0.
         12    1    1    2    0    0 -0.14795871374E+02  0.20760003499E+02  0.19152693046E+02  0.31886066015E+02  0.00000000000E+00 0. -1.
         11    1    3    3    0    0  0.21293542589E+02 -0.11258335869E+02  0.39567069280E+01  0.24409436956E+02  0.51100000000E-03 0. -1.
        -11    1    3    3    0    0  0.74866963213E+01  0.22624994336E+01 -0.59832450791E+01  0.98472710652E+01  0.51100000000E-03 0.  1.
        -12    1    3    3    0    0 -0.13984367536E+02 -0.11764167064E+02 -0.17126154895E+02  0.25045225964E+02  0.00000000000E+00 0.  1.
</event>
<event>
 7    1  0.6230310E-012  0.5930197E+02  0.7816164E-02  0.1266605E+00
        -11   -1    0    0    0    0  0.00000000000E+00  0.00000000000E+00  0.45593999997E+02  0.45594000000E+02  0.51100000000E-03 0. -1.
         11   -1    0    0    0    0 -0.00000000000E+00 -0.00000000000E+00 -0.45593999997E+02  0.45594000000E+02  0.51100000000E-03 0.  1.
    9900012    2    1    2    0    0 -0.29980205751E+02 -0.68715915559E+01 -0.84075736091E+01  0.59301971690E+02  0.50000050449E+02 0.  0.
         12    1    1    2    0    0  0.29980205751E+02  0.68715915559E+01  0.84075736091E+01  0.31886028310E+02  0.00000000000E+00 0. -1.
         11    1    3    3    0    0  0.49546666597E+01 -0.47255516798E+01  0.69419765615E+01  0.97504153362E+01  0.51100000000E-03 0.  1.
        -11    1    3    3    0    0 -0.33575989995E+01  0.27180401426E+01  0.85987087190E+01  0.96228376872E+01  0.51100000000E-03 0. -1.
        -12    1    3    3    0    0 -0.31577273411E+02 -0.48640800188E+01 -0.23948258890E+02  0.39928718667E+02  0.00000000000E+00 0.  1.
</event>
<event>
 7    1  0.6230310E-012  0.5930189E+02  0.7816164E-02  0.1266605E+00
        -11   -1    0    0    0    0  0.00000000000E+00  0.00000000000E+00  0.45593999997E+02  0.45594000000E+02  0.51100000000E-03 0.  1.
         11   -1    0    0    0    0 -0.00000000000E+00 -0.00000000000E+00 -0.45593999997E+02  0.45594000000E+02  0.51100000000E-03 0. -1.
    9900012    2    1    2    0    0 -0.23903675332E+02 -0.89781146584E+00  0.21083939739E+02  0.59301885864E+02  0.49999893923E+02 0.  0.
         12    1    1    2    0    0  0.23903675332E+02  0.89781146584E+00 -0.21083939739E+02  0.31886114136E+02  0.00000000000E+00 0. -1.
         11    1    3    3    0    0  0.98316539791E+01 -0.71542274205E+01 -0.21967966089E+00  0.12161112176E+02  0.51100000000E-03 0. -1.
        -11    1    3    3    0    0 -0.11508356731E+02  0.14211999610E+02  0.11330057279E+02  0.21512633632E+02  0.51100000000E-03 0.  1.
        -12    1    3    3    0    0 -0.22226972579E+02 -0.79555836554E+01  0.99735621210E+01  0.25628140056E+02  0.00000000000E+00 0.  1.
</event>
<event>
 7    1  0.6230310E-012  0.5930199E+02  0.7816164E-02  0.1266605E+00
        -11   -1    0    0    0    0  0.00000000000E+00  0.00000000000E+00  0.45593999997E+02  0.45594000000E+02  0.51100000000E-03 0. -1.
         11   -1    0    0    0    0 -0.00000000000E+00 -0.00000000000E+00 -0.45593999997E+02  0.45594000000E+02  0.51100000000E-03 0.  1.
    9900012    2    1    2    0    0 -0.21867067820E+02  0.10186991564E+02 -0.20851232146E+02  0.59301994697E+02  0.50000092409E+02 0.  0.
         12    1    1    2    0    0  0.21867067820E+02 -0.10186991564E+02  0.20851232146E+02  0.31886005303E+02  0.00000000000E+00 0. -1.
         11    1    3    3    0    0 -0.22479789345E+01  0.34457634602E+01  0.82543307342E+01  0.92228342305E+01  0.51100000000E-03 0. -1.
        -11    1    3    3    0    0 -0.16059473494E+02 -0.49190033767E+00  0.35404978403E+01  0.16452470333E+02  0.51100000000E-03 0.  1.
         12    1    3    3    0    0 -0.35596153922E+01  0.72331284413E+01 -0.32646060720E+02  0.33626690134E+02  0.00000000000E+00 0. -1.
</event>
<event>
 7    1  0.6230310E-012  0.5930195E+02  0.7816164E-02  0.1266605E+00
        -11   -1    0    0    0    0  0.00000000000E+00  0.00000000000E+00  0.45593999997E+02  0.45594000000E+02  0.51100000000E-03 0. -1.
         11   -1    0    0    0    0 -0.00000000000E+00 -0.00000000000E+00 -0.45593999997E+02  0.45594000000E+02  0.51100000000E-03 0.  1.
    9900012    2    1    2    0    0  0.22754961397E+01 -0.29470163118E+02 -0.11960437375E+02  0.59301945696E+02  0.50000003042E+02 0.  0.
         12    1    1    2    0    0 -0.22754961397E+01  0.29470163118E+02  0.11960437375E+02  0.31886054304E+02  0.00000000000E+00 0. -1.
         11    1    3    3    0    0 -0.20975768404E+01 -0.32061629964E+00  0.88222256939E+00  0.22980296639E+01  0.51100000000E-03 0. -1.
        -11    1    3    3    0    0  0.60334523858E+01 -0.69372993602E+01 -0.28389167929E+02  0.29840803040E+02  0.51100000000E-03 0.  1.
         12    1    3    3    0    0 -0.16603794057E+01 -0.22212247458E+02  0.15546507984E+02  0.27163112992E+02  0.00000000000E+00 0. -1.
</event>
<event>
 7    1  0.6230310E-012  0.5930194E+02  0.7816164E-02  0.1266605E+00
        -11   -1    0    0    0    0  0.00000000000E+00  0.00000000000E+00  0.45593999997E+02  0.45594000000E+02  0.51100000000E-03 0. -1.
         11   -1    0    0    0    0 -0.00000000000E+00 -0.00000000000E+00 -0.45593999997E+02  0.45594000000E+02  0.51100000000E-03 0.  1.
    9900012    2    1    2    0    0 -0.71884144063E+01 -0.26704548751E+02  0.15871813672E+02  0.59301941998E+02  0.49999996299E+02 0.  0.
         12    1    1    2    0    0  0.71884144063E+01  0.26704548751E+02 -0.15871813672E+02  0.31886058002E+02  0.00000000000E+00 0. -1.
         11    1    3    3    0    0  0.47068804419E+00  0.54364269696E+01  0.10216081751E+02  0.11582081507E+02  0.51100000000E-03 0. -1.
        -11    1    3    3    0    0  0.12338223399E+02 -0.61004848377E+01 -0.22547229023E+01  0.13947453084E+02  0.51100000000E-03 0.  1.
        -12    1    3    3    0    0 -0.19997325850E+02 -0.26040490883E+02  0.79104548234E+01  0.33772407407E+02  0.00000000000E+00 0.  1.
</event>
<event>
 7    1  0.6230310E-012  0.5930197E+02  0.7816164E-02  0.1266605E+00
        -11   -1    0    0    0    0  0.00000000000E+00  0.00000000000E+00  0.45593999997E+02  0.45594000000E+02  0.51100000000E-03 0. -1.
         11   -1    0    0    0    0 -0.00000000000E+00 -0.00000000000E+00 -0.45593999997E+02  0.45594000000E+02  0.51100000000E-03 0.  1.
    9900012    2    1    2    0    0 -0.10469972947E+02 -0.15194354479E+02 -0.26004431958E+02  0.59301965078E+02  0.50000038391E+02 0.  0.
         12    1    1    2    0    0  0.10469972947E+02  0.15194354479E+02  0.26004431958E+02  0.31886034922E+02  0.00000000000E+00 0. -1.
         11    1    3    3    0    0  0.43046159733E-01 -0.62957601780E+01 -0.17666015110E+02  0.18754373872E+02  0.51100000000E-03 0. -1.
        -11    1    3    3    0    0 -0.16814395494E+02 -0.16655693980E+02 -0.15465853491E+02  0.28272401070E+02  0.51100000000E-03 0.  1.
         12    1    3    3    0    0  0.63013763865E+01  0.77570996792E+01  0.71274366429E+01  0.12275190137E+02  0.00000000000E+00 0. -1.
</event>
<event>
 7    1  0.6230310E-012  0.5930173E+02  0.7816164E-02  0.1266605E+00
        -11   -1    0    0    0    0  0.00000000000E+00  0.00000000000E+00  0.45593999997E+02  0.45594000000E+02  0.51100000000E-03 0.  1.
         11   -1    0    0    0    0 -0.00000000000E+00 -0.00000000000E+00 -0.45593999997E+02  0.45594000000E+02  0.51100000000E-03 0. -1.
    9900012    2    1    2    0    0  0.29535120680E+02 -0.36235043373E+01  0.11457784567E+02  0.59301733921E+02  0.49999616815E+02 0.  0.
         12    1    1    2    0    0 -0.29535120680E+02  0.36235043373E+01 -0.11457784567E+02  0.31886266079E+02  0.00000000000E+00 0. -1.
         11    1    3    3    0    0 -0.39431273828E+01  0.38122963676E+01  0.51710352495E+01  0.75380012579E+01  0.51100000000E-03 0. -1.
        -11    1    3    3    0    0 -0.86567236098E+01 -0.20242011842E+01  0.14602403038E+01  0.90093593611E+01  0.51100000000E-03 0.  1.
        -12    1    3    3    0    0  0.42134971673E+02 -0.54115995207E+01  0.48265090136E+01  0.42754373302E+02  0.00000000000E+00 0.  1.
</event>
<event>
 7    1  0.6230310E-012  0.5930192E+02  0.7816164E-02  0.1266605E+00
        -11   -1    0    0    0    0  0.00000000000E+00  0.00000000000E+00  0.45593999997E+02  0.45594000000E+02  0.51100000000E-03 0. -1.
         11   -1    0    0    0    0 -0.00000000000E+00 -0.00000000000E+00 -0.45593999997E+02  0.45594000000E+02  0.51100000000E-03 0.  1.
    9900012    2    1    2    0    0  0.19546644952E+02  0.16552236159E+02 -0.18991418939E+02  0.59301923978E+02  0.49999963434E+02 0.  0.
         12    1    1    2    0    0 -0.19546644952E+02 -0.16552236159E+02  0.18991418939E+02  0.31886076022E+02  0.00000000000E+00 0. -1.
         11    1    3    3    0    0 -0.59040048485E+01 -0.69849994429E+01 -0.69110135214E+01  0.11463402576E+02  0.51100000000E-03 0. -1.
        -11    1    3    3    0    0  0.15962075739E+02  0.15388067902E+02 -0.22478503197E+02  0.31573146848E+02  0.51100000000E-03 0.  1.
         12    1    3    3    0    0  0.94885740620E+01  0.81491677002E+01  0.10398097779E+02  0.16265374553E+02  0.00000000000E+00 0. -1.
</event>
<event>
 7    1  0.6230310E-012  0.5930195E+02  0.7816164E-02  0.1266605E+00
        -11   -1    0    0    0    0  0.00000000000E+00  0.00000000000E+00  0.45593999997E+02  0.45594000000E+02  0.51100000000E-03 0. -1.
         11   -1    0    0    0    0 -0.00000000000E+00 -0.00000000000E+00 -0.45593999997E+02  0.45594000000E+02  0.51100000000E-03 0.  1.
    9900012    2    1    2    0    0  0.33792887697E+01 -0.26046989230E+02 -0.18079126505E+02  0.59301952020E+02  0.50000014577E+02 0.  0.
         12    1    1    2    0    0 -0.33792887697E+01  0.26046989230E+02  0.18079126505E+02  0.31886047980E+02  0.00000000000E+00 0. -1.
         11    1    3    3    0    0 -0.43695138777E+01 -0.13812225210E+01  0.12120050824E+02  0.12957471181E+02  0.51100000000E-03 0. -1.
        -11    1    3    3    0    0  0.19138930667E+01 -0.10983592039E+02  0.15762130995E+01  0.11259961312E+02  0.51100000000E-03 0.  1.
        -12    1    3    3    0    0  0.58349095807E+01 -0.13682174671E+02 -0.31775390429E+02  0.35084519527E+02  0.00000000000E+00 0.  1.
</event>
<event>
 7    1  0.6230310E-012  0.5930193E+02  0.7816164E-02  0.1266605E+00
        -11   -1    0    0    0    0  0.00000000000E+00  0.00000000000E+00  0.45593999997E+02  0.45594000000E+02  0.51100000000E-03 0.  1.
         11   -1    0    0    0    0 -0.00000000000E+00 -0.00000000000E+00 -0.45593999997E+02  0.45594000000E+02  0.51100000000E-03 0. -1.
    9900012    2    1    2    0    0  0.28517907407E+02  0.13761546609E+02 -0.37510691386E+01  0.59301925804E+02  0.49999966765E+02 0.  0.
         12    1    1    2    0    0 -0.28517907407E+02 -0.13761546609E+02  0.37510691386E+01  0.31886074196E+02  0.00000000000E+00 0. -1.
         11    1    3    3    0    0 -0.51165867721E+01  0.25780761447E+01 -0.47921081978E+01  0.74692863143E+01  0.51100000000E-03 0. -1.
        -11    1    3    3    0    0 -0.42031882200E-02  0.11911023496E+02  0.11541643573E+02  0.16585597216E+02  0.51100000000E-03 0.  1.
        -12    1    3    3    0    0  0.33638697367E+02 -0.72755303154E+00 -0.10500604513E+02  0.35247042275E+02  0.00000000000E+00 0.  1.
</event>
<event>
 7    1  0.6230310E-012  0.5930194E+02  0.7816164E-02  0.1266605E+00
        -11   -1    0    0    0    0  0.00000000000E+00  0.00000000000E+00  0.45593999997E+02  0.45594000000E+02  0.51100000000E-03 0. -1.
         11   -1    0    0    0    0 -0.00000000000E+00 -0.00000000000E+00 -0.45593999997E+02  0.45594000000E+02  0.51100000000E-03 0.  1.
    9900012    2    1    2    0    0 -0.21547426439E+01 -0.39505168198E+01 -0.31566936256E+02  0.59301937785E+02  0.49999988615E+02 0.  0.
         12    1    1    2    0    0  0.21547426439E+01  0.39505168198E+01  0.31566936256E+02  0.31886062215E+02  0.00000000000E+00 0. -1.
         11    1    3    3    0    0 -0.46553549250E+01  0.14252385815E+02 -0.47611850794E+01  0.15731233725E+02  0.51100000000E-03 0. -1.
        -11    1    3    3    0    0  0.92181640707E+01  0.39515147837E+01 -0.13665564542E+02  0.16951008007E+02  0.51100000000E-03 0.  1.
        -12    1    3    3    0    0 -0.67175517896E+01 -0.22154417418E+02 -0.13140186634E+02  0.26619696053E+02  0.00000000000E+00 0.  1.
</event>
<event>
 7    1  0.6230310E-012  0.5930190E+02  0.7816164E-02  0.1266605E+00
        -11   -1    0    0    0    0  0.00000000000E+00  0.00000000000E+00  0.45593999997E+02  0.45594000000E+02  0.51100000000E-03 0. -1.
         11   -1    0    0    0    0 -0.00000000000E+00 -0.00000000000E+00 -0.45593999997E+02  0.45594000000E+02  0.51100000000E-03 0.  1.
    9900012    2    1    2    0    0  0.98640667336E+01  0.29878481319E+02 -0.51671718839E+01  0.59301903912E+02  0.49999926838E+02 0.  0.
         12    1    1    2    0    0 -0.98640667336E+01 -0.29878481319E+02  0.51671718839E+01  0.31886096088E+02  0.00000000000E+00 0. -1.
         11    1    3    3    0    0  0.16060142330E+01  0.36426777159E+00 -0.89071940567E+01  0.90581498636E+01  0.51100000000E-03 0. -1.
        -11    1    3    3    0    0  0.24008934044E+02  0.13079169610E+02  0.20292963211E+01  0.27415536387E+02  0.51100000000E-03 0.  1.
         12    1    3    3    0    0 -0.15750881543E+02  0.16435043938E+02  0.17107258517E+01  0.22828217661E+02  0.00000000000E+00 0. -1.
</event>
<event>
 7    1  0.6230310E-012  0.5930196E+02  0.7816164E-02  0.1266605E+00
        -11   -1    0    0    0    0  0.00000000000E+00  0.00000000000E+00  0.45593999997E+02  0.45594000000E+02  0.51100000000E-03 0.  1.
         11   -1    0    0    0    0 -0.00000000000E+00 -0.00000000000E+00 -0.45593999997E+02  0.45594000000E+02  0.51100000000E-03 0. -1.
    9900012    2    1    2    0    0  0.43409067442E+01  0.44438922305E+01  0.31275034652E+02  0.59301961645E+02  0.50000032130E+02 0.  0.
         12    1    1    2    0    0 -0.43409067442E+01 -0.44438922305E+01 -0.31275034652E+02  0.31886038355E+02  0.00000000000E+00 0. -1.
         11    1    3    3    0    0 -0.13387666917E+02  0.40491519170E+01 -0.18706773401E+00  0.13987860856E+02  0.51100000000E-03 0. -1.
        -11    1    3    3    0    0 -0.29169323694E+01  0.63082312979E+01  0.19565970956E+02  0.20763658066E+02  0.51100000000E-03 0.  1.
        -12    1    3    3    0    0  0.20645506031E+02 -0.59134909844E+01  0.11896131429E+02  0.24550442723E+02  0.00000000000E+00 0.  1.
</event>
<event>
 7    1  0.6230310E-012  0.5930180E+02  0.7816164E-02  0.1266605E+00
        -11   -1    0    0    0    0  0.00000000000E+00  0.00000000000E+00  0.45593999997E+02  0.45594000000E+02  0.51100000000E-03 0.  1.
         11   -1    0    0    0    0 -0.00000000000E+00 -0.00000000000E+00 -0.45593999997E+02  0.45594000000E+02  0.51100000000E-03 0. -1.
    9900012    2    1    2    0    0 -0.57982727857E+01  0.11527539703E+02  0.29158627508E+02  0.59301800837E+02  0.49999738853E+02 0.  0.
         12    1    1    2    0    0  0.57982727857E+01 -0.11527539703E+02 -0.29158627508E+02  0.31886199163E+02  0.00000000000E+00 0. -1.
         11    1    3    3    0    0  0.57584245907E+01  0.14401548543E+02  0.18849409793E+01  0.15624245805E+02  0.51100000000E-03 0. -1.
        -11    1    3    3    0    0 -0.49040958067E+01  0.51547941424E+01 -0.56860535041E+01  0.91078681943E+01  0.51100000000E-03 0.  1.
        -12    1    3    3    0    0 -0.66526015697E+01 -0.80288029828E+01  0.32959740033E+02  0.34569686838E+02  0.00000000000E+00 0.  1.
</event>
<event>
 7    1  0.6230310E-012  0.5930194E+02  0.7816164E-02  0.1266605E+00
        -11   -1    0    0    0    0  0.00000000000E+00  0.00000000000E+00  0.45593999997E+02  0.45594000000E+02  0.51100000000E-03 0. -1.
         11   -1    0    0    0    0 -0.00000000000E+00 -0.00000000000E+00 -0.45593999997E+02  0.45594000000E+02  0.51100000000E-03 0.  1.
    9900012    2    1    2    0    0  0.30835426424E+02  0.30857454163E+01  0.75083556732E+01  0.59301941096E+02  0.49999994653E+02 0.  0.
         12    1    1    2    0    0 -0.30835426424E+02 -0.30857454163E+01 -0.75083556732E+01  0.31886058904E+02  0.00000000000E+00 0. -1.
         11    1    3    3    0    0 -0.29953854240E+00  0.57967831289E+01  0.36190728143E+00  0.58157884352E+01  0.51100000000E-03 0. -1.
        -11    1    3    3    0    0  0.28069965848E+02  0.80894704750E+01 -0.11765599958E+02  0.31492727064E+02  0.51100000000E-03 0.  1.
         12    1    3    3    0    0  0.30649991179E+01 -0.10800508188E+02  0.18912048349E+02  0.21993425597E+02  0.00000000000E+00 0. -1.
</event>
<event>
 7    1  0.6230310E-012  0.5930196E+02  0.7816164E-02  0.1266605E+00
        -11   -1    0    0    0    0  0.00000000000E+00  0.00000000000E+00  0.45593999997E+02  0.45594000000E+02  0.51100000000E-03 0.  1.
         11   -1    0    0    0    0 -0.00000000000E+00 -0.00000000000E+00 -0.45593999997E+02  0.45594000000E+02  0.51100000000E-03 0. -1.
    9900012    2    1    2    0    0  0.26101226230E+02 -0.18225342199E+02  0.18117950596E+01  0.59301957437E+02  0.50000024456E+02 0.  0.
         12    1    1    2    0    0 -0.26101226230E+02  0.18225342199E+02 -0.18117950596E+01  0.31886042563E+02  0.00000000000E+00 0. -1.
         11    1    3    3    0    0  0.15289208106E+02 -0.12341411410E+02 -0.43487767105E-01  0.19648720354E+02  0.51100000000E-03 0.  1.
        -11    1    3    3    0    0 -0.11022084289E+02 -0.90030309467E+00  0.10874465646E+02  0.15509703127E+02  0.51100000000E-03 0. -1.
         12    1    3    3    0    0  0.21834102413E+02 -0.49836276942E+01 -0.90191828197E+01  0.24143533957E+02  0.00000000000E+00 0. -1.
</event>
<event>
 7    1  0.6230310E-012  0.5930186E+02  0.7816164E-02  0.1266605E+00
        -11   -1    0    0    0    0  0.00000000000E+00  0.00000000000E+00  0.45593999997E+02  0.45594000000E+02  0.51100000000E-03 0. -1.
         11   -1    0    0    0    0 -0.00000000000E+00 -0.00000000000E+00 -0.45593999997E+02  0.45594000000E+02  0.51100000000E-03 0.  1.
    9900012    2    1    2    0    0 -0.23646344467E+02  0.17552439060E+02 -0.12226539784E+02  0.59301858830E+02  0.49999844619E+02 0.  0.
         12    1    1    2    0    0  0.23646344467E+02 -0.17552439060E+02  0.12226539784E+02  0.31886141170E+02  0.00000000000E+00 0. -1.
         11    1    3    3    0    0 -0.71342284105E+01  0.13446688304E+02 -0.77647533503E-01  0.15222242632E+02  0.51100000000E-03 0. -1.
        -11    1    3    3    0    0 -0.14470355602E+02  0.10277358022E+02  0.10428070642E+02  0.20585430205E+02  0.51100000000E-03 0.  1.
        -12    1    3    3    0    0 -0.20417604553E+01 -0.61716072662E+01 -0.22576962892E+02  0.23494185993E+02  0.00000000000E+00 0.  1.
</event>
<event>
 7    1  0.6230310E-012  0.5930194E+02  0.7816164E-02  0.1266605E+00
        -11   -1    0    0    0    0  0.00000000000E+00  0.00000000000E+00  0.45593999997E+02  0.45594000000E+02  0.51100000000E-03 0.  1.
         11   -1    0    0    0    0 -0.00000000000E+00 -0.00000000000E+00 -0.45593999997E+02  0.45594000000E+02  0.51100000000E-03 0. -1.
    9900012    2    1    2    0    0 -0.89327779410E+01 -0.21325292815E+02  0.21958097972E+02  0.59301941888E+02  0.49999996097E+02 0.  0.
         12    1    1    2    0    0  0.89327779410E+01  0.21325292815E+02 -0.21958097972E+02  0.31886058112E+02  0.00000000000E+00 0. -1.
         11    1    3    3    0    0 -0.51794540420E+01 -0.34793844710E+01 -0.83005064372E+01  0.10384183543E+02  0.51100000000E-03 0. -1.
        -11    1    3    3    0    0 -0.18516730247E+02 -0.12106727580E+02  0.21347824758E+02  0.30743646074E+02  0.51100000000E-03 0.  1.
        -12    1    3    3    0    0  0.14763406348E+02 -0.57391807640E+01  0.89107796509E+01  0.18174112271E+02  0.00000000000E+00 0.  1.
</event>
<event>
 7    1  0.6230310E-012  0.5930189E+02  0.7816164E-02  0.1266605E+00
        -11   -1    0    0    0    0  0.00000000000E+00  0.00000000000E+00  0.45593999997E+02  0.45594000000E+02  0.51100000000E-03 0.  1.
         11   -1    0    0    0    0 -0.00000000000E+00 -0.00000000000E+00 -0.45593999997E+02  0.45594000000E+02  0.51100000000E-03 0. -1.
    9900012    2    1    2    0    0  0.27573037438E+02 -0.15789978799E+02 -0.26698288560E+01  0.59301893148E+02  0.49999907208E+02 0.  0.
         12    1    1    2    0    0 -0.27573037438E+02  0.15789978799E+02  0.26698288560E+01  0.31886106852E+02  0.00000000000E+00 0. -1.
         11    1    3    3    0    0  0.15110020098E+02  0.36684025310E+01  0.14606397180E+01  0.15617405454E+02  0.51100000000E-03 0. -1.
        -11    1    3    3    0    0  0.20208962128E+02 -0.17836483374E+02  0.89455587923E+01  0.28400093518E+02  0.51100000000E-03 0.  1.
         12    1    3    3    0    0 -0.77459447879E+01 -0.16218979560E+01 -0.13076027366E+02  0.15284394176E+02  0.00000000000E+00 0. -1.
</event>
<event>
 7    1  0.6230310E-012  0.5930195E+02  0.7816164E-02  0.1266605E+00
        -11   -1    0    0    0    0  0.00000000000E+00  0.00000000000E+00  0.45593999997E+02  0.45594000000E+02  0.51100000000E-03 0. -1.
         11   -1    0    0    0    0 -0.00000000000E+00 -0.00000000000E+00 -0.45593999997E+02  0.45594000000E+02  0.51100000000E-03 0.  1.
    9900012    2    1    2    0    0 -0.28941585546E+02  0.15685903125E+01 -0.13290770215E+02  0.59301946271E+02  0.50000004091E+02 0.  0.
         12    1    1    2    0    0  0.28941585546E+02 -0.15685903125E+01  0.13290770215E+02  0.31886053729E+02  0.00000000000E+00 0. -1.
         11    1    3    3    0    0  0.68974371706E+01 -0.64023595129E+01 -0.42366449629E+01  0.10320562371E+02  0.51100000000E-03 0. -1.
        -11    1    3    3    0    0 -0.23955008277E+02 -0.58198491039E+01 -0.16118781656E+02  0.29453831457E+02  0.51100000000E-03 0.  1.
         12    1    3    3    0    0 -0.11884014440E+02  0.13790798929E+02  0.70646564037E+01  0.19527552443E+02  0.00000000000E+00 0. -1.
</event>
<event>
 7    1  0.6230310E-012  0.5930195E+02  0.7816164E-02  0.1266605E+00
        -11   -1    0    0    0    0  0.00000000000E+00  0.00000000000E+00  0.45593999997E+02  0.45594000000E+02  0.51100000000E-03 0.  1.
         11   -1    0    0    0    0 -0.00000000000E+00 -0.00000000000E+00 -0.45593999997E+02  0.45594000000E+02  0.51100000000E-03 0. -1.
    9900012    2    1    2    0    0 -0.23096224148E+02  0.18316922389E+02  0.12156273036E+02  0.59301949918E+02  0.50000010743E+02 0.  0.
         12    1    1    2    0    0  0.23096224148E+02 -0.18316922389E+02 -0.12156273036E+02  0.31886050082E+02  0.00000000000E+00 0. -1.
         11    1    3    3    0    0 -0.30090274184E+02  0.11528080165E+02  0.23167194974E+02  0.39686775581E+02  0.51100000000E-03 0.  1.
        -11    1    3    3    0    0  0.32499994965E+01  0.35030624167E+01  0.23722938213E+01  0.53349527887E+01  0.51100000000E-03 0. -1.
        -12    1    3    3    0    0  0.37440505397E+01  0.32857798069E+01 -0.13383215760E+02  0.14280221548E+02  0.00000000000E+00 0.  1.
</event>
<event>
 7    1  0.6230310E-012  0.5930198E+02  0.7816164E-02  0.1266605E+00
        -11   -1    0    0    0    0  0.00000000000E+00  0.00000000000E+00  0.45593999997E+02  0.45594000000E+02  0.51100000000E-03 0.  1.
         11   -1    0    0    0    0 -0.00000000000E+00 -0.00000000000E+00 -0.45593999997E+02  0.45594000000E+02  0.51100000000E-03 0. -1.
    9900012    2    1    2    0    0 -0.90691199949E+01  0.41795338772E+01  0.30282017669E+02  0.59301983708E+02  0.50000072367E+02 0.  0.
         12    1    1    2    0    0  0.90691199949E+01 -0.41795338772E+01 -0.30282017669E+02  0.31886016292E+02  0.00000000000E+00 0. -1.
         11    1    3    3    0    0  0.11345850712E+02 -0.35459635239E+01 -0.27242784750E+01  0.12195240021E+02  0.51100000000E-03 0. -1.
        -11    1    3    3    0    0 -0.74242548751E+01  0.85319291997E+01 -0.33513545013E+00  0.11314843894E+02  0.51100000000E-03 0.  1.
         12    1    3    3    0    0 -0.12990715832E+02 -0.80643179870E+00  0.33341431594E+02  0.35791899793E+02  0.00000000000E+00 0. -1.
</event>
<event>
 7    1  0.6230310E-012  0.5930196E+02  0.7816164E-02  0.1266605E+00
        -11   -1    0    0    0    0  0.00000000000E+00  0.00000000000E+00  0.45593999997E+02  0.45594000000E+02  0.51100000000E-03 0.  1.
         11   -1    0    0    0    0 -0.00000000000E+00 -0.00000000000E+00 -0.45593999997E+02  0.45594000000E+02  0.51100000000E-03 0. -1.
    9900012    2    1    2    0    0 -0.27071130117E+02 -0.66763337734E+01  0.15469325506E+02  0.59301959950E+02  0.50000029038E+02 0.  0.
         12    1    1    2    0    0  0.27071130117E+02  0.66763337734E+01 -0.15469325506E+02  0.31886040050E+02  0.00000000000E+00 0. -1.
         11    1    3    3    0    0 -0.19318188314E+02 -0.72106053825E+01  0.98466842169E+01  0.22850435883E+02  0.51100000000E-03 0. -1.
        -11    1    3    3    0    0  0.11070811474E+01 -0.14424480021E+02 -0.58679958715E+01  0.15611682432E+02  0.51100000000E-03 0.  1.
         12    1    3    3    0    0 -0.88600229502E+01  0.14958751630E+02  0.11490637161E+02  0.20839841635E+02  0.00000000000E+00 0. -1.
</event>
<event>
 7    1  0.6230310E-012  0.5930213E+02  0.7816164E-02  0.1266604E+00
        -11   -1    0    0    0    0  0.00000000000E+00  0.00000000000E+00  0.45593999997E+02  0.45594000000E+02  0.51100000000E-03 0.  1.
         11   -1    0    0    0    0 -0.00000000000E+00 -0.00000000000E+00 -0.45593999997E+02  0.45594000000E+02  0.51100000000E-03 0. -1.
    9900012    2    1    2    0    0  0.76324281353E+01 -0.27365011603E+02  0.14477934524E+02  0.59302134678E+02  0.50000347699E+02 0.  0.
         12    1    1    2    0    0 -0.76324281353E+01  0.27365011603E+02 -0.14477934524E+02  0.31885865322E+02  0.00000000000E+00 0. -1.
         11    1    3    3    0    0  0.10464833678E+02  0.24695868736E+01  0.87066967603E+00  0.10787477424E+02  0.51100000000E-03 0. -1.
        -11    1    3    3    0    0  0.16240293219E+02 -0.14530765666E+02  0.35752907596E+01  0.22083319020E+02  0.51100000000E-03 0.  1.
        -12    1    3    3    0    0 -0.19072698761E+02 -0.15303832810E+02  0.10031974088E+02  0.26431338234E+02  0.00000000000E+00 0.  1.
</event>
<event>
 7    1  0.6230310E-012  0.5930223E+02  0.7816164E-02  0.1266604E+00
        -11   -1    0    0    0    0  0.00000000000E+00  0.00000000000E+00  0.45593999997E+02  0.45594000000E+02  0.51100000000E-03 0.  1.
         11   -1    0    0    0    0 -0.00000000000E+00 -0.00000000000E+00 -0.45593999997E+02  0.45594000000E+02  0.51100000000E-03 0. -1.
    9900012    2    1    2    0    0 -0.18052755694E+02 -0.13122225227E+02  0.22772952354E+02  0.59302232925E+02  0.50000526876E+02 0.  0.
         12    1    1    2    0    0  0.18052755694E+02  0.13122225227E+02 -0.22772952354E+02  0.31885767075E+02  0.00000000000E+00 0. -1.
         11    1    3    3    0    0 -0.38921952006E+01 -0.12075688628E+02  0.18002279326E+02  0.22023930179E+02  0.51100000000E-03 0. -1.
        -11    1    3    3    0    0 -0.23724646402E+02  0.95876418979E+00 -0.40823088678E+01  0.24092391364E+02  0.51100000000E-03 0.  1.
         12    1    3    3    0    0  0.95640859090E+01 -0.20053007888E+01  0.88529818955E+01  0.13185911382E+02  0.00000000000E+00 0. -1.
</event>
<event>
 7    1  0.6230310E-012  0.5930197E+02  0.7816164E-02  0.1266605E+00
        -11   -1    0    0    0    0  0.00000000000E+00  0.00000000000E+00  0.45593999997E+02  0.45594000000E+02  0.51100000000E-03 0.  1.
         11   -1    0    0    0    0 -0.00000000000E+00 -0.00000000000E+00 -0.45593999997E+02  0.45594000000E+02  0.51100000000E-03 0. -1.
    9900012    2    1    2    0    0 -0.19555833448E+02 -0.20647316495E+02 -0.14421402216E+02  0.59301966346E+02  0.50000040703E+02 0.  0.
         12    1    1    2    0    0  0.19555833448E+02  0.20647316495E+02  0.14421402216E+02  0.31886033654E+02  0.00000000000E+00 0. -1.
         11    1    3    3    0    0  0.26496245615E+01  0.76655105778E+00 -0.14115427295E+02  0.14382398924E+02  0.51100000000E-03 0. -1.
        -11    1    3    3    0    0 -0.13992823647E+02  0.43669418959E+01  0.78915887277E+01  0.16647716602E+02  0.51100000000E-03 0.  1.
         12    1    3    3    0    0 -0.82126343623E+01 -0.25780809449E+02 -0.81975636486E+01  0.28271850820E+02  0.00000000000E+00 0. -1.
</event>
<event>
 7    1  0.6230310E-012  0.5930189E+02  0.7816164E-02  0.1266605E+00
        -11   -1    0    0    0    0  0.00000000000E+00  0.00000000000E+00  0.45593999997E+02  0.45594000000E+02  0.51100000000E-03 0.  1.
         11   -1    0    0    0    0 -0.00000000000E+00 -0.00000000000E+00 -0.45593999997E+02  0.45594000000E+02  0.51100000000E-03 0. -1.
    9900012    2    1    2    0    0 -0.94895064847E+01  0.18101903795E+02  0.24474359401E+02  0.59301891388E+02  0.49999903997E+02 0.  0.
         12    1    1    2    0    0  0.94895064847E+01 -0.18101903795E+02 -0.24474359401E+02  0.31886108612E+02  0.00000000000E+00 0. -1.
         11    1    3    3    0    0 -0.52476286230E+01  0.29282161675E+02  0.15750744386E+01  0.29790324910E+02  0.51100000000E-03 0. -1.
        -11    1    3    3    0    0  0.26898064020E+01  0.22462833817E+01  0.44495300813E+01  0.56638472540E+01  0.51100000000E-03 0.  1.
        -12    1    3    3    0    0 -0.69316842637E+01 -0.13426541261E+02  0.18449754882E+02  0.23847719223E+02  0.00000000000E+00 0.  1.
</event>
<event>
 7    1  0.6230310E-012  0.5930195E+02  0.7816164E-02  0.1266605E+00
        -11   -1    0    0    0    0  0.00000000000E+00  0.00000000000E+00  0.45593999997E+02  0.45594000000E+02  0.51100000000E-03 0. -1.
         11   -1    0    0    0    0 -0.00000000000E+00 -0.00000000000E+00 -0.45593999997E+02  0.45594000000E+02  0.51100000000E-03 0.  1.
    9900012    2    1    2    0    0  0.22264836483E+02 -0.21055036664E+02 -0.88137899710E+01  0.59301946526E+02  0.50000004556E+02 0.  0.
         12    1    1    2    0    0 -0.22264836483E+02  0.21055036664E+02  0.88137899710E+01  0.31886053474E+02  0.00000000000E+00 0. -1.
         11    1    3    3    0    0 -0.10587655863E+01 -0.21970499038E+01  0.11514907899E+02  0.11770349062E+02  0.51100000000E-03 0. -1.
        -11    1    3    3    0    0  0.19613126149E+02 -0.27372133777E+02 -0.15666826324E+02  0.37139707487E+02  0.51100000000E-03 0.  1.
         12    1    3    3    0    0  0.37104759195E+01  0.85141470172E+01 -0.46618715463E+01  0.10391889977E+02  0.00000000000E+00 0. -1.
</event>
<event>
 7    1  0.6230310E-012  0.5930201E+02  0.7816164E-02  0.1266605E+00
        -11   -1    0    0    0    0  0.00000000000E+00  0.00000000000E+00  0.45593999997E+02  0.45594000000E+02  0.51100000000E-03 0.  1.
         11   -1    0    0    0    0 -0.00000000000E+00 -0.00000000000E+00 -0.45593999997E+02  0.45594000000E+02  0.51100000000E-03 0. -1.
    9900012    2    1    2    0    0  0.21942032841E+02  0.18313525979E+02  0.14137842789E+02  0.59302005618E+02  0.50000112327E+02 0.  0.
         12    1    1    2    0    0 -0.21942032841E+02 -0.18313525979E+02 -0.14137842789E+02  0.31885994382E+02  0.00000000000E+00 0. -1.
         11    1    3    3    0    0  0.17255873465E+02 -0.44301865323E+01  0.45427100925E+01  0.18385536081E+02  0.51100000000E-03 0. -1.
        -11    1    3    3    0    0 -0.82025882177E+01 -0.32688480274E+01  0.78808319276E+01  0.11835342540E+02  0.51100000000E-03 0.  1.
        -12    1    3    3    0    0  0.12888747593E+02  0.26012560539E+02  0.17143007686E+01  0.29081126998E+02  0.00000000000E+00 0.  1.
</event>
<event>
 7    1  0.6230310E-012  0.5930194E+02  0.7816164E-02  0.1266605E+00
        -11   -1    0    0    0    0  0.00000000000E+00  0.00000000000E+00  0.45593999997E+02  0.45594000000E+02  0.51100000000E-03 0. -1.
         11   -1    0    0    0    0 -0.00000000000E+00 -0.00000000000E+00 -0.45593999997E+02  0.45594000000E+02  0.51100000000E-03 0.  1.
    9900012    2    1    2    0    0  0.17602326102E+02 -0.25747244487E+02  0.66301012465E+01  0.59301941519E+02  0.49999995425E+02 0.  0.
         12    1    1    2    0    0 -0.17602326102E+02  0.25747244487E+02 -0.66301012465E+01  0.31886058481E+02  0.00000000000E+00 0. -1.
         11    1    3    3    0    0 -0.15977623829E+01 -0.18037834448E+02  0.18967389851E+02  0.26223619015E+02  0.51100000000E-03 0. -1.
        -11    1    3    3    0    0  0.74187859876E+01  0.41443425021E+01  0.42761862070E+01  0.95131345540E+01  0.51100000000E-03 0.  1.
        -12    1    3    3    0    0  0.11781302497E+02 -0.11853752541E+02 -0.16613474811E+02  0.23565187951E+02  0.00000000000E+00 0.  1.
</event>
<event>
 7    1  0.6230310E-012  0.5930197E+02  0.7816164E-02  0.1266605E+00
        -11   -1    0    0    0    0  0.00000000000E+00  0.00000000000E+00  0.45593999997E+02  0.45594000000E+02  0.51100000000E-03 0.  1.
         11   -1    0    0    0    0 -0.00000000000E+00 -0.00000000000E+00 -0.45593999997E+02  0.45594000000E+02  0.51100000000E-03 0. -1.
    9900012    2    1    2    0    0  0.84618029608E+01  0.28983542213E+02  0.10250408960E+02  0.59301973086E+02  0.50000052994E+02 0.  0.
         12    1    1    2    0    0 -0.84618029608E+01 -0.28983542213E+02 -0.10250408960E+02  0.31886026914E+02  0.00000000000E+00 0. -1.
         11    1    3    3    0    0  0.58896587542E+01  0.22674241035E+02  0.20623177070E+01  0.23517279633E+02  0.51100000000E-03 0. -1.
        -11    1    3    3    0    0  0.15543504256E+02  0.12375090121E+02  0.81241726964E+01  0.21464984564E+02  0.51100000000E-03 0.  1.
         12    1    3    3    0    0 -0.12971360050E+02 -0.60657889439E+01  0.63918556482E-01  0.14319708888E+02  0.00000000000E+00 0. -1.
</event>
<event>
 7    1  0.6230310E-012  0.5930194E+02  0.7816164E-02  0.1266605E+00
        -11   -1    0    0    0    0  0.00000000000E+00  0.00000000000E+00  0.45593999997E+02  0.45594000000E+02  0.51100000000E-03 0. -1.
         11   -1    0    0    0    0 -0.00000000000E+00 -0.00000000000E+00 -0.45593999997E+02  0.45594000000E+02  0.51100000000E-03 0.  1.
    9900012    2    1    2    0    0 -0.92747005903E+01  0.25231663281E+01 -0.30402865313E+02  0.59301942568E+02  0.49999997337E+02 0.  0.
         12    1    1    2    0    0  0.92747005903E+01 -0.25231663281E+01  0.30402865313E+02  0.31886057432E+02  0.00000000000E+00 0. -1.
         11    1    3    3    0    0 -0.10795928631E+02 -0.12667219010E+02 -0.85540427635E+01  0.18713154740E+02  0.51100000000E-03 0. -1.
        -11    1    3    3    0    0  0.67209351197E+01 -0.79387882288E+01 -0.52713623780E+01  0.11661157276E+02  0.51100000000E-03 0.  1.
         12    1    3    3    0    0 -0.51997070793E+01  0.23129173567E+02 -0.16577460171E+02  0.28927630552E+02  0.00000000000E+00 0. -1.
</event>
<event>
 7    1  0.6230310E-012  0.5930195E+02  0.7816164E-02  0.1266605E+00
        -11   -1    0    0    0    0  0.00000000000E+00  0.00000000000E+00  0.45593999997E+02  0.45594000000E+02  0.51100000000E-03 0.  1.
         11   -1    0    0    0    0 -0.00000000000E+00 -0.00000000000E+00 -0.45593999997E+02  0.45594000000E+02  0.51100000000E-03 0. -1.
    9900012    2    1    2    0    0 -0.17831192265E+02 -0.26421534630E+02  0.81943766764E+00  0.59301946812E+02  0.50000005078E+02 0.  0.
         12    1    1    2    0    0  0.17831192265E+02  0.26421534630E+02 -0.81943766764E+00  0.31886053188E+02  0.00000000000E+00 0. -1.
         11    1    3    3    0    0  0.54184935544E+01 -0.90636802534E+01 -0.11111880172E+02  0.15329196109E+02  0.51100000000E-03 0. -1.
        -11    1    3    3    0    0  0.54953360472E+01 -0.44124966182E+01  0.10202326487E+02  0.12399851237E+02  0.51100000000E-03 0.  1.
         12    1    3    3    0    0 -0.28745021867E+02 -0.12945357758E+02  0.17289913526E+01  0.31572899466E+02  0.00000000000E+00 0. -1.
</event>
<event>
 7    1  0.6230310E-012  0.5930195E+02  0.7816164E-02  0.1266605E+00
        -11   -1    0    0    0    0  0.00000000000E+00  0.00000000000E+00  0.45593999997E+02  0.45594000000E+02  0.51100000000E-03 0.  1.
         11   -1    0    0    0    0 -0.00000000000E+00 -0.00000000000E+00 -0.45593999997E+02  0.45594000000E+02  0.51100000000E-03 0. -1.
    9900012    2    1    2    0    0 -0.79351903019E+01  0.28490667837E+02  0.11917847126E+02  0.59301945383E+02  0.50000002472E+02 0.  0.
         12    1    1    2    0    0  0.79351903019E+01 -0.28490667837E+02 -0.11917847126E+02  0.31886054617E+02  0.00000000000E+00 0. -1.
         11    1    3    3    0    0  0.70041000892E+01 -0.13439194200E+01 -0.92917624259E+01  0.11713256879E+02  0.51100000000E-03 0. -1.
        -11    1    3    3    0    0  0.52134869443E+01 -0.13708884039E+01  0.35731528191E+01  0.64673953385E+01  0.51100000000E-03 0.  1.
        -12    1    3    3    0    0 -0.20152777335E+02  0.31205475661E+02  0.17636456733E+02  0.41121293166E+02  0.00000000000E+00 0.  1.
</event>
<event>
 7    1  0.6230310E-012  0.5930193E+02  0.7816164E-02  0.1266605E+00
        -11   -1    0    0    0    0  0.00000000000E+00  0.00000000000E+00  0.45593999997E+02  0.45594000000E+02  0.51100000000E-03 0.  1.
         11   -1    0    0    0    0 -0.00000000000E+00 -0.00000000000E+00 -0.45593999997E+02  0.45594000000E+02  0.51100000000E-03 0. -1.
    9900012    2    1    2    0    0 -0.71048472466E+01 -0.13882759096E+02  0.27812078094E+02  0.59301928708E+02  0.49999972060E+02 0.  0.
         12    1    1    2    0    0  0.71048472466E+01  0.13882759096E+02 -0.27812078094E+02  0.31886071292E+02  0.00000000000E+00 0. -1.
         11    1    3    3    0    0 -0.21646159899E+02  0.52279239112E+01  0.99531390891E+01  0.24391646209E+02  0.51100000000E-03 0. -1.
        -11    1    3    3    0    0 -0.37401847406E+01 -0.61885233561E+01  0.68585426754E+01  0.99662636486E+01  0.51100000000E-03 0.  1.
        -12    1    3    3    0    0  0.18281497393E+02 -0.12922159651E+02  0.11000396330E+02  0.24944018850E+02  0.00000000000E+00 0.  1.
</event>
<event>
 7    1  0.6230310E-012  0.5930197E+02  0.7816164E-02  0.1266605E+00
        -11   -1    0    0    0    0  0.00000000000E+00  0.00000000000E+00  0.45593999997E+02  0.45594000000E+02  0.51100000000E-03 0. -1.
         11   -1    0    0    0    0 -0.00000000000E+00 -0.00000000000E+00 -0.45593999997E+02  0.45594000000E+02  0.51100000000E-03 0.  1.
    9900012    2    1    2    0    0 -0.11603364753E+02  0.20693028078E+02 -0.21304453096E+02  0.59301965340E+02  0.50000038868E+02 0.  0.
         12    1    1    2    0    0  0.11603364753E+02 -0.20693028078E+02  0.21304453096E+02  0.31886034660E+02  0.00000000000E+00 0. -1.
         11    1    3    3    0    0  0.12325616952E+02  0.14484785190E+02  0.35575554894E+01  0.19349057769E+02  0.51100000000E-03 0. -1.
        -11    1    3    3    0    0 -0.14797101499E+02 -0.60499917896E+01 -0.12981398553E+02  0.20593040622E+02  0.51100000000E-03 0.  1.
        -12    1    3    3    0    0 -0.91318802061E+01  0.12258234678E+02 -0.11880610033E+02  0.19359866948E+02  0.00000000000E+00 0.  1.
</event>
<event>
 7    1  0.6230310E-012  0.5930194E+02  0.7816164E-02  0.1266605E+00
        -11   -1    0    0    0    0  0.00000000000E+00  0.00000000000E+00  0.45593999997E+02  0.45594000000E+02  0.51100000000E-03 0. -1.
         11   -1    0    0    0    0 -0.00000000000E+00 -0.00000000000E+00 -0.45593999997E+02  0.45594000000E+02  0.51100000000E-03 0.  1.
    9900012    2    1    2    0    0  0.26248744267E+02 -0.10229676891E+01 -0.18074232469E+02  0.59301938502E+02  0.49999989923E+02 0.  0.
         12    1    1    2    0    0 -0.26248744267E+02  0.10229676891E+01  0.18074232469E+02  0.31886061498E+02  0.00000000000E+00 0. -1.
         11    1    3    3    0    0  0.12346450867E+02  0.12140417394E+01 -0.16587902465E+02  0.20713938660E+02  0.51100000000E-03 0.  1.
        -11    1    3    3    0    0 -0.11740182970E+02 -0.46620581656E+01  0.12128622501E+01  0.12690063735E+02  0.51100000000E-03 0. -1.
         12    1    3    3    0    0  0.25642476370E+02  0.24250487372E+01 -0.26991922540E+01  0.25897936107E+02  0.00000000000E+00 0. -1.
</event>
<event>
 7    1  0.6230310E-012  0.5930196E+02  0.7816164E-02  0.1266605E+00
        -11   -1    0    0    0    0  0.00000000000E+00  0.00000000000E+00  0.45593999997E+02  0.45594000000E+02  0.51100000000E-03 0.  1.
         11   -1    0    0    0    0 -0.00000000000E+00 -0.00000000000E+00 -0.45593999997E+02  0.45594000000E+02  0.51100000000E-03 0. -1.
    9900012    2    1    2    0    0  0.16130362403E+02  0.15653634787E+02  0.22616249142E+02  0.59301959190E+02  0.50000027652E+02 0.  0.
         12    1    1    2    0    0 -0.16130362403E+02 -0.15653634787E+02 -0.22616249142E+02  0.31886040810E+02  0.00000000000E+00 0. -1.
         11    1    3    3    0    0 -0.50535032507E+01  0.22593437853E+02  0.54045435762E+01  0.23774154468E+02  0.51100000000E-03 0. -1.
        -11    1    3    3    0    0 -0.26252602577E+01  0.24109028345E+01 -0.14669877671E+01  0.38544127008E+01  0.51100000000E-03 0.  1.
        -12    1    3    3    0    0  0.23809125911E+02 -0.93507059005E+01  0.18678693333E+02  0.31673392021E+02  0.00000000000E+00 0.  1.
</event>
<event>
 7    1  0.6230310E-012  0.5930197E+02  0.7816164E-02  0.1266605E+00
        -11   -1    0    0    0    0  0.00000000000E+00  0.00000000000E+00  0.45593999997E+02  0.45594000000E+02  0.51100000000E-03 0.  1.
         11   -1    0    0    0    0 -0.00000000000E+00 -0.00000000000E+00 -0.45593999997E+02  0.45594000000E+02  0.51100000000E-03 0. -1.
    9900012    2    1    2    0    0 -0.13975485334E+02  0.33324323312E+01  0.28465759053E+02  0.59301972746E+02  0.50000052376E+02 0.  0.
         12    1    1    2    0    0  0.13975485334E+02 -0.33324323312E+01 -0.28465759053E+02  0.31886027254E+02  0.00000000000E+00 0. -1.
         11    1    3    3    0    0 -0.12537645721E+02 -0.11944741796E+02  0.58593919394E+01  0.18281189539E+02  0.51100000000E-03 0. -1.
        -11    1    3    3    0    0 -0.64543213849E+01  0.75225617446E+01  0.28425896066E+02  0.30104464240E+02  0.51100000000E-03 0.  1.
         12    1    3    3    0    0  0.50164817724E+01  0.77546123824E+01 -0.58195289526E+01  0.10916318968E+02  0.00000000000E+00 0. -1.
</event>
<event>
 7    1  0.6230310E-012  0.5930201E+02  0.7816164E-02  0.1266605E+00
        -11   -1    0    0    0    0  0.00000000000E+00  0.00000000000E+00  0.45593999997E+02  0.45594000000E+02  0.51100000000E-03 0. -1.
         11   -1    0    0    0    0 -0.00000000000E+00 -0.00000000000E+00 -0.45593999997E+02  0.45594000000E+02  0.51100000000E-03 0.  1.
    9900012    2    1    2    0    0 -0.71022976610E+01 -0.30029274916E+02  0.80321991753E+01  0.59302012362E+02  0.50000124625E+02 0.  0.
         12    1    1    2    0    0  0.71022976610E+01  0.30029274916E+02 -0.80321991753E+01  0.31885987638E+02  0.00000000000E+00 0. -1.
         11    1    3    3    0    0 -0.10687934673E+02 -0.19586542450E+02  0.12824553723E+02  0.25735846035E+02  0.51100000000E-03 0. -1.
        -11    1    3    3    0    0  0.16264750432E+02 -0.10101913348E+02 -0.75582343983E+01  0.20584403498E+02  0.51100000000E-03 0.  1.
         12    1    3    3    0    0 -0.12679113420E+02 -0.34081911894E+00  0.27658798509E+01  0.12981762828E+02  0.00000000000E+00 0. -1.
</event>
<event>
 7    1  0.6230310E-012  0.5930196E+02  0.7816164E-02  0.1266605E+00
        -11   -1    0    0    0    0  0.00000000000E+00  0.00000000000E+00  0.45593999997E+02  0.45594000000E+02  0.51100000000E-03 0.  1.
         11   -1    0    0    0    0 -0.00000000000E+00 -0.00000000000E+00 -0.45593999997E+02  0.45594000000E+02  0.51100000000E-03 0. -1.
    9900012    2    1    2    0    0 -0.14852542279E+02 -0.28199881691E+02  0.94258625898E+00  0.59301955899E+02  0.50000021651E+02 0.  0.
         12    1    1    2    0    0  0.14852542279E+02  0.28199881691E+02 -0.94258625898E+00  0.31886044101E+02  0.00000000000E+00 0. -1.
         11    1    3    3    0    0  0.10271577875E+02 -0.45499630478E+01 -0.58538629349E+01  0.12667880143E+02  0.51100000000E-03 0. -1.
        -11    1    3    3    0    0 -0.11233944187E+02 -0.32629713502E+01  0.16414351957E+02  0.20156374537E+02  0.51100000000E-03 0.  1.
        -12    1    3    3    0    0 -0.13890175967E+02 -0.20386947293E+02 -0.96179027632E+01  0.26477701220E+02  0.00000000000E+00 0.  1.
</event>
<event>
 7    1  0.6230310E-012  0.5930202E+02  0.7816164E-02  0.1266605E+00
        -11   -1    0    0    0    0  0.00000000000E+00  0.00000000000E+00  0.45593999997E+02  0.45594000000E+02  0.51100000000E-03 0.  1.
         11   -1    0    0    0    0 -0.00000000000E+00 -0.00000000000E+00 -0.45593999997E+02  0.45594000000E+02  0.51100000000E-03 0. -1.
    9900012    2    1    2    0    0 -0.26736951425E+02 -0.71000073104E+01  0.15856895287E+02  0.59302018700E+02  0.50000136185E+02 0.  0.
         12    1    1    2    0    0  0.26736951425E+02  0.71000073104E+01 -0.15856895287E+02  0.31885981300E+02  0.00000000000E+00 0. -1.
         11    1    3    3    0    0  0.59697741911E+01  0.12138741903E+02  0.62441603004E+01  0.14898885763E+02  0.51100000000E-03 0. -1.
        -11    1    3    3    0    0  0.10071349438E+01 -0.17918206681E+01  0.59158656140E+01  0.62627796005E+01  0.51100000000E-03 0.  1.
        -12    1    3    3    0    0 -0.33713860559E+02 -0.17446928545E+02  0.36968693730E+01  0.38140353337E+02  0.00000000000E+00 0.  1.
</event>
<event>
 7    1  0.6230310E-012  0.5930194E+02  0.7816164E-02  0.1266605E+00
        -11   -1    0    0    0    0  0.00000000000E+00  0.00000000000E+00  0.45593999997E+02  0.45594000000E+02  0.51100000000E-03 0. -1.
         11   -1    0    0    0    0 -0.00000000000E+00 -0.00000000000E+00 -0.45593999997E+02  0.45594000000E+02  0.51100000000E-03 0.  1.
    9900012    2    1    2    0    0  0.12353997614E+02 -0.77146831445E+01 -0.28365174854E+02  0.59301941329E+02  0.49999995079E+02 0.  0.
         12    1    1    2    0    0 -0.12353997614E+02  0.77146831445E+01  0.28365174854E+02  0.31886058671E+02  0.00000000000E+00 0. -1.
         11    1    3    3    0    0 -0.52709653797E+01 -0.11411523363E+02 -0.10738762913E+02  0.16532603263E+02  0.51100000000E-03 0.  1.
        -11    1    3    3    0    0 -0.58810172493E+01 -0.27012642356E+01 -0.17229576214E+02  0.18404931110E+02  0.51100000000E-03 0. -1.
         12    1    3    3    0    0  0.23505980243E+02  0.63981044538E+01 -0.39683572682E+00  0.24364406957E+02  0.00000000000E+00 0. -1.
</event>
<event>
 7    1  0.6230310E-012  0.5930190E+02  0.7816164E-02  0.1266605E+00
        -11   -1    0    0    0    0  0.00000000000E+00  0.00000000000E+00  0.45593999997E+02  0.45594000000E+02  0.51100000000E-03 0.  1.
         11   -1    0    0    0    0 -0.00000000000E+00 -0.00000000000E+00 -0.45593999997E+02  0.45594000000E+02  0.51100000000E-03 0. -1.
    9900012    2    1    2    0    0  0.24586924051E+02 -0.10826671418E+02  0.17175258272E+02  0.59301903578E+02  0.49999926230E+02 0.  0.
         12    1    1    2    0    0 -0.24586924051E+02  0.10826671418E+02 -0.17175258272E+02  0.31886096422E+02  0.00000000000E+00 0. -1.
         11    1    3    3    0    0 -0.53656467652E+01 -0.61170380307E+01 -0.21573167738E+01  0.84179769186E+01  0.51100000000E-03 0. -1.
        -11    1    3    3    0    0 -0.57311808600E+01 -0.42079754200E+01  0.12744436059E+02  0.14593633608E+02  0.51100000000E-03 0.  1.
         12    1    3    3    0    0  0.35683751677E+02 -0.50165796688E+00  0.65881389873E+01  0.36290293051E+02  0.00000000000E+00 0. -1.
</event>
<event>
 7    1  0.6230310E-012  0.5930195E+02  0.7816164E-02  0.1266605E+00
        -11   -1    0    0    0    0  0.00000000000E+00  0.00000000000E+00  0.45593999997E+02  0.45594000000E+02  0.51100000000E-03 0.  1.
         11   -1    0    0    0    0 -0.00000000000E+00 -0.00000000000E+00 -0.45593999997E+02  0.45594000000E+02  0.51100000000E-03 0. -1.
    9900012    2    1    2    0    0 -0.19510294945E+02 -0.45704410733E+01  0.24802818750E+02  0.59301947274E+02  0.50000005921E+02 0.  0.
         12    1    1    2    0    0  0.19510294945E+02  0.45704410733E+01 -0.24802818750E+02  0.31886052726E+02  0.00000000000E+00 0. -1.
         11    1    3    3    0    0 -0.22321325094E+02 -0.21148409918E+02  0.13666207215E+02  0.33649101264E+02  0.51100000000E-03 0. -1.
        -11    1    3    3    0    0 -0.56127222853E+01  0.17951149028E+01  0.43957287711E+01  0.73517018884E+01  0.51100000000E-03 0.  1.
        -12    1    3    3    0    0  0.84237524338E+01  0.14782853942E+02  0.67408827642E+01  0.18301144122E+02  0.00000000000E+00 0.  1.
</event>
<event>
 7    1  0.6230310E-012  0.5930194E+02  0.7816164E-02  0.1266605E+00
        -11   -1    0    0    0    0  0.00000000000E+00  0.00000000000E+00  0.45593999997E+02  0.45594000000E+02  0.51100000000E-03 0.  1.
         11   -1    0    0    0    0 -0.00000000000E+00 -0.00000000000E+00 -0.45593999997E+02  0.45594000000E+02  0.51100000000E-03 0. -1.
    9900012    2    1    2    0    0  0.25708773952E+02 -0.16838625650E+02  0.84994241423E+01  0.59301943759E+02  0.49999999509E+02 0.  0.
         12    1    1    2    0    0 -0.25708773952E+02  0.16838625650E+02 -0.84994241423E+01  0.31886056241E+02  0.00000000000E+00 0. -1.
         11    1    3    3    0    0  0.63777343273E+01  0.91485527426E+01 -0.38873973932E+01  0.11810307836E+02  0.51100000000E-03 0. -1.
        -11    1    3    3    0    0  0.23328697112E+02 -0.82203117577E+01 -0.12106748156E+01  0.24764235666E+02  0.51100000000E-03 0.  1.
        -12    1    3    3    0    0 -0.39976574875E+01 -0.17766866634E+02  0.13597496351E+02  0.22727400256E+02  0.00000000000E+00 0.  1.
</event>
<event>
 7    1  0.6230310E-012  0.5930191E+02  0.7816164E-02  0.1266605E+00
        -11   -1    0    0    0    0  0.00000000000E+00  0.00000000000E+00  0.45593999997E+02  0.45594000000E+02  0.51100000000E-03 0.  1.
         11   -1    0    0    0    0 -0.00000000000E+00 -0.00000000000E+00 -0.45593999997E+02  0.45594000000E+02  0.51100000000E-03 0. -1.
    9900012    2    1    2    0    0  0.84631032090E+01 -0.16344404281E+02  0.26037650176E+02  0.59301907516E+02  0.49999933412E+02 0.  0.
         12    1    1    2    0    0 -0.84631032090E+01  0.16344404281E+02 -0.26037650176E+02  0.31886092484E+02  0.00000000000E+00 0. -1.
         11    1    3    3    0    0  0.86313307730E+01 -0.24140104761E+01 -0.30711438245E+00  0.89678111598E+01  0.51100000000E-03 0. -1.
        -11    1    3    3    0    0 -0.80597383263E+00 -0.23673705073E+02  0.31405005626E+02  0.39336602349E+02  0.51100000000E-03 0.  1.
         12    1    3    3    0    0  0.63774626856E+00  0.97433112687E+01 -0.50602410681E+01  0.10997494008E+02  0.00000000000E+00 0. -1.
</event>
<event>
 7    1  0.6230310E-012  0.5930192E+02  0.7816164E-02  0.1266605E+00
        -11   -1    0    0    0    0  0.00000000000E+00  0.00000000000E+00  0.45593999997E+02  0.45594000000E+02  0.51100000000E-03 0.  1.
         11   -1    0    0    0    0 -0.00000000000E+00 -0.00000000000E+00 -0.45593999997E+02  0.45594000000E+02  0.51100000000E-03 0. -1.
    9900012    2    1    2    0    0  0.28176586546E+02  0.21482931280E+01  0.14771146073E+02  0.59301922332E+02  0.49999960432E+02 0.  0.
         12    1    1    2    0    0 -0.28176586546E+02 -0.21482931280E+01 -0.14771146073E+02  0.31886077668E+02  0.00000000000E+00 0. -1.
         11    1    3    3    0    0  0.21006833430E+01 -0.90695390409E+01 -0.63660373326E+01  0.11278113340E+02  0.51100000000E-03 0. -1.
        -11    1    3    3    0    0  0.32539338382E+02  0.30163915285E+01  0.15882985020E+02  0.36334231430E+02  0.51100000000E-03 0.  1.
        -12    1    3    3    0    0 -0.64634351795E+01  0.82014406404E+01  0.52541983855E+01  0.11689577562E+02  0.00000000000E+00 0.  1.
</event>
<event>
 7    1  0.6230310E-012  0.5930206E+02  0.7816164E-02  0.1266604E+00
        -11   -1    0    0    0    0  0.00000000000E+00  0.00000000000E+00  0.45593999997E+02  0.45594000000E+02  0.51100000000E-03 0. -1.
         11   -1    0    0    0    0 -0.00000000000E+00 -0.00000000000E+00 -0.45593999997E+02  0.45594000000E+02  0.51100000000E-03 0.  1.
    9900012    2    1    2    0    0 -0.15209813441E+01  0.57958293847E+01 -0.31317856850E+02  0.59302059835E+02  0.50000211204E+02 0.  0.
         12    1    1    2    0    0  0.15209813441E+01 -0.57958293847E+01  0.31317856850E+02  0.31885940165E+02  0.00000000000E+00 0. -1.
         11    1    3    3    0    0 -0.39898360949E+01 -0.93861766319E+01 -0.20742590685E+01  0.10407768962E+02  0.51100000000E-03 0. -1.
        -11    1    3    3    0    0  0.50899210104E+01  0.61570303284E+01 -0.36283205998E+02  0.37152218724E+02  0.51100000000E-03 0.  1.
         12    1    3    3    0    0 -0.26210662597E+01  0.90249756882E+01  0.70396082162E+01  0.11742072149E+02  0.00000000000E+00 0. -1.
</event>
<event>
 7    1  0.6230310E-012  0.5930194E+02  0.7816164E-02  0.1266605E+00
        -11   -1    0    0    0    0  0.00000000000E+00  0.00000000000E+00  0.45593999997E+02  0.45594000000E+02  0.51100000000E-03 0.  1.
         11   -1    0    0    0    0 -0.00000000000E+00 -0.00000000000E+00 -0.45593999997E+02  0.45594000000E+02  0.51100000000E-03 0. -1.
    9900012    2    1    2    0    0  0.28672462117E+02  0.60109073274E+01  0.12588882815E+02  0.59301936253E+02  0.49999985820E+02 0.  0.
         12    1    1    2    0    0 -0.28672462117E+02 -0.60109073274E+01 -0.12588882815E+02  0.31886063747E+02  0.00000000000E+00 0. -1.
         11    1    3    3    0    0  0.14561373409E+02  0.38742144021E+01  0.12607990479E+02  0.19646998676E+02  0.51100000000E-03 0. -1.
        -11    1    3    3    0    0  0.19303075246E+02  0.14312545358E+02 -0.65326912583E+01  0.24902484292E+02  0.51100000000E-03 0.  1.
         12    1    3    3    0    0 -0.51919865385E+01 -0.12175852432E+02  0.65135835942E+01  0.14752453284E+02  0.00000000000E+00 0. -1.
</event>
<event>
 7    1  0.6230310E-012  0.5930196E+02  0.7816164E-02  0.1266605E+00
        -11   -1    0    0    0    0  0.00000000000E+00  0.00000000000E+00  0.45593999997E+02  0.45594000000E+02  0.51100000000E-03 0. -1.
         11   -1    0    0    0    0 -0.00000000000E+00 -0.00000000000E+00 -0.45593999997E+02  0.45594000000E+02  0.51100000000E-03 0.  1.
    9900012    2    1    2    0    0 -0.12255793777E+02  0.27568208859E+02  0.10320324247E+02  0.59301957389E+02  0.50000024368E+02 0.  0.
         12    1    1    2    0    0  0.12255793777E+02 -0.27568208859E+02 -0.10320324247E+02  0.31886042611E+02  0.00000000000E+00 0. -1.
         11    1    3    3    0    0 -0.13702972111E+02 -0.66326560458E+01  0.16328302769E+02  0.22324359844E+02  0.51100000000E-03 0. -1.
        -11    1    3    3    0    0  0.55352658687E+01  0.10383375410E+02 -0.50168370030E+01  0.12791493537E+02  0.51100000000E-03 0.  1.
        -12    1    3    3    0    0 -0.40880875353E+01  0.23817489495E+02 -0.99114151904E+00  0.24186104008E+02  0.00000000000E+00 0.  1.
</event>
<event>
 7    1  0.6230310E-012  0.5930196E+02  0.7816164E-02  0.1266605E+00
        -11   -1    0    0    0    0  0.00000000000E+00  0.00000000000E+00  0.45593999997E+02  0.45594000000E+02  0.51100000000E-03 0. -1.
         11   -1    0    0    0    0 -0.00000000000E+00 -0.00000000000E+00 -0.45593999997E+02  0.45594000000E+02  0.51100000000E-03 0.  1.
    9900012    2    1    2    0    0  0.16715513209E+02  0.18127679748E+02 -0.20216293458E+02  0.59301957974E+02  0.50000025435E+02 0.  0.
         12    1    1    2    0    0 -0.16715513209E+02 -0.18127679748E+02  0.20216293458E+02  0.31886042026E+02  0.00000000000E+00 0. -1.
         11    1    3    3    0    0 -0.69643762995E+01 -0.80586024272E+01 -0.11003951150E+02  0.15314390340E+02  0.51100000000E-03 0. -1.
        -11    1    3    3    0    0  0.16770051078E+02  0.11321447894E+01 -0.57701789666E+01  0.17771081299E+02  0.51100000000E-03 0.  1.
         12    1    3    3    0    0  0.69098384309E+01  0.25054137385E+02 -0.34421633423E+01  0.26216486335E+02  0.00000000000E+00 0. -1.
</event>
<event>
 7    1  0.6230310E-012  0.5930194E+02  0.7816164E-02  0.1266605E+00
        -11   -1    0    0    0    0  0.00000000000E+00  0.00000000000E+00  0.45593999997E+02  0.45594000000E+02  0.51100000000E-03 0.  1.
         11   -1    0    0    0    0 -0.00000000000E+00 -0.00000000000E+00 -0.45593999997E+02  0.45594000000E+02  0.51100000000E-03 0. -1.
    9900012    2    1    2    0    0  0.25731318781E+02  0.60442379089E+01 -0.17834993463E+02  0.59301943957E+02  0.49999999872E+02 0.  0.
         12    1    1    2    0    0 -0.25731318781E+02 -0.60442379089E+01  0.17834993463E+02  0.31886056043E+02  0.00000000000E+00 0. -1.
         11    1    3    3    0    0  0.14272421997E+02 -0.61529467725E+01  0.71834587488E+00  0.15558817587E+02  0.51100000000E-03 0. -1.
        -11    1    3    3    0    0 -0.39857972473E+01  0.10354064177E+02  0.75056232001E+01  0.13395058961E+02  0.51100000000E-03 0.  1.
         12    1    3    3    0    0  0.15444694031E+02  0.18431205043E+01 -0.26058962538E+02  0.30348067409E+02  0.00000000000E+00 0. -1.
</event>
<event>
 7    1  0.6230310E-012  0.5930194E+02  0.7816164E-02  0.1266605E+00
        -11   -1    0    0    0    0  0.00000000000E+00  0.00000000000E+00  0.45593999997E+02  0.45594000000E+02  0.51100000000E-03 0. -1.
         11   -1    0    0    0    0 -0.00000000000E+00 -0.00000000000E+00 -0.45593999997E+02  0.45594000000E+02  0.51100000000E-03 0.  1.
    9900012    2    1    2    0    0 -0.21311458047E+02  0.19126938539E+02  0.14025080583E+02  0.59301938667E+02  0.49999990223E+02 0.  0.
         12    1    1    2    0    0  0.21311458047E+02 -0.19126938539E+02 -0.14025080583E+02  0.31886061333E+02  0.00000000000E+00 0. -1.
         11    1    3    3    0    0 -0.11091829308E+02  0.66421336700E+01  0.13880420241E+02  0.18968729093E+02  0.51100000000E-03 0. -1.
        -11    1    3    3    0    0 -0.18032382470E+02 -0.24982505835E+01  0.10001195485E+02  0.20770940877E+02  0.51100000000E-03 0.  1.
        -12    1    3    3    0    0  0.78127537312E+01  0.14983055452E+02 -0.98565351421E+01  0.19562268697E+02  0.00000000000E+00 0.  1.
</event>
<event>
 7    1  0.6230310E-012  0.5930196E+02  0.7816164E-02  0.1266605E+00
        -11   -1    0    0    0    0  0.00000000000E+00  0.00000000000E+00  0.45593999997E+02  0.45594000000E+02  0.51100000000E-03 0.  1.
         11   -1    0    0    0    0 -0.00000000000E+00 -0.00000000000E+00 -0.45593999997E+02  0.45594000000E+02  0.51100000000E-03 0. -1.
    9900012    2    1    2    0    0 -0.28224942220E+02 -0.14067987263E+02  0.47078619424E+01  0.59301959276E+02  0.50000027810E+02 0.  0.
         12    1    1    2    0    0  0.28224942220E+02  0.14067987263E+02 -0.47078619424E+01  0.31886040724E+02  0.00000000000E+00 0. -1.
         11    1    3    3    0    0 -0.58985069168E+01 -0.19689385911E+02 -0.26260810337E+01  0.20721018393E+02  0.51100000000E-03 0. -1.
        -11    1    3    3    0    0  0.54881728730E+01  0.15375562424E+01  0.87386792634E+01  0.10433054980E+02  0.51100000000E-03 0.  1.
        -12    1    3    3    0    0 -0.27814608176E+02  0.40838424056E+01 -0.14047362873E+01  0.28147885903E+02  0.00000000000E+00 0.  1.
</event>
<event>
 7    1  0.6230310E-012  0.5930195E+02  0.7816164E-02  0.1266605E+00
        -11   -1    0    0    0    0  0.00000000000E+00  0.00000000000E+00  0.45593999997E+02  0.45594000000E+02  0.51100000000E-03 0. -1.
         11   -1    0    0    0    0 -0.00000000000E+00 -0.00000000000E+00 -0.45593999997E+02  0.45594000000E+02  0.51100000000E-03 0.  1.
    9900012    2    1    2    0    0 -0.32829636280E+01 -0.28923141679E+02  0.13015151038E+02  0.59301950836E+02  0.50000012417E+02 0.  0.
         12    1    1    2    0    0  0.32829636280E+01  0.28923141679E+02 -0.13015151038E+02  0.31886049164E+02  0.00000000000E+00 0. -1.
         11    1    3    3    0    0  0.25479717545E+01  0.28566218829E+01  0.43178236773E+01  0.57702729756E+01  0.51100000000E-03 0. -1.
        -11    1    3    3    0    0 -0.54322305970E+01  0.92666938899E+01 -0.24068262049E+01  0.11007886153E+02  0.51100000000E-03 0.  1.
        -12    1    3    3    0    0 -0.39870478551E+00 -0.41046457451E+02  0.11104153565E+02  0.42523791708E+02  0.00000000000E+00 0.  1.
</event>
<event>
 7    1  0.6230310E-012  0.5930193E+02  0.7816164E-02  0.1266605E+00
        -11   -1    0    0    0    0  0.00000000000E+00  0.00000000000E+00  0.45593999997E+02  0.45594000000E+02  0.51100000000E-03 0. -1.
         11   -1    0    0    0    0 -0.00000000000E+00 -0.00000000000E+00 -0.45593999997E+02  0.45594000000E+02  0.51100000000E-03 0.  1.
    9900012    2    1    2    0    0  0.31256481250E+02 -0.73135565289E+00 -0.62625295936E+01  0.59301925012E+02  0.49999965320E+02 0.  0.
         12    1    1    2    0    0 -0.31256481250E+02  0.73135565289E+00  0.62625295936E+01  0.31886074988E+02  0.00000000000E+00 0. -1.
         11    1    3    3    0    0  0.82541090850E+01 -0.24479272050E+01 -0.11898298046E+02  0.14686461829E+02  0.51100000000E-03 0. -1.
        -11    1    3    3    0    0  0.11535429619E+02  0.14793529248E+02 -0.99733653093E+01  0.21245768048E+02  0.51100000000E-03 0.  1.
         12    1    3    3    0    0  0.11466942546E+02 -0.13076957696E+02  0.15609133762E+02  0.23369695136E+02  0.00000000000E+00 0. -1.
</event>
<event>
 7    1  0.6230310E-012  0.5930198E+02  0.7816164E-02  0.1266605E+00
        -11   -1    0    0    0    0  0.00000000000E+00  0.00000000000E+00  0.45593999997E+02  0.45594000000E+02  0.51100000000E-03 0.  1.
         11   -1    0    0    0    0 -0.00000000000E+00 -0.00000000000E+00 -0.45593999997E+02  0.45594000000E+02  0.51100000000E-03 0. -1.
    9900012    2    1    2    0    0  0.97988099074E+01 -0.93874358071E+01  0.28854425073E+02  0.59301976841E+02  0.50000059843E+02 0.  0.
         12    1    1    2    0    0 -0.97988099074E+01  0.93874358071E+01 -0.28854425073E+02  0.31886023159E+02  0.00000000000E+00 0. -1.
         11    1    3    3    0    0 -0.99794522294E+01  0.20974664715E+01 -0.53882002368E+01  0.11533496194E+02  0.51100000000E-03 0. -1.
        -11    1    3    3    0    0  0.42147135276E+01  0.58061785577E+01  0.10737689350E+01  0.72545502652E+01  0.51100000000E-03 0.  1.
        -12    1    3    3    0    0  0.15563548609E+02 -0.17291080836E+02  0.33168856375E+02  0.40513930382E+02  0.00000000000E+00 0.  1.
</event>
<event>
 7    1  0.6230310E-012  0.5930193E+02  0.7816164E-02  0.1266605E+00
        -11   -1    0    0    0    0  0.00000000000E+00  0.00000000000E+00  0.45593999997E+02  0.45594000000E+02  0.51100000000E-03 0. -1.
         11   -1    0    0    0    0 -0.00000000000E+00 -0.00000000000E+00 -0.45593999997E+02  0.45594000000E+02  0.51100000000E-03 0.  1.
    9900012    2    1    2    0    0 -0.17701076845E+02  0.25413563102E+02  0.75857958606E+01  0.59301927651E+02  0.49999970134E+02 0.  0.
         12    1    1    2    0    0  0.17701076845E+02 -0.25413563102E+02 -0.75857958606E+01  0.31886072349E+02  0.00000000000E+00 0. -1.
         11    1    3    3    0    0  0.35234300522E+01  0.83106995571E+01  0.10181102977E+02  0.13606511109E+02  0.51100000000E-03 0. -1.
        -11    1    3    3    0    0  0.60354670651E+01  0.17017352567E+02 -0.36234282404E+01  0.18415927442E+02  0.51100000000E-03 0.  1.
         12    1    3    3    0    0 -0.27259973962E+02  0.85510977266E-01  0.10281211240E+01  0.27279489100E+02  0.00000000000E+00 0. -1.
</event>
<event>
 7    1  0.6230310E-012  0.5930197E+02  0.7816164E-02  0.1266605E+00
        -11   -1    0    0    0    0  0.00000000000E+00  0.00000000000E+00  0.45593999997E+02  0.45594000000E+02  0.51100000000E-03 0. -1.
         11   -1    0    0    0    0 -0.00000000000E+00 -0.00000000000E+00 -0.45593999997E+02  0.45594000000E+02  0.51100000000E-03 0.  1.
    9900012    2    1    2    0    0 -0.26612410182E+02 -0.17557195514E+02 -0.49311145426E+00  0.59301974081E+02  0.50000054810E+02 0.  0.
         12    1    1    2    0    0  0.26612410182E+02  0.17557195514E+02  0.49311145426E+00  0.31886025919E+02  0.00000000000E+00 0. -1.
         11    1    3    3    0    0  0.48911066204E+01  0.96815226341E+00 -0.41998021193E+01  0.65190935627E+01  0.51100000000E-03 0. -1.
        -11    1    3    3    0    0 -0.45523442981E+01 -0.61403227206E+01 -0.15613945869E+02  0.17384553707E+02  0.51100000000E-03 0.  1.
        -12    1    3    3    0    0 -0.26951172504E+02 -0.12385025057E+02  0.19320636534E+02  0.35398326812E+02  0.00000000000E+00 0.  1.
</event>
<event>
 7    1  0.6230310E-012  0.5930195E+02  0.7816164E-02  0.1266605E+00
        -11   -1    0    0    0    0  0.00000000000E+00  0.00000000000E+00  0.45593999997E+02  0.45594000000E+02  0.51100000000E-03 0. -1.
         11   -1    0    0    0    0 -0.00000000000E+00 -0.00000000000E+00 -0.45593999997E+02  0.45594000000E+02  0.51100000000E-03 0.  1.
    9900012    2    1    2    0    0 -0.29024084224E+02  0.83632287400E+01 -0.10216621129E+02  0.59301946508E+02  0.50000004523E+02 0.  0.
         12    1    1    2    0    0  0.29024084224E+02 -0.83632287400E+01  0.10216621129E+02  0.31886053492E+02  0.00000000000E+00 0. -1.
         11    1    3    3    0    0  0.96671310113E+01  0.11498853167E+02 -0.89820970789E+01  0.17503003009E+02  0.51100000000E-03 0. -1.
        -11    1    3    3    0    0 -0.48248434727E+01 -0.36008895026E+01  0.44092558641E+01  0.74623761150E+01  0.51100000000E-03 0.  1.
        -12    1    3    3    0    0 -0.33866371763E+02  0.46526507549E+00 -0.56437799140E+01  0.34336567384E+02  0.00000000000E+00 0.  1.
</event>
<event>
 7    1  0.6230310E-012  0.5930194E+02  0.7816164E-02  0.1266605E+00
        -11   -1    0    0    0    0  0.00000000000E+00  0.00000000000E+00  0.45593999997E+02  0.45594000000E+02  0.51100000000E-03 0.  1.
         11   -1    0    0    0    0 -0.00000000000E+00 -0.00000000000E+00 -0.45593999997E+02  0.45594000000E+02  0.51100000000E-03 0. -1.
    9900012    2    1    2    0    0 -0.21461028224E+02  0.11739072435E+02  0.20453348750E+02  0.59301936757E+02  0.49999986740E+02 0.  0.
         12    1    1    2    0    0  0.21461028224E+02 -0.11739072435E+02 -0.20453348750E+02  0.31886063243E+02  0.00000000000E+00 0. -1.
         11    1    3    3    0    0  0.40356103448E+01 -0.37436241351E+01  0.71880886473E+01  0.90537004137E+01  0.51100000000E-03 0. -1.
        -11    1    3    3    0    0  0.63089411938E+01  0.11679542036E+02 -0.39937699652E+01  0.13862346120E+02  0.51100000000E-03 0.  1.
        -12    1    3    3    0    0 -0.31805579762E+02  0.38031545340E+01  0.17259030068E+02  0.36385890223E+02  0.00000000000E+00 0.  1.
</event>
<event>
 7    1  0.6230310E-012  0.5930195E+02  0.7816164E-02  0.1266605E+00
        -11   -1    0    0    0    0  0.00000000000E+00  0.00000000000E+00  0.45593999997E+02  0.45594000000E+02  0.51100000000E-03 0.  1.
         11   -1    0    0    0    0 -0.00000000000E+00 -0.00000000000E+00 -0.45593999997E+02  0.45594000000E+02  0.51100000000E-03 0. -1.
    9900012    2    1    2    0    0  0.28213523027E+02  0.58019971971E+01  0.13676766331E+02  0.59301953046E+02  0.50000016447E+02 0.  0.
         12    1    1    2    0    0 -0.28213523027E+02 -0.58019971971E+01 -0.13676766331E+02  0.31886046954E+02  0.00000000000E+00 0. -1.
         11    1    3    3    0    0  0.33157642296E+02 -0.11804300507E+02  0.48560564301E+01  0.35529593825E+02  0.51100000000E-03 0. -1.
        -11    1    3    3    0    0 -0.56403448442E+00 -0.11695803987E+01 -0.14342445471E+01  0.19347120950E+01  0.51100000000E-03 0.  1.
        -12    1    3    3    0    0 -0.43800847843E+01  0.18775878103E+02  0.10254954448E+02  0.21837647126E+02  0.00000000000E+00 0.  1.
</event>
<event>
 7    1  0.6230310E-012  0.5930195E+02  0.7816164E-02  0.1266605E+00
        -11   -1    0    0    0    0  0.00000000000E+00  0.00000000000E+00  0.45593999997E+02  0.45594000000E+02  0.51100000000E-03 0. -1.
         11   -1    0    0    0    0 -0.00000000000E+00 -0.00000000000E+00 -0.45593999997E+02  0.45594000000E+02  0.51100000000E-03 0.  1.
    9900012    2    1    2    0    0 -0.81644063851E+00  0.31844384113E+02  0.14102721118E+01  0.59301949095E+02  0.50000009242E+02 0.  0.
         12    1    1    2    0    0  0.81644063851E+00 -0.31844384113E+02 -0.14102721118E+01  0.31886050905E+02  0.00000000000E+00 0. -1.
         11    1    3    3    0    0 -0.17607972242E+02  0.23865908250E+02  0.48091219427E+01  0.30045796997E+02  0.51100000000E-03 0. -1.
        -11    1    3    3    0    0  0.65847492349E+01  0.57485727586E+01 -0.12599610148E+02  0.15334770536E+02  0.51100000000E-03 0.  1.
         12    1    3    3    0    0  0.10206782369E+02  0.22299031047E+01  0.92007603172E+01  0.13921381562E+02  0.00000000000E+00 0. -1.
</event>
<event>
 7    1  0.6230310E-012  0.5930195E+02  0.7816164E-02  0.1266605E+00
        -11   -1    0    0    0    0  0.00000000000E+00  0.00000000000E+00  0.45593999997E+02  0.45594000000E+02  0.51100000000E-03 0. -1.
         11   -1    0    0    0    0 -0.00000000000E+00 -0.00000000000E+00 -0.45593999997E+02  0.45594000000E+02  0.51100000000E-03 0.  1.
    9900012    2    1    2    0    0  0.10988829380E+02  0.25777393799E+02  0.15214854277E+02  0.59301949870E+02  0.50000010655E+02 0.  0.
         12    1    1    2    0    0 -0.10988829380E+02 -0.25777393799E+02 -0.15214854277E+02  0.31886050130E+02  0.00000000000E+00 0. -1.
         11    1    3    3    0    0  0.23058264809E+02  0.13335263287E+02  0.18479517096E+02  0.32419213058E+02  0.51100000000E-03 0. -1.
        -11    1    3    3    0    0  0.10497383126E+01  0.64459751150E+01  0.66957971204E+01  0.93534082049E+01  0.51100000000E-03 0.  1.
         12    1    3    3    0    0 -0.13119173742E+02  0.59961553966E+01 -0.99604599393E+01  0.17529328607E+02  0.00000000000E+00 0. -1.
</event>
<event>
 7    1  0.6230310E-012  0.5930194E+02  0.7816164E-02  0.1266605E+00
        -11   -1    0    0    0    0  0.00000000000E+00  0.00000000000E+00  0.45593999997E+02  0.45594000000E+02  0.51100000000E-03 0. -1.
         11   -1    0    0    0    0 -0.00000000000E+00 -0.00000000000E+00 -0.45593999997E+02  0.45594000000E+02  0.51100000000E-03 0.  1.
    9900012    2    1    2    0    0 -0.65957021465E+01  0.39775960407E+01 -0.30941816797E+02  0.59301943741E+02  0.49999999477E+02 0.  0.
         12    1    1    2    0    0  0.65957021465E+01 -0.39775960407E+01  0.30941816797E+02  0.31886056259E+02  0.00000000000E+00 0. -1.
         11    1    3    3    0    0 -0.13315586786E+02  0.13792971662E+02 -0.17610036787E+01  0.19252325910E+02  0.51100000000E-03 0. -1.
        -11    1    3    3    0    0 -0.32933583664E+01 -0.13038667892E+02 -0.25635872413E+02  0.28949110943E+02  0.51100000000E-03 0.  1.
         12    1    3    3    0    0  0.10013243006E+02  0.32232922705E+01 -0.35449407049E+01  0.11100506888E+02  0.00000000000E+00 0. -1.
</event>
<event>
 7    1  0.6230310E-012  0.5930189E+02  0.7816164E-02  0.1266605E+00
        -11   -1    0    0    0    0  0.00000000000E+00  0.00000000000E+00  0.45593999997E+02  0.45594000000E+02  0.51100000000E-03 0. -1.
         11   -1    0    0    0    0 -0.00000000000E+00 -0.00000000000E+00 -0.45593999997E+02  0.45594000000E+02  0.51100000000E-03 0.  1.
    9900012    2    1    2    0    0 -0.14945075670E+01 -0.17432071575E+02 -0.26657334645E+02  0.59301887621E+02  0.49999897128E+02 0.  0.
         12    1    1    2    0    0  0.14945075670E+01  0.17432071575E+02  0.26657334645E+02  0.31886112379E+02  0.00000000000E+00 0. -1.
         11    1    3    3    0    0 -0.75137917629E+01 -0.98041883211E+01 -0.95518867495E+01  0.15614663494E+02  0.51100000000E-03 0. -1.
        -11    1    3    3    0    0  0.44179130876E+00 -0.23165881466E+02 -0.13406619565E+02  0.26769211645E+02  0.51100000000E-03 0.  1.
         12    1    3    3    0    0  0.55774928871E+01  0.15537998212E+02 -0.36988283297E+01  0.16918012483E+02  0.00000000000E+00 0. -1.
</event>
<event>
 7    1  0.6230310E-012  0.5930219E+02  0.7816164E-02  0.1266604E+00
        -11   -1    0    0    0    0  0.00000000000E+00  0.00000000000E+00  0.45593999997E+02  0.45594000000E+02  0.51100000000E-03 0.  1.
         11   -1    0    0    0    0 -0.00000000000E+00 -0.00000000000E+00 -0.45593999997E+02  0.45594000000E+02  0.51100000000E-03 0. -1.
    9900012    2    1    2    0    0  0.30303598063E+02 -0.92204269089E+01  0.36579471289E+01  0.59302189596E+02  0.50000447855E+02 0.  0.
         12    1    1    2    0    0 -0.30303598063E+02  0.92204269089E+01 -0.36579471289E+01  0.31885810404E+02  0.00000000000E+00 0. -1.
         11    1    3    3    0    0  0.13210040283E+02 -0.18721887811E+02 -0.60233633029E+01  0.23691668435E+02  0.51100000000E-03 0. -1.
        -11    1    3    3    0    0 -0.69325439092E+01  0.61390600781E+01 -0.56055631928E+00  0.92769848196E+01  0.51100000000E-03 0.  1.
        -12    1    3    3    0    0  0.24026101689E+02  0.33624008240E+01  0.10241866751E+02  0.26333536341E+02  0.00000000000E+00 0.  1.
</event>
<event>
 7    1  0.6230310E-012  0.5930194E+02  0.7816164E-02  0.1266605E+00
        -11   -1    0    0    0    0  0.00000000000E+00  0.00000000000E+00  0.45593999997E+02  0.45594000000E+02  0.51100000000E-03 0. -1.
         11   -1    0    0    0    0 -0.00000000000E+00 -0.00000000000E+00 -0.45593999997E+02  0.45594000000E+02  0.51100000000E-03 0.  1.
    9900012    2    1    2    0    0  0.11226405783E+02  0.23168219583E+02 -0.18812822691E+02  0.59301939048E+02  0.49999990918E+02 0.  0.
         12    1    1    2    0    0 -0.11226405783E+02 -0.23168219583E+02  0.18812822691E+02  0.31886060952E+02  0.00000000000E+00 0. -1.
         11    1    3    3    0    0 -0.11913342428E+01 -0.10431657978E+02 -0.14525404437E+02  0.17922782701E+02  0.51100000000E-03 0. -1.
        -11    1    3    3    0    0  0.70542665708E+01  0.28170006127E+01  0.46163651668E+01  0.88887005191E+01  0.51100000000E-03 0.  1.
        -12    1    3    3    0    0  0.53634734548E+01  0.30782876948E+02 -0.89037834212E+01  0.32490455828E+02  0.00000000000E+00 0.  1.
</event>
<event>
 7    1  0.6230310E-012  0.5930193E+02  0.7816164E-02  0.1266605E+00
        -11   -1    0    0    0    0  0.00000000000E+00  0.00000000000E+00  0.45593999997E+02  0.45594000000E+02  0.51100000000E-03 0.  1.
         11   -1    0    0    0    0 -0.00000000000E+00 -0.00000000000E+00 -0.45593999997E+02  0.45594000000E+02  0.51100000000E-03 0. -1.
    9900012    2    1    2    0    0  0.29189077110E+01  0.20214069107E+02  0.24486580136E+02  0.59301933782E+02  0.49999981315E+02 0.  0.
         12    1    1    2    0    0 -0.29189077110E+01 -0.20214069107E+02 -0.24486580136E+02  0.31886066218E+02  0.00000000000E+00 0. -1.
         11    1    3    3    0    0  0.40117817859E+01  0.17075404275E+02 -0.19433571650E+01  0.17647675812E+02  0.51100000000E-03 0. -1.
        -11    1    3    3    0    0  0.36703082267E+01 -0.32112758843E+01 -0.63048115282E+01  0.79708283103E+01  0.51100000000E-03 0.  1.
        -12    1    3    3    0    0 -0.47631823017E+01  0.63499407170E+01  0.32734748829E+02  0.33683429660E+02  0.00000000000E+00 0.  1.
</event>
<event>
 7    1  0.6230310E-012  0.5930193E+02  0.7816164E-02  0.1266605E+00
        -11   -1    0    0    0    0  0.00000000000E+00  0.00000000000E+00  0.45593999997E+02  0.45594000000E+02  0.51100000000E-03 0. -1.
         11   -1    0    0    0    0 -0.00000000000E+00 -0.00000000000E+00 -0.45593999997E+02  0.45594000000E+02  0.51100000000E-03 0.  1.
    9900012    2    1    2    0    0 -0.47473554627E+01 -0.12522998237E+02 -0.28937144740E+02  0.59301933851E+02  0.49999981440E+02 0.  0.
         12    1    1    2    0    0  0.47473554627E+01  0.12522998237E+02  0.28937144740E+02  0.31886066149E+02  0.00000000000E+00 0. -1.
         11    1    3    3    0    0 -0.20228151509E+02 -0.13183524037E+02 -0.21556781231E+01  0.24241088423E+02  0.51100000000E-03 0. -1.
        -11    1    3    3    0    0  0.71094533249E+00  0.33845690429E+01  0.89456177846E+00  0.35722530578E+01  0.51100000000E-03 0.  1.
        -12    1    3    3    0    0  0.14769850714E+02 -0.27240432432E+01 -0.27676028396E+02  0.31488592370E+02  0.00000000000E+00 0.  1.
</event>
<event>
 7    1  0.6230310E-012  0.5930195E+02  0.7816164E-02  0.1266605E+00
        -11   -1    0    0    0    0  0.00000000000E+00  0.00000000000E+00  0.45593999997E+02  0.45594000000E+02  0.51100000000E-03 0. -1.
         11   -1    0    0    0    0 -0.00000000000E+00 -0.00000000000E+00 -0.45593999997E+02  0.45594000000E+02  0.51100000000E-03 0.  1.
    9900012    2    1    2    0    0 -0.13606109606E+02 -0.76475816238E+01 -0.27804824968E+02  0.59301952663E+02  0.50000015748E+02 0.  0.
         12    1    1    2    0    0  0.13606109606E+02  0.76475816238E+01  0.27804824968E+02  0.31886047337E+02  0.00000000000E+00 0. -1.
         11    1    3    3    0    0 -0.10015574561E+02 -0.68193400798E+01  0.63775095106E+01  0.13692617015E+02  0.51100000000E-03 0. -1.
        -11    1    3    3    0    0 -0.52932677801E+01 -0.12877143246E+02 -0.64892454758E+01  0.15360657834E+02  0.51100000000E-03 0.  1.
        -12    1    3    3    0    0  0.17027327347E+01  0.12048901702E+02 -0.27693089003E+02  0.30248677814E+02  0.00000000000E+00 0.  1.
</event>
<event>
 7    1  0.6230310E-012  0.5930191E+02  0.7816164E-02  0.1266605E+00
        -11   -1    0    0    0    0  0.00000000000E+00  0.00000000000E+00  0.45593999997E+02  0.45594000000E+02  0.51100000000E-03 0. -1.
         11   -1    0    0    0    0 -0.00000000000E+00 -0.00000000000E+00 -0.45593999997E+02  0.45594000000E+02  0.51100000000E-03 0.  1.
    9900012    2    1    2    0    0 -0.16036524625E+02 -0.13151703424E+02 -0.24219519681E+02  0.59301912774E+02  0.49999943002E+02 0.  0.
         12    1    1    2    0    0  0.16036524625E+02  0.13151703424E+02  0.24219519681E+02  0.31886087226E+02  0.00000000000E+00 0. -1.
         11    1    3    3    0    0 -0.78888353592E+01 -0.18741110111E+02 -0.64122915707E+01  0.21320891514E+02  0.51100000000E-03 0. -1.
        -11    1    3    3    0    0  0.79420406597E+01 -0.75935254609E+01 -0.12239215827E+02  0.16447979909E+02  0.51100000000E-03 0.  1.
        -12    1    3    3    0    0 -0.16089729925E+02  0.13182932147E+02 -0.55680122832E+01  0.21533041352E+02  0.00000000000E+00 0.  1.
</event>
<event>
 7    1  0.6230310E-012  0.5930189E+02  0.7816164E-02  0.1266605E+00
        -11   -1    0    0    0    0  0.00000000000E+00  0.00000000000E+00  0.45593999997E+02  0.45594000000E+02  0.51100000000E-03 0. -1.
         11   -1    0    0    0    0 -0.00000000000E+00 -0.00000000000E+00 -0.45593999997E+02  0.45594000000E+02  0.51100000000E-03 0.  1.
    9900012    2    1    2    0    0 -0.15969134162E+02  0.16708014396E+02 -0.21967086786E+02  0.59301891852E+02  0.49999904843E+02 0.  0.
         12    1    1    2    0    0  0.15969134162E+02 -0.16708014396E+02  0.21967086786E+02  0.31886108148E+02  0.00000000000E+00 0. -1.
         11    1    3    3    0    0  0.44336400726E+01  0.12211746836E+02  0.65425652979E+00  0.13008150404E+02  0.51100000000E-03 0. -1.
        -11    1    3    3    0    0 -0.11587918833E+02  0.17795094808E+02 -0.21624276288E+02  0.30307665488E+02  0.51100000000E-03 0.  1.
         12    1    3    3    0    0 -0.88148554021E+01 -0.13298827247E+02 -0.99706702783E+00  0.15986075959E+02  0.00000000000E+00 0. -1.
</event>
<event>
 7    1  0.6230310E-012  0.5930190E+02  0.7816164E-02  0.1266605E+00
        -11   -1    0    0    0    0  0.00000000000E+00  0.00000000000E+00  0.45593999997E+02  0.45594000000E+02  0.51100000000E-03 0.  1.
         11   -1    0    0    0    0 -0.00000000000E+00 -0.00000000000E+00 -0.45593999997E+02  0.45594000000E+02  0.51100000000E-03 0. -1.
    9900012    2    1    2    0    0 -0.91951496335E+01 -0.14484015342E+02  0.26877237593E+02  0.59301899927E+02  0.49999919572E+02 0.  0.
         12    1    1    2    0    0  0.91951496335E+01  0.14484015342E+02 -0.26877237593E+02  0.31886100073E+02  0.00000000000E+00 0. -1.
         11    1    3    3    0    0 -0.13716550676E+02  0.15704831503E+01  0.53218340621E+01  0.14796354207E+02  0.51100000000E-03 0. -1.
        -11    1    3    3    0    0 -0.11361153112E+02 -0.18239577243E+02  0.63441555224E+01  0.22405496816E+02  0.51100000000E-03 0.  1.
         12    1    3    3    0    0  0.15882554154E+02  0.21850787504E+01  0.15211248008E+02  0.22100048905E+02  0.00000000000E+00 0. -1.
</event>
<event>
 7    1  0.6230310E-012  0.5930195E+02  0.7816164E-02  0.1266605E+00
        -11   -1    0    0    0    0  0.00000000000E+00  0.00000000000E+00  0.45593999997E+02  0.45594000000E+02  0.51100000000E-03 0. -1.
         11   -1    0    0    0    0 -0.00000000000E+00 -0.00000000000E+00 -0.45593999997E+02  0.45594000000E+02  0.51100000000E-03 0.  1.
    9900012    2    1    2    0    0  0.14399865305E+02  0.85844766000E+01 -0.27123249547E+02  0.59301952498E+02  0.50000015448E+02 0.  0.
         12    1    1    2    0    0 -0.14399865305E+02 -0.85844766000E+01  0.27123249547E+02  0.31886047502E+02  0.00000000000E+00 0. -1.
         11    1    3    3    0    0 -0.28328705129E+01  0.88964039010E+01  0.57727599974E+01  0.10977063176E+02  0.51100000000E-03 0. -1.
        -11    1    3    3    0    0  0.17789237170E+02 -0.73619981278E+01 -0.54882102790E+01  0.20019401286E+02  0.51100000000E-03 0.  1.
         12    1    3    3    0    0 -0.55650135195E+00  0.70500708268E+01 -0.27407799265E+02  0.28305488036E+02  0.00000000000E+00 0. -1.
</event>
<event>
 7    1  0.6230310E-012  0.5930193E+02  0.7816164E-02  0.1266605E+00
        -11   -1    0    0    0    0  0.00000000000E+00  0.00000000000E+00  0.45593999997E+02  0.45594000000E+02  0.51100000000E-03 0.  1.
         11   -1    0    0    0    0 -0.00000000000E+00 -0.00000000000E+00 -0.45593999997E+02  0.45594000000E+02  0.51100000000E-03 0. -1.
    9900012    2    1    2    0    0  0.29009645903E+02 -0.11746086954E+02 -0.60984579237E+01  0.59301932460E+02  0.49999978903E+02 0.  0.
         12    1    1    2    0    0 -0.29009645903E+02  0.11746086954E+02  0.60984579237E+01  0.31886067540E+02  0.00000000000E+00 0. -1.
         11    1    3    3    0    0  0.10886948378E+02 -0.76871897326E+01 -0.17919700255E+02  0.22332357432E+02  0.51100000000E-03 0. -1.
        -11    1    3    3    0    0  0.96948824282E+01 -0.15594933732E+02 -0.99061535571E-01  0.18363074821E+02  0.51100000000E-03 0.  1.
        -12    1    3    3    0    0  0.84278150963E+01  0.11536036511E+02  0.11920303867E+02  0.18606500207E+02  0.00000000000E+00 0.  1.
</event>
<event>
 7    1  0.6230310E-012  0.5930193E+02  0.7816164E-02  0.1266605E+00
        -11   -1    0    0    0    0  0.00000000000E+00  0.00000000000E+00  0.45593999997E+02  0.45594000000E+02  0.51100000000E-03 0.  1.
         11   -1    0    0    0    0 -0.00000000000E+00 -0.00000000000E+00 -0.45593999997E+02  0.45594000000E+02  0.51100000000E-03 0. -1.
    9900012    2    1    2    0    0  0.29433178673E+02  0.53660033558E+01  0.11027937923E+02  0.59301930727E+02  0.49999975743E+02 0.  0.
         12    1    1    2    0    0 -0.29433178673E+02 -0.53660033558E+01 -0.11027937923E+02  0.31886069273E+02  0.00000000000E+00 0. -1.
         11    1    3    3    0    0  0.14248493871E+02 -0.77492589004E+01  0.15985256218E+02  0.22772768995E+02  0.51100000000E-03 0. -1.
        -11    1    3    3    0    0  0.45535292345E+01 -0.30449035806E+01  0.10450528457E+02  0.11799136053E+02  0.51100000000E-03 0.  1.
         12    1    3    3    0    0  0.10631155568E+02  0.16160165837E+02 -0.15407846752E+02  0.24730025680E+02  0.00000000000E+00 0. -1.
</event>
<event>
 7    1  0.6230310E-012  0.5930197E+02  0.7816164E-02  0.1266605E+00
        -11   -1    0    0    0    0  0.00000000000E+00  0.00000000000E+00  0.45593999997E+02  0.45594000000E+02  0.51100000000E-03 0. -1.
         11   -1    0    0    0    0 -0.00000000000E+00 -0.00000000000E+00 -0.45593999997E+02  0.45594000000E+02  0.51100000000E-03 0.  1.
    9900012    2    1    2    0    0 -0.15950105109E+02  0.13610815168E+02 -0.24022043329E+02  0.59301973151E+02  0.50000053114E+02 0.  0.
         12    1    1    2    0    0  0.15950105109E+02 -0.13610815168E+02  0.24022043329E+02  0.31886026849E+02  0.00000000000E+00 0. -1.
         11    1    3    3    0    0 -0.69641913258E+01 -0.16380122400E+01 -0.12729083590E+02  0.14601801746E+02  0.51100000000E-03 0. -1.
        -11    1    3    3    0    0 -0.20153442535E+02 -0.44030532552E+01 -0.60328635952E+01  0.21492872479E+02  0.51100000000E-03 0.  1.
        -12    1    3    3    0    0  0.11167528752E+02  0.19651880663E+02 -0.52600961437E+01  0.23207298926E+02  0.00000000000E+00 0.  1.
</event>
<event>
 7    1  0.6230310E-012  0.5930185E+02  0.7816164E-02  0.1266605E+00
        -11   -1    0    0    0    0  0.00000000000E+00  0.00000000000E+00  0.45593999997E+02  0.45594000000E+02  0.51100000000E-03 0.  1.
         11   -1    0    0    0    0 -0.00000000000E+00 -0.00000000000E+00 -0.45593999997E+02  0.45594000000E+02  0.51100000000E-03 0. -1.
    9900012    2    1    2    0    0 -0.14252723352E+02  0.14687319508E+02  0.24451366937E+02  0.59301845914E+02  0.49999821064E+02 0.  0.
         12    1    1    2    0    0  0.14252723352E+02 -0.14687319508E+02 -0.24451366937E+02  0.31886154086E+02  0.00000000000E+00 0. -1.
         11    1    3    3    0    0 -0.62851417910E+01  0.18418157024E+02  0.13820665584E+02  0.23869275501E+02  0.51100000000E-03 0. -1.
        -11    1    3    3    0    0 -0.51152120405E+01  0.80489275998E+01 -0.85070571868E+01  0.12779696865E+02  0.51100000000E-03 0.  1.
        -12    1    3    3    0    0 -0.28523695203E+01 -0.11779765116E+02  0.19137758540E+02  0.22652873548E+02  0.00000000000E+00 0.  1.
</event>
<event>
 7    1  0.6230310E-012  0.5930198E+02  0.7816164E-02  0.1266605E+00
        -11   -1    0    0    0    0  0.00000000000E+00  0.00000000000E+00  0.45593999997E+02  0.45594000000E+02  0.51100000000E-03 0.  1.
         11   -1    0    0    0    0 -0.00000000000E+00 -0.00000000000E+00 -0.45593999997E+02  0.45594000000E+02  0.51100000000E-03 0. -1.
    9900012    2    1    2    0    0  0.49275399454E+01  0.23120532986E+02  0.21398097688E+02  0.59301979863E+02  0.50000065355E+02 0.  0.
         12    1    1    2    0    0 -0.49275399454E+01 -0.23120532986E+02 -0.21398097688E+02  0.31886020137E+02  0.00000000000E+00 0. -1.
         11    1    3    3    0    0  0.71912489782E+01 -0.66686995738E+01  0.16503180075E+02  0.19197410469E+02  0.51100000000E-03 0. -1.
        -11    1    3    3    0    0  0.57184959610E+01 -0.19367744641E+01  0.42500830279E+01  0.73834610709E+01  0.51100000000E-03 0.  1.
         12    1    3    3    0    0 -0.79822049938E+01  0.31726007024E+02  0.64483458576E+00  0.32721108323E+02  0.00000000000E+00 0. -1.
</event>
<event>
 7    1  0.6230310E-012  0.5930193E+02  0.7816164E-02  0.1266605E+00
        -11   -1    0    0    0    0  0.00000000000E+00  0.00000000000E+00  0.45593999997E+02  0.45594000000E+02  0.51100000000E-03 0.  1.
         11   -1    0    0    0    0 -0.00000000000E+00 -0.00000000000E+00 -0.45593999997E+02  0.45594000000E+02  0.51100000000E-03 0. -1.
    9900012    2    1    2    0    0  0.10678624210E+01  0.13783262599E+02  0.28733304273E+02  0.59301930432E+02  0.49999975205E+02 0.  0.
         12    1    1    2    0    0 -0.10678624210E+01 -0.13783262599E+02 -0.28733304273E+02  0.31886069568E+02  0.00000000000E+00 0. -1.
         11    1    3    3    0    0  0.11994513583E+02 -0.69687453222E+01  0.43056527778E+01  0.14524820604E+02  0.51100000000E-03 0. -1.
        -11    1    3    3    0    0  0.25591429638E+01 -0.30673966658E+01  0.15468678604E+02  0.15976174543E+02  0.51100000000E-03 0.  1.
         12    1    3    3    0    0 -0.13485794126E+02  0.23819404587E+02  0.89589728919E+01  0.28800935286E+02  0.00000000000E+00 0. -1.
</event>
<event>
 7    1  0.6230310E-012  0.5930194E+02  0.7816164E-02  0.1266605E+00
        -11   -1    0    0    0    0  0.00000000000E+00  0.00000000000E+00  0.45593999997E+02  0.45594000000E+02  0.51100000000E-03 0. -1.
         11   -1    0    0    0    0 -0.00000000000E+00 -0.00000000000E+00 -0.45593999997E+02  0.45594000000E+02  0.51100000000E-03 0.  1.
    9900012    2    1    2    0    0  0.10198196248E+02  0.20352510898E+02 -0.22326952562E+02  0.59301941648E+02  0.49999995659E+02 0.  0.
         12    1    1    2    0    0 -0.10198196248E+02 -0.20352510898E+02  0.22326952562E+02  0.31886058352E+02  0.00000000000E+00 0. -1.
         11    1    3    3    0    0  0.18885699204E+02 -0.51599555215E+01 -0.67067466282E+01  0.20694811573E+02  0.51100000000E-03 0. -1.
        -11    1    3    3    0    0 -0.91318775796E+01 -0.69471767777E-03 -0.75367287174E+01  0.11840332286E+02  0.51100000000E-03 0.  1.
        -12    1    3    3    0    0  0.44437462364E+00  0.25513161137E+02 -0.80834772160E+01  0.26766797790E+02  0.00000000000E+00 0.  1.
</event>
<event>
 7    1  0.6230310E-012  0.5930194E+02  0.7816164E-02  0.1266605E+00
        -11   -1    0    0    0    0  0.00000000000E+00  0.00000000000E+00  0.45593999997E+02  0.45594000000E+02  0.51100000000E-03 0.  1.
         11   -1    0    0    0    0 -0.00000000000E+00 -0.00000000000E+00 -0.45593999997E+02  0.45594000000E+02  0.51100000000E-03 0. -1.
    9900012    2    1    2    0    0  0.67321503683E+01 -0.54277089678E+01  0.30691022755E+02  0.59301941119E+02  0.49999994696E+02 0.  0.
         12    1    1    2    0    0 -0.67321503683E+01  0.54277089678E+01 -0.30691022755E+02  0.31886058881E+02  0.00000000000E+00 0. -1.
         11    1    3    3    0    0  0.51728422693E+01  0.78568263185E+01 -0.65867340927E+01  0.11483600621E+02  0.51100000000E-03 0. -1.
        -11    1    3    3    0    0 -0.10177299717E+02  0.22837281739E+01  0.12121201636E+02  0.15991134208E+02  0.51100000000E-03 0.  1.
         12    1    3    3    0    0  0.11736607816E+02 -0.15568263460E+02  0.25156555211E+02  0.31827206291E+02  0.00000000000E+00 0. -1.
</event>
<event>
 7    1  0.6230310E-012  0.5930196E+02  0.7816164E-02  0.1266605E+00
        -11   -1    0    0    0    0  0.00000000000E+00  0.00000000000E+00  0.45593999997E+02  0.45594000000E+02  0.51100000000E-03 0.  1.
         11   -1    0    0    0    0 -0.00000000000E+00 -0.00000000000E+00 -0.45593999997E+02  0.45594000000E+02  0.51100000000E-03 0. -1.
    9900012    2    1    2    0    0  0.26206659973E+02  0.10588509727E+02  0.14758532895E+02  0.59301955115E+02  0.50000020221E+02 0.  0.
         12    1    1    2    0    0 -0.26206659973E+02 -0.10588509727E+02 -0.14758532895E+02  0.31886044885E+02  0.00000000000E+00 0. -1.
         11    1    3    3    0    0  0.95477265062E+01  0.12971317365E+02  0.18131835089E+02  0.24252373071E+02  0.51100000000E-03 0. -1.
        -11    1    3    3    0    0  0.15687460600E+02  0.52535261492E+01  0.10207115491E+02  0.19439165722E+02  0.51100000000E-03 0.  1.
         12    1    3    3    0    0  0.97147286770E+00 -0.76363337874E+01 -0.13580417685E+02  0.15610416322E+02  0.00000000000E+00 0. -1.
</event>
<event>
 7    1  0.6230310E-012  0.5930196E+02  0.7816164E-02  0.1266605E+00
        -11   -1    0    0    0    0  0.00000000000E+00  0.00000000000E+00  0.45593999997E+02  0.45594000000E+02  0.51100000000E-03 0.  1.
         11   -1    0    0    0    0 -0.00000000000E+00 -0.00000000000E+00 -0.45593999997E+02  0.45594000000E+02  0.51100000000E-03 0. -1.
    9900012    2    1    2    0    0 -0.29039448817E+02  0.30976101995E+01  0.12799785236E+02  0.59301964207E+02  0.50000036801E+02 0.  0.
         12    1    1    2    0    0  0.29039448817E+02 -0.30976101995E+01 -0.12799785236E+02  0.31886035793E+02  0.00000000000E+00 0. -1.
         11    1    3    3    0    0 -0.15997867793E+02  0.10315142872E+02 -0.98422637477E+01  0.21429048097E+02  0.51100000000E-03 0. -1.
        -11    1    3    3    0    0 -0.10370670897E+02 -0.13271538990E+02  0.29506095705E+01  0.17099434467E+02  0.51100000000E-03 0.  1.
        -12    1    3    3    0    0 -0.26709101270E+01  0.60540063167E+01  0.19691439413E+02  0.20773481642E+02  0.00000000000E+00 0.  1.
</event>
<event>
 7    1  0.6230310E-012  0.5930195E+02  0.7816164E-02  0.1266605E+00
        -11   -1    0    0    0    0  0.00000000000E+00  0.00000000000E+00  0.45593999997E+02  0.45594000000E+02  0.51100000000E-03 0.  1.
         11   -1    0    0    0    0 -0.00000000000E+00 -0.00000000000E+00 -0.45593999997E+02  0.45594000000E+02  0.51100000000E-03 0. -1.
    9900012    2    1    2    0    0 -0.99724323262E+01  0.76377785556E+01  0.29307599943E+02  0.59301945333E+02  0.50000002381E+02 0.  0.
         12    1    1    2    0    0  0.99724323262E+01 -0.76377785556E+01 -0.29307599943E+02  0.31886054667E+02  0.00000000000E+00 0. -1.
         11    1    3    3    0    0 -0.10570127489E+02  0.10768550882E+02  0.25731685254E+01  0.15307203525E+02  0.51100000000E-03 0. -1.
        -11    1    3    3    0    0 -0.11821105665E+01 -0.23024297437E+01 -0.84080972867E+01  0.87974239616E+01  0.51100000000E-03 0.  1.
        -12    1    3    3    0    0  0.17798057294E+01 -0.82834258249E+00  0.35142528705E+02  0.35197317847E+02  0.00000000000E+00 0.  1.
</event>
<event>
 7    1  0.6230310E-012  0.5930199E+02  0.7816164E-02  0.1266605E+00
        -11   -1    0    0    0    0  0.00000000000E+00  0.00000000000E+00  0.45593999997E+02  0.45594000000E+02  0.51100000000E-03 0. -1.
         11   -1    0    0    0    0 -0.00000000000E+00 -0.00000000000E+00 -0.45593999997E+02  0.45594000000E+02  0.51100000000E-03 0.  1.
    9900012    2    1    2    0    0 -0.80300211593E+01 -0.29429294852E+02  0.92818786473E+01  0.59301985722E+02  0.50000076041E+02 0.  0.
         12    1    1    2    0    0  0.80300211593E+01  0.29429294852E+02 -0.92818786473E+01  0.31886014278E+02  0.00000000000E+00 0. -1.
         11    1    3    3    0    0  0.12702252096E+02 -0.97474332036E+00 -0.25648804427E+01  0.12995227770E+02  0.51100000000E-03 0. -1.
        -11    1    3    3    0    0 -0.10477650869E+02 -0.18285498918E+02 -0.73186478103E+01  0.22309263646E+02  0.51100000000E-03 0.  1.
        -12    1    3    3    0    0 -0.10254622386E+02 -0.10169052614E+02  0.19165406900E+02  0.23997494306E+02  0.00000000000E+00 0.  1.
</event>
<event>
 7    1  0.6230310E-012  0.5930198E+02  0.7816164E-02  0.1266605E+00
        -11   -1    0    0    0    0  0.00000000000E+00  0.00000000000E+00  0.45593999997E+02  0.45594000000E+02  0.51100000000E-03 0. -1.
         11   -1    0    0    0    0 -0.00000000000E+00 -0.00000000000E+00 -0.45593999997E+02  0.45594000000E+02  0.51100000000E-03 0.  1.
    9900012    2    1    2    0    0  0.30300729557E+02  0.20278102245E+01 -0.97196836737E+01  0.59301976781E+02  0.50000059734E+02 0.  0.
         12    1    1    2    0    0 -0.30300729557E+02 -0.20278102245E+01  0.97196836737E+01  0.31886023219E+02  0.00000000000E+00 0. -1.
         11    1    3    3    0    0 -0.26896469448E+01  0.38233977089E+01  0.10201588635E+02  0.11221630080E+02  0.51100000000E-03 0. -1.
        -11    1    3    3    0    0  0.65121301732E+01 -0.12955440990E+02 -0.10270844391E+02  0.17769117463E+02  0.51100000000E-03 0.  1.
         12    1    3    3    0    0  0.26478246329E+02  0.11159853506E+02 -0.96504279169E+01  0.30311229238E+02  0.00000000000E+00 0. -1.
</event>
<event>
 7    1  0.6230310E-012  0.5930191E+02  0.7816164E-02  0.1266605E+00
        -11   -1    0    0    0    0  0.00000000000E+00  0.00000000000E+00  0.45593999997E+02  0.45594000000E+02  0.51100000000E-03 0. -1.
         11   -1    0    0    0    0 -0.00000000000E+00 -0.00000000000E+00 -0.45593999997E+02  0.45594000000E+02  0.51100000000E-03 0.  1.
    9900012    2    1    2    0    0  0.79739087556E+01 -0.26843604134E+02 -0.15249926993E+02  0.59301912485E+02  0.49999942473E+02 0.  0.
         12    1    1    2    0    0 -0.79739087556E+01  0.26843604134E+02  0.15249926993E+02  0.31886087515E+02  0.00000000000E+00 0. -1.
         11    1    3    3    0    0  0.18652845400E+02  0.19807687791E+01  0.76428550812E+00  0.18773284718E+02  0.51100000000E-03 0. -1.
        -11    1    3    3    0    0  0.22051324637E+01 -0.18488181275E+02 -0.15122583199E+02  0.23986829280E+02  0.51100000000E-03 0.  1.
        -12    1    3    3    0    0 -0.12884069109E+02 -0.10336191638E+02 -0.89162930206E+00  0.16541798487E+02  0.00000000000E+00 0.  1.
</event>
<event>
 7    1  0.6230310E-012  0.5930198E+02  0.7816164E-02  0.1266605E+00
        -11   -1    0    0    0    0  0.00000000000E+00  0.00000000000E+00  0.45593999997E+02  0.45594000000E+02  0.51100000000E-03 0. -1.
         11   -1    0    0    0    0 -0.00000000000E+00 -0.00000000000E+00 -0.45593999997E+02  0.45594000000E+02  0.51100000000E-03 0.  1.
    9900012    2    1    2    0    0 -0.11922235119E+02  0.13144392165E+01 -0.29544046755E+02  0.59301982071E+02  0.50000069382E+02 0.  0.
         12    1    1    2    0    0  0.11922235119E+02 -0.13144392165E+01  0.29544046755E+02  0.31886017929E+02  0.00000000000E+00 0. -1.
         11    1    3    3    0    0 -0.15163504278E+02 -0.58893915411E+01 -0.31832410709E+02  0.35747995280E+02  0.51100000000E-03 0. -1.
        -11    1    3    3    0    0  0.13354380266E+01 -0.25678013614E+01 -0.84372788957E+01  0.89199032495E+01  0.51100000000E-03 0.  1.
         12    1    3    3    0    0  0.19058311324E+01  0.97716321190E+01  0.10725642850E+02  0.14634083542E+02  0.00000000000E+00 0. -1.
</event>
<event>
 7    1  0.6230310E-012  0.5930199E+02  0.7816164E-02  0.1266605E+00
        -11   -1    0    0    0    0  0.00000000000E+00  0.00000000000E+00  0.45593999997E+02  0.45594000000E+02  0.51100000000E-03 0.  1.
         11   -1    0    0    0    0 -0.00000000000E+00 -0.00000000000E+00 -0.45593999997E+02  0.45594000000E+02  0.51100000000E-03 0. -1.
    9900012    2    1    2    0    0  0.20242348703E+02 -0.81965849961E+01  0.23233181062E+02  0.59301993840E+02  0.50000090845E+02 0.  0.
         12    1    1    2    0    0 -0.20242348703E+02  0.81965849961E+01 -0.23233181062E+02  0.31886006160E+02  0.00000000000E+00 0. -1.
         11    1    3    3    0    0  0.10559932763E+02 -0.25718323623E+01 -0.99469193952E+01  0.14733217822E+02  0.51100000000E-03 0. -1.
        -11    1    3    3    0    0  0.63364516602E-01  0.54758660667E+01 -0.24728406521E+01  0.60086658581E+01  0.51100000000E-03 0.  1.
        -12    1    3    3    0    0  0.96190514229E+01 -0.11100618701E+02  0.35652941109E+02  0.38560110160E+02  0.00000000000E+00 0.  1.
</event>
<event>
 7    1  0.6230310E-012  0.5930197E+02  0.7816164E-02  0.1266605E+00
        -11   -1    0    0    0    0  0.00000000000E+00  0.00000000000E+00  0.45593999997E+02  0.45594000000E+02  0.51100000000E-03 0.  1.
         11   -1    0    0    0    0 -0.00000000000E+00 -0.00000000000E+00 -0.45593999997E+02  0.45594000000E+02  0.51100000000E-03 0. -1.
    9900012    2    1    2    0    0 -0.13386352357E+02  0.25309616230E+02  0.14033820445E+02  0.59301965135E+02  0.50000038494E+02 0.  0.
         12    1    1    2    0    0  0.13386352357E+02 -0.25309616230E+02 -0.14033820445E+02  0.31886034865E+02  0.00000000000E+00 0. -1.
         11    1    3    3    0    0  0.23189511082E+01  0.21755089229E+02  0.59251637529E+01  0.22666473201E+02  0.51100000000E-03 0.  1.
        -11    1    3    3    0    0 -0.16253238082E+02 -0.22816559154E+01  0.18483800969E+02  0.24718911797E+02  0.51100000000E-03 0. -1.
         12    1    3    3    0    0  0.54793461739E+00  0.58361829167E+01 -0.10375144278E+02  0.11916580137E+02  0.00000000000E+00 0. -1.
</event>
<event>
 7    1  0.6230310E-012  0.5930195E+02  0.7816164E-02  0.1266605E+00
        -11   -1    0    0    0    0  0.00000000000E+00  0.00000000000E+00  0.45593999997E+02  0.45594000000E+02  0.51100000000E-03 0.  1.
         11   -1    0    0    0    0 -0.00000000000E+00 -0.00000000000E+00 -0.45593999997E+02  0.45594000000E+02  0.51100000000E-03 0. -1.
    9900012    2    1    2    0    0  0.17256133595E+01  0.30683534429E+02  0.85007877434E+01  0.59301946327E+02  0.50000004194E+02 0.  0.
         12    1    1    2    0    0 -0.17256133595E+01 -0.30683534429E+02 -0.85007877434E+01  0.31886053673E+02  0.00000000000E+00 0. -1.
         11    1    3    3    0    0  0.52010716528E+01  0.28426441823E+02 -0.31768514864E+01  0.29072428978E+02  0.51100000000E-03 0. -1.
        -11    1    3    3    0    0 -0.92580448060E+01  0.12405317849E+02  0.32243678443E+01  0.15811383646E+02  0.51100000000E-03 0.  1.
         12    1    3    3    0    0  0.57825865127E+01 -0.10148225243E+02  0.84532713855E+01  0.14418133703E+02  0.00000000000E+00 0. -1.
</event>
<event>
 7    1  0.6230310E-012  0.5930165E+02  0.7816164E-02  0.1266606E+00
        -11   -1    0    0    0    0  0.00000000000E+00  0.00000000000E+00  0.45593999997E+02  0.45594000000E+02  0.51100000000E-03 0. -1.
         11   -1    0    0    0    0 -0.00000000000E+00 -0.00000000000E+00 -0.45593999997E+02  0.45594000000E+02  0.51100000000E-03 0.  1.
    9900012    2    1    2    0    0 -0.18084001499E+02  0.12298517342E+02 -0.23204622015E+02  0.59301653049E+02  0.49999469321E+02 0.  0.
         12    1    1    2    0    0  0.18084001499E+02 -0.12298517342E+02  0.23204622015E+02  0.31886346951E+02  0.00000000000E+00 0. -1.
         11    1    3    3    0    0 -0.78418887168E+00 -0.55481916734E+01  0.32436663460E+00  0.56127174351E+01  0.51100000000E-03 0. -1.
        -11    1    3    3    0    0 -0.14809662754E+01 -0.99749258690E+01 -0.18804416714E+02  0.21337724701E+02  0.51100000000E-03 0.  1.
         12    1    3    3    0    0 -0.15818846352E+02  0.27821634884E+02 -0.47245719358E+01  0.32351210913E+02  0.00000000000E+00 0. -1.
</event>
<event>
 7    1  0.6230310E-012  0.5930193E+02  0.7816164E-02  0.1266605E+00
        -11   -1    0    0    0    0  0.00000000000E+00  0.00000000000E+00  0.45593999997E+02  0.45594000000E+02  0.51100000000E-03 0.  1.
         11   -1    0    0    0    0 -0.00000000000E+00 -0.00000000000E+00 -0.45593999997E+02  0.45594000000E+02  0.51100000000E-03 0. -1.
    9900012    2    1    2    0    0  0.10554984531E+02  0.17015043808E+02  0.24815358816E+02  0.59301930198E+02  0.49999974778E+02 0.  0.
         12    1    1    2    0    0 -0.10554984531E+02 -0.17015043808E+02 -0.24815358816E+02  0.31886069802E+02  0.00000000000E+00 0. -1.
         11    1    3    3    0    0 -0.80418236611E+00 -0.50090567834E+01 -0.52287669505E+01  0.72854212796E+01  0.51100000000E-03 0.  1.
        -11    1    3    3    0    0  0.14440450306E+02 -0.25292260056E+01  0.22994032862E+01  0.14839502854E+02  0.51100000000E-03 0. -1.
        -12    1    3    3    0    0 -0.30812834089E+01  0.24553326597E+02  0.27744722480E+02  0.37177006065E+02  0.00000000000E+00 0.  1.
</event>
<event>
 7    1  0.6230310E-012  0.5930195E+02  0.7816164E-02  0.1266605E+00
        -11   -1    0    0    0    0  0.00000000000E+00  0.00000000000E+00  0.45593999997E+02  0.45594000000E+02  0.51100000000E-03 0. -1.
         11   -1    0    0    0    0 -0.00000000000E+00 -0.00000000000E+00 -0.45593999997E+02  0.45594000000E+02  0.51100000000E-03 0.  1.
    9900012    2    1    2    0    0 -0.17623629445E+02  0.25666919357E+02  0.68801897403E+01  0.59301951719E+02  0.50000014028E+02 0.  0.
         12    1    1    2    0    0  0.17623629445E+02 -0.25666919357E+02 -0.68801897403E+01  0.31886048281E+02  0.00000000000E+00 0. -1.
         11    1    3    3    0    0 -0.12901709343E+01  0.61922877216E+01 -0.12487664696E+02  0.13998240535E+02  0.51100000000E-03 0. -1.
        -11    1    3    3    0    0  0.83249129913E+01  0.10756365994E+02  0.16232897929E+01  0.13698125993E+02  0.51100000000E-03 0.  1.
         12    1    3    3    0    0 -0.24658371502E+02  0.87182656413E+01  0.17744564643E+02  0.31605585191E+02  0.00000000000E+00 0. -1.
</event>
<event>
 7    1  0.6230310E-012  0.5930204E+02  0.7816164E-02  0.1266604E+00
        -11   -1    0    0    0    0  0.00000000000E+00  0.00000000000E+00  0.45593999997E+02  0.45594000000E+02  0.51100000000E-03 0.  1.
         11   -1    0    0    0    0 -0.00000000000E+00 -0.00000000000E+00 -0.45593999997E+02  0.45594000000E+02  0.51100000000E-03 0. -1.
    9900012    2    1    2    0    0  0.27254501957E+02  0.16549771171E+02  0.10856232595E+00  0.59302037752E+02  0.50000170930E+02 0.  0.
         12    1    1    2    0    0 -0.27254501957E+02 -0.16549771171E+02 -0.10856232595E+00  0.31885962248E+02  0.00000000000E+00 0. -1.
         11    1    3    3    0    0  0.70542992921E+01  0.19391139221E+01  0.90522705476E+01  0.11639025029E+02  0.51100000000E-03 0.  1.
        -11    1    3    3    0    0  0.10633954351E+02  0.39475335830E+01 -0.24205395649E+02  0.26731352104E+02  0.51100000000E-03 0. -1.
         12    1    3    3    0    0  0.95662483132E+01  0.10663123666E+02  0.15261687427E+02  0.20931660618E+02  0.00000000000E+00 0. -1.
</event>
<event>
 7    1  0.6230310E-012  0.5930193E+02  0.7816164E-02  0.1266605E+00
        -11   -1    0    0    0    0  0.00000000000E+00  0.00000000000E+00  0.45593999997E+02  0.45594000000E+02  0.51100000000E-03 0. -1.
         11   -1    0    0    0    0 -0.00000000000E+00 -0.00000000000E+00 -0.45593999997E+02  0.45594000000E+02  0.51100000000E-03 0.  1.
    9900012    2    1    2    0    0 -0.14710909216E+02  0.28057157926E+02 -0.36203131356E+01  0.59301927366E+02  0.49999969613E+02 0.  0.
         12    1    1    2    0    0  0.14710909216E+02 -0.28057157926E+02  0.36203131356E+01  0.31886072634E+02  0.00000000000E+00 0. -1.
         11    1    3    3    0    0 -0.23843119932E+02  0.58015910581E+01  0.55736704399E+01  0.25163835743E+02  0.51100000000E-03 0. -1.
        -11    1    3    3    0    0 -0.71459490126E+01  0.99216525556E+01 -0.15221185123E+01  0.12321551110E+02  0.51100000000E-03 0.  1.
         12    1    3    3    0    0  0.16278159728E+02  0.12333914312E+02 -0.76718650633E+01  0.21816540513E+02  0.00000000000E+00 0. -1.
</event>
<event>
 7    1  0.6230310E-012  0.5930222E+02  0.7816164E-02  0.1266604E+00
        -11   -1    0    0    0    0  0.00000000000E+00  0.00000000000E+00  0.45593999997E+02  0.45594000000E+02  0.51100000000E-03 0.  1.
         11   -1    0    0    0    0 -0.00000000000E+00 -0.00000000000E+00 -0.45593999997E+02  0.45594000000E+02  0.51100000000E-03 0. -1.
    9900012    2    1    2    0    0 -0.99555247181E+01  0.24609916467E+02  0.17661897071E+02  0.59302218387E+02  0.50000500363E+02 0.  0.
         12    1    1    2    0    0  0.99555247181E+01 -0.24609916467E+02 -0.17661897071E+02  0.31885781613E+02  0.00000000000E+00 0. -1.
         11    1    3    3    0    0  0.20368727763E+01 -0.92350965724E+01 -0.23436695467E+01  0.97431333057E+01  0.51100000000E-03 0. -1.
        -11    1    3    3    0    0 -0.12428546722E+02  0.13480015363E+01  0.83441855517E+01  0.15030346454E+02  0.51100000000E-03 0.  1.
         12    1    3    3    0    0  0.43614922732E+00  0.32497011503E+02  0.11661381066E+02  0.34528738627E+02  0.00000000000E+00 0. -1.
</event>
<event>
 7    1  0.6230310E-012  0.5930191E+02  0.7816164E-02  0.1266605E+00
        -11   -1    0    0    0    0  0.00000000000E+00  0.00000000000E+00  0.45593999997E+02  0.45594000000E+02  0.51100000000E-03 0.  1.
         11   -1    0    0    0    0 -0.00000000000E+00 -0.00000000000E+00 -0.45593999997E+02  0.45594000000E+02  0.51100000000E-03 0. -1.
    9900012    2    1    2    0    0  0.99138688412E+01  0.21770888001E+02  0.21082364509E+02  0.59301914429E+02  0.49999946020E+02 0.  0.
         12    1    1    2    0    0 -0.99138688412E+01 -0.21770888001E+02 -0.21082364509E+02  0.31886085571E+02  0.00000000000E+00 0. -1.
         11    1    3    3    0    0  0.47695276763E+00  0.12384099239E+02 -0.88525229837E+01  0.15230251519E+02  0.51100000000E-03 0. -1.
        -11    1    3    3    0    0  0.10931184397E+02 -0.25810721470E+01 -0.59325905379E+00  0.11247430031E+02  0.51100000000E-03 0.  1.
        -12    1    3    3    0    0 -0.14942683230E+01  0.11967860909E+02  0.30528146546E+02  0.32824232879E+02  0.00000000000E+00 0.  1.
</event>
<event>
 7    1  0.6230310E-012  0.5930197E+02  0.7816164E-02  0.1266605E+00
        -11   -1    0    0    0    0  0.00000000000E+00  0.00000000000E+00  0.45593999997E+02  0.45594000000E+02  0.51100000000E-03 0. -1.
         11   -1    0    0    0    0 -0.00000000000E+00 -0.00000000000E+00 -0.45593999997E+02  0.45594000000E+02  0.51100000000E-03 0.  1.
    9900012    2    1    2    0    0 -0.25988694428E+02  0.16595973656E+01 -0.18399786211E+02  0.59301974313E+02  0.50000055233E+02 0.  0.
         12    1    1    2    0    0  0.25988694428E+02 -0.16595973656E+01  0.18399786211E+02  0.31886025687E+02  0.00000000000E+00 0. -1.
         11    1    3    3    0    0  0.11130810736E+01  0.52295904781E+01  0.11732677491E+02  0.12893536652E+02  0.51100000000E-03 0. -1.
        -11    1    3    3    0    0  0.29667296553E+01 -0.27030409936E+01 -0.27127537871E+00  0.40226242744E+01  0.51100000000E-03 0.  1.
        -12    1    3    3    0    0 -0.30068505157E+02 -0.86695211898E+00 -0.29861188323E+02  0.42385813386E+02  0.00000000000E+00 0.  1.
</event>
<event>
 7    1  0.6230310E-012  0.5930201E+02  0.7816164E-02  0.1266605E+00
        -11   -1    0    0    0    0  0.00000000000E+00  0.00000000000E+00  0.45593999997E+02  0.45594000000E+02  0.51100000000E-03 0.  1.
         11   -1    0    0    0    0 -0.00000000000E+00 -0.00000000000E+00 -0.45593999997E+02  0.45594000000E+02  0.51100000000E-03 0. -1.
    9900012    2    1    2    0    0 -0.10647673017E+02 -0.20189294703E+01  0.29987791269E+02  0.59302005550E+02  0.50000112202E+02 0.  0.
         12    1    1    2    0    0  0.10647673017E+02  0.20189294703E+01 -0.29987791269E+02  0.31885994450E+02  0.00000000000E+00 0. -1.
         11    1    3    3    0    0  0.34392335562E+01  0.13990162817E+02  0.10436445800E+02  0.17789670719E+02  0.51100000000E-03 0. -1.
        -11    1    3    3    0    0 -0.32234457472E+01 -0.13535008994E+02  0.25375971145E+02  0.28940058445E+02  0.51100000000E-03 0.  1.
         12    1    3    3    0    0 -0.10863460826E+02 -0.24740832927E+01 -0.58246256768E+01  0.12572276386E+02  0.00000000000E+00 0. -1.
</event>
<event>
 7    1  0.6230310E-012  0.5930186E+02  0.7816164E-02  0.1266605E+00
        -11   -1    0    0    0    0  0.00000000000E+00  0.00000000000E+00  0.45593999997E+02  0.45594000000E+02  0.51100000000E-03 0. -1.
         11   -1    0    0    0    0 -0.00000000000E+00 -0.00000000000E+00 -0.45593999997E+02  0.45594000000E+02  0.51100000000E-03 0.  1.
    9900012    2    1    2    0    0 -0.18673076094E+02 -0.68794858833E+01 -0.24914151806E+02  0.59301857915E+02  0.49999842951E+02 0.  0.
         12    1    1    2    0    0  0.18673076094E+02  0.68794858833E+01  0.24914151806E+02  0.31886142085E+02  0.00000000000E+00 0. -1.
         11    1    3    3    0    0  0.56699100540E+01 -0.19959153808E+02 -0.96050882569E+01  0.22864238921E+02  0.51100000000E-03 0. -1.
        -11    1    3    3    0    0  0.28429157460E+01  0.27602070177E+01 -0.23011198953E+01  0.45821464134E+01  0.51100000000E-03 0.  1.
        -12    1    3    3    0    0 -0.27185901894E+02  0.10319460907E+02 -0.13007943654E+02  0.31855472581E+02  0.00000000000E+00 0.  1.
</event>
<event>
 7    1  0.6230310E-012  0.5930194E+02  0.7816164E-02  0.1266605E+00
        -11   -1    0    0    0    0  0.00000000000E+00  0.00000000000E+00  0.45593999997E+02  0.45594000000E+02  0.51100000000E-03 0. -1.
         11   -1    0    0    0    0 -0.00000000000E+00 -0.00000000000E+00 -0.45593999997E+02  0.45594000000E+02  0.51100000000E-03 0.  1.
    9900012    2    1    2    0    0 -0.59804578992E+00  0.25499595169E+02  0.19134624975E+02  0.59301939010E+02  0.49999990848E+02 0.  0.
         12    1    1    2    0    0  0.59804578992E+00 -0.25499595169E+02 -0.19134624975E+02  0.31886060990E+02  0.00000000000E+00 0. -1.
         11    1    3    3    0    0  0.40802887642E-01 -0.10194889856E+02 -0.32642674438E+01  0.10704806690E+02  0.51100000000E-03 0. -1.
        -11    1    3    3    0    0 -0.75512600511E+01  0.81133095336E+01 -0.18379699638E+01  0.11235010182E+02  0.51100000000E-03 0.  1.
         12    1    3    3    0    0  0.69124113735E+01  0.27581175491E+02  0.24236862383E+02  0.37362122138E+02  0.00000000000E+00 0. -1.
</event>
<event>
 7    1  0.6230310E-012  0.5930168E+02  0.7816164E-02  0.1266606E+00
        -11   -1    0    0    0    0  0.00000000000E+00  0.00000000000E+00  0.45593999997E+02  0.45594000000E+02  0.51100000000E-03 0.  1.
         11   -1    0    0    0    0 -0.00000000000E+00 -0.00000000000E+00 -0.45593999997E+02  0.45594000000E+02  0.51100000000E-03 0. -1.
    9900012    2    1    2    0    0 -0.28678105957E+02  0.13868964072E+02  0.13984782576E+01  0.59301675860E+02  0.49999510924E+02 0.  0.
         12    1    1    2    0    0  0.28678105957E+02 -0.13868964072E+02 -0.13984782576E+01  0.31886324140E+02  0.00000000000E+00 0. -1.
         11    1    3    3    0    0 -0.26140892775E+01 -0.61161372029E+01 -0.41619837579E+01  0.78461905468E+01  0.51100000000E-03 0. -1.
        -11    1    3    3    0    0 -0.18697623591E+02  0.11933116536E+02 -0.15959904805E+02  0.27326158893E+02  0.51100000000E-03 0.  1.
         12    1    3    3    0    0 -0.73663930893E+01  0.80519847389E+01  0.21520366821E+02  0.24129326420E+02  0.00000000000E+00 0. -1.
</event>
<event>
 7    1  0.6230310E-012  0.5930194E+02  0.7816164E-02  0.1266605E+00
        -11   -1    0    0    0    0  0.00000000000E+00  0.00000000000E+00  0.45593999997E+02  0.45594000000E+02  0.51100000000E-03 0. -1.
         11   -1    0    0    0    0 -0.00000000000E+00 -0.00000000000E+00 -0.45593999997E+02  0.45594000000E+02  0.51100000000E-03 0.  1.
    9900012    2    1    2    0    0  0.31346333065E+02 -0.56736349136E+01  0.13922516395E+01  0.59301935733E+02  0.49999984873E+02 0.  0.
         12    1    1    2    0    0 -0.31346333065E+02  0.56736349136E+01 -0.13922516395E+01  0.31886064267E+02  0.00000000000E+00 0. -1.
         11    1    3    3    0    0  0.22133088688E+02 -0.16362980029E+02 -0.75550763392E+01  0.28542948499E+02  0.51100000000E-03 0. -1.
        -11    1    3    3    0    0  0.14726001426E+02 -0.25341958793E+01  0.29665481663E+01  0.15234095806E+02  0.51100000000E-03 0.  1.
         12    1    3    3    0    0 -0.55127570479E+01  0.13223540994E+02  0.59807798124E+01  0.15524891428E+02  0.00000000000E+00 0. -1.
</event>
<event>
 7    1  0.6230310E-012  0.5930193E+02  0.7816164E-02  0.1266605E+00
        -11   -1    0    0    0    0  0.00000000000E+00  0.00000000000E+00  0.45593999997E+02  0.45594000000E+02  0.51100000000E-03 0.  1.
         11   -1    0    0    0    0 -0.00000000000E+00 -0.00000000000E+00 -0.45593999997E+02  0.45594000000E+02  0.51100000000E-03 0. -1.
    9900012    2    1    2    0    0  0.28412010562E+01 -0.35536233469E+01  0.31559801248E+02  0.59301925969E+02  0.49999967065E+02 0.  0.
         12    1    1    2    0    0 -0.28412010562E+01  0.35536233469E+01 -0.31559801248E+02  0.31886074031E+02  0.00000000000E+00 0. -1.
         11    1    3    3    0    0 -0.63533887023E+00 -0.35432436400E+01  0.10716406709E+01  0.37558813827E+01  0.51100000000E-03 0. -1.
        -11    1    3    3    0    0 -0.12915294441E+02  0.89483709611E+01  0.33142292993E+02  0.36678191864E+02  0.51100000000E-03 0.  1.
         12    1    3    3    0    0  0.16391834367E+02 -0.89587506680E+01 -0.26541324160E+01  0.18867852722E+02  0.00000000000E+00 0. -1.
</event>
<event>
 7    1  0.6230310E-012  0.5930197E+02  0.7816164E-02  0.1266605E+00
        -11   -1    0    0    0    0  0.00000000000E+00  0.00000000000E+00  0.45593999997E+02  0.45594000000E+02  0.51100000000E-03 0.  1.
         11   -1    0    0    0    0 -0.00000000000E+00 -0.00000000000E+00 -0.45593999997E+02  0.45594000000E+02  0.51100000000E-03 0. -1.
    9900012    2    1    2    0    0 -0.24729535400E+02 -0.71994235191E+01  0.18797266889E+02  0.59301970730E+02  0.50000048699E+02 0.  0.
         12    1    1    2    0    0  0.24729535400E+02  0.71994235191E+01 -0.18797266889E+02  0.31886029270E+02  0.00000000000E+00 0. -1.
         11    1    3    3    0    0  0.22691485888E+01  0.44198643280E+01 -0.97046110452E+01  0.10902463565E+02  0.51100000000E-03 0. -1.
        -11    1    3    3    0    0 -0.22590615600E+01 -0.65997017267E+01 -0.33655891323E+01  0.77451024836E+01  0.51100000000E-03 0.  1.
        -12    1    3    3    0    0 -0.24739622429E+02 -0.50195861204E+01  0.31867467066E+02  0.40654404681E+02  0.00000000000E+00 0.  1.
</event>
<event>
 7    1  0.6230310E-012  0.5930196E+02  0.7816164E-02  0.1266605E+00
        -11   -1    0    0    0    0  0.00000000000E+00  0.00000000000E+00  0.45593999997E+02  0.45594000000E+02  0.51100000000E-03 0. -1.
         11   -1    0    0    0    0 -0.00000000000E+00 -0.00000000000E+00 -0.45593999997E+02  0.45594000000E+02  0.51100000000E-03 0.  1.
    9900012    2    1    2    0    0  0.14086445045E+02  0.28893684004E+01 -0.28459505121E+02  0.59301955788E+02  0.50000021447E+02 0.  0.
         12    1    1    2    0    0 -0.14086445045E+02 -0.28893684004E+01  0.28459505121E+02  0.31886044212E+02  0.00000000000E+00 0. -1.
         11    1    3    3    0    0  0.16012535190E+02 -0.29517800900E+00 -0.58589909458E+01  0.17053333645E+02  0.51100000000E-03 0. -1.
        -11    1    3    3    0    0  0.15518371927E+02  0.41536191706E+01 -0.36516131830E+01  0.16474425592E+02  0.51100000000E-03 0.  1.
         12    1    3    3    0    0 -0.17444462072E+02 -0.96907276123E+00 -0.18948900992E+02  0.25774196550E+02  0.00000000000E+00 0. -1.
</event>
<event>
 7    1  0.6230310E-012  0.5930194E+02  0.7816164E-02  0.1266605E+00
        -11   -1    0    0    0    0  0.00000000000E+00  0.00000000000E+00  0.45593999997E+02  0.45594000000E+02  0.51100000000E-03 0.  1.
         11   -1    0    0    0    0 -0.00000000000E+00 -0.00000000000E+00 -0.45593999997E+02  0.45594000000E+02  0.51100000000E-03 0. -1.
    9900012    2    1    2    0    0  0.30908807630E+02  0.45985693994E+01  0.63418944952E+01  0.59301939481E+02  0.49999991708E+02 0.  0.
         12    1    1    2    0    0 -0.30908807630E+02 -0.45985693994E+01 -0.63418944952E+01  0.31886060519E+02  0.00000000000E+00 0. -1.
         11    1    3    3    0    0  0.54617400563E+01  0.74949817704E+01  0.97121419716E+01  0.13428740005E+02  0.51100000000E-03 0.  1.
        -11    1    3    3    0    0  0.86548516573E+01 -0.70959211793E+01  0.16235837453E+02  0.19719558126E+02  0.51100000000E-03 0. -1.
         12    1    3    3    0    0  0.16792215916E+02  0.41995088083E+01 -0.19606084930E+02  0.26153641351E+02  0.00000000000E+00 0. -1.
</event>
<event>
 7    1  0.6230310E-012  0.5930195E+02  0.7816164E-02  0.1266605E+00
        -11   -1    0    0    0    0  0.00000000000E+00  0.00000000000E+00  0.45593999997E+02  0.45594000000E+02  0.51100000000E-03 0. -1.
         11   -1    0    0    0    0 -0.00000000000E+00 -0.00000000000E+00 -0.45593999997E+02  0.45594000000E+02  0.51100000000E-03 0.  1.
    9900012    2    1    2    0    0 -0.16334361390E+02 -0.24360655913E+02 -0.12508684999E+02  0.59301951029E+02  0.50000012769E+02 0.  0.
         12    1    1    2    0    0  0.16334361390E+02  0.24360655913E+02  0.12508684999E+02  0.31886048971E+02  0.00000000000E+00 0. -1.
         11    1    3    3    0    0 -0.99096998906E+01  0.83751621261E+00  0.79882817353E+01  0.12756027229E+02  0.51100000000E-03 0. -1.
        -11    1    3    3    0    0 -0.10276377557E+01 -0.58373110558E+01  0.90456130575E+01  0.10814497472E+02  0.51100000000E-03 0.  1.
        -12    1    3    3    0    0 -0.53970237438E+01 -0.19360861070E+02 -0.29542579792E+02  0.35731426328E+02  0.00000000000E+00 0.  1.
</event>
<event>
 7    1  0.6230310E-012  0.5930194E+02  0.7816164E-02  0.1266605E+00
        -11   -1    0    0    0    0  0.00000000000E+00  0.00000000000E+00  0.45593999997E+02  0.45594000000E+02  0.51100000000E-03 0. -1.
         11   -1    0    0    0    0 -0.00000000000E+00 -0.00000000000E+00 -0.45593999997E+02  0.45594000000E+02  0.51100000000E-03 0.  1.
    9900012    2    1    2    0    0  0.83152651576E+01 -0.27326083774E+02 -0.14172579972E+02  0.59301944864E+02  0.50000001525E+02 0.  0.
         12    1    1    2    0    0 -0.83152651576E+01  0.27326083774E+02  0.14172579972E+02  0.31886055136E+02  0.00000000000E+00 0. -1.
         11    1    3    3    0    0  0.53764793073E+01 -0.19880193447E+02 -0.70339431727E+01  0.21762467186E+02  0.51100000000E-03 0. -1.
        -11    1    3    3    0    0 -0.52653404492E+01  0.68826997084E+01 -0.16443348764E+02  0.18587067659E+02  0.51100000000E-03 0.  1.
         12    1    3    3    0    0  0.82041262995E+01 -0.14328590036E+02  0.93047119650E+01  0.18952410018E+02  0.00000000000E+00 0. -1.
</event>
<event>
 7    1  0.6230310E-012  0.5930195E+02  0.7816164E-02  0.1266605E+00
        -11   -1    0    0    0    0  0.00000000000E+00  0.00000000000E+00  0.45593999997E+02  0.45594000000E+02  0.51100000000E-03 0. -1.
         11   -1    0    0    0    0 -0.00000000000E+00 -0.00000000000E+00 -0.45593999997E+02  0.45594000000E+02  0.51100000000E-03 0.  1.
    9900012    2    1    2    0    0 -0.75525209254E+01  0.25822563237E+02  0.17113587063E+02  0.59301949655E+02  0.50000010262E+02 0.  0.
         12    1    1    2    0    0  0.75525209254E+01 -0.25822563237E+02 -0.17113587063E+02  0.31886050345E+02  0.00000000000E+00 0. -1.
         11    1    3    3    0    0 -0.50927100815E+01  0.24716052718E+02 -0.16104384638E+01  0.25286606539E+02  0.51100000000E-03 0. -1.
        -11    1    3    3    0    0  0.42909383270E+01  0.87310295291E+01 -0.28679211535E+01  0.10142386325E+02  0.51100000000E-03 0.  1.
         12    1    3    3    0    0 -0.67507491709E+01 -0.76245190098E+01  0.21591946680E+02  0.23872956791E+02  0.00000000000E+00 0. -1.
</event>
<event>
 7    1  0.6230310E-012  0.5930189E+02  0.7816164E-02  0.1266605E+00
        -11   -1    0    0    0    0  0.00000000000E+00  0.00000000000E+00  0.45593999997E+02  0.45594000000E+02  0.51100000000E-03 0.  1.
         11   -1    0    0    0    0 -0.00000000000E+00 -0.00000000000E+00 -0.45593999997E+02  0.45594000000E+02  0.51100000000E-03 0. -1.
    9900012    2    1    2    0    0  0.18734070329E+02  0.10743723139E+02  0.23459132182E+02  0.59301892355E+02  0.49999905762E+02 0.  0.
         12    1    1    2    0    0 -0.18734070329E+02 -0.10743723139E+02 -0.23459132182E+02  0.31886107645E+02  0.00000000000E+00 0. -1.
         11    1    3    3    0    0  0.19334022323E+01  0.12679451832E+01  0.32391473265E+01  0.39796739620E+01  0.51100000000E-03 0. -1.
        -11    1    3    3    0    0 -0.14417568500E+02  0.31578728180E+01  0.18164466650E+02  0.23404834781E+02  0.51100000000E-03 0.  1.
         12    1    3    3    0    0  0.31218236597E+02  0.63179051378E+01  0.20555182054E+01  0.31917383612E+02  0.00000000000E+00 0. -1.
</event>
<event>
 7    1  0.6230310E-012  0.5930194E+02  0.7816164E-02  0.1266605E+00
        -11   -1    0    0    0    0  0.00000000000E+00  0.00000000000E+00  0.45593999997E+02  0.45594000000E+02  0.51100000000E-03 0.  1.
         11   -1    0    0    0    0 -0.00000000000E+00 -0.00000000000E+00 -0.45593999997E+02  0.45594000000E+02  0.51100000000E-03 0. -1.
    9900012    2    1    2    0    0  0.26171597660E+02  0.14051726892E+02  0.11589537058E+02  0.59301938438E+02  0.49999989805E+02 0.  0.
         12    1    1    2    0    0 -0.26171597660E+02 -0.14051726892E+02 -0.11589537058E+02  0.31886061562E+02  0.00000000000E+00 0. -1.
         11    1    3    3    0    0  0.87633694746E+01  0.55585712546E+01 -0.12325176663E+02  0.16112241898E+02  0.51100000000E-03 0. -1.
        -11    1    3    3    0    0  0.19365224924E+02 -0.67473828023E+01  0.15187310787E+02  0.25518493690E+02  0.51100000000E-03 0.  1.
         12    1    3    3    0    0 -0.19569967378E+01  0.15240538440E+02  0.87274029343E+01  0.17671202849E+02  0.00000000000E+00 0. -1.
</event>
<event>
 7    1  0.6230310E-012  0.5930196E+02  0.7816164E-02  0.1266605E+00
        -11   -1    0    0    0    0  0.00000000000E+00  0.00000000000E+00  0.45593999997E+02  0.45594000000E+02  0.51100000000E-03 0. -1.
         11   -1    0    0    0    0 -0.00000000000E+00 -0.00000000000E+00 -0.45593999997E+02  0.45594000000E+02  0.51100000000E-03 0.  1.
    9900012    2    1    2    0    0  0.18392859564E+02  0.33274408321E+01 -0.25833123964E+02  0.59301961689E+02  0.50000032209E+02 0.  0.
         12    1    1    2    0    0 -0.18392859564E+02 -0.33274408321E+01  0.25833123964E+02  0.31886038311E+02  0.00000000000E+00 0. -1.
         11    1    3    3    0    0 -0.17896117546E+01 -0.14650989118E+02 -0.10311909880E+02  0.18005268062E+02  0.51100000000E-03 0. -1.
        -11    1    3    3    0    0  0.93868163553E+01  0.56936034277E+01 -0.21290647184E+02  0.23954563220E+02  0.51100000000E-03 0.  1.
         12    1    3    3    0    0  0.10795654963E+02  0.12284826522E+02  0.57694330993E+01  0.17342130407E+02  0.00000000000E+00 0. -1.
</event>
<event>
 7    1  0.6230310E-012  0.5930193E+02  0.7816164E-02  0.1266605E+00
        -11   -1    0    0    0    0  0.00000000000E+00  0.00000000000E+00  0.45593999997E+02  0.45594000000E+02  0.51100000000E-03 0. -1.
         11   -1    0    0    0    0 -0.00000000000E+00 -0.00000000000E+00 -0.45593999997E+02  0.45594000000E+02  0.51100000000E-03 0.  1.
    9900012    2    1    2    0    0  0.12109872143E+02 -0.10779291080E+02 -0.27456858388E+02  0.59301934202E+02  0.49999982081E+02 0.  0.
         12    1    1    2    0    0 -0.12109872143E+02  0.10779291080E+02  0.27456858388E+02  0.31886065798E+02  0.00000000000E+00 0. -1.
         11    1    3    3    0    0  0.20184912721E+01 -0.88571742995E+01  0.11633182221E+02  0.14759904215E+02  0.51100000000E-03 0. -1.
        -11    1    3    3    0    0 -0.19983313082E+00 -0.68188029250E+01 -0.46255729398E+01  0.82420829826E+01  0.51100000000E-03 0.  1.
        -12    1    3    3    0    0  0.10291214002E+02  0.48966861446E+01 -0.34464467669E+02  0.36299947005E+02  0.00000000000E+00 0.  1.
</event>
<event>
 7    1  0.6230310E-012  0.5930195E+02  0.7816164E-02  0.1266605E+00
        -11   -1    0    0    0    0  0.00000000000E+00  0.00000000000E+00  0.45593999997E+02  0.45594000000E+02  0.51100000000E-03 0.  1.
         11   -1    0    0    0    0 -0.00000000000E+00 -0.00000000000E+00 -0.45593999997E+02  0.45594000000E+02  0.51100000000E-03 0. -1.
    9900012    2    1    2    0    0 -0.63267202365E+01  0.45519934966E+01  0.30918798540E+02  0.59301950748E+02  0.50000012256E+02 0.  0.
         12    1    1    2    0    0  0.63267202365E+01 -0.45519934966E+01 -0.30918798540E+02  0.31886049252E+02  0.00000000000E+00 0. -1.
         11    1    3    3    0    0  0.78798022325E+01 -0.38415971013E+01  0.12870449219E+02  0.15572334920E+02  0.51100000000E-03 0. -1.
        -11    1    3    3    0    0  0.28573051377E+01  0.13441359680E+02  0.21583820516E+02  0.25587021144E+02  0.51100000000E-03 0.  1.
         12    1    3    3    0    0 -0.17063827607E+02 -0.50477690818E+01 -0.35354711945E+01  0.18142594684E+02  0.00000000000E+00 0. -1.
</event>
<event>
 7    1  0.6230310E-012  0.5930195E+02  0.7816164E-02  0.1266605E+00
        -11   -1    0    0    0    0  0.00000000000E+00  0.00000000000E+00  0.45593999997E+02  0.45594000000E+02  0.51100000000E-03 0. -1.
         11   -1    0    0    0    0 -0.00000000000E+00 -0.00000000000E+00 -0.45593999997E+02  0.45594000000E+02  0.51100000000E-03 0.  1.
    9900012    2    1    2    0    0 -0.31217708092E+02  0.81591424995E-01 -0.64937204601E+01  0.59301947233E+02  0.50000005845E+02 0.  0.
         12    1    1    2    0    0  0.31217708092E+02 -0.81591424995E-01  0.64937204601E+01  0.31886052767E+02  0.00000000000E+00 0. -1.
         11    1    3    3    0    0 -0.54148306830E+01 -0.18115375963E+02 -0.10726294359E+02  0.21737999645E+02  0.51100000000E-03 0. -1.
        -11    1    3    3    0    0 -0.24475669600E+01  0.20589367714E+01 -0.64760929963E+01  0.72228516120E+01  0.51100000000E-03 0.  1.
        -12    1    3    3    0    0 -0.23355310449E+02  0.16138030617E+02  0.10708666896E+02  0.30341095976E+02  0.00000000000E+00 0.  1.
</event>
<event>
 7    1  0.6230310E-012  0.5930191E+02  0.7816164E-02  0.1266605E+00
        -11   -1    0    0    0    0  0.00000000000E+00  0.00000000000E+00  0.45593999997E+02  0.45594000000E+02  0.51100000000E-03 0.  1.
         11   -1    0    0    0    0 -0.00000000000E+00 -0.00000000000E+00 -0.45593999997E+02  0.45594000000E+02  0.51100000000E-03 0. -1.
    9900012    2    1    2    0    0 -0.25643387972E+02 -0.18315668524E+02 -0.48657836441E+01  0.59301907254E+02  0.49999932933E+02 0.  0.
         12    1    1    2    0    0  0.25643387972E+02  0.18315668524E+02  0.48657836441E+01  0.31886092746E+02  0.00000000000E+00 0. -1.
         11    1    3    3    0    0  0.51471131590E+01  0.64305722265E+01  0.22445996520E+01  0.85371693722E+01  0.51100000000E-03 0. -1.
        -11    1    3    3    0    0 -0.21104309846E+02 -0.97736546482E+01  0.10664808013E+02  0.25586214051E+02  0.51100000000E-03 0.  1.
         12    1    3    3    0    0 -0.96861912845E+01 -0.14972586103E+02 -0.17775191309E+02  0.25178523830E+02  0.00000000000E+00 0. -1.
</event>
<event>
 7    1  0.6230310E-012  0.5930191E+02  0.7816164E-02  0.1266605E+00
        -11   -1    0    0    0    0  0.00000000000E+00  0.00000000000E+00  0.45593999997E+02  0.45594000000E+02  0.51100000000E-03 0. -1.
         11   -1    0    0    0    0 -0.00000000000E+00 -0.00000000000E+00 -0.45593999997E+02  0.45594000000E+02  0.51100000000E-03 0.  1.
    9900012    2    1    2    0    0 -0.14302968304E+02  0.25623382469E+02  0.12473567408E+02  0.59301913452E+02  0.49999944238E+02 0.  0.
         12    1    1    2    0    0  0.14302968304E+02 -0.25623382469E+02 -0.12473567408E+02  0.31886086548E+02  0.00000000000E+00 0. -1.
         11    1    3    3    0    0 -0.77258548794E+01 -0.30514308267E+00  0.27335853298E+01  0.82008801317E+01  0.51100000000E-03 0.  1.
        -11    1    3    3    0    0  0.78632773199E+01 -0.91649080599E+01  0.39997676931E+01  0.12721038158E+02  0.51100000000E-03 0. -1.
         12    1    3    3    0    0 -0.14440390744E+02  0.35093433612E+02  0.57402143848E+01  0.38379995163E+02  0.00000000000E+00 0. -1.
</event>
<event>
 7    1  0.6230310E-012  0.5930191E+02  0.7816164E-02  0.1266605E+00
        -11   -1    0    0    0    0  0.00000000000E+00  0.00000000000E+00  0.45593999997E+02  0.45594000000E+02  0.51100000000E-03 0.  1.
         11   -1    0    0    0    0 -0.00000000000E+00 -0.00000000000E+00 -0.45593999997E+02  0.45594000000E+02  0.51100000000E-03 0. -1.
    9900012    2    1    2    0    0  0.12352610715E+02  0.29391648822E+02  0.51623974641E+00  0.59301913451E+02  0.49999944234E+02 0.  0.
         12    1    1    2    0    0 -0.12352610715E+02 -0.29391648822E+02 -0.51623974641E+00  0.31886086549E+02  0.00000000000E+00 0. -1.
         11    1    3    3    0    0  0.27880834201E+01  0.13255162928E+02 -0.94102907462E+01  0.16493220595E+02  0.51100000000E-03 0. -1.
        -11    1    3    3    0    0 -0.14410137484E+02  0.61736428123E+01  0.39712710229E+01  0.16172103193E+02  0.51100000000E-03 0.  1.
         12    1    3    3    0    0  0.23974664779E+02  0.99628430818E+01  0.59552594697E+01  0.26636589663E+02  0.00000000000E+00 0. -1.
</event>
<event>
 7    1  0.6230310E-012  0.5930193E+02  0.7816164E-02  0.1266605E+00
        -11   -1    0    0    0    0  0.00000000000E+00  0.00000000000E+00  0.45593999997E+02  0.45594000000E+02  0.51100000000E-03 0.  1.
         11   -1    0    0    0    0 -0.00000000000E+00 -0.00000000000E+00 -0.45593999997E+02  0.45594000000E+02  0.51100000000E-03 0. -1.
    9900012    2    1    2    0    0  0.54044660900E+01  0.27139997725E+02  0.15840878906E+02  0.59301934474E+02  0.49999982575E+02 0.  0.
         12    1    1    2    0    0 -0.54044660900E+01 -0.27139997725E+02 -0.15840878906E+02  0.31886065526E+02  0.00000000000E+00 0. -1.
         11    1    3    3    0    0  0.18330975632E+00  0.25528626707E+01 -0.53370436383E+01  0.59190155719E+01  0.51100000000E-03 0. -1.
        -11    1    3    3    0    0  0.40187222725E+00  0.35328566269E+02  0.21933939697E+02  0.41585656263E+02  0.51100000000E-03 0.  1.
         12    1    3    3    0    0  0.48192841064E+01 -0.10741431215E+02 -0.75601715283E+00  0.11797262639E+02  0.00000000000E+00 0. -1.
</event>
<event>
 7    1  0.6230310E-012  0.5930196E+02  0.7816164E-02  0.1266605E+00
        -11   -1    0    0    0    0  0.00000000000E+00  0.00000000000E+00  0.45593999997E+02  0.45594000000E+02  0.51100000000E-03 0.  1.
         11   -1    0    0    0    0 -0.00000000000E+00 -0.00000000000E+00 -0.45593999997E+02  0.45594000000E+02  0.51100000000E-03 0. -1.
    9900012    2    1    2    0    0 -0.21814809649E+02  0.11934232118E+02  0.19960152137E+02  0.59301960899E+02  0.50000030768E+02 0.  0.
         12    1    1    2    0    0  0.21814809649E+02 -0.11934232118E+02 -0.19960152137E+02  0.31886039101E+02  0.00000000000E+00 0. -1.
         11    1    3    3    0    0 -0.89269096178E+00  0.59006710063E+01 -0.52116082262E+01  0.79231102506E+01  0.51100000000E-03 0. -1.
        -11    1    3    3    0    0 -0.26485110457E+02  0.17479142751E+02  0.15062748553E+02  0.35126455863E+02  0.51100000000E-03 0.  1.
         12    1    3    3    0    0  0.55629917705E+01 -0.11445581639E+02  0.10109011810E+02  0.16252394785E+02  0.00000000000E+00 0. -1.
</event>
<event>
 7    1  0.6230310E-012  0.5930195E+02  0.7816164E-02  0.1266605E+00
        -11   -1    0    0    0    0  0.00000000000E+00  0.00000000000E+00  0.45593999997E+02  0.45594000000E+02  0.51100000000E-03 0.  1.
         11   -1    0    0    0    0 -0.00000000000E+00 -0.00000000000E+00 -0.45593999997E+02  0.45594000000E+02  0.51100000000E-03 0. -1.
    9900012    2    1    2    0    0 -0.33166542162E+01 -0.72277633173E+01  0.30878461821E+02  0.59301950351E+02  0.50000011532E+02 0.  0.
         12    1    1    2    0    0  0.33166542162E+01  0.72277633173E+01 -0.30878461821E+02  0.31886049649E+02  0.00000000000E+00 0. -1.
         11    1    3    3    0    0  0.26471010270E+01 -0.47149620156E+01 -0.49807558590E+01  0.73515943743E+01  0.51100000000E-03 0. -1.
        -11    1    3    3    0    0  0.21195430557E+01  0.15521032836E+02  0.74576978551E+01  0.17349702609E+02  0.51100000000E-03 0.  1.
        -12    1    3    3    0    0 -0.80832982989E+01 -0.18033834138E+02  0.28401519825E+02  0.34600653368E+02  0.00000000000E+00 0.  1.
</event>
<event>
 7    1  0.6230310E-012  0.5930195E+02  0.7816164E-02  0.1266605E+00
        -11   -1    0    0    0    0  0.00000000000E+00  0.00000000000E+00  0.45593999997E+02  0.45594000000E+02  0.51100000000E-03 0.  1.
         11   -1    0    0    0    0 -0.00000000000E+00 -0.00000000000E+00 -0.45593999997E+02  0.45594000000E+02  0.51100000000E-03 0. -1.
    9900012    2    1    2    0    0 -0.29799798218E+02  0.30333274121E+01  0.10931199450E+02  0.59301950222E+02  0.50000011297E+02 0.  0.
         12    1    1    2    0    0  0.29799798218E+02 -0.30333274121E+01 -0.10931199450E+02  0.31886049778E+02  0.00000000000E+00 0. -1.
         11    1    3    3    0    0 -0.25140700239E+02 -0.25051211033E+01  0.13066329079E+02  0.28443969415E+02  0.51100000000E-03 0. -1.
        -11    1    3    3    0    0  0.59762185609E+01 -0.20632281352E+01  0.10769939600E+02  0.12488542664E+02  0.51100000000E-03 0.  1.
         12    1    3    3    0    0 -0.10635316541E+02  0.76016766506E+01 -0.12905069230E+02  0.18369438142E+02  0.00000000000E+00 0. -1.
</event>
<event>
 7    1  0.6230310E-012  0.5930214E+02  0.7816164E-02  0.1266604E+00
        -11   -1    0    0    0    0  0.00000000000E+00  0.00000000000E+00  0.45593999997E+02  0.45594000000E+02  0.51100000000E-03 0.  1.
         11   -1    0    0    0    0 -0.00000000000E+00 -0.00000000000E+00 -0.45593999997E+02  0.45594000000E+02  0.51100000000E-03 0. -1.
    9900012    2    1    2    0    0 -0.26495678127E+02 -0.17694909774E+02 -0.12558462561E+01  0.59302141988E+02  0.50000361031E+02 0.  0.
         12    1    1    2    0    0  0.26495678127E+02  0.17694909774E+02  0.12558462561E+01  0.31885858012E+02  0.00000000000E+00 0. -1.
         11    1    3    3    0    0 -0.63834946038E+01  0.19144862382E+01  0.67358831683E+01  0.94755676997E+01  0.51100000000E-03 0. -1.
        -11    1    3    3    0    0 -0.20422466700E+02  0.77104866582E+01 -0.26807947992E+01  0.21993531132E+02  0.51100000000E-03 0.  1.
         12    1    3    3    0    0  0.31028317704E+00 -0.27319882671E+02 -0.53109346252E+01  0.27833043157E+02  0.00000000000E+00 0. -1.
</event>
<event>
 7    1  0.6230310E-012  0.5930194E+02  0.7816164E-02  0.1266605E+00
        -11   -1    0    0    0    0  0.00000000000E+00  0.00000000000E+00  0.45593999997E+02  0.45594000000E+02  0.51100000000E-03 0.  1.
         11   -1    0    0    0    0 -0.00000000000E+00 -0.00000000000E+00 -0.45593999997E+02  0.45594000000E+02  0.51100000000E-03 0. -1.
    9900012    2    1    2    0    0 -0.23742522391E+02 -0.20100327924E+02  0.69992842396E+01  0.59301944552E+02  0.50000000956E+02 0.  0.
         12    1    1    2    0    0  0.23742522391E+02  0.20100327924E+02 -0.69992842396E+01  0.31886055448E+02  0.00000000000E+00 0. -1.
         11    1    3    3    0    0  0.65642312301E+01  0.45119708345E+01 -0.43699199466E+01  0.90853295512E+01  0.51100000000E-03 0. -1.
        -11    1    3    3    0    0 -0.98029592125E+01 -0.11535187842E+02 -0.97510050976E+01  0.18006683996E+02  0.51100000000E-03 0.  1.
        -12    1    3    3    0    0 -0.20503794409E+02 -0.13077110917E+02  0.21120209284E+02  0.32209931004E+02  0.00000000000E+00 0.  1.
</event>
<event>
 7    1  0.6230310E-012  0.5930196E+02  0.7816164E-02  0.1266605E+00
        -11   -1    0    0    0    0  0.00000000000E+00  0.00000000000E+00  0.45593999997E+02  0.45594000000E+02  0.51100000000E-03 0.  1.
         11   -1    0    0    0    0 -0.00000000000E+00 -0.00000000000E+00 -0.45593999997E+02  0.45594000000E+02  0.51100000000E-03 0. -1.
    9900012    2    1    2    0    0 -0.17807830351E+02  0.11119680961E+02 -0.23999023785E+02  0.59301964355E+02  0.50000037073E+02 0.  0.
         12    1    1    2    0    0  0.17807830351E+02 -0.11119680961E+02  0.23999023785E+02  0.31886035645E+02  0.00000000000E+00 0. -1.
         11    1    3    3    0    0 -0.69615835263E+01  0.78592107423E+01  0.21988486609E+01  0.10726871603E+02  0.51100000000E-03 0. -1.
        -11    1    3    3    0    0 -0.14046472264E+02  0.12322126980E+02  0.19929721008E+01  0.18791224931E+02  0.51100000000E-03 0.  1.
         12    1    3    3    0    0  0.32002254396E+01 -0.90616567610E+01 -0.28190844547E+02  0.29783867821E+02  0.00000000000E+00 0. -1.
</event>
<event>
 7    1  0.6230310E-012  0.5930195E+02  0.7816164E-02  0.1266605E+00
        -11   -1    0    0    0    0  0.00000000000E+00  0.00000000000E+00  0.45593999997E+02  0.45594000000E+02  0.51100000000E-03 0.  1.
         11   -1    0    0    0    0 -0.00000000000E+00 -0.00000000000E+00 -0.45593999997E+02  0.45594000000E+02  0.51100000000E-03 0. -1.
    9900012    2    1    2    0    0  0.64465464226E+01 -0.21169419691E+02  0.22956869360E+02  0.59301950674E+02  0.50000012122E+02 0.  0.
         12    1    1    2    0    0 -0.64465464226E+01  0.21169419691E+02 -0.22956869360E+02  0.31886049326E+02  0.00000000000E+00 0. -1.
         11    1    3    3    0    0 -0.16392858913E+01 -0.79924343609E+01 -0.41397210190E+01  0.91489647295E+01  0.51100000000E-03 0. -1.
        -11    1    3    3    0    0 -0.10471540762E+02  0.48069026638E+01 -0.14892569995E+01  0.11617975978E+02  0.51100000000E-03 0.  1.
        -12    1    3    3    0    0  0.18557373076E+02 -0.17983887993E+02  0.28585847378E+02  0.38535009967E+02  0.00000000000E+00 0.  1.
</event>
<event>
 7    1  0.6230310E-012  0.5930195E+02  0.7816164E-02  0.1266605E+00
        -11   -1    0    0    0    0  0.00000000000E+00  0.00000000000E+00  0.45593999997E+02  0.45594000000E+02  0.51100000000E-03 0.  1.
         11   -1    0    0    0    0 -0.00000000000E+00 -0.00000000000E+00 -0.45593999997E+02  0.45594000000E+02  0.51100000000E-03 0. -1.
    9900012    2    1    2    0    0  0.29022595415E+02  0.12525899098E+02  0.41846413250E+01  0.59301946374E+02  0.50000004279E+02 0.  0.
         12    1    1    2    0    0 -0.29022595415E+02 -0.12525899098E+02 -0.41846413250E+01  0.31886053626E+02  0.00000000000E+00 0. -1.
         11    1    3    3    0    0 -0.62543601108E+01 -0.77846331870E+01  0.44765197283E+01  0.10943343337E+02  0.51100000000E-03 0. -1.
        -11    1    3    3    0    0  0.17225742091E+02  0.22178317094E+02  0.67679805886E+01  0.28886147220E+02  0.51100000000E-03 0.  1.
        -12    1    3    3    0    0  0.18051213434E+02 -0.18677848090E+01 -0.70598589919E+01  0.19472455817E+02  0.00000000000E+00 0.  1.
</event>
<event>
 7    1  0.6230310E-012  0.5930194E+02  0.7816164E-02  0.1266605E+00
        -11   -1    0    0    0    0  0.00000000000E+00  0.00000000000E+00  0.45593999997E+02  0.45594000000E+02  0.51100000000E-03 0. -1.
         11   -1    0    0    0    0 -0.00000000000E+00 -0.00000000000E+00 -0.45593999997E+02  0.45594000000E+02  0.51100000000E-03 0.  1.
    9900012    2    1    2    0    0 -0.28152827772E+02  0.14839788116E+02  0.19798658971E+01  0.59301938909E+02  0.49999990665E+02 0.  0.
         12    1    1    2    0    0  0.28152827772E+02 -0.14839788116E+02 -0.19798658971E+01  0.31886061091E+02  0.00000000000E+00 0. -1.
         11    1    3    3    0    0  0.29570883097E+01  0.29239620046E+01 -0.27481869744E-01  0.41586873638E+01  0.51100000000E-03 0. -1.
        -11    1    3    3    0    0 -0.21969687090E+01  0.62482953183E+01 -0.18232264099E+02  0.19398023619E+02  0.51100000000E-03 0.  1.
        -12    1    3    3    0    0 -0.28912947373E+02  0.56675307933E+01  0.20239611865E+02  0.35745227927E+02  0.00000000000E+00 0.  1.
</event>
<event>
 7    1  0.6230310E-012  0.5930198E+02  0.7816164E-02  0.1266605E+00
        -11   -1    0    0    0    0  0.00000000000E+00  0.00000000000E+00  0.45593999997E+02  0.45594000000E+02  0.51100000000E-03 0. -1.
         11   -1    0    0    0    0 -0.00000000000E+00 -0.00000000000E+00 -0.45593999997E+02  0.45594000000E+02  0.51100000000E-03 0.  1.
    9900012    2    1    2    0    0  0.23153985475E+02 -0.14401780039E+02  0.16528758652E+02  0.59301981524E+02  0.50000068384E+02 0.  0.
         12    1    1    2    0    0 -0.23153985475E+02  0.14401780039E+02 -0.16528758652E+02  0.31886018476E+02  0.00000000000E+00 0. -1.
         11    1    3    3    0    0  0.18494983270E+02 -0.15406896148E+01  0.13382384551E+02  0.22880698136E+02  0.51100000000E-03 0. -1.
        -11    1    3    3    0    0  0.17303926321E+02 -0.13236565733E+01 -0.41016055060E+01  0.17832585366E+02  0.51100000000E-03 0.  1.
         12    1    3    3    0    0 -0.12644924116E+02 -0.11537433851E+02  0.72479796072E+01  0.18588698022E+02  0.00000000000E+00 0. -1.
</event>
<event>
 7    1  0.6230310E-012  0.5930192E+02  0.7816164E-02  0.1266605E+00
        -11   -1    0    0    0    0  0.00000000000E+00  0.00000000000E+00  0.45593999997E+02  0.45594000000E+02  0.51100000000E-03 0.  1.
         11   -1    0    0    0    0 -0.00000000000E+00 -0.00000000000E+00 -0.45593999997E+02  0.45594000000E+02  0.51100000000E-03 0. -1.
    9900012    2    1    2    0    0  0.59981102637E+00 -0.18313990036E+02  0.26095214675E+02  0.59301917875E+02  0.49999952304E+02 0.  0.
         12    1    1    2    0    0 -0.59981102637E+00  0.18313990036E+02 -0.26095214675E+02  0.31886082125E+02  0.00000000000E+00 0. -1.
         11    1    3    3    0    0 -0.16004192382E+01  0.41740917636E+01 -0.53992554794E+01  0.70097320763E+01  0.51100000000E-03 0. -1.
        -11    1    3    3    0    0 -0.16437930878E+02 -0.11911048660E+02  0.14640084350E+02  0.25028198532E+02  0.51100000000E-03 0.  1.
        -12    1    3    3    0    0  0.18638161143E+02 -0.10577033140E+02  0.16854385805E+02  0.27263987267E+02  0.00000000000E+00 0.  1.
</event>
<event>
 7    1  0.6230310E-012  0.5930195E+02  0.7816164E-02  0.1266605E+00
        -11   -1    0    0    0    0  0.00000000000E+00  0.00000000000E+00  0.45593999997E+02  0.45594000000E+02  0.51100000000E-03 0.  1.
         11   -1    0    0    0    0 -0.00000000000E+00 -0.00000000000E+00 -0.45593999997E+02  0.45594000000E+02  0.51100000000E-03 0. -1.
    9900012    2    1    2    0    0  0.28751431380E+02  0.11597706706E+02 -0.74544529437E+01  0.59301945432E+02  0.50000002561E+02 0.  0.
         12    1    1    2    0    0 -0.28751431380E+02 -0.11597706706E+02  0.74544529437E+01  0.31886054568E+02  0.00000000000E+00 0. -1.
         11    1    3    3    0    0  0.13325774865E+02  0.13144728529E+02 -0.19239846675E+02  0.26842724604E+02  0.51100000000E-03 0. -1.
        -11    1    3    3    0    0 -0.25721835857E-01 -0.13704441095E+01 -0.75694688604E+01  0.76925702960E+01  0.51100000000E-03 0.  1.
        -12    1    3    3    0    0  0.15451378351E+02 -0.17657771301E+00  0.19354862592E+02  0.24766650532E+02  0.00000000000E+00 0.  1.
</event>
<event>
 7    1  0.6230310E-012  0.5930179E+02  0.7816164E-02  0.1266605E+00
        -11   -1    0    0    0    0  0.00000000000E+00  0.00000000000E+00  0.45593999997E+02  0.45594000000E+02  0.51100000000E-03 0. -1.
         11   -1    0    0    0    0 -0.00000000000E+00 -0.00000000000E+00 -0.45593999997E+02  0.45594000000E+02  0.51100000000E-03 0.  1.
    9900012    2    1    2    0    0 -0.26212004396E+02  0.15523342111E+02  0.94173695289E+01  0.59301793365E+02  0.49999725226E+02 0.  0.
         12    1    1    2    0    0  0.26212004396E+02 -0.15523342111E+02 -0.94173695289E+01  0.31886206635E+02  0.00000000000E+00 0. -1.
         11    1    3    3    0    0  0.10861533794E+02  0.94339399772E+01 -0.40445303795E+01  0.14944241905E+02  0.51100000000E-03 0. -1.
        -11    1    3    3    0    0 -0.68081206136E+01  0.43190952185E+01  0.11409852174E+02  0.13971034918E+02  0.51100000000E-03 0.  1.
        -12    1    3    3    0    0 -0.30265417576E+02  0.17703069153E+01  0.20520477344E+01  0.30386516542E+02  0.00000000000E+00 0.  1.
</event>
<event>
 7    1  0.6230310E-012  0.5930168E+02  0.7816164E-02  0.1266606E+00
        -11   -1    0    0    0    0  0.00000000000E+00  0.00000000000E+00  0.45593999997E+02  0.45594000000E+02  0.51100000000E-03 0.  1.
         11   -1    0    0    0    0 -0.00000000000E+00 -0.00000000000E+00 -0.45593999997E+02  0.45594000000E+02  0.51100000000E-03 0. -1.
    9900012    2    1    2    0    0 -0.19798114867E+02  0.12893732416E+02  0.21413163152E+02  0.59301682495E+02  0.49999523024E+02 0.  0.
         12    1    1    2    0    0  0.19798114867E+02 -0.12893732416E+02 -0.21413163152E+02  0.31886317505E+02  0.00000000000E+00 0. -1.
         11    1    3    3    0    0 -0.11362395145E+02  0.72745512821E+00  0.15695658046E+02  0.19390381537E+02  0.51100000000E-03 0. -1.
        -11    1    3    3    0    0 -0.47422695594E+01 -0.82248102509E+01  0.14559033984E+02  0.17381084403E+02  0.51100000000E-03 0.  1.
         12    1    3    3    0    0 -0.36934501627E+01  0.20391087538E+02 -0.88415288777E+01  0.22530216555E+02  0.00000000000E+00 0. -1.
</event>
<event>
 7    1  0.6230310E-012  0.5930195E+02  0.7816164E-02  0.1266605E+00
        -11   -1    0    0    0    0  0.00000000000E+00  0.00000000000E+00  0.45593999997E+02  0.45594000000E+02  0.51100000000E-03 0.  1.
         11   -1    0    0    0    0 -0.00000000000E+00 -0.00000000000E+00 -0.45593999997E+02  0.45594000000E+02  0.51100000000E-03 0. -1.
    9900012    2    1    2    0    0  0.51646306687E+01  0.31424585284E+02  0.15943404893E+01  0.59301954591E+02  0.50000019265E+02 0.  0.
         12    1    1    2    0    0 -0.51646306687E+01 -0.31424585284E+02 -0.15943404893E+01  0.31886045409E+02  0.00000000000E+00 0. -1.
         11    1    3    3    0    0  0.76732620634E+01 -0.47614909590E+01 -0.70983507119E+01  0.11486397605E+02  0.51100000000E-03 0. -1.
        -11    1    3    3    0    0  0.95915835491E+01  0.10259266646E+02 -0.64377275550E+01  0.15449769041E+02  0.51100000000E-03 0.  1.
         12    1    3    3    0    0 -0.12100214944E+02  0.25926809597E+02  0.15130418756E+02  0.32365787945E+02  0.00000000000E+00 0. -1.
</event>
<event>
 7    1  0.6230310E-012  0.5930205E+02  0.7816164E-02  0.1266604E+00
        -11   -1    0    0    0    0  0.00000000000E+00  0.00000000000E+00  0.45593999997E+02  0.45594000000E+02  0.51100000000E-03 0. -1.
         11   -1    0    0    0    0 -0.00000000000E+00 -0.00000000000E+00 -0.45593999997E+02  0.45594000000E+02  0.51100000000E-03 0.  1.
    9900012    2    1    2    0    0 -0.31323242964E+02  0.21190189222E+01  0.55747418269E+01  0.59302054234E+02  0.50000200989E+02 0.  0.
         12    1    1    2    0    0  0.31323242964E+02 -0.21190189222E+01 -0.55747418269E+01  0.31885945766E+02  0.00000000000E+00 0. -1.
         11    1    3    3    0    0 -0.44922694912E+01 -0.14422926477E+02  0.13478846810E+01  0.15166347178E+02  0.51100000000E-03 0. -1.
        -11    1    3    3    0    0 -0.26839691978E+02  0.45426124581E+00  0.71618093049E+01  0.27782493256E+02  0.51100000000E-03 0.  1.
        -12    1    3    3    0    0  0.87185051855E-02  0.16087684153E+02 -0.29349521591E+01  0.16353213800E+02  0.00000000000E+00 0.  1.
</event>
<event>
 7    1  0.6230310E-012  0.5930197E+02  0.7816164E-02  0.1266605E+00
        -11   -1    0    0    0    0  0.00000000000E+00  0.00000000000E+00  0.45593999997E+02  0.45594000000E+02  0.51100000000E-03 0. -1.
         11   -1    0    0    0    0 -0.00000000000E+00 -0.00000000000E+00 -0.45593999997E+02  0.45594000000E+02  0.51100000000E-03 0.  1.
    9900012    2    1    2    0    0 -0.14622151544E+02 -0.27794078565E+02  0.55136779716E+01  0.59301972279E+02  0.50000051523E+02 0.  0.
         12    1    1    2    0    0  0.14622151544E+02  0.27794078565E+02 -0.55136779716E+01  0.31886027721E+02  0.00000000000E+00 0. -1.
         11    1    3    3    0    0 -0.11025577958E+02 -0.57594257570E+01  0.23220618758E+02  0.26342579413E+02  0.51100000000E-03 0. -1.
        -11    1    3    3    0    0  0.60014714600E+01 -0.62728761130E+01 -0.91657891118E+01  0.12624512851E+02  0.51100000000E-03 0.  1.
        -12    1    3    3    0    0 -0.95980450461E+01 -0.15761776695E+02 -0.85411516749E+01  0.20334880015E+02  0.00000000000E+00 0.  1.
</event>
<event>
 7    1  0.6230310E-012  0.5930196E+02  0.7816164E-02  0.1266605E+00
        -11   -1    0    0    0    0  0.00000000000E+00  0.00000000000E+00  0.45593999997E+02  0.45594000000E+02  0.51100000000E-03 0. -1.
         11   -1    0    0    0    0 -0.00000000000E+00 -0.00000000000E+00 -0.45593999997E+02  0.45594000000E+02  0.51100000000E-03 0.  1.
    9900012    2    1    2    0    0 -0.43805564626E+01 -0.17730357638E+02 -0.26137418196E+02  0.59301960941E+02  0.50000030845E+02 0.  0.
         12    1    1    2    0    0  0.43805564626E+01  0.17730357638E+02  0.26137418196E+02  0.31886039059E+02  0.00000000000E+00 0. -1.
         11    1    3    3    0    0 -0.61458436266E+01 -0.42815348845E+00 -0.22021097319E+01  0.65424763527E+01  0.51100000000E-03 0. -1.
        -11    1    3    3    0    0 -0.87184746487E+00 -0.85930597122E+01 -0.36352784044E+02  0.37364765505E+02  0.51100000000E-03 0.  1.
         12    1    3    3    0    0  0.26371346289E+01 -0.87091444378E+01  0.12417475579E+02  0.15394719083E+02  0.00000000000E+00 0. -1.
</event>
<event>
 7    1  0.6230310E-012  0.5930190E+02  0.7816164E-02  0.1266605E+00
        -11   -1    0    0    0    0  0.00000000000E+00  0.00000000000E+00  0.45593999997E+02  0.45594000000E+02  0.51100000000E-03 0.  1.
         11   -1    0    0    0    0 -0.00000000000E+00 -0.00000000000E+00 -0.45593999997E+02  0.45594000000E+02  0.51100000000E-03 0. -1.
    9900012    2    1    2    0    0  0.99154077014E+01  0.20357849461E+02  0.22449181098E+02  0.59301904653E+02  0.49999928189E+02 0.  0.
         12    1    1    2    0    0 -0.99154077014E+01 -0.20357849461E+02 -0.22449181098E+02  0.31886095347E+02  0.00000000000E+00 0. -1.
         11    1    3    3    0    0 -0.33752924184E+01 -0.94164840253E+01 -0.33534368592E+01  0.10550275321E+02  0.51100000000E-03 0.  1.
        -11    1    3    3    0    0  0.55869385193E+01  0.64489156206E+01 -0.45775171993E+01  0.96827712289E+01  0.51100000000E-03 0. -1.
        -12    1    3    3    0    0  0.77037616006E+01  0.23325417865E+02  0.30380135156E+02  0.39068858103E+02  0.00000000000E+00 0.  1.
</event>
<event>
 7    1  0.6230310E-012  0.5930196E+02  0.7816164E-02  0.1266605E+00
        -11   -1    0    0    0    0  0.00000000000E+00  0.00000000000E+00  0.45593999997E+02  0.45594000000E+02  0.51100000000E-03 0. -1.
         11   -1    0    0    0    0 -0.00000000000E+00 -0.00000000000E+00 -0.45593999997E+02  0.45594000000E+02  0.51100000000E-03 0.  1.
    9900012    2    1    2    0    0  0.10411188831E+02  0.27709605413E+02 -0.11853456036E+02  0.59301960656E+02  0.50000030326E+02 0.  0.
         12    1    1    2    0    0 -0.10411188831E+02 -0.27709605413E+02  0.11853456036E+02  0.31886039344E+02  0.00000000000E+00 0. -1.
         11    1    3    3    0    0 -0.42195549767E+01  0.43483695998E+01  0.19897692832E+01  0.63774716338E+01  0.51100000000E-03 0. -1.
        -11    1    3    3    0    0  0.18071297882E+00 -0.42671493678E+01  0.11803629661E+02  0.12552565250E+02  0.51100000000E-03 0.  1.
        -12    1    3    3    0    0  0.14450030829E+02  0.27628385181E+02 -0.25646854981E+02  0.40371923772E+02  0.00000000000E+00 0.  1.
</event>
<event>
 7    1  0.6230310E-012  0.5930191E+02  0.7816164E-02  0.1266605E+00
        -11   -1    0    0    0    0  0.00000000000E+00  0.00000000000E+00  0.45593999997E+02  0.45594000000E+02  0.51100000000E-03 0.  1.
         11   -1    0    0    0    0 -0.00000000000E+00 -0.00000000000E+00 -0.45593999997E+02  0.45594000000E+02  0.51100000000E-03 0. -1.
    9900012    2    1    2    0    0  0.16877562991E+02 -0.26000827650E+02 -0.74717972130E+01  0.59301907034E+02  0.49999932533E+02 0.  0.
         12    1    1    2    0    0 -0.16877562991E+02  0.26000827650E+02  0.74717972130E+01  0.31886092966E+02  0.00000000000E+00 0. -1.
         11    1    3    3    0    0  0.17066939162E+02 -0.15887554909E+02 -0.18105375533E+02  0.29521169299E+02  0.51100000000E-03 0. -1.
        -11    1    3    3    0    0  0.12550548228E+02 -0.20159969565E+01  0.52739433003E+01  0.13762084971E+02  0.51100000000E-03 0.  1.
        -12    1    3    3    0    0 -0.12739924399E+02 -0.80972757850E+01  0.53596350199E+01  0.16018652764E+02  0.00000000000E+00 0.  1.
</event>
<event>
 7    1  0.6230310E-012  0.5930195E+02  0.7816164E-02  0.1266605E+00
        -11   -1    0    0    0    0  0.00000000000E+00  0.00000000000E+00  0.45593999997E+02  0.45594000000E+02  0.51100000000E-03 0. -1.
         11   -1    0    0    0    0 -0.00000000000E+00 -0.00000000000E+00 -0.45593999997E+02  0.45594000000E+02  0.51100000000E-03 0.  1.
    9900012    2    1    2    0    0 -0.11905156105E+02  0.17266565776E+02 -0.24017763022E+02  0.59301953269E+02  0.50000016853E+02 0.  0.
         12    1    1    2    0    0  0.11905156105E+02 -0.17266565776E+02  0.24017763022E+02  0.31886046731E+02  0.00000000000E+00 0. -1.
         11    1    3    3    0    0 -0.49337197875E+01 -0.10264634258E+01  0.27797405552E+01  0.57551868711E+01  0.51100000000E-03 0. -1.
        -11    1    3    3    0    0  0.80773767258E+01  0.16251629932E+02  0.45538186979E+01  0.18710872647E+02  0.51100000000E-03 0.  1.
        -12    1    3    3    0    0 -0.15048813043E+02  0.20413992695E+01 -0.31351322275E+02  0.34835893751E+02  0.00000000000E+00 0.  1.
</event>
<event>
 7    1  0.6230310E-012  0.5930194E+02  0.7816164E-02  0.1266605E+00
        -11   -1    0    0    0    0  0.00000000000E+00  0.00000000000E+00  0.45593999997E+02  0.45594000000E+02  0.51100000000E-03 0. -1.
         11   -1    0    0    0    0 -0.00000000000E+00 -0.00000000000E+00 -0.45593999997E+02  0.45594000000E+02  0.51100000000E-03 0.  1.
    9900012    2    1    2    0    0 -0.24253883126E+02 -0.96784921084E+01 -0.18297446516E+02  0.59301943405E+02  0.49999998864E+02 0.  0.
         12    1    1    2    0    0  0.24253883126E+02  0.96784921084E+01  0.18297446516E+02  0.31886056595E+02  0.00000000000E+00 0. -1.
         11    1    3    3    0    0 -0.48222761281E+01 -0.40737078380E+01 -0.76283725875E+01  0.99015913468E+01  0.51100000000E-03 0.  1.
        -11    1    3    3    0    0  0.70187471634E+01  0.13745950293E+02 -0.41928794604E+01  0.15993567445E+02  0.51100000000E-03 0. -1.
         12    1    3    3    0    0 -0.26450354161E+02 -0.19350734563E+02 -0.64761944683E+01  0.33406784613E+02  0.00000000000E+00 0. -1.
</event>
<event>
 7    1  0.6230310E-012  0.5930193E+02  0.7816164E-02  0.1266605E+00
        -11   -1    0    0    0    0  0.00000000000E+00  0.00000000000E+00  0.45593999997E+02  0.45594000000E+02  0.51100000000E-03 0.  1.
         11   -1    0    0    0    0 -0.00000000000E+00 -0.00000000000E+00 -0.45593999997E+02  0.45594000000E+02  0.51100000000E-03 0. -1.
    9900012    2    1    2    0    0 -0.24024306641E+02 -0.19341508406E+02  0.80907653677E+01  0.59301925591E+02  0.49999966375E+02 0.  0.
         12    1    1    2    0    0  0.24024306641E+02  0.19341508406E+02 -0.80907653677E+01  0.31886074409E+02  0.00000000000E+00 0. -1.
         11    1    3    3    0    0 -0.22591063951E+02 -0.16056065105E+02  0.28020775934E+01  0.27856866949E+02  0.51100000000E-03 0. -1.
        -11    1    3    3    0    0 -0.21672336957E+01  0.47216345072E+01 -0.11616369797E+02  0.12725202625E+02  0.51100000000E-03 0.  1.
        -12    1    3    3    0    0  0.73399100533E+00 -0.80070778083E+01  0.16905057571E+02  0.18719856018E+02  0.00000000000E+00 0.  1.
</event>
<event>
 7    1  0.6230310E-012  0.5930198E+02  0.7816164E-02  0.1266605E+00
        -11   -1    0    0    0    0  0.00000000000E+00  0.00000000000E+00  0.45593999997E+02  0.45594000000E+02  0.51100000000E-03 0.  1.
         11   -1    0    0    0    0 -0.00000000000E+00 -0.00000000000E+00 -0.45593999997E+02  0.45594000000E+02  0.51100000000E-03 0. -1.
    9900012    2    1    2    0    0 -0.19063239206E+02 -0.23665949837E+02 -0.96557619046E+01  0.59301984121E+02  0.50000073120E+02 0.  0.
         12    1    1    2    0    0  0.19063239206E+02  0.23665949837E+02  0.96557619046E+01  0.31886015879E+02  0.00000000000E+00 0. -1.
         11    1    3    3    0    0 -0.98922670795E+00  0.56200271370E+01  0.41366944194E+01  0.70480859445E+01  0.51100000000E-03 0.  1.
        -11    1    3    3    0    0 -0.53675617169E+01 -0.12303145588E+02  0.12589493207E+02  0.18403082611E+02  0.51100000000E-03 0. -1.
         12    1    3    3    0    0 -0.12706450781E+02 -0.16982831386E+02 -0.26381949531E+02  0.33850815565E+02  0.00000000000E+00 0. -1.
</event>
<event>
 7    1  0.6230310E-012  0.5930195E+02  0.7816164E-02  0.1266605E+00
        -11   -1    0    0    0    0  0.00000000000E+00  0.00000000000E+00  0.45593999997E+02  0.45594000000E+02  0.51100000000E-03 0. -1.
         11   -1    0    0    0    0 -0.00000000000E+00 -0.00000000000E+00 -0.45593999997E+02  0.45594000000E+02  0.51100000000E-03 0.  1.
    9900012    2    1    2    0    0 -0.40262467569E+01  0.64680344126E+01 -0.30962462521E+02  0.59301949484E+02  0.50000009951E+02 0.  0.
         12    1    1    2    0    0  0.40262467569E+01 -0.64680344126E+01  0.30962462521E+02  0.31886050516E+02  0.00000000000E+00 0. -1.
         11    1    3    3    0    0 -0.42031797835E+01  0.15194943581E+02 -0.55956156713E+01  0.16729134638E+02  0.51100000000E-03 0. -1.
        -11    1    3    3    0    0  0.73281496775E+01  0.10140982820E+02 -0.38856033469E+01  0.13101115368E+02  0.51100000000E-03 0.  1.
        -12    1    3    3    0    0 -0.71512166509E+01 -0.18867891989E+02 -0.21481243503E+02  0.29471699478E+02  0.00000000000E+00 0.  1.
</event>
<event>
 7    1  0.6230310E-012  0.5930194E+02  0.7816164E-02  0.1266605E+00
        -11   -1    0    0    0    0  0.00000000000E+00  0.00000000000E+00  0.45593999997E+02  0.45594000000E+02  0.51100000000E-03 0.  1.
         11   -1    0    0    0    0 -0.00000000000E+00 -0.00000000000E+00 -0.45593999997E+02  0.45594000000E+02  0.51100000000E-03 0. -1.
    9900012    2    1    2    0    0  0.48609220708E+01 -0.26645393765E+02 -0.16826029108E+02  0.59301939914E+02  0.49999992497E+02 0.  0.
         12    1    1    2    0    0 -0.48609220708E+01  0.26645393765E+02  0.16826029108E+02  0.31886060086E+02  0.00000000000E+00 0. -1.
         11    1    3    3    0    0 -0.10358520719E+02 -0.14009350034E+02  0.47754297768E+00  0.17429540654E+02  0.51100000000E-03 0. -1.
        -11    1    3    3    0    0  0.82560672197E+00 -0.18498434476E+02  0.12945514870E+00  0.18517301732E+02  0.51100000000E-03 0.  1.
        -12    1    3    3    0    0  0.14393836068E+02  0.58623907449E+01 -0.17433027234E+02  0.23355097528E+02  0.00000000000E+00 0.  1.
</event>
<event>
 7    1  0.6230310E-012  0.5930193E+02  0.7816164E-02  0.1266605E+00
        -11   -1    0    0    0    0  0.00000000000E+00  0.00000000000E+00  0.45593999997E+02  0.45594000000E+02  0.51100000000E-03 0. -1.
         11   -1    0    0    0    0 -0.00000000000E+00 -0.00000000000E+00 -0.45593999997E+02  0.45594000000E+02  0.51100000000E-03 0.  1.
    9900012    2    1    2    0    0 -0.23940885697E+02 -0.20987241856E+02 -0.17581373139E+01  0.59301931326E+02  0.49999976836E+02 0.  0.
         12    1    1    2    0    0  0.23940885697E+02  0.20987241856E+02  0.17581373139E+01  0.31886068674E+02  0.00000000000E+00 0. -1.
         11    1    3    3    0    0  0.57271249477E+01  0.45606577947E+01 -0.70667537785E+00  0.73551988442E+01  0.51100000000E-03 0.  1.
        -11    1    3    3    0    0 -0.30395508766E+00 -0.22365886856E+02 -0.13586155480E+01  0.22409174907E+02  0.51100000000E-03 0. -1.
        -12    1    3    3    0    0 -0.29364055557E+02 -0.31820127943E+01  0.30715361196E+00  0.29537557575E+02  0.00000000000E+00 0.  1.
</event>
<event>
 7    1  0.6230310E-012  0.5930195E+02  0.7816164E-02  0.1266605E+00
        -11   -1    0    0    0    0  0.00000000000E+00  0.00000000000E+00  0.45593999997E+02  0.45594000000E+02  0.51100000000E-03 0.  1.
         11   -1    0    0    0    0 -0.00000000000E+00 -0.00000000000E+00 -0.45593999997E+02  0.45594000000E+02  0.51100000000E-03 0. -1.
    9900012    2    1    2    0    0 -0.29010739584E+02  0.53057241265E+01  0.12122148482E+02  0.59301949703E+02  0.50000010351E+02 0.  0.
         12    1    1    2    0    0  0.29010739584E+02 -0.53057241265E+01 -0.12122148482E+02  0.31886050297E+02  0.00000000000E+00 0. -1.
         11    1    3    3    0    0  0.59481505283E+01  0.64085026040E+00 -0.13159613084E+02  0.14455677104E+02  0.51100000000E-03 0. -1.
        -11    1    3    3    0    0 -0.12218054796E+02 -0.25169163886E+01  0.46526714106E+01  0.13314018275E+02  0.51100000000E-03 0.  1.
        -12    1    3    3    0    0 -0.22740835317E+02  0.71817902547E+01  0.20629090155E+02  0.31532254324E+02  0.00000000000E+00 0.  1.
</event>
<event>
 7    1  0.6230310E-012  0.5930192E+02  0.7816164E-02  0.1266605E+00
        -11   -1    0    0    0    0  0.00000000000E+00  0.00000000000E+00  0.45593999997E+02  0.45594000000E+02  0.51100000000E-03 0.  1.
         11   -1    0    0    0    0 -0.00000000000E+00 -0.00000000000E+00 -0.45593999997E+02  0.45594000000E+02  0.51100000000E-03 0. -1.
    9900012    2    1    2    0    0  0.30058964899E+02 -0.36356699444E+01  0.99981360181E+01  0.59301918545E+02  0.49999953525E+02 0.  0.
         12    1    1    2    0    0 -0.30058964899E+02  0.36356699444E+01 -0.99981360181E+01  0.31886081455E+02  0.00000000000E+00 0. -1.
         11    1    3    3    0    0 -0.25943554341E+01 -0.12077681630E+02 -0.11270085528E+02  0.16721719461E+02  0.51100000000E-03 0. -1.
        -11    1    3    3    0    0  0.96485777750E+01  0.83747664149E+01  0.12747675870E+02  0.18048130261E+02  0.51100000000E-03 0.  1.
        -12    1    3    3    0    0  0.23004742558E+02  0.67245271005E-01  0.85205456756E+01  0.24532068822E+02  0.00000000000E+00 0.  1.
</event>
<event>
 7    1  0.6230310E-012  0.5930193E+02  0.7816164E-02  0.1266605E+00
        -11   -1    0    0    0    0  0.00000000000E+00  0.00000000000E+00  0.45593999997E+02  0.45594000000E+02  0.51100000000E-03 0.  1.
         11   -1    0    0    0    0 -0.00000000000E+00 -0.00000000000E+00 -0.45593999997E+02  0.45594000000E+02  0.51100000000E-03 0. -1.
    9900012    2    1    2    0    0 -0.43478676523E+00 -0.25888078706E+02  0.18610214112E+02  0.59301925800E+02  0.49999966757E+02 0.  0.
         12    1    1    2    0    0  0.43478676523E+00  0.25888078706E+02 -0.18610214112E+02  0.31886074200E+02  0.00000000000E+00 0. -1.
         11    1    3    3    0    0 -0.49189849856E+00  0.59873940955E+01  0.13642910446E+01  0.61605310244E+01  0.51100000000E-03 0. -1.
        -11    1    3    3    0    0  0.15359862267E+02 -0.91139521248E+01 -0.41732569457E+01  0.18341362163E+02  0.51100000000E-03 0.  1.
         12    1    3    3    0    0 -0.15302750534E+02 -0.22761520677E+02  0.21419180013E+02  0.34800032612E+02  0.00000000000E+00 0. -1.
</event>
<event>
 7    1  0.6230310E-012  0.5930193E+02  0.7816164E-02  0.1266605E+00
        -11   -1    0    0    0    0  0.00000000000E+00  0.00000000000E+00  0.45593999997E+02  0.45594000000E+02  0.51100000000E-03 0. -1.
         11   -1    0    0    0    0 -0.00000000000E+00 -0.00000000000E+00 -0.45593999997E+02  0.45594000000E+02  0.51100000000E-03 0.  1.
    9900012    2    1    2    0    0 -0.13103651244E+02 -0.98644778616E+01 -0.27344248913E+02  0.59301928620E+02  0.49999971901E+02 0.  0.
         12    1    1    2    0    0  0.13103651244E+02  0.98644778616E+01  0.27344248913E+02  0.31886071380E+02  0.00000000000E+00 0. -1.
         11    1    3    3    0    0  0.10136354853E+01 -0.87868091626E+01 -0.12707328555E+02  0.15482624823E+02  0.51100000000E-03 0. -1.
        -11    1    3    3    0    0  0.94786281810E+01 -0.75363830549E+01 -0.15093879102E+02  0.19351140751E+02  0.51100000000E-03 0.  1.
         12    1    3    3    0    0 -0.23595914910E+02  0.64587143559E+01  0.45695874350E+00  0.24468163046E+02  0.00000000000E+00 0. -1.
</event>
<event>
 7    1  0.6230310E-012  0.5930194E+02  0.7816164E-02  0.1266605E+00
        -11   -1    0    0    0    0  0.00000000000E+00  0.00000000000E+00  0.45593999997E+02  0.45594000000E+02  0.51100000000E-03 0. -1.
         11   -1    0    0    0    0 -0.00000000000E+00 -0.00000000000E+00 -0.45593999997E+02  0.45594000000E+02  0.51100000000E-03 0.  1.
    9900012    2    1    2    0    0  0.15176721528E+02 -0.22497840350E+02 -0.16740225944E+02  0.59301939387E+02  0.49999991537E+02 0.  0.
         12    1    1    2    0    0 -0.15176721528E+02  0.22497840350E+02  0.16740225944E+02  0.31886060613E+02  0.00000000000E+00 0. -1.
         11    1    3    3    0    0  0.48636332589E+01 -0.16020363407E+01  0.76695132517E+01  0.92218698046E+01  0.51100000000E-03 0. -1.
        -11    1    3    3    0    0 -0.86094745250E+01 -0.20603682213E+02 -0.48245370299E+01  0.22845369994E+02  0.51100000000E-03 0.  1.
        -12    1    3    3    0    0  0.18922562794E+02 -0.29212179609E+00 -0.19585202166E+02  0.27234699589E+02  0.00000000000E+00 0.  1.
</event>
<event>
 7    1  0.6230310E-012  0.5930197E+02  0.7816164E-02  0.1266605E+00
        -11   -1    0    0    0    0  0.00000000000E+00  0.00000000000E+00  0.45593999997E+02  0.45594000000E+02  0.51100000000E-03 0. -1.
         11   -1    0    0    0    0 -0.00000000000E+00 -0.00000000000E+00 -0.45593999997E+02  0.45594000000E+02  0.51100000000E-03 0.  1.
    9900012    2    1    2    0    0 -0.14924047664E+02  0.18486941478E+02 -0.21265573653E+02  0.59301971293E+02  0.50000049725E+02 0.  0.
         12    1    1    2    0    0  0.14924047664E+02 -0.18486941478E+02  0.21265573653E+02  0.31886028707E+02  0.00000000000E+00 0. -1.
         11    1    3    3    0    0  0.13609404493E+01 -0.88004257582E+01  0.36402373428E+01  0.96203420212E+01  0.51100000000E-03 0. -1.
        -11    1    3    3    0    0  0.32533174963E+00  0.14169938808E+02 -0.24743746793E+02  0.28515715180E+02  0.51100000000E-03 0.  1.
         12    1    3    3    0    0 -0.16610319863E+02  0.13117428429E+02 -0.16206420263E+00  0.21165914092E+02  0.00000000000E+00 0. -1.
</event>
<event>
 7    1  0.6230310E-012  0.5930195E+02  0.7816164E-02  0.1266605E+00
        -11   -1    0    0    0    0  0.00000000000E+00  0.00000000000E+00  0.45593999997E+02  0.45594000000E+02  0.51100000000E-03 0.  1.
         11   -1    0    0    0    0 -0.00000000000E+00 -0.00000000000E+00 -0.45593999997E+02  0.45594000000E+02  0.51100000000E-03 0. -1.
    9900012    2    1    2    0    0  0.11894034947E+02  0.13942641408E+01  0.29551787576E+02  0.59301949935E+02  0.50000010774E+02 0.  0.
         12    1    1    2    0    0 -0.11894034947E+02 -0.13942641408E+01 -0.29551787576E+02  0.31886050065E+02  0.00000000000E+00 0. -1.
         11    1    3    3    0    0 -0.63841136929E+01 -0.51289542260E+01  0.19201649138E+02  0.20875018778E+02  0.51100000000E-03 0. -1.
        -11    1    3    3    0    0  0.19556705941E+02  0.71944426681E+01  0.19873030676E+02  0.28795174962E+02  0.51100000000E-03 0.  1.
         12    1    3    3    0    0 -0.12785573010E+01 -0.67122430128E+00 -0.95228922384E+01  0.96317561959E+01  0.00000000000E+00 0. -1.
</event>
<event>
 7    1  0.6230310E-012  0.5930194E+02  0.7816164E-02  0.1266605E+00
        -11   -1    0    0    0    0  0.00000000000E+00  0.00000000000E+00  0.45593999997E+02  0.45594000000E+02  0.51100000000E-03 0.  1.
         11   -1    0    0    0    0 -0.00000000000E+00 -0.00000000000E+00 -0.45593999997E+02  0.45594000000E+02  0.51100000000E-03 0. -1.
    9900012    2    1    2    0    0  0.23200085526E+02 -0.14128864650E+02  0.16698868754E+02  0.59301937177E+02  0.49999987505E+02 0.  0.
         12    1    1    2    0    0 -0.23200085526E+02  0.14128864650E+02 -0.16698868754E+02  0.31886062823E+02  0.00000000000E+00 0. -1.
         11    1    3    3    0    0  0.11589896849E+01 -0.13274955998E+02 -0.38856026783E+01  0.13880404255E+02  0.51100000000E-03 0. -1.
        -11    1    3    3    0    0  0.13030524106E+01 -0.10573497056E+02  0.19825012849E+02  0.22506175159E+02  0.51100000000E-03 0.  1.
         12    1    3    3    0    0  0.20738043430E+02  0.97195884043E+01  0.75945858392E+00  0.22915357763E+02  0.00000000000E+00 0. -1.
</event>
<event>
 7    1  0.6230310E-012  0.5930197E+02  0.7816164E-02  0.1266605E+00
        -11   -1    0    0    0    0  0.00000000000E+00  0.00000000000E+00  0.45593999997E+02  0.45594000000E+02  0.51100000000E-03 0.  1.
         11   -1    0    0    0    0 -0.00000000000E+00 -0.00000000000E+00 -0.45593999997E+02  0.45594000000E+02  0.51100000000E-03 0. -1.
    9900012    2    1    2    0    0 -0.14218447817E+02  0.14026123909E+01  0.28505915688E+02  0.59301971570E+02  0.50000050231E+02 0.  0.
         12    1    1    2    0    0  0.14218447817E+02 -0.14026123909E+01 -0.28505915688E+02  0.31886028430E+02  0.00000000000E+00 0. -1.
         11    1    3    3    0    0  0.68271588722E+01 -0.14519623385E+02 -0.33322767517E+00  0.16048071612E+02  0.51100000000E-03 0. -1.
        -11    1    3    3    0    0  0.29616927531E+00 -0.24161680709E+01  0.76547999783E+01  0.80325305699E+01  0.51100000000E-03 0.  1.
         12    1    3    3    0    0 -0.21341775964E+02  0.18338403847E+02  0.21184343385E+02  0.35221369388E+02  0.00000000000E+00 0. -1.
</event>
<event>
 7    1  0.6230310E-012  0.5930195E+02  0.7816164E-02  0.1266605E+00
        -11   -1    0    0    0    0  0.00000000000E+00  0.00000000000E+00  0.45593999997E+02  0.45594000000E+02  0.51100000000E-03 0. -1.
         11   -1    0    0    0    0 -0.00000000000E+00 -0.00000000000E+00 -0.45593999997E+02  0.45594000000E+02  0.51100000000E-03 0.  1.
    9900012    2    1    2    0    0  0.12754592152E+02  0.12281148946E+02  0.26518179451E+02  0.59301951612E+02  0.50000013833E+02 0.  0.
         12    1    1    2    0    0 -0.12754592152E+02 -0.12281148946E+02 -0.26518179451E+02  0.31886048388E+02  0.00000000000E+00 0. -1.
         11    1    3    3    0    0 -0.10271839703E+02  0.15382807532E+02 -0.35105268010E+01  0.18827247731E+02  0.51100000000E-03 0.  1.
        -11    1    3    3    0    0  0.15842794853E+02  0.45516261201E+01  0.20433833209E+02  0.26253628111E+02  0.51100000000E-03 0. -1.
        -12    1    3    3    0    0  0.71836370027E+01 -0.76532847065E+01  0.95948730421E+01  0.14221075771E+02  0.00000000000E+00 0.  1.
</event>
<event>
 7    1  0.6230310E-012  0.5930195E+02  0.7816164E-02  0.1266605E+00
        -11   -1    0    0    0    0  0.00000000000E+00  0.00000000000E+00  0.45593999997E+02  0.45594000000E+02  0.51100000000E-03 0.  1.
         11   -1    0    0    0    0 -0.00000000000E+00 -0.00000000000E+00 -0.45593999997E+02  0.45594000000E+02  0.51100000000E-03 0. -1.
    9900012    2    1    2    0    0 -0.14667566272E+02  0.27389996206E+02  0.71673363758E+01  0.59301951276E+02  0.50000013220E+02 0.  0.
         12    1    1    2    0    0  0.14667566272E+02 -0.27389996206E+02 -0.71673363758E+01  0.31886048724E+02  0.00000000000E+00 0. -1.
         11    1    3    3    0    0 -0.12081427614E+02  0.20219648800E+02 -0.10843798453E+02  0.25930350093E+02  0.51100000000E-03 0. -1.
        -11    1    3    3    0    0  0.26129074987E+01  0.62564833815E+01 -0.58367800528E+01  0.89464446316E+01  0.51100000000E-03 0.  1.
        -12    1    3    3    0    0 -0.51990461567E+01  0.91386402365E+00  0.23847914881E+02  0.24425156552E+02  0.00000000000E+00 0.  1.
</event>
<event>
 7    1  0.6230310E-012  0.5930194E+02  0.7816164E-02  0.1266605E+00
        -11   -1    0    0    0    0  0.00000000000E+00  0.00000000000E+00  0.45593999997E+02  0.45594000000E+02  0.51100000000E-03 0.  1.
         11   -1    0    0    0    0 -0.00000000000E+00 -0.00000000000E+00 -0.45593999997E+02  0.45594000000E+02  0.51100000000E-03 0. -1.
    9900012    2    1    2    0    0  0.34389584588E+01 -0.86965167545E+01  0.30483846376E+02  0.59301941467E+02  0.49999995329E+02 0.  0.
         12    1    1    2    0    0 -0.34389584588E+01  0.86965167545E+01 -0.30483846376E+02  0.31886058533E+02  0.00000000000E+00 0. -1.
         11    1    3    3    0    0  0.79411065901E+01  0.12251340091E+02  0.73630024619E+00  0.14618435149E+02  0.51100000000E-03 0. -1.
        -11    1    3    3    0    0  0.68582876929E+01 -0.19268565433E+01  0.18525925809E+02  0.19848395743E+02  0.51100000000E-03 0.  1.
         12    1    3    3    0    0 -0.11360435824E+02 -0.19021000302E+02  0.11221620320E+02  0.24835110574E+02  0.00000000000E+00 0. -1.
</event>
<event>
 7    1  0.6230310E-012  0.5930194E+02  0.7816164E-02  0.1266605E+00
        -11   -1    0    0    0    0  0.00000000000E+00  0.00000000000E+00  0.45593999997E+02  0.45594000000E+02  0.51100000000E-03 0.  1.
         11   -1    0    0    0    0 -0.00000000000E+00 -0.00000000000E+00 -0.45593999997E+02  0.45594000000E+02  0.51100000000E-03 0. -1.
    9900012    2    1    2    0    0 -0.31352758207E+02 -0.29509266850E+00  0.57998281783E+01  0.59301944524E+02  0.50000000906E+02 0.  0.
         12    1    1    2    0    0  0.31352758207E+02  0.29509266850E+00 -0.57998281783E+01  0.31886055476E+02  0.00000000000E+00 0. -1.
         11    1    3    3    0    0 -0.12924982294E+02  0.91015798693E+01  0.12913310205E+02  0.20411945133E+02  0.51100000000E-03 0. -1.
        -11    1    3    3    0    0 -0.17078485226E+01  0.10743942335E+02  0.22133129941E+01  0.11101702488E+02  0.51100000000E-03 0.  1.
        -12    1    3    3    0    0 -0.16719927391E+02 -0.20140614872E+02 -0.93267950208E+01  0.27788296903E+02  0.00000000000E+00 0.  1.
</event>
<event>
 7    1  0.6230310E-012  0.5930193E+02  0.7816164E-02  0.1266605E+00
        -11   -1    0    0    0    0  0.00000000000E+00  0.00000000000E+00  0.45593999997E+02  0.45594000000E+02  0.51100000000E-03 0. -1.
         11   -1    0    0    0    0 -0.00000000000E+00 -0.00000000000E+00 -0.45593999997E+02  0.45594000000E+02  0.51100000000E-03 0.  1.
    9900012    2    1    2    0    0 -0.16818391727E+02 -0.82315122574E+01 -0.25809012503E+02  0.59301933754E+02  0.49999981262E+02 0.  0.
         12    1    1    2    0    0  0.16818391727E+02  0.82315122574E+01  0.25809012503E+02  0.31886066246E+02  0.00000000000E+00 0. -1.
         11    1    3    3    0    0 -0.66357999935E+01  0.10908774452E+01  0.46480450788E+01  0.81748503638E+01  0.51100000000E-03 0. -1.
        -11    1    3    3    0    0 -0.21663791912E+02 -0.24823301829E+01 -0.49942160697E+01  0.22370159534E+02  0.51100000000E-03 0.  1.
         12    1    3    3    0    0  0.11481200179E+02 -0.68400595196E+01 -0.25462841512E+02  0.28756923856E+02  0.00000000000E+00 0. -1.
</event>
<event>
 7    1  0.6230310E-012  0.5930195E+02  0.7816164E-02  0.1266605E+00
        -11   -1    0    0    0    0  0.00000000000E+00  0.00000000000E+00  0.45593999997E+02  0.45594000000E+02  0.51100000000E-03 0.  1.
         11   -1    0    0    0    0 -0.00000000000E+00 -0.00000000000E+00 -0.45593999997E+02  0.45594000000E+02  0.51100000000E-03 0. -1.
    9900012    2    1    2    0    0 -0.18309035378E+02  0.11242292410E+02  0.23560783638E+02  0.59301945983E+02  0.50000003567E+02 0.  0.
         12    1    1    2    0    0  0.18309035378E+02 -0.11242292410E+02 -0.23560783638E+02  0.31886054017E+02  0.00000000000E+00 0. -1.
         11    1    3    3    0    0 -0.57111991952E+01  0.19566611564E+01 -0.10937967042E+02  0.12493415962E+02  0.51100000000E-03 0. -1.
        -11    1    3    3    0    0  0.34467101537E+01 -0.60299207261E+01  0.15943539784E+01  0.71261293643E+01  0.51100000000E-03 0.  1.
        -12    1    3    3    0    0 -0.16044546336E+02  0.15315551980E+02  0.32904396702E+02  0.39682400657E+02  0.00000000000E+00 0.  1.
</event>
<event>
 7    1  0.6230310E-012  0.5930200E+02  0.7816164E-02  0.1266605E+00
        -11   -1    0    0    0    0  0.00000000000E+00  0.00000000000E+00  0.45593999997E+02  0.45594000000E+02  0.51100000000E-03 0. -1.
         11   -1    0    0    0    0 -0.00000000000E+00 -0.00000000000E+00 -0.45593999997E+02  0.45594000000E+02  0.51100000000E-03 0.  1.
    9900012    2    1    2    0    0  0.17414974523E+02 -0.57439289098E+01 -0.26085300671E+02  0.59302000438E+02  0.50000102879E+02 0.  0.
         12    1    1    2    0    0 -0.17414974523E+02  0.57439289098E+01  0.26085300671E+02  0.31885999562E+02  0.00000000000E+00 0. -1.
         11    1    3    3    0    0  0.41488105078E+01  0.73996854373E+01  0.46012448286E+01  0.96508770293E+01  0.51100000000E-03 0.  1.
        -11    1    3    3    0    0 -0.96721361766E+01 -0.12851317639E+02 -0.13156355964E+02  0.20779708510E+02  0.51100000000E-03 0. -1.
        -12    1    3    3    0    0  0.22938300192E+02 -0.29229670844E+00 -0.17530189536E+02  0.28871414898E+02  0.00000000000E+00 0.  1.
</event>
<event>
 7    1  0.6230310E-012  0.5930199E+02  0.7816164E-02  0.1266605E+00
        -11   -1    0    0    0    0  0.00000000000E+00  0.00000000000E+00  0.45593999997E+02  0.45594000000E+02  0.51100000000E-03 0.  1.
         11   -1    0    0    0    0 -0.00000000000E+00 -0.00000000000E+00 -0.45593999997E+02  0.45594000000E+02  0.51100000000E-03 0. -1.
    9900012    2    1    2    0    0  0.23499636668E+02  0.20893206976E+02 -0.52875953037E+01  0.59301989190E+02  0.50000082365E+02 0.  0.
         12    1    1    2    0    0 -0.23499636668E+02 -0.20893206976E+02  0.52875953037E+01  0.31886010810E+02  0.00000000000E+00 0. -1.
         11    1    3    3    0    0 -0.42030415302E+01  0.48982064760E+01  0.12852876442E+02  0.14382434352E+02  0.51100000000E-03 0. -1.
        -11    1    3    3    0    0 -0.42970157960E+01 -0.13307222868E+01 -0.64909181773E+00  0.45449408142E+01  0.51100000000E-03 0.  1.
        -12    1    3    3    0    0  0.31999693994E+02  0.17325722787E+02 -0.17491379928E+02  0.40374614024E+02  0.00000000000E+00 0.  1.
</event>
<event>
 7    1  0.6230310E-012  0.5930196E+02  0.7816164E-02  0.1266605E+00
        -11   -1    0    0    0    0  0.00000000000E+00  0.00000000000E+00  0.45593999997E+02  0.45594000000E+02  0.51100000000E-03 0. -1.
         11   -1    0    0    0    0 -0.00000000000E+00 -0.00000000000E+00 -0.45593999997E+02  0.45594000000E+02  0.51100000000E-03 0.  1.
    9900012    2    1    2    0    0  0.16166078027E+02 -0.20172197878E+02 -0.18667077537E+02  0.59301961836E+02  0.50000032479E+02 0.  0.
         12    1    1    2    0    0 -0.16166078027E+02  0.20172197878E+02  0.18667077537E+02  0.31886038164E+02  0.00000000000E+00 0. -1.
         11    1    3    3    0    0  0.21624012458E+02  0.58838996961E+00 -0.79165015109E+01  0.23035084414E+02  0.51100000000E-03 0. -1.
        -11    1    3    3    0    0  0.54982422668E+01 -0.19835787008E+02 -0.13890555902E+02  0.24832169816E+02  0.51100000000E-03 0.  1.
        -12    1    3    3    0    0 -0.10956176697E+02 -0.92480083999E+00  0.31399798763E+01  0.11434707606E+02  0.00000000000E+00 0.  1.
</event>
<event>
 7    1  0.6230310E-012  0.5930194E+02  0.7816164E-02  0.1266605E+00
        -11   -1    0    0    0    0  0.00000000000E+00  0.00000000000E+00  0.45593999997E+02  0.45594000000E+02  0.51100000000E-03 0. -1.
         11   -1    0    0    0    0 -0.00000000000E+00 -0.00000000000E+00 -0.45593999997E+02  0.45594000000E+02  0.51100000000E-03 0.  1.
    9900012    2    1    2    0    0  0.92966985851E+01  0.30420623523E+02  0.22085309687E+01  0.59301944283E+02  0.50000000466E+02 0.  0.
         12    1    1    2    0    0 -0.92966985851E+01 -0.30420623523E+02 -0.22085309687E+01  0.31886055717E+02  0.00000000000E+00 0. -1.
         11    1    3    3    0    0 -0.62368814967E+01  0.36746948175E+01  0.49429955630E+01  0.87655734668E+01  0.51100000000E-03 0. -1.
        -11    1    3    3    0    0 -0.27303992640E+01 -0.74818180308E+01  0.69273381455E+01  0.10555600183E+02  0.51100000000E-03 0.  1.
        -12    1    3    3    0    0  0.18263979346E+02  0.34227746737E+02 -0.96618027399E+01  0.39980770633E+02  0.00000000000E+00 0.  1.
</event>
<event>
 7    1  0.6230310E-012  0.5930192E+02  0.7816164E-02  0.1266605E+00
        -11   -1    0    0    0    0  0.00000000000E+00  0.00000000000E+00  0.45593999997E+02  0.45594000000E+02  0.51100000000E-03 0.  1.
         11   -1    0    0    0    0 -0.00000000000E+00 -0.00000000000E+00 -0.45593999997E+02  0.45594000000E+02  0.51100000000E-03 0. -1.
    9900012    2    1    2    0    0 -0.16447622101E+02 -0.16364762933E+02  0.21872183564E+02  0.59301919142E+02  0.49999954614E+02 0.  0.
         12    1    1    2    0    0  0.16447622101E+02  0.16364762933E+02 -0.21872183564E+02  0.31886080858E+02  0.00000000000E+00 0. -1.
         11    1    3    3    0    0 -0.13440675104E+01  0.23417334273E+01  0.12747999658E+02  0.13030799225E+02  0.51100000000E-03 0. -1.
        -11    1    3    3    0    0 -0.10489395927E+02 -0.12914898620E+02  0.24262234871E+02  0.29419008727E+02  0.51100000000E-03 0.  1.
         12    1    3    3    0    0 -0.46141586635E+01 -0.57915977399E+01 -0.15138050964E+02  0.16852111190E+02  0.00000000000E+00 0. -1.
</event>
<event>
 7    1  0.6230310E-012  0.5930194E+02  0.7816164E-02  0.1266605E+00
        -11   -1    0    0    0    0  0.00000000000E+00  0.00000000000E+00  0.45593999997E+02  0.45594000000E+02  0.51100000000E-03 0. -1.
         11   -1    0    0    0    0 -0.00000000000E+00 -0.00000000000E+00 -0.45593999997E+02  0.45594000000E+02  0.51100000000E-03 0.  1.
    9900012    2    1    2    0    0  0.11296856599E+02 -0.11605280645E+02 -0.27466697745E+02  0.59301937326E+02  0.49999987778E+02 0.  0.
         12    1    1    2    0    0 -0.11296856599E+02  0.11605280645E+02  0.27466697745E+02  0.31886062674E+02  0.00000000000E+00 0. -1.
         11    1    3    3    0    0  0.11340424076E+02 -0.14612333797E+02 -0.10159012919E+02  0.21102868548E+02  0.51100000000E-03 0. -1.
        -11    1    3    3    0    0  0.75107905589E+01 -0.63017167468E+00 -0.25431296288E+02  0.26524704000E+02  0.51100000000E-03 0.  1.
         12    1    3    3    0    0 -0.75543580367E+01  0.36372248270E+01  0.81236114615E+01  0.11674364778E+02  0.00000000000E+00 0. -1.
</event>
<event>
 7    1  0.6230310E-012  0.5930197E+02  0.7816164E-02  0.1266605E+00
        -11   -1    0    0    0    0  0.00000000000E+00  0.00000000000E+00  0.45593999997E+02  0.45594000000E+02  0.51100000000E-03 0.  1.
         11   -1    0    0    0    0 -0.00000000000E+00 -0.00000000000E+00 -0.45593999997E+02  0.45594000000E+02  0.51100000000E-03 0. -1.
    9900012    2    1    2    0    0 -0.12402760942E+01 -0.21350163268E+02  0.23650611151E+02  0.59301966001E+02  0.50000040074E+02 0.  0.
         12    1    1    2    0    0  0.12402760942E+01  0.21350163268E+02 -0.23650611151E+02  0.31886033999E+02  0.00000000000E+00 0. -1.
         11    1    3    3    0    0  0.47018850866E+01  0.32468372557E+01 -0.53765564096E+01  0.78458291225E+01  0.51100000000E-03 0. -1.
        -11    1    3    3    0    0 -0.24006010047E+01 -0.89753926424E+01  0.33549299347E+02  0.34812010071E+02  0.51100000000E-03 0.  1.
         12    1    3    3    0    0 -0.35415601761E+01 -0.15621607881E+02 -0.45221317866E+01  0.16644126807E+02  0.00000000000E+00 0. -1.
</event>
<event>
 7    1  0.6230310E-012  0.5930194E+02  0.7816164E-02  0.1266605E+00
        -11   -1    0    0    0    0  0.00000000000E+00  0.00000000000E+00  0.45593999997E+02  0.45594000000E+02  0.51100000000E-03 0.  1.
         11   -1    0    0    0    0 -0.00000000000E+00 -0.00000000000E+00 -0.45593999997E+02  0.45594000000E+02  0.51100000000E-03 0. -1.
    9900012    2    1    2    0    0  0.27456042279E+02 -0.16094200363E+02  0.19654745952E+01  0.59301942963E+02  0.49999998059E+02 0.  0.
         12    1    1    2    0    0 -0.27456042279E+02  0.16094200363E+02 -0.19654745952E+01  0.31886057037E+02  0.00000000000E+00 0. -1.
         11    1    3    3    0    0 -0.20174155294E+00  0.72753232026E+01 -0.26155926104E+01  0.77338446016E+01  0.51100000000E-03 0. -1.
        -11    1    3    3    0    0 -0.31026250260E+01  0.78133733156E-01 -0.98178683816E+01  0.10296743502E+02  0.51100000000E-03 0.  1.
        -12    1    3    3    0    0  0.30760408858E+02 -0.23447657299E+02  0.14398935587E+02  0.41271354860E+02  0.00000000000E+00 0.  1.
</event>
<event>
 7    1  0.6230310E-012  0.5930191E+02  0.7816164E-02  0.1266605E+00
        -11   -1    0    0    0    0  0.00000000000E+00  0.00000000000E+00  0.45593999997E+02  0.45594000000E+02  0.51100000000E-03 0. -1.
         11   -1    0    0    0    0 -0.00000000000E+00 -0.00000000000E+00 -0.45593999997E+02  0.45594000000E+02  0.51100000000E-03 0.  1.
    9900012    2    1    2    0    0  0.24908255268E+02  0.84798351670E+01 -0.18010946399E+02  0.59301906242E+02  0.49999931088E+02 0.  0.
         12    1    1    2    0    0 -0.24908255268E+02 -0.84798351670E+01  0.18010946399E+02  0.31886093758E+02  0.00000000000E+00 0. -1.
         11    1    3    3    0    0  0.10090318352E+02 -0.73543030120E+01 -0.24106424015E+01  0.12716583436E+02  0.51100000000E-03 0. -1.
        -11    1    3    3    0    0  0.22738183191E+02  0.12661879905E+02 -0.23419973201E+02  0.35012045393E+02  0.51100000000E-03 0.  1.
         12    1    3    3    0    0 -0.79202462754E+01  0.31722582736E+01  0.78196692037E+01  0.11573277413E+02  0.00000000000E+00 0. -1.
</event>
<event>
 7    1  0.6230310E-012  0.5930196E+02  0.7816164E-02  0.1266605E+00
        -11   -1    0    0    0    0  0.00000000000E+00  0.00000000000E+00  0.45593999997E+02  0.45594000000E+02  0.51100000000E-03 0. -1.
         11   -1    0    0    0    0 -0.00000000000E+00 -0.00000000000E+00 -0.45593999997E+02  0.45594000000E+02  0.51100000000E-03 0.  1.
    9900012    2    1    2    0    0  0.21688952894E+02  0.20312742920E+02 -0.11562929176E+02  0.59301960207E+02  0.50000029506E+02 0.  0.
         12    1    1    2    0    0 -0.21688952894E+02 -0.20312742920E+02  0.11562929176E+02  0.31886039793E+02  0.00000000000E+00 0. -1.
         11    1    3    3    0    0 -0.33027430815E+01  0.11724344860E+02 -0.65372844335E+01  0.13824053758E+02  0.51100000000E-03 0. -1.
        -11    1    3    3    0    0  0.16162251916E+02  0.18180527446E+02 -0.15422377957E+02  0.28802772563E+02  0.51100000000E-03 0.  1.
        -12    1    3    3    0    0  0.88294440595E+01 -0.95921293870E+01  0.10396733214E+02  0.16675133886E+02  0.00000000000E+00 0.  1.
</event>
<event>
 7    1  0.6230310E-012  0.5930194E+02  0.7816164E-02  0.1266605E+00
        -11   -1    0    0    0    0  0.00000000000E+00  0.00000000000E+00  0.45593999997E+02  0.45594000000E+02  0.51100000000E-03 0. -1.
         11   -1    0    0    0    0 -0.00000000000E+00 -0.00000000000E+00 -0.45593999997E+02  0.45594000000E+02  0.51100000000E-03 0.  1.
    9900012    2    1    2    0    0  0.26457737366E+02 -0.12876460803E+02  0.12284376494E+02  0.59301936975E+02  0.49999987138E+02 0.  0.
         12    1    1    2    0    0 -0.26457737366E+02  0.12876460803E+02 -0.12284376494E+02  0.31886063025E+02  0.00000000000E+00 0. -1.
         11    1    3    3    0    0 -0.52110021159E+01 -0.69479889345E+01 -0.13825238937E+00  0.86860927505E+01  0.51100000000E-03 0.  1.
        -11    1    3    3    0    0  0.17467928169E+02  0.14555321442E+02 -0.65676754943E-01  0.22737418730E+02  0.51100000000E-03 0. -1.
        -12    1    3    3    0    0  0.14200811314E+02 -0.20483793311E+02  0.12488305638E+02  0.27878425495E+02  0.00000000000E+00 0.  1.
</event>
<event>
 7    1  0.6230310E-012  0.5930192E+02  0.7816164E-02  0.1266605E+00
        -11   -1    0    0    0    0  0.00000000000E+00  0.00000000000E+00  0.45593999997E+02  0.45594000000E+02  0.51100000000E-03 0.  1.
         11   -1    0    0    0    0 -0.00000000000E+00 -0.00000000000E+00 -0.45593999997E+02  0.45594000000E+02  0.51100000000E-03 0. -1.
    9900012    2    1    2    0    0  0.31655167411E+02 -0.28660473154E+01 -0.25413554243E+01  0.59301916226E+02  0.49999949296E+02 0.  0.
         12    1    1    2    0    0 -0.31655167411E+02  0.28660473154E+01  0.25413554243E+01  0.31886083774E+02  0.00000000000E+00 0. -1.
         11    1    3    3    0    0  0.11378565559E+02  0.44332117277E+00 -0.13835116526E+02  0.17918670079E+02  0.51100000000E-03 0. -1.
        -11    1    3    3    0    0  0.14044225072E+02  0.14938539471E+02  0.50749365560E+01  0.21122386246E+02  0.51100000000E-03 0.  1.
         12    1    3    3    0    0  0.62323767797E+01 -0.18247907959E+02  0.62188245457E+01  0.20260859901E+02  0.00000000000E+00 0. -1.
</event>
<event>
 7    1  0.6230310E-012  0.5930200E+02  0.7816164E-02  0.1266605E+00
        -11   -1    0    0    0    0  0.00000000000E+00  0.00000000000E+00  0.45593999997E+02  0.45594000000E+02  0.51100000000E-03 0.  1.
         11   -1    0    0    0    0 -0.00000000000E+00 -0.00000000000E+00 -0.45593999997E+02  0.45594000000E+02  0.51100000000E-03 0. -1.
    9900012    2    1    2    0    0  0.11784874824E+02  0.32794107341E+01  0.29446208178E+02  0.59302000166E+02  0.50000102383E+02 0.  0.
         12    1    1    2    0    0 -0.11784874824E+02 -0.32794107341E+01 -0.29446208178E+02  0.31885999834E+02  0.00000000000E+00 0. -1.
         11    1    3    3    0    0  0.76753218293E+01  0.12497978264E+02  0.15066542092E+02  0.21026429006E+02  0.51100000000E-03 0. -1.
        -11    1    3    3    0    0  0.12766566561E+02 -0.80036571679E+01  0.22008912459E+02  0.26672757220E+02  0.51100000000E-03 0.  1.
         12    1    3    3    0    0 -0.86570135667E+01 -0.12149103621E+01 -0.76292463740E+01  0.11602813940E+02  0.00000000000E+00 0. -1.
</event>
<event>
 7    1  0.6230310E-012  0.5930226E+02  0.7816164E-02  0.1266604E+00
        -11   -1    0    0    0    0  0.00000000000E+00  0.00000000000E+00  0.45593999997E+02  0.45594000000E+02  0.51100000000E-03 0.  1.
         11   -1    0    0    0    0 -0.00000000000E+00 -0.00000000000E+00 -0.45593999997E+02  0.45594000000E+02  0.51100000000E-03 0. -1.
    9900012    2    1    2    0    0 -0.54645416559E+01  0.30363399598E+02  0.80562635410E+01  0.59302256589E+02  0.50000570033E+02 0.  0.
         12    1    1    2    0    0  0.54645416559E+01 -0.30363399598E+02 -0.80562635410E+01  0.31885743411E+02  0.00000000000E+00 0. -1.
         11    1    3    3    0    0  0.13610246149E+00  0.77290954928E+01  0.17175049975E+02  0.18834536971E+02  0.51100000000E-03 0. -1.
        -11    1    3    3    0    0  0.10284072999E+02  0.54145774633E+01  0.54950979061E+01  0.12855967790E+02  0.51100000000E-03 0.  1.
         12    1    3    3    0    0 -0.15884717117E+02  0.17219726642E+02 -0.14613884340E+02  0.27611751828E+02  0.00000000000E+00 0. -1.
</event>
<event>
 7    1  0.6230310E-012  0.5930193E+02  0.7816164E-02  0.1266605E+00
        -11   -1    0    0    0    0  0.00000000000E+00  0.00000000000E+00  0.45593999997E+02  0.45594000000E+02  0.51100000000E-03 0. -1.
         11   -1    0    0    0    0 -0.00000000000E+00 -0.00000000000E+00 -0.45593999997E+02  0.45594000000E+02  0.51100000000E-03 0.  1.
    9900012    2    1    2    0    0  0.17840268593E+02 -0.24935271948E+02  0.87566277617E+01  0.59301929367E+02  0.49999973263E+02 0.  0.
         12    1    1    2    0    0 -0.17840268593E+02  0.24935271948E+02 -0.87566277617E+01  0.31886070633E+02  0.00000000000E+00 0. -1.
         11    1    3    3    0    0  0.18641185762E+02 -0.17862000224E+02  0.45450302011E+01  0.26214540973E+02  0.51100000000E-03 0. -1.
        -11    1    3    3    0    0 -0.54579446653E+01 -0.16145708473E+02  0.11493418194E+02  0.20556549421E+02  0.51100000000E-03 0.  1.
        -12    1    3    3    0    0  0.46570274967E+01  0.90724367485E+01 -0.72818206329E+01  0.12530838974E+02  0.00000000000E+00 0.  1.
</event>
<event>
 7    1  0.6230310E-012  0.5930195E+02  0.7816164E-02  0.1266605E+00
        -11   -1    0    0    0    0  0.00000000000E+00  0.00000000000E+00  0.45593999997E+02  0.45594000000E+02  0.51100000000E-03 0.  1.
         11   -1    0    0    0    0 -0.00000000000E+00 -0.00000000000E+00 -0.45593999997E+02  0.45594000000E+02  0.51100000000E-03 0. -1.
    9900012    2    1    2    0    0  0.15774235605E+01  0.30215607368E+02  0.10062261899E+02  0.59301948062E+02  0.50000007357E+02 0.  0.
         12    1    1    2    0    0 -0.15774235605E+01 -0.30215607368E+02 -0.10062261899E+02  0.31886051938E+02  0.00000000000E+00 0. -1.
         11    1    3    3    0    0 -0.33411883493E+01  0.44041008922E+01 -0.73167142223E+01  0.91702754335E+01  0.51100000000E-03 0. -1.
        -11    1    3    3    0    0 -0.51637562989E+01 -0.81117527100E+01 -0.19437354630E+01  0.98103526416E+01  0.51100000000E-03 0.  1.
         12    1    3    3    0    0  0.10082368209E+02  0.33923259186E+02  0.19322711584E+02  0.40321319986E+02  0.00000000000E+00 0. -1.
</event>
<event>
 7    1  0.6230310E-012  0.5930188E+02  0.7816164E-02  0.1266605E+00
        -11   -1    0    0    0    0  0.00000000000E+00  0.00000000000E+00  0.45593999997E+02  0.45594000000E+02  0.51100000000E-03 0. -1.
         11   -1    0    0    0    0 -0.00000000000E+00 -0.00000000000E+00 -0.45593999997E+02  0.45594000000E+02  0.51100000000E-03 0.  1.
    9900012    2    1    2    0    0  0.88799934890E+01 -0.30342486448E+02 -0.41477469547E+01  0.59301881186E+02  0.49999885392E+02 0.  0.
         12    1    1    2    0    0 -0.88799934890E+01  0.30342486448E+02  0.41477469547E+01  0.31886118814E+02  0.00000000000E+00 0. -1.
         11    1    3    3    0    0  0.37988449289E+01 -0.11409293627E+02 -0.54335450264E+01  0.13195704440E+02  0.51100000000E-03 0. -1.
        -11    1    3    3    0    0  0.22493309794E+02 -0.12128989324E+02 -0.56401044808E+01  0.26170062023E+02  0.51100000000E-03 0.  1.
         12    1    3    3    0    0 -0.17412161233E+02 -0.68042034972E+01  0.69259025525E+01  0.19936114722E+02  0.00000000000E+00 0. -1.
</event>
<event>
 7    1  0.6230310E-012  0.5930191E+02  0.7816164E-02  0.1266605E+00
        -11   -1    0    0    0    0  0.00000000000E+00  0.00000000000E+00  0.45593999997E+02  0.45594000000E+02  0.51100000000E-03 0. -1.
         11   -1    0    0    0    0 -0.00000000000E+00 -0.00000000000E+00 -0.45593999997E+02  0.45594000000E+02  0.51100000000E-03 0.  1.
    9900012    2    1    2    0    0  0.27052098392E+02  0.43428552132E+01  0.16310922364E+02  0.59301912012E+02  0.49999941612E+02 0.  0.
         12    1    1    2    0    0 -0.27052098392E+02 -0.43428552132E+01 -0.16310922364E+02  0.31886087988E+02  0.00000000000E+00 0. -1.
         11    1    3    3    0    0  0.15789915740E+02  0.58054616009E+01  0.59637316367E+01  0.17849115350E+02  0.51100000000E-03 0. -1.
        -11    1    3    3    0    0  0.13435127669E+02 -0.17243932487E+02 -0.10185596682E+01  0.21883631490E+02  0.51100000000E-03 0.  1.
         12    1    3    3    0    0 -0.21729450179E+01  0.15781326100E+02  0.11365750395E+02  0.19569165173E+02  0.00000000000E+00 0. -1.
</event>
<event>
 7    1  0.6230310E-012  0.5930179E+02  0.7816164E-02  0.1266605E+00
        -11   -1    0    0    0    0  0.00000000000E+00  0.00000000000E+00  0.45593999997E+02  0.45594000000E+02  0.51100000000E-03 0. -1.
         11   -1    0    0    0    0 -0.00000000000E+00 -0.00000000000E+00 -0.45593999997E+02  0.45594000000E+02  0.51100000000E-03 0.  1.
    9900012    2    1    2    0    0  0.56125416036E+01  0.29585641711E+01 -0.31248622672E+02  0.59301793827E+02  0.49999726069E+02 0.  0.
         12    1    1    2    0    0 -0.56125416036E+01 -0.29585641711E+01  0.31248622672E+02  0.31886206173E+02  0.00000000000E+00 0. -1.
         11    1    3    3    0    0 -0.72758015588E+01 -0.14715440487E+02 -0.71949494085E+01  0.17923414136E+02  0.51100000000E-03 0. -1.
        -11    1    3    3    0    0 -0.21834580683E+01  0.72531954453E+01  0.34551897260E+01  0.83255432020E+01  0.51100000000E-03 0.  1.
         12    1    3    3    0    0  0.15071801231E+02  0.10420809212E+02 -0.27508862990E+02  0.33052836489E+02  0.00000000000E+00 0. -1.
</event>
<event>
 7    1  0.6230310E-012  0.5930191E+02  0.7816164E-02  0.1266605E+00
        -11   -1    0    0    0    0  0.00000000000E+00  0.00000000000E+00  0.45593999997E+02  0.45594000000E+02  0.51100000000E-03 0.  1.
         11   -1    0    0    0    0 -0.00000000000E+00 -0.00000000000E+00 -0.45593999997E+02  0.45594000000E+02  0.51100000000E-03 0. -1.
    9900012    2    1    2    0    0 -0.42770476565E+01  0.30684076147E+02 -0.75443262327E+01  0.59301913317E+02  0.49999943992E+02 0.  0.
         12    1    1    2    0    0  0.42770476565E+01 -0.30684076147E+02  0.75443262327E+01  0.31886086683E+02  0.00000000000E+00 0. -1.
         11    1    3    3    0    0 -0.13256170517E+02 -0.78711266324E+01 -0.51111348458E+01  0.16242056240E+02  0.51100000000E-03 0. -1.
        -11    1    3    3    0    0  0.27059221676E+01 -0.72978085459E+00 -0.16849684557E+01  0.32701244366E+01  0.51100000000E-03 0.  1.
        -12    1    3    3    0    0  0.62732006931E+01  0.39284983634E+02 -0.74822293113E+00  0.39789732640E+02  0.00000000000E+00 0.  1.
</event>
<event>
 7    1  0.6230310E-012  0.5930195E+02  0.7816164E-02  0.1266605E+00
        -11   -1    0    0    0    0  0.00000000000E+00  0.00000000000E+00  0.45593999997E+02  0.45594000000E+02  0.51100000000E-03 0.  1.
         11   -1    0    0    0    0 -0.00000000000E+00 -0.00000000000E+00 -0.45593999997E+02  0.45594000000E+02  0.51100000000E-03 0. -1.
    9900012    2    1    2    0    0 -0.21646292292E+02  0.18023389083E+02  0.14943756303E+02  0.59301946991E+02  0.50000005405E+02 0.  0.
         12    1    1    2    0    0  0.21646292292E+02 -0.18023389083E+02 -0.14943756303E+02  0.31886053009E+02  0.00000000000E+00 0. -1.
         11    1    3    3    0    0  0.45939154745E+01  0.39942329070E+01 -0.12170711841E+01  0.62079963298E+01  0.51100000000E-03 0. -1.
        -11    1    3    3    0    0  0.12525378905E+01 -0.10377476327E+02 -0.39683459030E+01  0.11180726075E+02  0.51100000000E-03 0.  1.
        -12    1    3    3    0    0 -0.27492745657E+02  0.24406632503E+02  0.20129173390E+02  0.41913224587E+02  0.00000000000E+00 0.  1.
</event>
<event>
 7    1  0.6230310E-012  0.5930199E+02  0.7816164E-02  0.1266605E+00
        -11   -1    0    0    0    0  0.00000000000E+00  0.00000000000E+00  0.45593999997E+02  0.45594000000E+02  0.51100000000E-03 0.  1.
         11   -1    0    0    0    0 -0.00000000000E+00 -0.00000000000E+00 -0.45593999997E+02  0.45594000000E+02  0.51100000000E-03 0. -1.
    9900012    2    1    2    0    0 -0.58324692083E+01  0.69273589212E+01  0.30573056200E+02  0.59301987956E+02  0.50000080115E+02 0.  0.
         12    1    1    2    0    0  0.58324692083E+01 -0.69273589212E+01 -0.30573056200E+02  0.31886012044E+02  0.00000000000E+00 0. -1.
         11    1    3    3    0    0 -0.90549726136E+00 -0.60126909618E+01 -0.10527391531E+00  0.60814028605E+01  0.51100000000E-03 0. -1.
        -11    1    3    3    0    0 -0.21969845436E+02 -0.98991855705E-01  0.14122430601E+02  0.26117560265E+02  0.51100000000E-03 0.  1.
         12    1    3    3    0    0  0.17042873489E+02  0.13039041739E+02  0.16555899514E+02  0.27103024830E+02  0.00000000000E+00 0. -1.
</event>
<event>
 7    1  0.6230310E-012  0.5930195E+02  0.7816164E-02  0.1266605E+00
        -11   -1    0    0    0    0  0.00000000000E+00  0.00000000000E+00  0.45593999997E+02  0.45594000000E+02  0.51100000000E-03 0. -1.
         11   -1    0    0    0    0 -0.00000000000E+00 -0.00000000000E+00 -0.45593999997E+02  0.45594000000E+02  0.51100000000E-03 0.  1.
    9900012    2    1    2    0    0  0.26911708986E+02  0.56832965984E+01  0.16130111090E+02  0.59301946237E+02  0.50000004030E+02 0.  0.
         12    1    1    2    0    0 -0.26911708986E+02 -0.56832965984E+01 -0.16130111090E+02  0.31886053763E+02  0.00000000000E+00 0. -1.
         11    1    3    3    0    0  0.21382119225E+02  0.13698243084E+02  0.21518304353E+02  0.33284745884E+02  0.51100000000E-03 0. -1.
        -11    1    3    3    0    0  0.10792764538E+02 -0.12627790667E+01  0.54897797845E+01  0.12174401821E+02  0.51100000000E-03 0.  1.
        -12    1    3    3    0    0 -0.52631747766E+01 -0.67521674188E+01 -0.10877973047E+02  0.13842798532E+02  0.00000000000E+00 0.  1.
</event>
<event>
 7    1  0.6230310E-012  0.5930194E+02  0.7816164E-02  0.1266605E+00
        -11   -1    0    0    0    0  0.00000000000E+00  0.00000000000E+00  0.45593999997E+02  0.45594000000E+02  0.51100000000E-03 0. -1.
         11   -1    0    0    0    0 -0.00000000000E+00 -0.00000000000E+00 -0.45593999997E+02  0.45594000000E+02  0.51100000000E-03 0.  1.
    9900012    2    1    2    0    0 -0.33241120114E-01 -0.30663190110E+02 -0.87457681813E+01  0.59301940447E+02  0.49999993470E+02 0.  0.
         12    1    1    2    0    0  0.33241120114E-01  0.30663190110E+02  0.87457681813E+01  0.31886059553E+02  0.00000000000E+00 0. -1.
         11    1    3    3    0    0  0.11375260649E+02 -0.55655174768E+01  0.16920769171E+01  0.12776332188E+02  0.51100000000E-03 0. -1.
        -11    1    3    3    0    0 -0.16833439471E+02  0.12693574225E+01  0.17578696483E+01  0.16972508909E+02  0.51100000000E-03 0.  1.
        -12    1    3    3    0    0  0.54249377014E+01 -0.26367030056E+02 -0.12195714747E+02  0.29553099351E+02  0.00000000000E+00 0.  1.
</event>
<event>
 7    1  0.6230310E-012  0.5930213E+02  0.7816164E-02  0.1266604E+00
        -11   -1    0    0    0    0  0.00000000000E+00  0.00000000000E+00  0.45593999997E+02  0.45594000000E+02  0.51100000000E-03 0. -1.
         11   -1    0    0    0    0 -0.00000000000E+00 -0.00000000000E+00 -0.45593999997E+02  0.45594000000E+02  0.51100000000E-03 0.  1.
    9900012    2    1    2    0    0  0.17030225735E+02  0.24490111947E+02  0.11265648843E+02  0.59302125140E+02  0.50000330304E+02 0.  0.
         12    1    1    2    0    0 -0.17030225735E+02 -0.24490111947E+02 -0.11265648843E+02  0.31885874860E+02  0.00000000000E+00 0. -1.
         11    1    3    3    0    0  0.19313324844E+01  0.11250998954E+02 -0.21769107202E+00  0.11417636021E+02  0.51100000000E-03 0. -1.
        -11    1    3    3    0    0  0.14707648474E+02 -0.18419133809E+00 -0.13213739741E+02  0.19772500304E+02  0.51100000000E-03 0.  1.
         12    1    3    3    0    0  0.39124477665E+00  0.13423304330E+02  0.24697079655E+02  0.28111988815E+02  0.00000000000E+00 0. -1.
</event>
<event>
 7    1  0.6230310E-012  0.5930195E+02  0.7816164E-02  0.1266605E+00
        -11   -1    0    0    0    0  0.00000000000E+00  0.00000000000E+00  0.45593999997E+02  0.45594000000E+02  0.51100000000E-03 0.  1.
         11   -1    0    0    0    0 -0.00000000000E+00 -0.00000000000E+00 -0.45593999997E+02  0.45594000000E+02  0.51100000000E-03 0. -1.
    9900012    2    1    2    0    0  0.87838321654E+01 -0.90466344689E+00  0.30638965979E+02  0.59301947254E+02  0.50000005884E+02 0.  0.
         12    1    1    2    0    0 -0.87838321654E+01  0.90466344689E+00 -0.30638965979E+02  0.31886052746E+02  0.00000000000E+00 0. -1.
         11    1    3    3    0    0  0.40622179139E+00 -0.16611850470E+01  0.11714457728E+02  0.11838626272E+02  0.51100000000E-03 0.  1.
        -11    1    3    3    0    0  0.71903483501E+01  0.11410405215E+02 -0.98866093689E+01  0.16722544712E+02  0.51100000000E-03 0. -1.
         12    1    3    3    0    0  0.11872620239E+01 -0.10653883615E+02  0.28811117620E+02  0.30740776270E+02  0.00000000000E+00 0. -1.
</event>
<event>
 7    1  0.6230310E-012  0.5930195E+02  0.7816164E-02  0.1266605E+00
        -11   -1    0    0    0    0  0.00000000000E+00  0.00000000000E+00  0.45593999997E+02  0.45594000000E+02  0.51100000000E-03 0. -1.
         11   -1    0    0    0    0 -0.00000000000E+00 -0.00000000000E+00 -0.45593999997E+02  0.45594000000E+02  0.51100000000E-03 0.  1.
    9900012    2    1    2    0    0  0.27694128909E+02 -0.70668723583E+01 -0.14135576743E+02  0.59301953039E+02  0.50000016434E+02 0.  0.
         12    1    1    2    0    0 -0.27694128909E+02  0.70668723583E+01  0.14135576743E+02  0.31886046961E+02  0.00000000000E+00 0. -1.
         11    1    3    3    0    0 -0.53770098985E+01 -0.59596685025E+01  0.41352474752E+01  0.90294050773E+01  0.51100000000E-03 0. -1.
        -11    1    3    3    0    0  0.39385656499E+01 -0.97572729054E+01 -0.16830250195E+02  0.19848778194E+02  0.51100000000E-03 0.  1.
         12    1    3    3    0    0  0.29132573157E+02  0.86500690496E+01 -0.14405740240E+01  0.30423769767E+02  0.00000000000E+00 0. -1.
</event>
<event>
 7    1  0.6230310E-012  0.5930185E+02  0.7816164E-02  0.1266605E+00
        -11   -1    0    0    0    0  0.00000000000E+00  0.00000000000E+00  0.45593999997E+02  0.45594000000E+02  0.51100000000E-03 0.  1.
         11   -1    0    0    0    0 -0.00000000000E+00 -0.00000000000E+00 -0.45593999997E+02  0.45594000000E+02  0.51100000000E-03 0. -1.
    9900012    2    1    2    0    0  0.25071848012E+01 -0.24123338441E+02  0.20700367979E+02  0.59301848341E+02  0.49999825490E+02 0.  0.
         12    1    1    2    0    0 -0.25071848012E+01  0.24123338441E+02 -0.20700367979E+02  0.31886151659E+02  0.00000000000E+00 0. -1.
         11    1    3    3    0    0  0.13096921884E+02 -0.89723731283E+01  0.12131360205E+02  0.19980058635E+02  0.51100000000E-03 0.  1.
        -11    1    3    3    0    0  0.63413549789E+01  0.71808181030E+01 -0.11746708652E+01  0.96517761836E+01  0.51100000000E-03 0. -1.
         12    1    3    3    0    0 -0.16931092062E+02 -0.22331783416E+02  0.97436786396E+01  0.29670013522E+02  0.00000000000E+00 0. -1.
</event>
<event>
 7    1  0.6230310E-012  0.5930195E+02  0.7816164E-02  0.1266605E+00
        -11   -1    0    0    0    0  0.00000000000E+00  0.00000000000E+00  0.45593999997E+02  0.45594000000E+02  0.51100000000E-03 0. -1.
         11   -1    0    0    0    0 -0.00000000000E+00 -0.00000000000E+00 -0.45593999997E+02  0.45594000000E+02  0.51100000000E-03 0.  1.
    9900012    2    1    2    0    0 -0.91870794455E+01  0.30641387183E+01 -0.30379744962E+02  0.59301948523E+02  0.50000008199E+02 0.  0.
         12    1    1    2    0    0  0.91870794455E+01 -0.30641387183E+01  0.30379744962E+02  0.31886051477E+02  0.00000000000E+00 0. -1.
         11    1    3    3    0    0  0.87228098704E+01 -0.47525643861E+01  0.45662440326E+01  0.10932742799E+02  0.51100000000E-03 0. -1.
        -11    1    3    3    0    0 -0.33980516692E+00 -0.23097268668E+00 -0.27741467539E+02  0.27744510041E+02  0.51100000000E-03 0.  1.
        -12    1    3    3    0    0 -0.17570084149E+02  0.80476757911E+01 -0.72045214560E+01  0.20624695684E+02  0.00000000000E+00 0.  1.
</event>
<event>
 7    1  0.6230310E-012  0.5930200E+02  0.7816164E-02  0.1266605E+00
        -11   -1    0    0    0    0  0.00000000000E+00  0.00000000000E+00  0.45593999997E+02  0.45594000000E+02  0.51100000000E-03 0.  1.
         11   -1    0    0    0    0 -0.00000000000E+00 -0.00000000000E+00 -0.45593999997E+02  0.45594000000E+02  0.51100000000E-03 0. -1.
    9900012    2    1    2    0    0 -0.24502911561E+02  0.11253866736E+02 -0.17019827204E+02  0.59302004492E+02  0.50000110272E+02 0.  0.
         12    1    1    2    0    0  0.24502911561E+02 -0.11253866736E+02  0.17019827204E+02  0.31885995508E+02  0.00000000000E+00 0. -1.
         11    1    3    3    0    0 -0.19798345851E+02  0.11707246961E+02 -0.10241904547E+02  0.25177981230E+02  0.51100000000E-03 0. -1.
        -11    1    3    3    0    0 -0.14762358812E+02  0.39657869201E+01  0.67393560407E+01  0.16705496810E+02  0.51100000000E-03 0.  1.
         12    1    3    3    0    0  0.10057793102E+02 -0.44191671450E+01 -0.13517278698E+02  0.17418526451E+02  0.00000000000E+00 0. -1.
</event>
<event>
 7    1  0.6230310E-012  0.5930194E+02  0.7816164E-02  0.1266605E+00
        -11   -1    0    0    0    0  0.00000000000E+00  0.00000000000E+00  0.45593999997E+02  0.45594000000E+02  0.51100000000E-03 0.  1.
         11   -1    0    0    0    0 -0.00000000000E+00 -0.00000000000E+00 -0.45593999997E+02  0.45594000000E+02  0.51100000000E-03 0. -1.
    9900012    2    1    2    0    0 -0.30285716182E+02 -0.85874494902E+01  0.50746217524E+01  0.59301942242E+02  0.49999996744E+02 0.  0.
         12    1    1    2    0    0  0.30285716182E+02  0.85874494902E+01 -0.50746217524E+01  0.31886057758E+02  0.00000000000E+00 0. -1.
         11    1    3    3    0    0 -0.10028370626E+00  0.56809013909E+01  0.69750556191E+01  0.89963380653E+01  0.51100000000E-03 0. -1.
        -11    1    3    3    0    0 -0.16103034440E+02  0.11181050502E+02  0.53670534688E+01  0.20325571866E+02  0.51100000000E-03 0.  1.
        -12    1    3    3    0    0 -0.14082398036E+02 -0.25449401383E+02 -0.72674873355E+01  0.29980032311E+02  0.00000000000E+00 0.  1.
</event>
<event>
 7    1  0.6230310E-012  0.5930195E+02  0.7816164E-02  0.1266605E+00
        -11   -1    0    0    0    0  0.00000000000E+00  0.00000000000E+00  0.45593999997E+02  0.45594000000E+02  0.51100000000E-03 0.  1.
         11   -1    0    0    0    0 -0.00000000000E+00 -0.00000000000E+00 -0.45593999997E+02  0.45594000000E+02  0.51100000000E-03 0. -1.
    9900012    2    1    2    0    0  0.59742658773E+01  0.15810021978E+02  0.27038339848E+02  0.59301945533E+02  0.50000002746E+02 0.  0.
         12    1    1    2    0    0 -0.59742658773E+01 -0.15810021978E+02 -0.27038339848E+02  0.31886054467E+02  0.00000000000E+00 0. -1.
         11    1    3    3    0    0 -0.31022001347E+00 -0.13088189707E+02  0.68095853010E+01  0.14756944077E+02  0.51100000000E-03 0. -1.
        -11    1    3    3    0    0  0.80238507458E+01 -0.21782971841E+01  0.23047371535E+01  0.86278023286E+01  0.51100000000E-03 0.  1.
         12    1    3    3    0    0 -0.17393648550E+01  0.31076508870E+02  0.17924017393E+02  0.35917199127E+02  0.00000000000E+00 0. -1.
</event>
<event>
 7    1  0.6230310E-012  0.5930194E+02  0.7816164E-02  0.1266605E+00
        -11   -1    0    0    0    0  0.00000000000E+00  0.00000000000E+00  0.45593999997E+02  0.45594000000E+02  0.51100000000E-03 0.  1.
         11   -1    0    0    0    0 -0.00000000000E+00 -0.00000000000E+00 -0.45593999997E+02  0.45594000000E+02  0.51100000000E-03 0. -1.
    9900012    2    1    2    0    0  0.10881760143E+02  0.18300987459E+02  0.23735671625E+02  0.59301937946E+02  0.49999988909E+02 0.  0.
         12    1    1    2    0    0 -0.10881760143E+02 -0.18300987459E+02 -0.23735671625E+02  0.31886062054E+02  0.00000000000E+00 0. -1.
         11    1    3    3    0    0 -0.43587263682E+01  0.17543619917E+02  0.50023152400E+01  0.18756339018E+02  0.51100000000E-03 0. -1.
        -11    1    3    3    0    0  0.95833855809E+01 -0.28047935136E+01  0.27651935508E+02  0.29399620465E+02  0.51100000000E-03 0.  1.
         12    1    3    3    0    0  0.56571009306E+01  0.35621610555E+01 -0.89185791232E+01  0.11145978463E+02  0.00000000000E+00 0. -1.
</event>
<event>
 7    1  0.6230310E-012  0.5930193E+02  0.7816164E-02  0.1266605E+00
        -11   -1    0    0    0    0  0.00000000000E+00  0.00000000000E+00  0.45593999997E+02  0.45594000000E+02  0.51100000000E-03 0.  1.
         11   -1    0    0    0    0 -0.00000000000E+00 -0.00000000000E+00 -0.45593999997E+02  0.45594000000E+02  0.51100000000E-03 0. -1.
    9900012    2    1    2    0    0 -0.30993442887E+02 -0.49900217230E+01 -0.55881430591E+01  0.59301934679E+02  0.49999982951E+02 0.  0.
         12    1    1    2    0    0  0.30993442887E+02  0.49900217230E+01  0.55881430591E+01  0.31886065321E+02  0.00000000000E+00 0. -1.
         11    1    3    3    0    0 -0.18355183581E+02 -0.14905040157E+02 -0.60400442153E+01  0.24403998049E+02  0.51100000000E-03 0. -1.
        -11    1    3    3    0    0  0.86130657434E+01 -0.31900352829E+01 -0.30683163960E+01  0.96837901863E+01  0.51100000000E-03 0.  1.
        -12    1    3    3    0    0 -0.21251325049E+02  0.13105053717E+02  0.35202175522E+01  0.25214146444E+02  0.00000000000E+00 0.  1.
</event>
<event>
 7    1  0.6230310E-012  0.5930193E+02  0.7816164E-02  0.1266605E+00
        -11   -1    0    0    0    0  0.00000000000E+00  0.00000000000E+00  0.45593999997E+02  0.45594000000E+02  0.51100000000E-03 0.  1.
         11   -1    0    0    0    0 -0.00000000000E+00 -0.00000000000E+00 -0.45593999997E+02  0.45594000000E+02  0.51100000000E-03 0. -1.
    9900012    2    1    2    0    0  0.24951559441E+02 -0.19662224588E+02  0.27455012271E+01  0.59301934528E+02  0.49999982676E+02 0.  0.
         12    1    1    2    0    0 -0.24951559441E+02  0.19662224588E+02 -0.27455012271E+01  0.31886065472E+02  0.00000000000E+00 0. -1.
         11    1    3    3    0    0  0.68298078866E+01  0.40091027905E+01 -0.24770603835E+01  0.82978918623E+01  0.51100000000E-03 0. -1.
        -11    1    3    3    0    0  0.20466421646E+01 -0.20189253416E+01 -0.16268583009E+02  0.16520641545E+02  0.51100000000E-03 0.  1.
        -12    1    3    3    0    0  0.16075109389E+02 -0.21652402037E+02  0.21491144619E+02  0.34483401121E+02  0.00000000000E+00 0.  1.
</event>
<event>
 7    1  0.6230310E-012  0.5930194E+02  0.7816164E-02  0.1266605E+00
        -11   -1    0    0    0    0  0.00000000000E+00  0.00000000000E+00  0.45593999997E+02  0.45594000000E+02  0.51100000000E-03 0.  1.
         11   -1    0    0    0    0 -0.00000000000E+00 -0.00000000000E+00 -0.45593999997E+02  0.45594000000E+02  0.51100000000E-03 0. -1.
    9900012    2    1    2    0    0 -0.12308477189E+02 -0.62353045632E+01  0.28746191070E+02  0.59301935101E+02  0.49999983720E+02 0.  0.
         12    1    1    2    0    0  0.12308477189E+02  0.62353045632E+01 -0.28746191070E+02  0.31886064899E+02  0.00000000000E+00 0. -1.
         11    1    3    3    0    0 -0.12590983183E+02 -0.10822933387E+02  0.17787645146E+02  0.24332469351E+02  0.51100000000E-03 0. -1.
        -11    1    3    3    0    0 -0.87657227995E+01  0.11828234613E+02  0.16509189639E+02  0.22120089807E+02  0.51100000000E-03 0.  1.
         12    1    3    3    0    0  0.90482287936E+01 -0.72406057889E+01 -0.55506437156E+01  0.12849375944E+02  0.00000000000E+00 0. -1.
</event>
<event>
 7    1  0.6230310E-012  0.5930194E+02  0.7816164E-02  0.1266605E+00
        -11   -1    0    0    0    0  0.00000000000E+00  0.00000000000E+00  0.45593999997E+02  0.45594000000E+02  0.51100000000E-03 0. -1.
         11   -1    0    0    0    0 -0.00000000000E+00 -0.00000000000E+00 -0.45593999997E+02  0.45594000000E+02  0.51100000000E-03 0.  1.
    9900012    2    1    2    0    0 -0.11715442705E+02 -0.25396540577E+02  0.15312904867E+02  0.59301938367E+02  0.49999989676E+02 0.  0.
         12    1    1    2    0    0  0.11715442705E+02  0.25396540577E+02 -0.15312904867E+02  0.31886061633E+02  0.00000000000E+00 0. -1.
         11    1    3    3    0    0 -0.11537107768E+02 -0.60394606419E+01  0.22327428995E+02  0.25847514896E+02  0.51100000000E-03 0. -1.
        -11    1    3    3    0    0  0.99795296325E+01 -0.42988085105E+00  0.19514414145E+01  0.10177619225E+02  0.51100000000E-03 0.  1.
         12    1    3    3    0    0 -0.10157864570E+02 -0.18927199084E+02 -0.89659655434E+01  0.23276804246E+02  0.00000000000E+00 0. -1.
</event>
<event>
 7    1  0.6230310E-012  0.5930189E+02  0.7816164E-02  0.1266605E+00
        -11   -1    0    0    0    0  0.00000000000E+00  0.00000000000E+00  0.45593999997E+02  0.45594000000E+02  0.51100000000E-03 0.  1.
         11   -1    0    0    0    0 -0.00000000000E+00 -0.00000000000E+00 -0.45593999997E+02  0.45594000000E+02  0.51100000000E-03 0. -1.
    9900012    2    1    2    0    0  0.18477246441E+02  0.10911686229E+02  0.23584964440E+02  0.59301888916E+02  0.49999899490E+02 0.  0.
         12    1    1    2    0    0 -0.18477246441E+02 -0.10911686229E+02 -0.23584964440E+02  0.31886111084E+02  0.00000000000E+00 0. -1.
         11    1    3    3    0    0  0.10477515436E+02  0.17643382771E+02  0.20286099138E+02  0.28854689460E+02  0.51100000000E-03 0.  1.
        -11    1    3    3    0    0 -0.51869241108E+01  0.71977571649E+01 -0.42457748673E+01  0.98355729076E+01  0.51100000000E-03 0. -1.
        -12    1    3    3    0    0  0.13186655116E+02 -0.13929453707E+02  0.75446401697E+01  0.20611626549E+02  0.00000000000E+00 0.  1.
</event>
<event>
 7    1  0.6230310E-012  0.5930192E+02  0.7816164E-02  0.1266605E+00
        -11   -1    0    0    0    0  0.00000000000E+00  0.00000000000E+00  0.45593999997E+02  0.45594000000E+02  0.51100000000E-03 0.  1.
         11   -1    0    0    0    0 -0.00000000000E+00 -0.00000000000E+00 -0.45593999997E+02  0.45594000000E+02  0.51100000000E-03 0. -1.
    9900012    2    1    2    0    0 -0.57264638230E+01 -0.29233990108E+02  0.11371160703E+02  0.59301923708E+02  0.49999962942E+02 0.  0.
         12    1    1    2    0    0  0.57264638230E+01  0.29233990108E+02 -0.11371160703E+02  0.31886076292E+02  0.00000000000E+00 0. -1.
         11    1    3    3    0    0 -0.33126852892E+01 -0.45310840793E+01 -0.10113134670E+02  0.11566334764E+02  0.51100000000E-03 0. -1.
        -11    1    3    3    0    0  0.12135997054E+01  0.82592033429E+01  0.90701046819E+01  0.12326964886E+02  0.51100000000E-03 0.  1.
        -12    1    3    3    0    0 -0.36273782392E+01 -0.32962109372E+02  0.12414190692E+02  0.35408624058E+02  0.00000000000E+00 0.  1.
</event>
<event>
 7    1  0.6230310E-012  0.5930197E+02  0.7816164E-02  0.1266605E+00
        -11   -1    0    0    0    0  0.00000000000E+00  0.00000000000E+00  0.45593999997E+02  0.45594000000E+02  0.51100000000E-03 0.  1.
         11   -1    0    0    0    0 -0.00000000000E+00 -0.00000000000E+00 -0.45593999997E+02  0.45594000000E+02  0.51100000000E-03 0. -1.
    9900012    2    1    2    0    0  0.89154999948E+01 -0.25144135373E+02  0.17464399808E+02  0.59301969446E+02  0.50000046357E+02 0.  0.
         12    1    1    2    0    0 -0.89154999948E+01  0.25144135373E+02 -0.17464399808E+02  0.31886030554E+02  0.00000000000E+00 0. -1.
         11    1    3    3    0    0  0.53124539517E+01 -0.16772816299E+01 -0.69318409376E+01  0.88930230912E+01  0.51100000000E-03 0. -1.
        -11    1    3    3    0    0  0.88636123311E+01 -0.17623571145E+02 -0.46916266285E+01  0.20277209970E+02  0.51100000000E-03 0.  1.
        -12    1    3    3    0    0 -0.52605662880E+01 -0.58432825981E+01  0.29087867374E+02  0.30131736385E+02  0.00000000000E+00 0.  1.
</event>
<event>
 7    1  0.6230310E-012  0.5930192E+02  0.7816164E-02  0.1266605E+00
        -11   -1    0    0    0    0  0.00000000000E+00  0.00000000000E+00  0.45593999997E+02  0.45594000000E+02  0.51100000000E-03 0. -1.
         11   -1    0    0    0    0 -0.00000000000E+00 -0.00000000000E+00 -0.45593999997E+02  0.45594000000E+02  0.51100000000E-03 0.  1.
    9900012    2    1    2    0    0  0.65102059433E+01 -0.11899379395E+02 -0.28857301533E+02  0.59301923679E+02  0.49999962888E+02 0.  0.
         12    1    1    2    0    0 -0.65102059433E+01  0.11899379395E+02  0.28857301533E+02  0.31886076321E+02  0.00000000000E+00 0. -1.
         11    1    3    3    0    0  0.95490348850E+01  0.10372645648E+02 -0.25527428146E+02  0.29162054677E+02  0.51100000000E-03 0. -1.
        -11    1    3    3    0    0  0.68058878592E+01 -0.15524006276E+01 -0.16129111963E+00  0.69825548582E+01  0.51100000000E-03 0.  1.
         12    1    3    3    0    0 -0.98447168010E+01 -0.20719624415E+02 -0.31685822676E+01  0.23157314144E+02  0.00000000000E+00 0. -1.
</event>
<event>
 7    1  0.6230310E-012  0.5930197E+02  0.7816164E-02  0.1266605E+00
        -11   -1    0    0    0    0  0.00000000000E+00  0.00000000000E+00  0.45593999997E+02  0.45594000000E+02  0.51100000000E-03 0.  1.
         11   -1    0    0    0    0 -0.00000000000E+00 -0.00000000000E+00 -0.45593999997E+02  0.45594000000E+02  0.51100000000E-03 0. -1.
    9900012    2    1    2    0    0 -0.31039062958E+02 -0.15875173332E+01 -0.71256729820E+01  0.59301970833E+02  0.50000048887E+02 0.  0.
         12    1    1    2    0    0  0.31039062958E+02  0.15875173332E+01  0.71256729820E+01  0.31886029167E+02  0.00000000000E+00 0. -1.
         11    1    3    3    0    0 -0.28528153644E+02 -0.40402516846E+01 -0.50728787742E+00  0.28817295593E+02  0.51100000000E-03 0. -1.
        -11    1    3    3    0    0 -0.91099882676E+01  0.50512610352E+01  0.87207850705E+01  0.13585257332E+02  0.51100000000E-03 0.  1.
        -12    1    3    3    0    0  0.65990789545E+01 -0.25985266839E+01 -0.15339170175E+02  0.16899417908E+02  0.00000000000E+00 0.  1.
</event>
<event>
 7    1  0.6230310E-012  0.5930194E+02  0.7816164E-02  0.1266605E+00
        -11   -1    0    0    0    0  0.00000000000E+00  0.00000000000E+00  0.45593999997E+02  0.45594000000E+02  0.51100000000E-03 0. -1.
         11   -1    0    0    0    0 -0.00000000000E+00 -0.00000000000E+00 -0.45593999997E+02  0.45594000000E+02  0.51100000000E-03 0.  1.
    9900012    2    1    2    0    0  0.27439045134E+02 -0.11834805219E+02  0.11124601495E+02  0.59301943943E+02  0.49999999846E+02 0.  0.
         12    1    1    2    0    0 -0.27439045134E+02  0.11834805219E+02 -0.11124601495E+02  0.31886056057E+02  0.00000000000E+00 0. -1.
         11    1    3    3    0    0  0.24700436827E+02  0.13701106336E+02  0.42521231270E+01  0.28564181165E+02  0.51100000000E-03 0. -1.
        -11    1    3    3    0    0  0.10659900594E+01  0.98144011153E+00  0.37066148737E+01  0.39797680312E+01  0.51100000000E-03 0.  1.
        -12    1    3    3    0    0  0.16726182471E+01 -0.26517351667E+02  0.31658634945E+01  0.26757994747E+02  0.00000000000E+00 0.  1.
</event>
<event>
 7    1  0.6230310E-012  0.5930195E+02  0.7816164E-02  0.1266605E+00
        -11   -1    0    0    0    0  0.00000000000E+00  0.00000000000E+00  0.45593999997E+02  0.45594000000E+02  0.51100000000E-03 0.  1.
         11   -1    0    0    0    0 -0.00000000000E+00 -0.00000000000E+00 -0.45593999997E+02  0.45594000000E+02  0.51100000000E-03 0. -1.
    9900012    2    1    2    0    0 -0.59626453658E-01  0.13305996579E+02  0.28977013199E+02  0.59301946713E+02  0.50000004897E+02 0.  0.
         12    1    1    2    0    0  0.59626453658E-01 -0.13305996579E+02 -0.28977013199E+02  0.31886053287E+02  0.00000000000E+00 0. -1.
         11    1    3    3    0    0 -0.74045320314E+01  0.76676285839E+01 -0.72351265076E+01  0.12882805539E+02  0.51100000000E-03 0. -1.
        -11    1    3    3    0    0 -0.21834000120E+01  0.14931024657E+02  0.14346105642E+02  0.20820986534E+02  0.51100000000E-03 0.  1.
         12    1    3    3    0    0  0.95283055897E+01 -0.92926566618E+01  0.21866034065E+02  0.25598154640E+02  0.00000000000E+00 0. -1.
</event>
<event>
 7    1  0.6230310E-012  0.5930196E+02  0.7816164E-02  0.1266605E+00
        -11   -1    0    0    0    0  0.00000000000E+00  0.00000000000E+00  0.45593999997E+02  0.45594000000E+02  0.51100000000E-03 0.  1.
         11   -1    0    0    0    0 -0.00000000000E+00 -0.00000000000E+00 -0.45593999997E+02  0.45594000000E+02  0.51100000000E-03 0. -1.
    9900012    2    1    2    0    0  0.20633542597E+02  0.16100664148E+02  0.18213862150E+02  0.59301964804E+02  0.50000037891E+02 0.  0.
         12    1    1    2    0    0 -0.20633542597E+02 -0.16100664148E+02 -0.18213862150E+02  0.31886035196E+02  0.00000000000E+00 0. -1.
         11    1    3    3    0    0  0.29735594901E+01  0.14036352421E+02  0.22905884535E+00  0.14349693848E+02  0.51100000000E-03 0. -1.
        -11    1    3    3    0    0  0.84213892780E+01  0.18025640412E+02  0.17510445871E+02  0.26503947338E+02  0.51100000000E-03 0.  1.
         12    1    3    3    0    0  0.92385938288E+01 -0.15961328686E+02  0.47435743400E+00  0.18448323618E+02  0.00000000000E+00 0. -1.
</event>
<event>
 7    1  0.6230310E-012  0.5930202E+02  0.7816164E-02  0.1266604E+00
        -11   -1    0    0    0    0  0.00000000000E+00  0.00000000000E+00  0.45593999997E+02  0.45594000000E+02  0.51100000000E-03 0. -1.
         11   -1    0    0    0    0 -0.00000000000E+00 -0.00000000000E+00 -0.45593999997E+02  0.45594000000E+02  0.51100000000E-03 0.  1.
    9900012    2    1    2    0    0  0.27434897343E+02  0.25607133700E+01  0.16046329856E+02  0.59302022721E+02  0.50000143517E+02 0.  0.
         12    1    1    2    0    0 -0.27434897343E+02 -0.25607133700E+01 -0.16046329856E+02  0.31885977279E+02  0.00000000000E+00 0. -1.
         11    1    3    3    0    0  0.15142199572E+02 -0.61082401238E+01 -0.12189567694E+01  0.16373230016E+02  0.51100000000E-03 0. -1.
        -11    1    3    3    0    0 -0.10909353293E+00 -0.13414256649E+02  0.26074307761E+01  0.13665755681E+02  0.51100000000E-03 0.  1.
         12    1    3    3    0    0  0.12401791304E+02  0.22083210142E+02  0.14657855849E+02  0.29263037023E+02  0.00000000000E+00 0. -1.
</event>
<event>
 7    1  0.6230310E-012  0.5930195E+02  0.7816164E-02  0.1266605E+00
        -11   -1    0    0    0    0  0.00000000000E+00  0.00000000000E+00  0.45593999997E+02  0.45594000000E+02  0.51100000000E-03 0.  1.
         11   -1    0    0    0    0 -0.00000000000E+00 -0.00000000000E+00 -0.45593999997E+02  0.45594000000E+02  0.51100000000E-03 0. -1.
    9900012    2    1    2    0    0  0.31152610476E+02 -0.67752443720E+01  0.57526738700E+00  0.59301952764E+02  0.50000015933E+02 0.  0.
         12    1    1    2    0    0 -0.31152610476E+02  0.67752443720E+01 -0.57526738700E+00  0.31886047236E+02  0.00000000000E+00 0. -1.
         11    1    3    3    0    0  0.79851835980E+01  0.13426892061E+02  0.38266039680E+01  0.16083764662E+02  0.51100000000E-03 0. -1.
        -11    1    3    3    0    0 -0.31386569590E+01 -0.15232116150E+02  0.27217202089E+01  0.15788486029E+02  0.51100000000E-03 0.  1.
         12    1    3    3    0    0  0.26306083837E+02 -0.49700202823E+01 -0.59730567899E+01  0.27429702074E+02  0.00000000000E+00 0. -1.
</event>
<event>
 7    1  0.6230310E-012  0.5930181E+02  0.7816164E-02  0.1266605E+00
        -11   -1    0    0    0    0  0.00000000000E+00  0.00000000000E+00  0.45593999997E+02  0.45594000000E+02  0.51100000000E-03 0.  1.
         11   -1    0    0    0    0 -0.00000000000E+00 -0.00000000000E+00 -0.45593999997E+02  0.45594000000E+02  0.51100000000E-03 0. -1.
    9900012    2    1    2    0    0  0.15639889859E+02  0.22280748615E+02 -0.16603954131E+02  0.59301808531E+02  0.49999752886E+02 0.  0.
         12    1    1    2    0    0 -0.15639889859E+02 -0.22280748615E+02  0.16603954131E+02  0.31886191469E+02  0.00000000000E+00 0. -1.
         11    1    3    3    0    0 -0.83137851182E+01  0.95237428844E+01 -0.26665670783E+01  0.12920188921E+02  0.51100000000E-03 0.  1.
        -11    1    3    3    0    0  0.53231687747E+01  0.20564231447E+02  0.98890934371E+00  0.21265034276E+02  0.51100000000E-03 0. -1.
        -12    1    3    3    0    0  0.18630506202E+02 -0.78072257165E+01 -0.14926296396E+02  0.25116585334E+02  0.00000000000E+00 0.  1.
</event>
<event>
 7    1  0.6230310E-012  0.5930193E+02  0.7816164E-02  0.1266605E+00
        -11   -1    0    0    0    0  0.00000000000E+00  0.00000000000E+00  0.45593999997E+02  0.45594000000E+02  0.51100000000E-03 0.  1.
         11   -1    0    0    0    0 -0.00000000000E+00 -0.00000000000E+00 -0.45593999997E+02  0.45594000000E+02  0.51100000000E-03 0. -1.
    9900012    2    1    2    0    0 -0.15650357829E+02  0.12825323626E+02  0.24643435843E+02  0.59301928489E+02  0.49999971661E+02 0.  0.
         12    1    1    2    0    0  0.15650357829E+02 -0.12825323626E+02 -0.24643435843E+02  0.31886071511E+02  0.00000000000E+00 0. -1.
         11    1    3    3    0    0  0.61736867623E+01 -0.68683809573E+01  0.50034346350E+01  0.10503495781E+02  0.51100000000E-03 0. -1.
        -11    1    3    3    0    0  0.86101904096E+01  0.76581333601E+01  0.81436924205E+01  0.14110354778E+02  0.51100000000E-03 0.  1.
        -12    1    3    3    0    0 -0.30434235001E+02  0.12035571224E+02  0.11496308787E+02  0.34688077930E+02  0.00000000000E+00 0.  1.
</event>
<event>
 7    1  0.6230310E-012  0.5930193E+02  0.7816164E-02  0.1266605E+00
        -11   -1    0    0    0    0  0.00000000000E+00  0.00000000000E+00  0.45593999997E+02  0.45594000000E+02  0.51100000000E-03 0.  1.
         11   -1    0    0    0    0 -0.00000000000E+00 -0.00000000000E+00 -0.45593999997E+02  0.45594000000E+02  0.51100000000E-03 0. -1.
    9900012    2    1    2    0    0  0.10259765167E+02 -0.29795011987E+02  0.48699140915E+01  0.59301928059E+02  0.49999970876E+02 0.  0.
         12    1    1    2    0    0 -0.10259765167E+02  0.29795011987E+02 -0.48699140915E+01  0.31886071941E+02  0.00000000000E+00 0. -1.
         11    1    3    3    0    0  0.13279754644E+02  0.83027819563E+01  0.10693396028E+02  0.18964092135E+02  0.51100000000E-03 0. -1.
        -11    1    3    3    0    0  0.40216977759E+01 -0.10107128610E+02 -0.32876144482E+01  0.11363824654E+02  0.51100000000E-03 0.  1.
        -12    1    3    3    0    0 -0.70416872526E+01 -0.27990665333E+02 -0.25358674881E+01  0.28974011270E+02  0.00000000000E+00 0.  1.
</event>
<event>
 7    1  0.6230310E-012  0.5930194E+02  0.7816164E-02  0.1266605E+00
        -11   -1    0    0    0    0  0.00000000000E+00  0.00000000000E+00  0.45593999997E+02  0.45594000000E+02  0.51100000000E-03 0. -1.
         11   -1    0    0    0    0 -0.00000000000E+00 -0.00000000000E+00 -0.45593999997E+02  0.45594000000E+02  0.51100000000E-03 0.  1.
    9900012    2    1    2    0    0 -0.37167279386E+01 -0.18382432321E+02 -0.25787462497E+02  0.59301935541E+02  0.49999984523E+02 0.  0.
         12    1    1    2    0    0  0.37167279386E+01  0.18382432321E+02  0.25787462497E+02  0.31886064459E+02  0.00000000000E+00 0. -1.
         11    1    3    3    0    0  0.20942040114E+01 -0.34590396581E+01 -0.33515309814E+02  0.33758356565E+02  0.51100000000E-03 0. -1.
        -11    1    3    3    0    0 -0.34492680348E+01  0.39886193810E+01  0.20402067025E+01  0.56541116183E+01  0.51100000000E-03 0.  1.
        -12    1    3    3    0    0 -0.23616639151E+01 -0.18912012044E+02  0.56876406143E+01  0.19889467357E+02  0.00000000000E+00 0.  1.
</event>
<event>
 7    1  0.6230310E-012  0.5930189E+02  0.7816164E-02  0.1266605E+00
        -11   -1    0    0    0    0  0.00000000000E+00  0.00000000000E+00  0.45593999997E+02  0.45594000000E+02  0.51100000000E-03 0.  1.
         11   -1    0    0    0    0 -0.00000000000E+00 -0.00000000000E+00 -0.45593999997E+02  0.45594000000E+02  0.51100000000E-03 0. -1.
    9900012    2    1    2    0    0  0.16973783589E+02 -0.83874372868E+01  0.25656692286E+02  0.59301885583E+02  0.49999893410E+02 0.  0.
         12    1    1    2    0    0 -0.16973783589E+02  0.83874372868E+01 -0.25656692286E+02  0.31886114417E+02  0.00000000000E+00 0. -1.
         11    1    3    3    0    0  0.12248974700E+02 -0.14659672497E+02  0.11956212145E+02  0.22536512331E+02  0.51100000000E-03 0. -1.
        -11    1    3    3    0    0  0.55621785891E+01 -0.39399864407E+01 -0.93321464817E+01  0.11556395720E+02  0.51100000000E-03 0.  1.
        -12    1    3    3    0    0 -0.83736969983E+00  0.10212221651E+02  0.23032626623E+02  0.25208977532E+02  0.00000000000E+00 0.  1.
</event>
<event>
 7    1  0.6230310E-012  0.5930195E+02  0.7816164E-02  0.1266605E+00
        -11   -1    0    0    0    0  0.00000000000E+00  0.00000000000E+00  0.45593999997E+02  0.45594000000E+02  0.51100000000E-03 0. -1.
         11   -1    0    0    0    0 -0.00000000000E+00 -0.00000000000E+00 -0.45593999997E+02  0.45594000000E+02  0.51100000000E-03 0.  1.
    9900012    2    1    2    0    0  0.93099095222E+01 -0.30473751538E+02 -0.11815262044E+01  0.59301953643E+02  0.50000017536E+02 0.  0.
         12    1    1    2    0    0 -0.93099095222E+01  0.30473751538E+02  0.11815262044E+01  0.31886046357E+02  0.00000000000E+00 0. -1.
         11    1    3    3    0    0 -0.37673735164E+01 -0.69377655015E+01 -0.56606192418E+01  0.97143349658E+01  0.51100000000E-03 0. -1.
        -11    1    3    3    0    0  0.23635758536E+02 -0.18608097233E+02 -0.93527361254E+01  0.31502127507E+02  0.51100000000E-03 0.  1.
         12    1    3    3    0    0 -0.10558475497E+02 -0.49278888034E+01  0.13831829163E+02  0.18085491170E+02  0.00000000000E+00 0. -1.
</event>
<event>
 7    1  0.6230310E-012  0.5930189E+02  0.7816164E-02  0.1266605E+00
        -11   -1    0    0    0    0  0.00000000000E+00  0.00000000000E+00  0.45593999997E+02  0.45594000000E+02  0.51100000000E-03 0.  1.
         11   -1    0    0    0    0 -0.00000000000E+00 -0.00000000000E+00 -0.45593999997E+02  0.45594000000E+02  0.51100000000E-03 0. -1.
    9900012    2    1    2    0    0 -0.29816462025E+02 -0.10543458215E+02 -0.40667034971E+01  0.59301890232E+02  0.49999901890E+02 0.  0.
         12    1    1    2    0    0  0.29816462025E+02  0.10543458215E+02  0.40667034971E+01  0.31886109768E+02  0.00000000000E+00 0. -1.
         11    1    3    3    0    0 -0.21208286008E+02  0.10965181912E+00 -0.12622031208E+02  0.24680338146E+02  0.51100000000E-03 0. -1.
        -11    1    3    3    0    0  0.52420636175E+01  0.10499469930E+01 -0.82948136973E+01  0.98684119387E+01  0.51100000000E-03 0.  1.
        -12    1    3    3    0    0 -0.13850239634E+02 -0.11703057027E+02  0.16850141408E+02  0.24753140148E+02  0.00000000000E+00 0.  1.
</event>
<event>
 7    1  0.6230310E-012  0.5930193E+02  0.7816164E-02  0.1266605E+00
        -11   -1    0    0    0    0  0.00000000000E+00  0.00000000000E+00  0.45593999997E+02  0.45594000000E+02  0.51100000000E-03 0.  1.
         11   -1    0    0    0    0 -0.00000000000E+00 -0.00000000000E+00 -0.45593999997E+02  0.45594000000E+02  0.51100000000E-03 0. -1.
    9900012    2    1    2    0    0  0.18685569964E+02  0.78463569090E+01  0.24617175136E+02  0.59301934810E+02  0.49999983188E+02 0.  0.
         12    1    1    2    0    0 -0.18685569964E+02 -0.78463569090E+01 -0.24617175136E+02  0.31886065190E+02  0.00000000000E+00 0. -1.
         11    1    3    3    0    0  0.21523143619E+02  0.95836077638E+01  0.43619098372E+01  0.23960749294E+02  0.51100000000E-03 0. -1.
        -11    1    3    3    0    0  0.73419724587E+01 -0.91836852973E+01  0.19418930909E+02  0.22701090572E+02  0.51100000000E-03 0.  1.
        -12    1    3    3    0    0 -0.10179546114E+02  0.74464344424E+01  0.83633439024E+00  0.12640094944E+02  0.00000000000E+00 0.  1.
</event>
<event>
 7    1  0.6230310E-012  0.5930195E+02  0.7816164E-02  0.1266605E+00
        -11   -1    0    0    0    0  0.00000000000E+00  0.00000000000E+00  0.45593999997E+02  0.45594000000E+02  0.51100000000E-03 0.  1.
         11   -1    0    0    0    0 -0.00000000000E+00 -0.00000000000E+00 -0.45593999997E+02  0.45594000000E+02  0.51100000000E-03 0. -1.
    9900012    2    1    2    0    0 -0.14504460128E+01 -0.40367813579E+01  0.31596216798E+02  0.59301947982E+02  0.50000007211E+02 0.  0.
         12    1    1    2    0    0  0.14504460128E+01  0.40367813579E+01 -0.31596216798E+02  0.31886052018E+02  0.00000000000E+00 0. -1.
         11    1    3    3    0    0 -0.10201345918E+02 -0.66862998291E+01 -0.20752221789E+01  0.12372574966E+02  0.51100000000E-03 0. -1.
        -11    1    3    3    0    0 -0.93339060504E+01 -0.74780685139E+01  0.12076557448E+02  0.16996662934E+02  0.51100000000E-03 0.  1.
         12    1    3    3    0    0  0.18084805955E+02  0.10127586985E+02  0.21594881529E+02  0.29932710082E+02  0.00000000000E+00 0. -1.
</event>
<event>
 7    1  0.6230310E-012  0.5930191E+02  0.7816164E-02  0.1266605E+00
        -11   -1    0    0    0    0  0.00000000000E+00  0.00000000000E+00  0.45593999997E+02  0.45594000000E+02  0.51100000000E-03 0.  1.
         11   -1    0    0    0    0 -0.00000000000E+00 -0.00000000000E+00 -0.45593999997E+02  0.45594000000E+02  0.51100000000E-03 0. -1.
    9900012    2    1    2    0    0  0.24528759879E+01  0.30549266745E+02  0.88004844271E+01  0.59301908589E+02  0.49999935369E+02 0.  0.
         12    1    1    2    0    0 -0.24528759879E+01 -0.30549266745E+02 -0.88004844271E+01  0.31886091411E+02  0.00000000000E+00 0. -1.
         11    1    3    3    0    0 -0.10775507487E+02  0.20427736613E+02  0.11080228080E+01  0.23122104133E+02  0.51100000000E-03 0. -1.
        -11    1    3    3    0    0  0.40035721269E+01  0.18140282220E+02  0.13184277898E+02  0.22779894924E+02  0.51100000000E-03 0.  1.
         12    1    3    3    0    0  0.92248113474E+01 -0.80187520877E+01 -0.54918162789E+01  0.13399909533E+02  0.00000000000E+00 0. -1.
</event>
<event>
 7    1  0.6230310E-012  0.5930195E+02  0.7816164E-02  0.1266605E+00
        -11   -1    0    0    0    0  0.00000000000E+00  0.00000000000E+00  0.45593999997E+02  0.45594000000E+02  0.51100000000E-03 0.  1.
         11   -1    0    0    0    0 -0.00000000000E+00 -0.00000000000E+00 -0.45593999997E+02  0.45594000000E+02  0.51100000000E-03 0. -1.
    9900012    2    1    2    0    0 -0.15386215429E+02  0.32238486919E+01  0.27741511546E+02  0.59301948371E+02  0.50000007922E+02 0.  0.
         12    1    1    2    0    0  0.15386215429E+02 -0.32238486919E+01 -0.27741511546E+02  0.31886051629E+02  0.00000000000E+00 0. -1.
         11    1    3    3    0    0 -0.67838241161E+01  0.29856482366E+01  0.12731618999E+02  0.14731886764E+02  0.51100000000E-03 0. -1.
        -11    1    3    3    0    0 -0.14938053529E+02 -0.13016175756E+02  0.20848525720E+02  0.28761559407E+02  0.51100000000E-03 0.  1.
         12    1    3    3    0    0  0.63356622166E+01  0.13254376211E+02 -0.58386331738E+01  0.15808502200E+02  0.00000000000E+00 0. -1.
</event>
<event>
 7    1  0.6230310E-012  0.5930193E+02  0.7816164E-02  0.1266605E+00
        -11   -1    0    0    0    0  0.00000000000E+00  0.00000000000E+00  0.45593999997E+02  0.45594000000E+02  0.51100000000E-03 0.  1.
         11   -1    0    0    0    0 -0.00000000000E+00 -0.00000000000E+00 -0.45593999997E+02  0.45594000000E+02  0.51100000000E-03 0. -1.
    9900012    2    1    2    0    0  0.21622605814E+01  0.30203427190E+02  0.99899454407E+01  0.59301931024E+02  0.49999976284E+02 0.  0.
         12    1    1    2    0    0 -0.21622605814E+01 -0.30203427190E+02 -0.99899454407E+01  0.31886068976E+02  0.00000000000E+00 0. -1.
         11    1    3    3    0    0  0.30321054115E+01  0.67950812514E+01  0.87227658911E+01  0.11465314540E+02  0.51100000000E-03 0. -1.
        -11    1    3    3    0    0  0.38301815261E+01  0.34079342356E+02 -0.49061068767E+01  0.34643062089E+02  0.51100000000E-03 0.  1.
         12    1    3    3    0    0 -0.47000263561E+01 -0.10670996417E+02  0.61732864263E+01  0.13193554396E+02  0.00000000000E+00 0. -1.
</event>
<event>
 7    1  0.6230310E-012  0.5930195E+02  0.7816164E-02  0.1266605E+00
        -11   -1    0    0    0    0  0.00000000000E+00  0.00000000000E+00  0.45593999997E+02  0.45594000000E+02  0.51100000000E-03 0. -1.
         11   -1    0    0    0    0 -0.00000000000E+00 -0.00000000000E+00 -0.45593999997E+02  0.45594000000E+02  0.51100000000E-03 0.  1.
    9900012    2    1    2    0    0 -0.60674413805E+01  0.57911911405E+00 -0.31298098568E+02  0.59301949793E+02  0.50000010515E+02 0.  0.
         12    1    1    2    0    0  0.60674413805E+01 -0.57911911405E+00  0.31298098568E+02  0.31886050207E+02  0.00000000000E+00 0. -1.
         11    1    3    3    0    0 -0.13205539068E+02 -0.91367475472E+01 -0.64081563405E+01  0.17289617860E+02  0.51100000000E-03 0. -1.
        -11    1    3    3    0    0 -0.92724212387E+01  0.12330300754E+01  0.18268705837E+01  0.95307720142E+01  0.51100000000E-03 0.  1.
        -12    1    3    3    0    0  0.16410518926E+02  0.84828365858E+01 -0.26716812811E+02  0.32481559918E+02  0.00000000000E+00 0.  1.
</event>
<event>
 7    1  0.6230310E-012  0.5930193E+02  0.7816164E-02  0.1266605E+00
        -11   -1    0    0    0    0  0.00000000000E+00  0.00000000000E+00  0.45593999997E+02  0.45594000000E+02  0.51100000000E-03 0. -1.
         11   -1    0    0    0    0 -0.00000000000E+00 -0.00000000000E+00 -0.45593999997E+02  0.45594000000E+02  0.51100000000E-03 0.  1.
    9900012    2    1    2    0    0  0.20951685403E+02 -0.21579540267E+02  0.10586383456E+02  0.59301934171E+02  0.49999982023E+02 0.  0.
         12    1    1    2    0    0 -0.20951685403E+02  0.21579540267E+02 -0.10586383456E+02  0.31886065829E+02  0.00000000000E+00 0. -1.
         11    1    3    3    0    0  0.62748487531E+01  0.67825648395E+01  0.10698445713E+02  0.14136253167E+02  0.51100000000E-03 0. -1.
        -11    1    3    3    0    0  0.20194588007E+02 -0.10617311298E+02  0.89285347135E+01  0.24500355434E+02  0.51100000000E-03 0.  1.
         12    1    3    3    0    0 -0.55177513571E+01 -0.17744793809E+02 -0.90405969697E+01  0.20665325570E+02  0.00000000000E+00 0. -1.
</event>
<event>
 7    1  0.6230310E-012  0.5930192E+02  0.7816164E-02  0.1266605E+00
        -11   -1    0    0    0    0  0.00000000000E+00  0.00000000000E+00  0.45593999997E+02  0.45594000000E+02  0.51100000000E-03 0.  1.
         11   -1    0    0    0    0 -0.00000000000E+00 -0.00000000000E+00 -0.45593999997E+02  0.45594000000E+02  0.51100000000E-03 0. -1.
    9900012    2    1    2    0    0  0.87217550712E+01 -0.28866456948E+02  0.10362457929E+02  0.59301923374E+02  0.49999962333E+02 0.  0.
         12    1    1    2    0    0 -0.87217550712E+01  0.28866456948E+02 -0.10362457929E+02  0.31886076626E+02  0.00000000000E+00 0. -1.
         11    1    3    3    0    0 -0.53939922606E+01 -0.24495961443E+02  0.70953407730E+01  0.26067050858E+02  0.51100000000E-03 0. -1.
        -11    1    3    3    0    0  0.12267589391E+02  0.65658746616E+01  0.12575570004E+02  0.18754983890E+02  0.51100000000E-03 0.  1.
         12    1    3    3    0    0  0.18481579411E+01 -0.10936370167E+02 -0.93084528473E+01  0.14479888626E+02  0.00000000000E+00 0. -1.
</event>
<event>
 7    1  0.6230310E-012  0.5930195E+02  0.7816164E-02  0.1266605E+00
        -11   -1    0    0    0    0  0.00000000000E+00  0.00000000000E+00  0.45593999997E+02  0.45594000000E+02  0.51100000000E-03 0.  1.
         11   -1    0    0    0    0 -0.00000000000E+00 -0.00000000000E+00 -0.45593999997E+02  0.45594000000E+02  0.51100000000E-03 0. -1.
    9900012    2    1    2    0    0  0.19328954224E+02  0.17600586769E+02  0.18257352625E+02  0.59301952097E+02  0.50000014716E+02 0.  0.
         12    1    1    2    0    0 -0.19328954224E+02 -0.17600586769E+02 -0.18257352625E+02  0.31886047903E+02  0.00000000000E+00 0. -1.
         11    1    3    3    0    0  0.14884986845E+02 -0.30297171216E+01 -0.11706639269E+02  0.19177784608E+02  0.51100000000E-03 0. -1.
        -11    1    3    3    0    0 -0.51036762514E+01  0.33362635467E+01  0.11827814432E+02  0.13306966605E+02  0.51100000000E-03 0.  1.
        -12    1    3    3    0    0  0.95476436303E+01  0.17294040343E+02  0.18136177462E+02  0.26817200884E+02  0.00000000000E+00 0.  1.
</event>
<event>
 7    1  0.6230310E-012  0.5930196E+02  0.7816164E-02  0.1266605E+00
        -11   -1    0    0    0    0  0.00000000000E+00  0.00000000000E+00  0.45593999997E+02  0.45594000000E+02  0.51100000000E-03 0. -1.
         11   -1    0    0    0    0 -0.00000000000E+00 -0.00000000000E+00 -0.45593999997E+02  0.45594000000E+02  0.51100000000E-03 0.  1.
    9900012    2    1    2    0    0  0.24725365146E+02 -0.17377190865E+02 -0.10169023903E+02  0.59301960874E+02  0.50000030724E+02 0.  0.
         12    1    1    2    0    0 -0.24725365146E+02  0.17377190865E+02  0.10169023903E+02  0.31886039126E+02  0.00000000000E+00 0. -1.
         11    1    3    3    0    0  0.80013094269E+01 -0.13927795758E+02  0.17440660627E+01  0.16156924643E+02  0.51100000000E-03 0. -1.
        -11    1    3    3    0    0  0.11749105979E+02 -0.17479607295E+02  0.39089759643E+01  0.21420977005E+02  0.51100000000E-03 0.  1.
         12    1    3    3    0    0  0.49749497403E+01  0.14030212188E+02 -0.15822065930E+02  0.21724059226E+02  0.00000000000E+00 0. -1.
</event>
<event>
 7    1  0.6230310E-012  0.5930194E+02  0.7816164E-02  0.1266605E+00
        -11   -1    0    0    0    0  0.00000000000E+00  0.00000000000E+00  0.45593999997E+02  0.45594000000E+02  0.51100000000E-03 0.  1.
         11   -1    0    0    0    0 -0.00000000000E+00 -0.00000000000E+00 -0.45593999997E+02  0.45594000000E+02  0.51100000000E-03 0. -1.
    9900012    2    1    2    0    0 -0.12253902173E+02 -0.24002772007E+02 -0.17042001889E+02  0.59301937043E+02  0.49999987261E+02 0.  0.
         12    1    1    2    0    0  0.12253902173E+02  0.24002772007E+02  0.17042001889E+02  0.31886062957E+02  0.00000000000E+00 0. -1.
         11    1    3    3    0    0  0.57098479438E+01  0.61631779987E+01 -0.17532981903E+02  0.19442031305E+02  0.51100000000E-03 0. -1.
        -11    1    3    3    0    0 -0.10158799524E+02 -0.30004276360E+02 -0.17868357040E+01  0.31727757402E+02  0.51100000000E-03 0.  1.
        -12    1    3    3    0    0 -0.78049505926E+01 -0.16167364635E+00  0.22778157178E+01  0.81321483364E+01  0.00000000000E+00 0.  1.
</event>
<event>
 7    1  0.6230310E-012  0.5930195E+02  0.7816164E-02  0.1266605E+00
        -11   -1    0    0    0    0  0.00000000000E+00  0.00000000000E+00  0.45593999997E+02  0.45594000000E+02  0.51100000000E-03 0. -1.
         11   -1    0    0    0    0 -0.00000000000E+00 -0.00000000000E+00 -0.45593999997E+02  0.45594000000E+02  0.51100000000E-03 0.  1.
    9900012    2    1    2    0    0  0.23240716996E+02 -0.21744764316E+02 -0.19375929591E+01  0.59301953395E+02  0.50000017083E+02 0.  0.
         12    1    1    2    0    0 -0.23240716996E+02  0.21744764316E+02  0.19375929591E+01  0.31886046605E+02  0.00000000000E+00 0. -1.
         11    1    3    3    0    0  0.12516682535E+02  0.38481794338E+01  0.13143160278E+02  0.18553126124E+02  0.51100000000E-03 0. -1.
        -11    1    3    3    0    0  0.17686946887E+02 -0.16706972054E+02 -0.35076408837E+01  0.24581589660E+02  0.51100000000E-03 0.  1.
         12    1    3    3    0    0 -0.69629124253E+01 -0.88859716952E+01 -0.11573112353E+02  0.16167237610E+02  0.00000000000E+00 0. -1.
</event>
<event>
 7    1  0.6230310E-012  0.5930194E+02  0.7816164E-02  0.1266605E+00
        -11   -1    0    0    0    0  0.00000000000E+00  0.00000000000E+00  0.45593999997E+02  0.45594000000E+02  0.51100000000E-03 0. -1.
         11   -1    0    0    0    0 -0.00000000000E+00 -0.00000000000E+00 -0.45593999997E+02  0.45594000000E+02  0.51100000000E-03 0.  1.
    9900012    2    1    2    0    0 -0.15939642297E+02  0.21022376246E+02  0.17908328795E+02  0.59301941294E+02  0.49999995014E+02 0.  0.
         12    1    1    2    0    0  0.15939642297E+02 -0.21022376246E+02 -0.17908328795E+02  0.31886058706E+02  0.00000000000E+00 0. -1.
         11    1    3    3    0    0  0.13126986622E+02  0.69293963338E+01  0.68745687974E+01  0.16358300882E+02  0.51100000000E-03 0. -1.
        -11    1    3    3    0    0 -0.47953675964E+00 -0.54061091218E+01  0.58048076066E+01  0.79468083499E+01  0.51100000000E-03 0.  1.
        -12    1    3    3    0    0 -0.28587092159E+02  0.19499089034E+02  0.52289523910E+01  0.34996832062E+02  0.00000000000E+00 0.  1.
</event>
<event>
 7    1  0.6230310E-012  0.5930194E+02  0.7816164E-02  0.1266605E+00
        -11   -1    0    0    0    0  0.00000000000E+00  0.00000000000E+00  0.45593999997E+02  0.45594000000E+02  0.51100000000E-03 0. -1.
         11   -1    0    0    0    0 -0.00000000000E+00 -0.00000000000E+00 -0.45593999997E+02  0.45594000000E+02  0.51100000000E-03 0.  1.
    9900012    2    1    2    0    0  0.40343078744E+01  0.28040288606E+02 -0.14635152004E+02  0.59301935657E+02  0.49999984734E+02 0.  0.
         12    1    1    2    0    0 -0.40343078744E+01 -0.28040288606E+02  0.14635152004E+02  0.31886064343E+02  0.00000000000E+00 0. -1.
         11    1    3    3    0    0  0.85230846548E+01  0.52338030743E+01  0.11536279783E+02  0.15268314188E+02  0.51100000000E-03 0. -1.
        -11    1    3    3    0    0  0.10938782183E+02  0.10215354195E+02 -0.75218225724E+01  0.16750768104E+02  0.51100000000E-03 0.  1.
        -12    1    3    3    0    0 -0.15427558964E+02  0.12591131336E+02 -0.18649609214E+02  0.27282853365E+02  0.00000000000E+00 0.  1.
</event>
<event>
 7    1  0.6230310E-012  0.5930195E+02  0.7816164E-02  0.1266605E+00
        -11   -1    0    0    0    0  0.00000000000E+00  0.00000000000E+00  0.45593999997E+02  0.45594000000E+02  0.51100000000E-03 0. -1.
         11   -1    0    0    0    0 -0.00000000000E+00 -0.00000000000E+00 -0.45593999997E+02  0.45594000000E+02  0.51100000000E-03 0.  1.
    9900012    2    1    2    0    0 -0.13224371505E+02  0.26490308592E+02 -0.11836383822E+02  0.59301946105E+02  0.50000003788E+02 0.  0.
         12    1    1    2    0    0  0.13224371505E+02 -0.26490308592E+02  0.11836383822E+02  0.31886053895E+02  0.00000000000E+00 0. -1.
         11    1    3    3    0    0 -0.50319796167E+01  0.92095205365E+01 -0.97323339276E+01  0.14312735983E+02  0.51100000000E-03 0. -1.
        -11    1    3    3    0    0  0.13157233138E+02  0.13156473035E+02 -0.10864699515E+02  0.21546397898E+02  0.51100000000E-03 0.  1.
         12    1    3    3    0    0 -0.21349625027E+02  0.41243150206E+01  0.87606496207E+01  0.23442812224E+02  0.00000000000E+00 0. -1.
</event>
<event>
 7    1  0.6230310E-012  0.5930192E+02  0.7816164E-02  0.1266605E+00
        -11   -1    0    0    0    0  0.00000000000E+00  0.00000000000E+00  0.45593999997E+02  0.45594000000E+02  0.51100000000E-03 0.  1.
         11   -1    0    0    0    0 -0.00000000000E+00 -0.00000000000E+00 -0.45593999997E+02  0.45594000000E+02  0.51100000000E-03 0. -1.
    9900012    2    1    2    0    0 -0.14570429609E+01 -0.10576156279E+02  0.30045694076E+02  0.59301924852E+02  0.49999965028E+02 0.  0.
         12    1    1    2    0    0  0.14570429609E+01  0.10576156279E+02 -0.30045694076E+02  0.31886075148E+02  0.00000000000E+00 0. -1.
         11    1    3    3    0    0  0.11456344406E+02 -0.14898109648E+01 -0.36575978278E+01  0.12117977802E+02  0.51100000000E-03 0. -1.
        -11    1    3    3    0    0 -0.33735254590E+01 -0.16141708761E+02  0.69076888920E+01  0.17878803144E+02  0.51100000000E-03 0.  1.
        -12    1    3    3    0    0 -0.95398619082E+01  0.70553634477E+01  0.26795603012E+02  0.29305143907E+02  0.00000000000E+00 0.  1.
</event>
<event>
 7    1  0.6230310E-012  0.5930199E+02  0.7816164E-02  0.1266605E+00
        -11   -1    0    0    0    0  0.00000000000E+00  0.00000000000E+00  0.45593999997E+02  0.45594000000E+02  0.51100000000E-03 0. -1.
         11   -1    0    0    0    0 -0.00000000000E+00 -0.00000000000E+00 -0.45593999997E+02  0.45594000000E+02  0.51100000000E-03 0.  1.
    9900012    2    1    2    0    0 -0.22722912502E+02 -0.17185416797E+02  0.14319513585E+02  0.59301987826E+02  0.50000079877E+02 0.  0.
         12    1    1    2    0    0  0.22722912502E+02  0.17185416797E+02 -0.14319513585E+02  0.31886012174E+02  0.00000000000E+00 0. -1.
         11    1    3    3    0    0 -0.89771581846E+01 -0.16914051427E+02  0.11286307819E+01  0.19181978846E+02  0.51100000000E-03 0. -1.
        -11    1    3    3    0    0 -0.23225272834E+02 -0.85671720049E+01  0.54925278451E+01  0.25357002914E+02  0.51100000000E-03 0.  1.
         12    1    3    3    0    0  0.94795185172E+01  0.82958066345E+01  0.76983549583E+01  0.14763006066E+02  0.00000000000E+00 0. -1.
</event>
<event>
 7    1  0.6230310E-012  0.5930196E+02  0.7816164E-02  0.1266605E+00
        -11   -1    0    0    0    0  0.00000000000E+00  0.00000000000E+00  0.45593999997E+02  0.45594000000E+02  0.51100000000E-03 0.  1.
         11   -1    0    0    0    0 -0.00000000000E+00 -0.00000000000E+00 -0.45593999997E+02  0.45594000000E+02  0.51100000000E-03 0. -1.
    9900012    2    1    2    0    0 -0.22706627213E+02  0.16009458078E+02  0.15646920930E+02  0.59301956001E+02  0.50000021836E+02 0.  0.
         12    1    1    2    0    0  0.22706627213E+02 -0.16009458078E+02 -0.15646920930E+02  0.31886043999E+02  0.00000000000E+00 0. -1.
         11    1    3    3    0    0 -0.84096765697E+01  0.39783564412E+01 -0.48625123017E+01  0.10497333286E+02  0.51100000000E-03 0. -1.
        -11    1    3    3    0    0 -0.20403513538E+01 -0.63712321634E+01 -0.94446784297E+01  0.11574004658E+02  0.51100000000E-03 0.  1.
        -12    1    3    3    0    0 -0.12256599289E+02  0.18402333800E+02  0.29954111661E+02  0.37230618056E+02  0.00000000000E+00 0.  1.
</event>
<event>
 7    1  0.6230310E-012  0.5930167E+02  0.7816164E-02  0.1266606E+00
        -11   -1    0    0    0    0  0.00000000000E+00  0.00000000000E+00  0.45593999997E+02  0.45594000000E+02  0.51100000000E-03 0.  1.
         11   -1    0    0    0    0 -0.00000000000E+00 -0.00000000000E+00 -0.45593999997E+02  0.45594000000E+02  0.51100000000E-03 0. -1.
    9900012    2    1    2    0    0  0.91902031171E+01 -0.16193344021E+02  0.25885402782E+02  0.59301665919E+02  0.49999492794E+02 0.  0.
         12    1    1    2    0    0 -0.91902031171E+01  0.16193344021E+02 -0.25885402782E+02  0.31886334081E+02  0.00000000000E+00 0. -1.
         11    1    3    3    0    0 -0.14766645191E+02 -0.68030481735E+01  0.51157752164E+01  0.17044249206E+02  0.51100000000E-03 0. -1.
        -11    1    3    3    0    0 -0.32504761234E+01 -0.64998281809E+01  0.11042544754E+02  0.13219347802E+02  0.51100000000E-03 0.  1.
         12    1    3    3    0    0  0.27207324432E+02 -0.28904676663E+01  0.97270828118E+01  0.29038068911E+02  0.00000000000E+00 0. -1.
</event>
<event>
 7    1  0.6230310E-012  0.5930194E+02  0.7816164E-02  0.1266605E+00
        -11   -1    0    0    0    0  0.00000000000E+00  0.00000000000E+00  0.45593999997E+02  0.45594000000E+02  0.51100000000E-03 0. -1.
         11   -1    0    0    0    0 -0.00000000000E+00 -0.00000000000E+00 -0.45593999997E+02  0.45594000000E+02  0.51100000000E-03 0.  1.
    9900012    2    1    2    0    0  0.10616830243E+02  0.12923261592E+02 -0.27147615758E+02  0.59301940100E+02  0.49999992837E+02 0.  0.
         12    1    1    2    0    0 -0.10616830243E+02 -0.12923261592E+02  0.27147615758E+02  0.31886059900E+02  0.00000000000E+00 0. -1.
         11    1    3    3    0    0  0.15196481207E+02 -0.13429450988E+01 -0.60387975248E+01  0.16407425710E+02  0.51100000000E-03 0. -1.
        -11    1    3    3    0    0  0.38868009329E+01  0.85517248634E+01 -0.28680543545E+02  0.30179675246E+02  0.51100000000E-03 0.  1.
         12    1    3    3    0    0 -0.84664518967E+01  0.57144818270E+01  0.75717253120E+01  0.12714839144E+02  0.00000000000E+00 0. -1.
</event>
<event>
 7    1  0.6230310E-012  0.5930193E+02  0.7816164E-02  0.1266605E+00
        -11   -1    0    0    0    0  0.00000000000E+00  0.00000000000E+00  0.45593999997E+02  0.45594000000E+02  0.51100000000E-03 0. -1.
         11   -1    0    0    0    0 -0.00000000000E+00 -0.00000000000E+00 -0.45593999997E+02  0.45594000000E+02  0.51100000000E-03 0.  1.
    9900012    2    1    2    0    0 -0.20777629961E+02  0.11018156854E+02 -0.21531639625E+02  0.59301934200E+02  0.49999982077E+02 0.  0.
         12    1    1    2    0    0  0.20777629961E+02 -0.11018156854E+02  0.21531639625E+02  0.31886065800E+02  0.00000000000E+00 0. -1.
         11    1    3    3    0    0 -0.55457794226E+01 -0.17596839463E+01 -0.23549666977E+02  0.24257761067E+02  0.51100000000E-03 0. -1.
        -11    1    3    3    0    0 -0.22744132657E+02  0.75874754634E+01 -0.37152459299E+01  0.24262489708E+02  0.51100000000E-03 0.  1.
        -12    1    3    3    0    0  0.75122821188E+01  0.51903653371E+01  0.57332732816E+01  0.10781683425E+02  0.00000000000E+00 0.  1.
</event>
<event>
 7    1  0.6230310E-012  0.5930195E+02  0.7816164E-02  0.1266605E+00
        -11   -1    0    0    0    0  0.00000000000E+00  0.00000000000E+00  0.45593999997E+02  0.45594000000E+02  0.51100000000E-03 0. -1.
         11   -1    0    0    0    0 -0.00000000000E+00 -0.00000000000E+00 -0.45593999997E+02  0.45594000000E+02  0.51100000000E-03 0.  1.
    9900012    2    1    2    0    0  0.19566841730E+02  0.25139011720E+02  0.13744527881E+01  0.59301947782E+02  0.50000006848E+02 0.  0.
         12    1    1    2    0    0 -0.19566841730E+02 -0.25139011720E+02 -0.13744527881E+01  0.31886052218E+02  0.00000000000E+00 0. -1.
         11    1    3    3    0    0 -0.24139508153E+00  0.16633620982E+02  0.87100028182E+01  0.18777640105E+02  0.51100000000E-03 0. -1.
        -11    1    3    3    0    0  0.38373060082E+01  0.13980312679E+00  0.12878126159E+02  0.13438400052E+02  0.51100000000E-03 0.  1.
        -12    1    3    3    0    0  0.15970930804E+02  0.83655876111E+01 -0.20213676189E+02  0.27085907626E+02  0.00000000000E+00 0.  1.
</event>
<event>
 7    1  0.6230310E-012  0.5930194E+02  0.7816164E-02  0.1266605E+00
        -11   -1    0    0    0    0  0.00000000000E+00  0.00000000000E+00  0.45593999997E+02  0.45594000000E+02  0.51100000000E-03 0.  1.
         11   -1    0    0    0    0 -0.00000000000E+00 -0.00000000000E+00 -0.45593999997E+02  0.45594000000E+02  0.51100000000E-03 0. -1.
    9900012    2    1    2    0    0  0.14864159977E+02  0.17135509590E+02  0.22408743123E+02  0.59301941775E+02  0.49999995892E+02 0.  0.
         12    1    1    2    0    0 -0.14864159977E+02 -0.17135509590E+02 -0.22408743123E+02  0.31886058225E+02  0.00000000000E+00 0. -1.
         11    1    3    3    0    0  0.13517615908E+02 -0.14736375686E+00  0.17433578157E+02  0.22060763893E+02  0.51100000000E-03 0. -1.
        -11    1    3    3    0    0  0.16859653314E+01  0.10335214676E+02  0.18938693223E+02  0.21641008358E+02  0.51100000000E-03 0.  1.
         12    1    3    3    0    0 -0.33942126237E+00  0.69476586714E+01 -0.13963528257E+02  0.15600169525E+02  0.00000000000E+00 0. -1.
</event>
<event>
 7    1  0.6230310E-012  0.5930180E+02  0.7816164E-02  0.1266605E+00
        -11   -1    0    0    0    0  0.00000000000E+00  0.00000000000E+00  0.45593999997E+02  0.45594000000E+02  0.51100000000E-03 0.  1.
         11   -1    0    0    0    0 -0.00000000000E+00 -0.00000000000E+00 -0.45593999997E+02  0.45594000000E+02  0.51100000000E-03 0. -1.
    9900012    2    1    2    0    0 -0.17475718913E+02  0.16102837434E+02  0.21260943943E+02  0.59301798246E+02  0.49999734128E+02 0.  0.
         12    1    1    2    0    0  0.17475718913E+02 -0.16102837434E+02 -0.21260943943E+02  0.31886201754E+02  0.00000000000E+00 0. -1.
         11    1    3    3    0    0 -0.39063203624E+01 -0.22007495141E+00 -0.12333053693E+02  0.12938778358E+02  0.51100000000E-03 0. -1.
        -11    1    3    3    0    0  0.58572111654E+01  0.75320919669E+01  0.16390152216E+02  0.18965137014E+02  0.51100000000E-03 0.  1.
        -12    1    3    3    0    0 -0.19426609716E+02  0.87908204183E+01  0.17203845420E+02  0.27397882873E+02  0.00000000000E+00 0.  1.
</event>
<event>
 7    1  0.6230310E-012  0.5930197E+02  0.7816164E-02  0.1266605E+00
        -11   -1    0    0    0    0  0.00000000000E+00  0.00000000000E+00  0.45593999997E+02  0.45594000000E+02  0.51100000000E-03 0.  1.
         11   -1    0    0    0    0 -0.00000000000E+00 -0.00000000000E+00 -0.45593999997E+02  0.45594000000E+02  0.51100000000E-03 0. -1.
    9900012    2    1    2    0    0 -0.13981303637E+02  0.48465676000E+01  0.28244521471E+02  0.59301967603E+02  0.50000042996E+02 0.  0.
         12    1    1    2    0    0  0.13981303637E+02 -0.48465676000E+01 -0.28244521471E+02  0.31886032397E+02  0.00000000000E+00 0. -1.
         11    1    3    3    0    0 -0.10615915864E+02 -0.66705751277E+01  0.55366403864E+01  0.13705788164E+02  0.51100000000E-03 0. -1.
        -11    1    3    3    0    0 -0.18042011945E+02 -0.32279299018E+00  0.19321592741E+02  0.26437517596E+02  0.51100000000E-03 0.  1.
        -12    1    3    3    0    0  0.14676624172E+02  0.11839935718E+02  0.33862883440E+01  0.19158661843E+02  0.00000000000E+00 0.  1.
</event>
<event>
 7    1  0.6230310E-012  0.5930211E+02  0.7816164E-02  0.1266604E+00
        -11   -1    0    0    0    0  0.00000000000E+00  0.00000000000E+00  0.45593999997E+02  0.45594000000E+02  0.51100000000E-03 0. -1.
         11   -1    0    0    0    0 -0.00000000000E+00 -0.00000000000E+00 -0.45593999997E+02  0.45594000000E+02  0.51100000000E-03 0.  1.
    9900012    2    1    2    0    0 -0.90671301257E+01 -0.30226552117E+02  0.45664938746E+01  0.59302107071E+02  0.50000297351E+02 0.  0.
         12    1    1    2    0    0  0.90671301257E+01  0.30226552117E+02 -0.45664938746E+01  0.31885892929E+02  0.00000000000E+00 0. -1.
         11    1    3    3    0    0 -0.20091581399E+02 -0.12426212591E+02 -0.19707244261E+01  0.23705825391E+02  0.51100000000E-03 0. -1.
        -11    1    3    3    0    0 -0.29225133372E+00 -0.10778151255E+02 -0.97640104864E+01  0.14546128569E+02  0.51100000000E-03 0.  1.
         12    1    3    3    0    0  0.11316702607E+02 -0.70221882709E+01  0.16301228787E+02  0.21050153110E+02  0.00000000000E+00 0. -1.
</event>
<event>
 7    1  0.6230310E-012  0.5930190E+02  0.7816164E-02  0.1266605E+00
        -11   -1    0    0    0    0  0.00000000000E+00  0.00000000000E+00  0.45593999997E+02  0.45594000000E+02  0.51100000000E-03 0. -1.
         11   -1    0    0    0    0 -0.00000000000E+00 -0.00000000000E+00 -0.45593999997E+02  0.45594000000E+02  0.51100000000E-03 0.  1.
    9900012    2    1    2    0    0  0.22485917651E+02  0.21773685269E+02 -0.60838775399E+01  0.59301899130E+02  0.49999918116E+02 0.  0.
         12    1    1    2    0    0 -0.22485917651E+02 -0.21773685269E+02  0.60838775399E+01  0.31886100870E+02  0.00000000000E+00 0. -1.
         11    1    3    3    0    0  0.19624748076E+01  0.15837041113E+02  0.79188375169E+01  0.17814914158E+02  0.51100000000E-03 0. -1.
        -11    1    3    3    0    0 -0.13973271469E+01 -0.22415441706E+00  0.90057354600E+01  0.91162514113E+01  0.51100000000E-03 0.  1.
        -12    1    3    3    0    0  0.21920769991E+02  0.61607985728E+01 -0.23008450517E+02  0.32370733560E+02  0.00000000000E+00 0.  1.
</event>
<event>
 7    1  0.6230310E-012  0.5930200E+02  0.7816164E-02  0.1266605E+00
        -11   -1    0    0    0    0  0.00000000000E+00  0.00000000000E+00  0.45593999997E+02  0.45594000000E+02  0.51100000000E-03 0. -1.
         11   -1    0    0    0    0 -0.00000000000E+00 -0.00000000000E+00 -0.45593999997E+02  0.45594000000E+02  0.51100000000E-03 0.  1.
    9900012    2    1    2    0    0 -0.20592579659E+02 -0.87794261987E+01 -0.22706481387E+02  0.59302000590E+02  0.50000103156E+02 0.  0.
         12    1    1    2    0    0  0.20592579659E+02  0.87794261987E+01  0.22706481387E+02  0.31885999410E+02  0.00000000000E+00 0. -1.
         11    1    3    3    0    0 -0.14533231123E+00  0.99169438670E+01  0.67484849331E+01  0.11996205496E+02  0.51100000000E-03 0. -1.
        -11    1    3    3    0    0 -0.12398035342E+02  0.11109113478E+01 -0.20799857410E+02  0.24240038632E+02  0.51100000000E-03 0.  1.
        -12    1    3    3    0    0 -0.80492120066E+01 -0.19807281414E+02 -0.86551089094E+01  0.23065756462E+02  0.00000000000E+00 0.  1.
</event>
<event>
 7    1  0.6230310E-012  0.5930194E+02  0.7816164E-02  0.1266605E+00
        -11   -1    0    0    0    0  0.00000000000E+00  0.00000000000E+00  0.45593999997E+02  0.45594000000E+02  0.51100000000E-03 0. -1.
         11   -1    0    0    0    0 -0.00000000000E+00 -0.00000000000E+00 -0.45593999997E+02  0.45594000000E+02  0.51100000000E-03 0.  1.
    9900012    2    1    2    0    0 -0.23181438240E+02 -0.21893276917E+02  0.16215862948E+00  0.59301938022E+02  0.49999989047E+02 0.  0.
         12    1    1    2    0    0  0.23181438240E+02  0.21893276917E+02 -0.16215862948E+00  0.31886061978E+02  0.00000000000E+00 0. -1.
         11    1    3    3    0    0  0.53068286698E+01 -0.24847780128E+02  0.38578852651E+01  0.25699375222E+02  0.51100000000E-03 0. -1.
        -11    1    3    3    0    0 -0.14386790795E+02 -0.33492668520E+01 -0.89686334372E+01  0.17281022071E+02  0.51100000000E-03 0.  1.
        -12    1    3    3    0    0 -0.14101476115E+02  0.63037700633E+01  0.52729068016E+01  0.16321540729E+02  0.00000000000E+00 0.  1.
</event>
<event>
 7    1  0.6230310E-012  0.5930195E+02  0.7816164E-02  0.1266605E+00
        -11   -1    0    0    0    0  0.00000000000E+00  0.00000000000E+00  0.45593999997E+02  0.45594000000E+02  0.51100000000E-03 0. -1.
         11   -1    0    0    0    0 -0.00000000000E+00 -0.00000000000E+00 -0.45593999997E+02  0.45594000000E+02  0.51100000000E-03 0.  1.
    9900012    2    1    2    0    0 -0.18072994892E+02 -0.24179537301E+01 -0.26157986777E+02  0.59301954199E+02  0.50000018550E+02 0.  0.
         12    1    1    2    0    0  0.18072994892E+02  0.24179537301E+01  0.26157986777E+02  0.31886045801E+02  0.00000000000E+00 0. -1.
         11    1    3    3    0    0 -0.25078858734E+02  0.10523756952E+02 -0.70087999316E+01  0.28085973234E+02  0.51100000000E-03 0. -1.
        -11    1    3    3    0    0  0.20096138992E+01  0.48875223679E+01 -0.11811711901E+01  0.54149412335E+01  0.51100000000E-03 0.  1.
        -12    1    3    3    0    0  0.49962499428E+01 -0.17829233050E+02 -0.17968015656E+02  0.25801039731E+02  0.00000000000E+00 0.  1.
</event>
<event>
 7    1  0.6230310E-012  0.5930193E+02  0.7816164E-02  0.1266605E+00
        -11   -1    0    0    0    0  0.00000000000E+00  0.00000000000E+00  0.45593999997E+02  0.45594000000E+02  0.51100000000E-03 0. -1.
         11   -1    0    0    0    0 -0.00000000000E+00 -0.00000000000E+00 -0.45593999997E+02  0.45594000000E+02  0.51100000000E-03 0.  1.
    9900012    2    1    2    0    0 -0.46288403941E+00 -0.30728523195E+02  0.85008912257E+01  0.59301928574E+02  0.49999971815E+02 0.  0.
         12    1    1    2    0    0  0.46288403941E+00  0.30728523195E+02 -0.85008912257E+01  0.31886071426E+02  0.00000000000E+00 0. -1.
         11    1    3    3    0    0 -0.13244445039E+01 -0.58053229480E+01  0.21887163606E+02  0.22682677504E+02  0.51100000000E-03 0. -1.
        -11    1    3    3    0    0 -0.11024294349E+02 -0.14065629738E+02 -0.55375274628E+01  0.18709388458E+02  0.51100000000E-03 0.  1.
        -12    1    3    3    0    0  0.11885854813E+02 -0.10857570509E+02 -0.78487449171E+01  0.17909862612E+02  0.00000000000E+00 0.  1.
</event>
<event>
 7    1  0.6230310E-012  0.5930194E+02  0.7816164E-02  0.1266605E+00
        -11   -1    0    0    0    0  0.00000000000E+00  0.00000000000E+00  0.45593999997E+02  0.45594000000E+02  0.51100000000E-03 0.  1.
         11   -1    0    0    0    0 -0.00000000000E+00 -0.00000000000E+00 -0.45593999997E+02  0.45594000000E+02  0.51100000000E-03 0. -1.
    9900012    2    1    2    0    0  0.11026717671E+02 -0.14908482411E+02  0.25939723074E+02  0.59301943744E+02  0.49999999482E+02 0.  0.
         12    1    1    2    0    0 -0.11026717671E+02  0.14908482411E+02 -0.25939723074E+02  0.31886056256E+02  0.00000000000E+00 0. -1.
         11    1    3    3    0    0  0.30571639770E+00 -0.94753198404E+01  0.27392153987E+02  0.28986294156E+02  0.51100000000E-03 0. -1.
        -11    1    3    3    0    0 -0.17666554179E+01  0.86624204300E+01  0.53028119496E+01  0.10309142249E+02  0.51100000000E-03 0.  1.
         12    1    3    3    0    0  0.12487656691E+02 -0.14095583000E+02 -0.67552428625E+01  0.20006507339E+02  0.00000000000E+00 0. -1.
</event>
<event>
 7    1  0.6230310E-012  0.5930194E+02  0.7816164E-02  0.1266605E+00
        -11   -1    0    0    0    0  0.00000000000E+00  0.00000000000E+00  0.45593999997E+02  0.45594000000E+02  0.51100000000E-03 0.  1.
         11   -1    0    0    0    0 -0.00000000000E+00 -0.00000000000E+00 -0.45593999997E+02  0.45594000000E+02  0.51100000000E-03 0. -1.
    9900012    2    1    2    0    0  0.31522086913E+01  0.68234078756E+01  0.30987502711E+02  0.59301942876E+02  0.49999997899E+02 0.  0.
         12    1    1    2    0    0 -0.31522086913E+01 -0.68234078756E+01 -0.30987502711E+02  0.31886057124E+02  0.00000000000E+00 0. -1.
         11    1    3    3    0    0  0.15340757409E+02  0.59519801344E+01  0.36047415463E+01  0.16845149666E+02  0.51100000000E-03 0. -1.
        -11    1    3    3    0    0  0.23775894937E+01 -0.11728911066E+02  0.51131182626E+01  0.13014002659E+02  0.51100000000E-03 0.  1.
         12    1    3    3    0    0 -0.14566138211E+02  0.12600338807E+02  0.22269642902E+02  0.29442790551E+02  0.00000000000E+00 0. -1.
</event>
<event>
 7    1  0.6230310E-012  0.5930196E+02  0.7816164E-02  0.1266605E+00
        -11   -1    0    0    0    0  0.00000000000E+00  0.00000000000E+00  0.45593999997E+02  0.45594000000E+02  0.51100000000E-03 0.  1.
         11   -1    0    0    0    0 -0.00000000000E+00 -0.00000000000E+00 -0.45593999997E+02  0.45594000000E+02  0.51100000000E-03 0. -1.
    9900012    2    1    2    0    0 -0.22185824246E+02 -0.19374832324E+02  0.12211665977E+02  0.59301957427E+02  0.50000024436E+02 0.  0.
         12    1    1    2    0    0  0.22185824246E+02  0.19374832324E+02 -0.12211665977E+02  0.31886042573E+02  0.00000000000E+00 0. -1.
         11    1    3    3    0    0  0.38619154936E+01  0.60567080328E+01  0.82110731161E+01  0.10909620775E+02  0.51100000000E-03 0. -1.
        -11    1    3    3    0    0  0.43680854214E+01 -0.91954746223E+01 -0.68231498073E+01  0.12255296705E+02  0.51100000000E-03 0.  1.
        -12    1    3    3    0    0 -0.30415825161E+02 -0.16236065735E+02  0.10823742668E+02  0.36137039947E+02  0.00000000000E+00 0.  1.
</event>
<event>
 7    1  0.6230310E-012  0.5930196E+02  0.7816164E-02  0.1266605E+00
        -11   -1    0    0    0    0  0.00000000000E+00  0.00000000000E+00  0.45593999997E+02  0.45594000000E+02  0.51100000000E-03 0.  1.
         11   -1    0    0    0    0 -0.00000000000E+00 -0.00000000000E+00 -0.45593999997E+02  0.45594000000E+02  0.51100000000E-03 0. -1.
    9900012    2    1    2    0    0  0.95566362746E+01  0.27796614460E+02  0.12358739276E+02  0.59301960597E+02  0.50000030218E+02 0.  0.
         12    1    1    2    0    0 -0.95566362746E+01 -0.27796614460E+02 -0.12358739276E+02  0.31886039403E+02  0.00000000000E+00 0. -1.
         11    1    3    3    0    0  0.40681996664E+01  0.63684161502E+00 -0.28342679403E+01  0.49988889553E+01  0.51100000000E-03 0. -1.
        -11    1    3    3    0    0  0.77765154523E+01 -0.11210194159E+02  0.50626641930E+01  0.14552429854E+02  0.51100000000E-03 0.  1.
         12    1    3    3    0    0 -0.22880788441E+01  0.38369967004E+02  0.10130343024E+02  0.39750641787E+02  0.00000000000E+00 0. -1.
</event>
<event>
 7    1  0.6230310E-012  0.5930195E+02  0.7816164E-02  0.1266605E+00
        -11   -1    0    0    0    0  0.00000000000E+00  0.00000000000E+00  0.45593999997E+02  0.45594000000E+02  0.51100000000E-03 0. -1.
         11   -1    0    0    0    0 -0.00000000000E+00 -0.00000000000E+00 -0.45593999997E+02  0.45594000000E+02  0.51100000000E-03 0.  1.
    9900012    2    1    2    0    0 -0.17045101602E+01 -0.16137083908E+02 -0.27448297935E+02  0.59301954597E+02  0.50000019276E+02 0.  0.
         12    1    1    2    0    0  0.17045101602E+01  0.16137083908E+02  0.27448297935E+02  0.31886045403E+02  0.00000000000E+00 0. -1.
         11    1    3    3    0    0 -0.36444495882E+01  0.11521833790E+02  0.20739505161E+00  0.12086259954E+02  0.51100000000E-03 0. -1.
        -11    1    3    3    0    0 -0.87278042422E+01 -0.11499338033E+01 -0.25149552245E+01  0.91554308847E+01  0.51100000000E-03 0.  1.
        -12    1    3    3    0    0  0.10667743670E+02 -0.26508983895E+02 -0.25140737762E+02  0.38060263759E+02  0.00000000000E+00 0.  1.
</event>
<event>
 7    1  0.6230310E-012  0.5930195E+02  0.7816164E-02  0.1266605E+00
        -11   -1    0    0    0    0  0.00000000000E+00  0.00000000000E+00  0.45593999997E+02  0.45594000000E+02  0.51100000000E-03 0. -1.
         11   -1    0    0    0    0 -0.00000000000E+00 -0.00000000000E+00 -0.45593999997E+02  0.45594000000E+02  0.51100000000E-03 0.  1.
    9900012    2    1    2    0    0 -0.24173139067E+02  0.13422722293E+02  0.15881129674E+02  0.59301946531E+02  0.50000004566E+02 0.  0.
         12    1    1    2    0    0  0.24173139067E+02 -0.13422722293E+02 -0.15881129674E+02  0.31886053469E+02  0.00000000000E+00 0. -1.
         11    1    3    3    0    0 -0.28229959033E+01  0.11416913420E+02 -0.85711448714E+01  0.14552654142E+02  0.51100000000E-03 0. -1.
        -11    1    3    3    0    0 -0.61455023126E+01  0.10907560820E+02  0.24064278423E+02  0.27126215696E+02  0.51100000000E-03 0.  1.
         12    1    3    3    0    0 -0.15204640851E+02 -0.89017519475E+01  0.38799612302E+00  0.17623076693E+02  0.00000000000E+00 0. -1.
</event>
<event>
 7    1  0.6230310E-012  0.5930197E+02  0.7816164E-02  0.1266605E+00
        -11   -1    0    0    0    0  0.00000000000E+00  0.00000000000E+00  0.45593999997E+02  0.45594000000E+02  0.51100000000E-03 0. -1.
         11   -1    0    0    0    0 -0.00000000000E+00 -0.00000000000E+00 -0.45593999997E+02  0.45594000000E+02  0.51100000000E-03 0.  1.
    9900012    2    1    2    0    0  0.16447294983E+02 -0.12548459908E+01 -0.27287923481E+02  0.59301969852E+02  0.50000047097E+02 0.  0.
         12    1    1    2    0    0 -0.16447294983E+02  0.12548459908E+01  0.27287923481E+02  0.31886030148E+02  0.00000000000E+00 0. -1.
         11    1    3    3    0    0  0.32998443450E+01  0.58580626587E+01 -0.66113424795E+01  0.94295132672E+01  0.51100000000E-03 0. -1.
        -11    1    3    3    0    0  0.28642347336E+02 -0.69329798786E+01 -0.16708176253E+02  0.33876443510E+02  0.51100000000E-03 0.  1.
        -12    1    3    3    0    0 -0.15494896698E+02 -0.17992877093E+00 -0.39684047484E+01  0.15996013075E+02  0.00000000000E+00 0.  1.
</event>
<event>
 7    1  0.6230310E-012  0.5930192E+02  0.7816164E-02  0.1266605E+00
        -11   -1    0    0    0    0  0.00000000000E+00  0.00000000000E+00  0.45593999997E+02  0.45594000000E+02  0.51100000000E-03 0. -1.
         11   -1    0    0    0    0 -0.00000000000E+00 -0.00000000000E+00 -0.45593999997E+02  0.45594000000E+02  0.51100000000E-03 0.  1.
    9900012    2    1    2    0    0 -0.14942562255E+02  0.27039735299E+02 -0.78927039879E+01  0.59301917957E+02  0.49999952454E+02 0.  0.
         12    1    1    2    0    0  0.14942562255E+02 -0.27039735299E+02  0.78927039879E+01  0.31886082043E+02  0.00000000000E+00 0. -1.
         11    1    3    3    0    0 -0.11200509956E+01  0.85489425716E+01  0.11923145318E+02  0.14713950111E+02  0.51100000000E-03 0. -1.
        -11    1    3    3    0    0 -0.13301629187E+02 -0.38663170989E+01  0.11942318580E+01  0.13903522465E+02  0.51100000000E-03 0.  1.
        -12    1    3    3    0    0 -0.52088207279E+00  0.22357109826E+02 -0.21010081164E+02  0.30684445382E+02  0.00000000000E+00 0.  1.
</event>
<event>
 7    1  0.6230310E-012  0.5930196E+02  0.7816164E-02  0.1266605E+00
        -11   -1    0    0    0    0  0.00000000000E+00  0.00000000000E+00  0.45593999997E+02  0.45594000000E+02  0.51100000000E-03 0.  1.
         11   -1    0    0    0    0 -0.00000000000E+00 -0.00000000000E+00 -0.45593999997E+02  0.45594000000E+02  0.51100000000E-03 0. -1.
    9900012    2    1    2    0    0  0.17415535741E+02  0.99811827820E+01  0.24774873804E+02  0.59301964390E+02  0.50000037136E+02 0.  0.
         12    1    1    2    0    0 -0.17415535741E+02 -0.99811827820E+01 -0.24774873804E+02  0.31886035610E+02  0.00000000000E+00 0. -1.
         11    1    3    3    0    0  0.14790140867E+02  0.18964142731E+02  0.26102756023E+02  0.35492828130E+02  0.51100000000E-03 0. -1.
        -11    1    3    3    0    0  0.12183413792E+02 -0.48073445147E+01  0.95354421111E+00  0.13132226762E+02  0.51100000000E-03 0.  1.
        -12    1    3    3    0    0 -0.95580189171E+01 -0.41756154347E+01 -0.22814264301E+01  0.10676909498E+02  0.00000000000E+00 0.  1.
</event>
<event>
 7    1  0.6230310E-012  0.5930196E+02  0.7816164E-02  0.1266605E+00
        -11   -1    0    0    0    0  0.00000000000E+00  0.00000000000E+00  0.45593999997E+02  0.45594000000E+02  0.51100000000E-03 0.  1.
         11   -1    0    0    0    0 -0.00000000000E+00 -0.00000000000E+00 -0.45593999997E+02  0.45594000000E+02  0.51100000000E-03 0. -1.
    9900012    2    1    2    0    0 -0.25266332036E+02 -0.76425353249E+01  0.17886401629E+02  0.59301964750E+02  0.50000037792E+02 0.  0.
         12    1    1    2    0    0  0.25266332036E+02  0.76425353249E+01 -0.17886401629E+02  0.31886035250E+02  0.00000000000E+00 0. -1.
         11    1    3    3    0    0 -0.27069034308E+01  0.37320073812E+01 -0.29600481670E+01  0.54787855122E+01  0.51100000000E-03 0.  1.
        -11    1    3    3    0    0 -0.17163506685E+01  0.10480339322E+02  0.21099710256E+02  0.23621624522E+02  0.51100000000E-03 0. -1.
        -12    1    3    3    0    0 -0.20843077937E+02 -0.21854882028E+02 -0.25326046052E+00  0.30201554715E+02  0.00000000000E+00 0.  1.
</event>
<event>
 7    1  0.6230310E-012  0.5930198E+02  0.7816164E-02  0.1266605E+00
        -11   -1    0    0    0    0  0.00000000000E+00  0.00000000000E+00  0.45593999997E+02  0.45594000000E+02  0.51100000000E-03 0.  1.
         11   -1    0    0    0    0 -0.00000000000E+00 -0.00000000000E+00 -0.45593999997E+02  0.45594000000E+02  0.51100000000E-03 0. -1.
    9900012    2    1    2    0    0  0.21742308406E+02  0.10923904742E+02  0.20607242944E+02  0.59301982197E+02  0.50000069611E+02 0.  0.
         12    1    1    2    0    0 -0.21742308406E+02 -0.10923904742E+02 -0.20607242944E+02  0.31886017803E+02  0.00000000000E+00 0. -1.
         11    1    3    3    0    0 -0.95777028881E+01  0.82379386805E+00  0.35582662825E+01  0.10250477460E+02  0.51100000000E-03 0. -1.
        -11    1    3    3    0    0  0.44302608122E+01 -0.94585911778E+01 -0.21392394803E+01  0.10661543216E+02  0.51100000000E-03 0.  1.
        -12    1    3    3    0    0  0.26889750481E+02  0.19558702052E+02  0.19188216142E+02  0.38389961521E+02  0.00000000000E+00 0.  1.
</event>
<event>
 7    1  0.6230310E-012  0.5930196E+02  0.7816164E-02  0.1266605E+00
        -11   -1    0    0    0    0  0.00000000000E+00  0.00000000000E+00  0.45593999997E+02  0.45594000000E+02  0.51100000000E-03 0. -1.
         11   -1    0    0    0    0 -0.00000000000E+00 -0.00000000000E+00 -0.45593999997E+02  0.45594000000E+02  0.51100000000E-03 0.  1.
    9900012    2    1    2    0    0  0.40101114513E+01  0.26461681936E+02 -0.17332563554E+02  0.59301962866E+02  0.50000034356E+02 0.  0.
         12    1    1    2    0    0 -0.40101114513E+01 -0.26461681936E+02  0.17332563554E+02  0.31886037134E+02  0.00000000000E+00 0. -1.
         11    1    3    3    0    0 -0.89733911472E+01  0.12661583399E+01 -0.20135767964E+02  0.22081079172E+02  0.51100000000E-03 0. -1.
        -11    1    3    3    0    0 -0.66497266196E+01  0.25078699127E+01  0.77835082423E+00  0.71494129745E+01  0.51100000000E-03 0.  1.
        -12    1    3    3    0    0  0.19633229218E+02  0.22687653684E+02  0.20248535857E+01  0.30071470720E+02  0.00000000000E+00 0.  1.
</event>
<event>
 7    1  0.6230310E-012  0.5930195E+02  0.7816164E-02  0.1266605E+00
        -11   -1    0    0    0    0  0.00000000000E+00  0.00000000000E+00  0.45593999997E+02  0.45594000000E+02  0.51100000000E-03 0.  1.
         11   -1    0    0    0    0 -0.00000000000E+00 -0.00000000000E+00 -0.45593999997E+02  0.45594000000E+02  0.51100000000E-03 0. -1.
    9900012    2    1    2    0    0  0.25652766885E+02  0.61591052777E+01  0.17908680678E+02  0.59301954929E+02  0.50000019880E+02 0.  0.
         12    1    1    2    0    0 -0.25652766885E+02 -0.61591052777E+01 -0.17908680678E+02  0.31886045071E+02  0.00000000000E+00 0. -1.
         11    1    3    3    0    0  0.11304306131E+00 -0.54093554479E+01 -0.64050965790E+01  0.83844598838E+01  0.51100000000E-03 0. -1.
        -11    1    3    3    0    0  0.32224986622E+02  0.54700816666E+01  0.10363772448E+02  0.34289638899E+02  0.51100000000E-03 0.  1.
         12    1    3    3    0    0 -0.66852627982E+01  0.60983790590E+01  0.13950004809E+02  0.16627856146E+02  0.00000000000E+00 0. -1.
</event>
<event>
 7    1  0.6230310E-012  0.5930195E+02  0.7816164E-02  0.1266605E+00
        -11   -1    0    0    0    0  0.00000000000E+00  0.00000000000E+00  0.45593999997E+02  0.45594000000E+02  0.51100000000E-03 0.  1.
         11   -1    0    0    0    0 -0.00000000000E+00 -0.00000000000E+00 -0.45593999997E+02  0.45594000000E+02  0.51100000000E-03 0. -1.
    9900012    2    1    2    0    0 -0.96868263077E+00 -0.27795098825E+02  0.15595332757E+02  0.59301948684E+02  0.50000008492E+02 0.  0.
         12    1    1    2    0    0  0.96868263077E+00  0.27795098825E+02 -0.15595332757E+02  0.31886051316E+02  0.00000000000E+00 0. -1.
         11    1    3    3    0    0 -0.98178392911E+01 -0.15500233443E+02 -0.25530394407E+01  0.18524719047E+02  0.51100000000E-03 0. -1.
        -11    1    3    3    0    0  0.59832516369E+01 -0.23743882719E+02  0.14337810739E+02  0.28375060947E+02  0.51100000000E-03 0.  1.
         12    1    3    3    0    0  0.28659050234E+01  0.11449017336E+02  0.38105614586E+01  0.12402168689E+02  0.00000000000E+00 0. -1.
</event>
<event>
 7    1  0.6230310E-012  0.5930196E+02  0.7816164E-02  0.1266605E+00
        -11   -1    0    0    0    0  0.00000000000E+00  0.00000000000E+00  0.45593999997E+02  0.45594000000E+02  0.51100000000E-03 0.  1.
         11   -1    0    0    0    0 -0.00000000000E+00 -0.00000000000E+00 -0.45593999997E+02  0.45594000000E+02  0.51100000000E-03 0. -1.
    9900012    2    1    2    0    0  0.21853857635E+02 -0.22756167681E+02  0.46136095384E+01  0.59301958320E+02  0.50000026066E+02 0.  0.
         12    1    1    2    0    0 -0.21853857635E+02  0.22756167681E+02 -0.46136095384E+01  0.31886041680E+02  0.00000000000E+00 0. -1.
         11    1    3    3    0    0 -0.73433839565E+01 -0.92804444504E+01  0.85029326418E+00  0.11864861399E+02  0.51100000000E-03 0. -1.
        -11    1    3    3    0    0  0.92887870534E+01 -0.17204292308E+02 -0.10943795434E+02  0.22406157580E+02  0.51100000000E-03 0.  1.
         12    1    3    3    0    0  0.19908454538E+02  0.37285690782E+01  0.14707111708E+02  0.25030939340E+02  0.00000000000E+00 0. -1.
</event>
<event>
 7    1  0.6230310E-012  0.5930192E+02  0.7816164E-02  0.1266605E+00
        -11   -1    0    0    0    0  0.00000000000E+00  0.00000000000E+00  0.45593999997E+02  0.45594000000E+02  0.51100000000E-03 0. -1.
         11   -1    0    0    0    0 -0.00000000000E+00 -0.00000000000E+00 -0.45593999997E+02  0.45594000000E+02  0.51100000000E-03 0.  1.
    9900012    2    1    2    0    0  0.21591037524E+02  0.13676020096E+02 -0.19066094913E+02  0.59301915225E+02  0.49999947471E+02 0.  0.
         12    1    1    2    0    0 -0.21591037524E+02 -0.13676020096E+02  0.19066094913E+02  0.31886084775E+02  0.00000000000E+00 0. -1.
         11    1    3    3    0    0 -0.36176328231E+01 -0.29368779859E+01 -0.13503065672E+02  0.14284442668E+02  0.51100000000E-03 0.  1.
        -11    1    3    3    0    0 -0.62930541431E+01  0.24322268812E+00  0.49302900020E+01  0.79980902401E+01  0.51100000000E-03 0. -1.
        -12    1    3    3    0    0  0.31501724490E+02  0.16369675394E+02 -0.10493319244E+02  0.37019382317E+02  0.00000000000E+00 0.  1.
</event>
<event>
 7    1  0.6230310E-012  0.5930192E+02  0.7816164E-02  0.1266605E+00
        -11   -1    0    0    0    0  0.00000000000E+00  0.00000000000E+00  0.45593999997E+02  0.45594000000E+02  0.51100000000E-03 0.  1.
         11   -1    0    0    0    0 -0.00000000000E+00 -0.00000000000E+00 -0.45593999997E+02  0.45594000000E+02  0.51100000000E-03 0. -1.
    9900012    2    1    2    0    0 -0.24787149253E-01 -0.30085021606E+02 -0.10564713392E+02  0.59301916695E+02  0.49999950152E+02 0.  0.
         12    1    1    2    0    0  0.24787149253E-01  0.30085021606E+02  0.10564713392E+02  0.31886083305E+02  0.00000000000E+00 0. -1.
         11    1    3    3    0    0  0.16638688266E+01 -0.15621690770E+02  0.53833275255E+01  0.16606802747E+02  0.51100000000E-03 0. -1.
        -11    1    3    3    0    0 -0.16643953060E+02 -0.13779777545E+02 -0.11401526787E+01  0.21638008020E+02  0.51100000000E-03 0.  1.
         12    1    3    3    0    0  0.14955297084E+02 -0.68355329152E+00 -0.14807888239E+02  0.21057105928E+02  0.00000000000E+00 0. -1.
</event>
<event>
 7    1  0.6230310E-012  0.5930194E+02  0.7816164E-02  0.1266605E+00
        -11   -1    0    0    0    0  0.00000000000E+00  0.00000000000E+00  0.45593999997E+02  0.45594000000E+02  0.51100000000E-03 0.  1.
         11   -1    0    0    0    0 -0.00000000000E+00 -0.00000000000E+00 -0.45593999997E+02  0.45594000000E+02  0.51100000000E-03 0. -1.
    9900012    2    1    2    0    0 -0.86936386869E+01 -0.23062797320E+02  0.20229904538E+02  0.59301937034E+02  0.49999987245E+02 0.  0.
         12    1    1    2    0    0  0.86936386869E+01  0.23062797320E+02 -0.20229904538E+02  0.31886062966E+02  0.00000000000E+00 0. -1.
         11    1    3    3    0    0 -0.17312401923E+00 -0.20129496027E+02 -0.38668690086E+01  0.20498274523E+02  0.51100000000E-03 0. -1.
        -11    1    3    3    0    0 -0.15752327287E+02 -0.63951525541E+01  0.44349359168E+01  0.17569930222E+02  0.51100000000E-03 0.  1.
        -12    1    3    3    0    0  0.72318126198E+01  0.34618512607E+01  0.19661837630E+02  0.21233732289E+02  0.00000000000E+00 0.  1.
</event>
<event>
 7    1  0.6230310E-012  0.5930171E+02  0.7816164E-02  0.1266606E+00
        -11   -1    0    0    0    0  0.00000000000E+00  0.00000000000E+00  0.45593999997E+02  0.45594000000E+02  0.51100000000E-03 0. -1.
         11   -1    0    0    0    0 -0.00000000000E+00 -0.00000000000E+00 -0.45593999997E+02  0.45594000000E+02  0.51100000000E-03 0.  1.
    9900012    2    1    2    0    0 -0.25009480751E+02 -0.19518055886E+02 -0.32103981308E+01  0.59301713149E+02  0.49999578930E+02 0.  0.
         12    1    1    2    0    0  0.25009480751E+02  0.19518055886E+02  0.32103981308E+01  0.31886286851E+02  0.00000000000E+00 0. -1.
         11    1    3    3    0    0 -0.42155045819E+00 -0.70528122138E+01 -0.21435662398E+01  0.73834098760E+01  0.51100000000E-03 0. -1.
        -11    1    3    3    0    0 -0.35263469103E+02 -0.18312848845E+02 -0.86861245158E+00  0.39744523823E+02  0.51100000000E-03 0.  1.
         12    1    3    3    0    0  0.10675538811E+02  0.58476051726E+01 -0.19821943936E+00  0.12173779450E+02  0.00000000000E+00 0. -1.
</event>
<event>
 7    1  0.6230310E-012  0.5930196E+02  0.7816164E-02  0.1266605E+00
        -11   -1    0    0    0    0  0.00000000000E+00  0.00000000000E+00  0.45593999997E+02  0.45594000000E+02  0.51100000000E-03 0.  1.
         11   -1    0    0    0    0 -0.00000000000E+00 -0.00000000000E+00 -0.45593999997E+02  0.45594000000E+02  0.51100000000E-03 0. -1.
    9900012    2    1    2    0    0 -0.32754218990E+01 -0.22879217872E+02  0.21966619065E+02  0.59301963053E+02  0.50000034697E+02 0.  0.
         12    1    1    2    0    0  0.32754218990E+01  0.22879217872E+02 -0.21966619065E+02  0.31886036947E+02  0.00000000000E+00 0. -1.
         11    1    3    3    0    0 -0.16179239018E+01  0.23843458101E-01  0.39965633753E+01  0.43117009795E+01  0.51100000000E-03 0. -1.
        -11    1    3    3    0    0 -0.88793597413E+01  0.42060174575E+01  0.24316849399E+02  0.26226756895E+02  0.51100000000E-03 0.  1.
         12    1    3    3    0    0  0.72218617441E+01 -0.27109078788E+02 -0.63467937088E+01  0.28763505179E+02  0.00000000000E+00 0. -1.
</event>
<event>
 7    1  0.6230310E-012  0.5930196E+02  0.7816164E-02  0.1266605E+00
        -11   -1    0    0    0    0  0.00000000000E+00  0.00000000000E+00  0.45593999997E+02  0.45594000000E+02  0.51100000000E-03 0.  1.
         11   -1    0    0    0    0 -0.00000000000E+00 -0.00000000000E+00 -0.45593999997E+02  0.45594000000E+02  0.51100000000E-03 0. -1.
    9900012    2    1    2    0    0  0.21537823427E+02 -0.12411863004E+02  0.19969656698E+02  0.59301962776E+02  0.50000034193E+02 0.  0.
         12    1    1    2    0    0 -0.21537823427E+02  0.12411863004E+02 -0.19969656698E+02  0.31886037224E+02  0.00000000000E+00 0. -1.
         11    1    3    3    0    0  0.47500081924E+01  0.17098033261E+02  0.91233454280E+01  0.19953464644E+02  0.51100000000E-03 0. -1.
        -11    1    3    3    0    0  0.12251094189E+02 -0.13434211401E+02 -0.19792870504E+01  0.18288928954E+02  0.51100000000E-03 0.  1.
        -12    1    3    3    0    0  0.45367210454E+01 -0.16075684865E+02  0.12825598321E+02  0.21059569179E+02  0.00000000000E+00 0.  1.
</event>
<event>
 7    1  0.6230310E-012  0.5930193E+02  0.7816164E-02  0.1266605E+00
        -11   -1    0    0    0    0  0.00000000000E+00  0.00000000000E+00  0.45593999997E+02  0.45594000000E+02  0.51100000000E-03 0.  1.
         11   -1    0    0    0    0 -0.00000000000E+00 -0.00000000000E+00 -0.45593999997E+02  0.45594000000E+02  0.51100000000E-03 0. -1.
    9900012    2    1    2    0    0 -0.15383052243E+02  0.25156494486E+02  0.12133989339E+02  0.59301933945E+02  0.49999981612E+02 0.  0.
         12    1    1    2    0    0  0.15383052243E+02 -0.25156494486E+02 -0.12133989339E+02  0.31886066055E+02  0.00000000000E+00 0. -1.
         11    1    3    3    0    0 -0.10698673344E+02  0.34708836208E+00  0.17893384858E+01  0.10852825168E+02  0.51100000000E-03 0. -1.
        -11    1    3    3    0    0 -0.20149619756E+02  0.19266918432E+02 -0.19242114140E+01  0.27945015871E+02  0.51100000000E-03 0.  1.
         12    1    3    3    0    0  0.15465240857E+02  0.55424876919E+01  0.12268862267E+02  0.20504092906E+02  0.00000000000E+00 0. -1.
</event>
<event>
 7    1  0.6230310E-012  0.5930191E+02  0.7816164E-02  0.1266605E+00
        -11   -1    0    0    0    0  0.00000000000E+00  0.00000000000E+00  0.45593999997E+02  0.45594000000E+02  0.51100000000E-03 0. -1.
         11   -1    0    0    0    0 -0.00000000000E+00 -0.00000000000E+00 -0.45593999997E+02  0.45594000000E+02  0.51100000000E-03 0.  1.
    9900012    2    1    2    0    0 -0.10459567999E+02 -0.29860589076E+02 -0.39579807810E+01  0.59301906565E+02  0.49999931678E+02 0.  0.
         12    1    1    2    0    0  0.10459567999E+02  0.29860589076E+02  0.39579807810E+01  0.31886093435E+02  0.00000000000E+00 0. -1.
         11    1    3    3    0    0  0.15956781468E+02 -0.11862968589E+02 -0.94790597812E+01  0.22027289282E+02  0.51100000000E-03 0. -1.
        -11    1    3    3    0    0 -0.70818458842E+01  0.24781796017E+01  0.51682735228E+01  0.91107061600E+01  0.51100000000E-03 0.  1.
        -12    1    3    3    0    0 -0.19334503582E+02 -0.20475800089E+02  0.35280547744E+00  0.28163911123E+02  0.00000000000E+00 0.  1.
</event>
<event>
 7    1  0.6230310E-012  0.5930194E+02  0.7816164E-02  0.1266605E+00
        -11   -1    0    0    0    0  0.00000000000E+00  0.00000000000E+00  0.45593999997E+02  0.45594000000E+02  0.51100000000E-03 0.  1.
         11   -1    0    0    0    0 -0.00000000000E+00 -0.00000000000E+00 -0.45593999997E+02  0.45594000000E+02  0.51100000000E-03 0. -1.
    9900012    2    1    2    0    0  0.21935791420E+02  0.43479636079E+00  0.23137693553E+02  0.59301939471E+02  0.49999991689E+02 0.  0.
         12    1    1    2    0    0 -0.21935791420E+02 -0.43479636079E+00 -0.23137693553E+02  0.31886060529E+02  0.00000000000E+00 0. -1.
         11    1    3    3    0    0  0.83076206852E+01  0.16581767424E+02  0.17214996889E+02  0.25304697005E+02  0.51100000000E-03 0. -1.
        -11    1    3    3    0    0  0.42259850706E+01  0.69210175384E+01 -0.92733589342E+00  0.81620699399E+01  0.51100000000E-03 0.  1.
        -12    1    3    3    0    0  0.94021856646E+01 -0.23067988602E+02  0.68500325578E+01  0.25835172526E+02  0.00000000000E+00 0.  1.
</event>
<event>
 7    1  0.6230310E-012  0.5930198E+02  0.7816164E-02  0.1266605E+00
        -11   -1    0    0    0    0  0.00000000000E+00  0.00000000000E+00  0.45593999997E+02  0.45594000000E+02  0.51100000000E-03 0. -1.
         11   -1    0    0    0    0 -0.00000000000E+00 -0.00000000000E+00 -0.45593999997E+02  0.45594000000E+02  0.51100000000E-03 0.  1.
    9900012    2    1    2    0    0  0.26276096539E+02 -0.15082258318E+02 -0.99403445082E+01  0.59301980897E+02  0.50000067240E+02 0.  0.
         12    1    1    2    0    0 -0.26276096539E+02  0.15082258318E+02  0.99403445082E+01  0.31886019103E+02  0.00000000000E+00 0. -1.
         11    1    3    3    0    0  0.19912671986E+02 -0.67209836354E+01  0.23070089438E+01  0.21142573571E+02  0.51100000000E-03 0. -1.
        -11    1    3    3    0    0  0.19150531832E+02  0.12086212549E+01 -0.11050235044E+02  0.22142974723E+02  0.51100000000E-03 0.  1.
         12    1    3    3    0    0 -0.12787107279E+02 -0.95698959377E+01 -0.11971184077E+01  0.16016432603E+02  0.00000000000E+00 0. -1.
</event>
<event>
 7    1  0.6230310E-012  0.5930197E+02  0.7816164E-02  0.1266605E+00
        -11   -1    0    0    0    0  0.00000000000E+00  0.00000000000E+00  0.45593999997E+02  0.45594000000E+02  0.51100000000E-03 0.  1.
         11   -1    0    0    0    0 -0.00000000000E+00 -0.00000000000E+00 -0.45593999997E+02  0.45594000000E+02  0.51100000000E-03 0. -1.
    9900012    2    1    2    0    0  0.21768032158E+02 -0.54267821790E+01  0.22658811304E+02  0.59301969853E+02  0.50000047099E+02 0.  0.
         12    1    1    2    0    0 -0.21768032158E+02  0.54267821790E+01 -0.22658811304E+02  0.31886030147E+02  0.00000000000E+00 0. -1.
         11    1    3    3    0    0  0.93019276013E+00 -0.57440445342E+01  0.14556293428E+02  0.15676255446E+02  0.51100000000E-03 0. -1.
        -11    1    3    3    0    0  0.49169007860E+01 -0.13666928829E+02  0.15442758880E+02  0.21199991958E+02  0.51100000000E-03 0.  1.
         12    1    3    3    0    0  0.15920938612E+02  0.13984191184E+02 -0.73402410046E+01  0.22425722449E+02  0.00000000000E+00 0. -1.
</event>
<event>
 7    1  0.6230310E-012  0.5930193E+02  0.7816164E-02  0.1266605E+00
        -11   -1    0    0    0    0  0.00000000000E+00  0.00000000000E+00  0.45593999997E+02  0.45594000000E+02  0.51100000000E-03 0.  1.
         11   -1    0    0    0    0 -0.00000000000E+00 -0.00000000000E+00 -0.45593999997E+02  0.45594000000E+02  0.51100000000E-03 0. -1.
    9900012    2    1    2    0    0  0.39803081584E+01 -0.12570425206E+02  0.29032104259E+02  0.59301929051E+02  0.49999972685E+02 0.  0.
         12    1    1    2    0    0 -0.39803081584E+01  0.12570425206E+02 -0.29032104259E+02  0.31886070949E+02  0.00000000000E+00 0. -1.
         11    1    3    3    0    0  0.82622765306E+01  0.14263190346E+00  0.42135288135E+01  0.92757416227E+01  0.51100000000E-03 0. -1.
        -11    1    3    3    0    0  0.10885855411E+02 -0.61783888664E+01 -0.68799934853E+01  0.14283159582E+02  0.51100000000E-03 0.  1.
         12    1    3    3    0    0 -0.15167823783E+02 -0.65346682434E+01  0.31698568930E+02  0.35743027846E+02  0.00000000000E+00 0. -1.
</event>
<event>
 7    1  0.6230310E-012  0.5930198E+02  0.7816164E-02  0.1266605E+00
        -11   -1    0    0    0    0  0.00000000000E+00  0.00000000000E+00  0.45593999997E+02  0.45594000000E+02  0.51100000000E-03 0.  1.
         11   -1    0    0    0    0 -0.00000000000E+00 -0.00000000000E+00 -0.45593999997E+02  0.45594000000E+02  0.51100000000E-03 0. -1.
    9900012    2    1    2    0    0 -0.11358787270E+02 -0.26004372834E+02 -0.14541977475E+02  0.59301975418E+02  0.50000057249E+02 0.  0.
         12    1    1    2    0    0  0.11358787270E+02  0.26004372834E+02  0.14541977475E+02  0.31886024582E+02  0.00000000000E+00 0. -1.
         11    1    3    3    0    0 -0.67203435528E+01 -0.47371047382E+01 -0.20230916370E+02  0.21837883510E+02  0.51100000000E-03 0. -1.
        -11    1    3    3    0    0 -0.86276450007E+01 -0.14805635074E+02 -0.10137502272E+02  0.19910098965E+02  0.51100000000E-03 0.  1.
        -12    1    3    3    0    0  0.39892012831E+01 -0.64616330220E+01  0.15826441168E+02  0.17553992943E+02  0.00000000000E+00 0.  1.
</event>
<event>
 7    1  0.6230310E-012  0.5930195E+02  0.7816164E-02  0.1266605E+00
        -11   -1    0    0    0    0  0.00000000000E+00  0.00000000000E+00  0.45593999997E+02  0.45594000000E+02  0.51100000000E-03 0. -1.
         11   -1    0    0    0    0 -0.00000000000E+00 -0.00000000000E+00 -0.45593999997E+02  0.45594000000E+02  0.51100000000E-03 0.  1.
    9900012    2    1    2    0    0 -0.12148985027E+01  0.17078845570E+02 -0.26899014833E+02  0.59301953782E+02  0.50000017790E+02 0.  0.
         12    1    1    2    0    0  0.12148985027E+01 -0.17078845570E+02  0.26899014833E+02  0.31886046218E+02  0.00000000000E+00 0. -1.
         11    1    3    3    0    0 -0.78380092344E+01 -0.34683281407E+01 -0.45089546576E+01  0.96847488979E+01  0.51100000000E-03 0. -1.
        -11    1    3    3    0    0  0.61600027852E+01  0.15179858600E+02 -0.33488286415E+02  0.37280545445E+02  0.51100000000E-03 0.  1.
         12    1    3    3    0    0  0.46310794641E+00  0.53673151112E+01  0.11098226239E+02  0.12336659439E+02  0.00000000000E+00 0. -1.
</event>
<event>
 7    1  0.6230310E-012  0.5930195E+02  0.7816164E-02  0.1266605E+00
        -11   -1    0    0    0    0  0.00000000000E+00  0.00000000000E+00  0.45593999997E+02  0.45594000000E+02  0.51100000000E-03 0.  1.
         11   -1    0    0    0    0 -0.00000000000E+00 -0.00000000000E+00 -0.45593999997E+02  0.45594000000E+02  0.51100000000E-03 0. -1.
    9900012    2    1    2    0    0 -0.21890504475E+02 -0.62051894893E+01  0.22338788837E+02  0.59301952118E+02  0.50000014755E+02 0.  0.
         12    1    1    2    0    0  0.21890504475E+02  0.62051894893E+01 -0.22338788837E+02  0.31886047882E+02  0.00000000000E+00 0. -1.
         11    1    3    3    0    0  0.59719216149E+01  0.56298844459E+01  0.35649403675E+01  0.89480862051E+01  0.51100000000E-03 0. -1.
        -11    1    3    3    0    0 -0.77527340523E+01 -0.89796932504E+00  0.25359995065E+02  0.26533763099E+02  0.51100000000E-03 0.  1.
         12    1    3    3    0    0 -0.20109692038E+02 -0.10937104610E+02 -0.65861465956E+01  0.23820102815E+02  0.00000000000E+00 0. -1.
</event>
<event>
 7    1  0.6230310E-012  0.5930186E+02  0.7816164E-02  0.1266605E+00
        -11   -1    0    0    0    0  0.00000000000E+00  0.00000000000E+00  0.45593999997E+02  0.45594000000E+02  0.51100000000E-03 0.  1.
         11   -1    0    0    0    0 -0.00000000000E+00 -0.00000000000E+00 -0.45593999997E+02  0.45594000000E+02  0.51100000000E-03 0. -1.
    9900012    2    1    2    0    0 -0.13313484559E+02  0.17755174536E+02  0.22896091624E+02  0.59301857155E+02  0.49999841564E+02 0.  0.
         12    1    1    2    0    0  0.13313484559E+02 -0.17755174536E+02 -0.22896091624E+02  0.31886142845E+02  0.00000000000E+00 0. -1.
         11    1    3    3    0    0 -0.14240242059E+01 -0.49504209505E+01  0.30318045711E+02  0.30752534993E+02  0.51100000000E-03 0.  1.
        -11    1    3    3    0    0 -0.27530061052E+01  0.15302777592E+02 -0.22783550212E+01  0.15714482063E+02  0.51100000000E-03 0. -1.
        -12    1    3    3    0    0 -0.91364542478E+01  0.74028178942E+01 -0.51435990660E+01  0.12834840098E+02  0.00000000000E+00 0.  1.
</event>
<event>
 7    1  0.6230310E-012  0.5930191E+02  0.7816164E-02  0.1266605E+00
        -11   -1    0    0    0    0  0.00000000000E+00  0.00000000000E+00  0.45593999997E+02  0.45594000000E+02  0.51100000000E-03 0. -1.
         11   -1    0    0    0    0 -0.00000000000E+00 -0.00000000000E+00 -0.45593999997E+02  0.45594000000E+02  0.51100000000E-03 0.  1.
    9900012    2    1    2    0    0  0.17026292131E+02  0.79338961235E+01  0.25765892239E+02  0.59301913155E+02  0.49999943695E+02 0.  0.
         12    1    1    2    0    0 -0.17026292131E+02 -0.79338961235E+01 -0.25765892239E+02  0.31886086845E+02  0.00000000000E+00 0. -1.
         11    1    3    3    0    0  0.17477506206E+01  0.60872056424E+00  0.15208463341E-01  0.18507848378E+01  0.51100000000E-03 0. -1.
        -11    1    3    3    0    0 -0.29560768562E+01  0.16954528419E+02 -0.71384801733E+01  0.18632024145E+02  0.51100000000E-03 0.  1.
         12    1    3    3    0    0  0.18234618367E+02 -0.96293528599E+01  0.32889163948E+02  0.38819104172E+02  0.00000000000E+00 0. -1.
</event>
<event>
 7    1  0.6230310E-012  0.5930192E+02  0.7816164E-02  0.1266605E+00
        -11   -1    0    0    0    0  0.00000000000E+00  0.00000000000E+00  0.45593999997E+02  0.45594000000E+02  0.51100000000E-03 0. -1.
         11   -1    0    0    0    0 -0.00000000000E+00 -0.00000000000E+00 -0.45593999997E+02  0.45594000000E+02  0.51100000000E-03 0.  1.
    9900012    2    1    2    0    0 -0.12980902818E+02 -0.22372110506E+01 -0.29038134254E+02  0.59301918519E+02  0.49999953479E+02 0.  0.
         12    1    1    2    0    0  0.12980902818E+02  0.22372110506E+01  0.29038134254E+02  0.31886081481E+02  0.00000000000E+00 0. -1.
         11    1    3    3    0    0 -0.84810531806E+01  0.31139126840E+01 -0.71573585858E+01  0.11526165774E+02  0.51100000000E-03 0. -1.
        -11    1    3    3    0    0 -0.21973680869E+02 -0.97201016930E+01 -0.15835961551E+02  0.28776738980E+02  0.51100000000E-03 0.  1.
         12    1    3    3    0    0  0.17473831232E+02  0.43689779584E+01 -0.60448141175E+01  0.18999013765E+02  0.00000000000E+00 0. -1.
</event>
<event>
 7    1  0.6230310E-012  0.5930192E+02  0.7816164E-02  0.1266605E+00
        -11   -1    0    0    0    0  0.00000000000E+00  0.00000000000E+00  0.45593999997E+02  0.45594000000E+02  0.51100000000E-03 0.  1.
         11   -1    0    0    0    0 -0.00000000000E+00 -0.00000000000E+00 -0.45593999997E+02  0.45594000000E+02  0.51100000000E-03 0. -1.
    9900012    2    1    2    0    0  0.10781025801E+02 -0.24304593873E+02  0.17600513337E+02  0.59301923566E+02  0.49999962682E+02 0.  0.
         12    1    1    2    0    0 -0.10781025801E+02  0.24304593873E+02 -0.17600513337E+02  0.31886076434E+02  0.00000000000E+00 0. -1.
         11    1    3    3    0    0 -0.10873622898E+02  0.19220820675E+01  0.70857760440E+00  0.11064906547E+02  0.51100000000E-03 0.  1.
        -11    1    3    3    0    0  0.65421824089E+00 -0.15641167661E+02 -0.46643166137E+01  0.16334931192E+02  0.51100000000E-03 0. -1.
        -12    1    3    3    0    0  0.21000430458E+02 -0.10585508280E+02  0.21556252346E+02  0.31902085828E+02  0.00000000000E+00 0.  1.
</event>
<event>
 7    1  0.6230310E-012  0.5930189E+02  0.7816164E-02  0.1266605E+00
        -11   -1    0    0    0    0  0.00000000000E+00  0.00000000000E+00  0.45593999997E+02  0.45594000000E+02  0.51100000000E-03 0.  1.
         11   -1    0    0    0    0 -0.00000000000E+00 -0.00000000000E+00 -0.45593999997E+02  0.45594000000E+02  0.51100000000E-03 0. -1.
    9900012    2    1    2    0    0  0.56934352169E+00  0.18352307184E+02  0.26069003078E+02  0.59301886212E+02  0.49999894558E+02 0.  0.
         12    1    1    2    0    0 -0.56934352169E+00 -0.18352307184E+02 -0.26069003078E+02  0.31886113788E+02  0.00000000000E+00 0. -1.
         11    1    3    3    0    0 -0.52221002996E+01  0.21086544934E+02  0.10784368672E+02  0.24253150656E+02  0.51100000000E-03 0. -1.
        -11    1    3    3    0    0 -0.10416571906E+02  0.52637118585E+01  0.47226502169E+00  0.11680525130E+02  0.51100000000E-03 0.  1.
         12    1    3    3    0    0  0.16208015727E+02 -0.79979496093E+01  0.14812369384E+02  0.23368210426E+02  0.00000000000E+00 0. -1.
</event>
<event>
 7    1  0.6230310E-012  0.5930194E+02  0.7816164E-02  0.1266605E+00
        -11   -1    0    0    0    0  0.00000000000E+00  0.00000000000E+00  0.45593999997E+02  0.45594000000E+02  0.51100000000E-03 0.  1.
         11   -1    0    0    0    0 -0.00000000000E+00 -0.00000000000E+00 -0.45593999997E+02  0.45594000000E+02  0.51100000000E-03 0. -1.
    9900012    2    1    2    0    0  0.29561179480E+02 -0.93214319264E+01  0.74812174371E+01  0.59301936591E+02  0.49999986437E+02 0.  0.
         12    1    1    2    0    0 -0.29561179480E+02  0.93214319264E+01 -0.74812174371E+01  0.31886063409E+02  0.00000000000E+00 0. -1.
         11    1    3    3    0    0  0.78520477542E+01 -0.15824367386E+02  0.36551030145E+00  0.17669149814E+02  0.51100000000E-03 0.  1.
        -11    1    3    3    0    0  0.20566439291E+02 -0.98719427874E+01 -0.19232114643E+01  0.22893938545E+02  0.51100000000E-03 0. -1.
         12    1    3    3    0    0  0.11426924343E+01  0.16374878247E+02  0.90389185999E+01  0.18738848232E+02  0.00000000000E+00 0. -1.
</event>
<event>
 7    1  0.6230310E-012  0.5930187E+02  0.7816164E-02  0.1266605E+00
        -11   -1    0    0    0    0  0.00000000000E+00  0.00000000000E+00  0.45593999997E+02  0.45594000000E+02  0.51100000000E-03 0.  1.
         11   -1    0    0    0    0 -0.00000000000E+00 -0.00000000000E+00 -0.45593999997E+02  0.45594000000E+02  0.51100000000E-03 0. -1.
    9900012    2    1    2    0    0  0.17520031829E+02 -0.24985155433E+02 -0.92474756297E+01  0.59301869585E+02  0.49999864234E+02 0.  0.
         12    1    1    2    0    0 -0.17520031829E+02  0.24985155433E+02  0.92474756297E+01  0.31886130415E+02  0.00000000000E+00 0. -1.
         11    1    3    3    0    0  0.22691893459E+02 -0.22274781185E+02 -0.12574602919E+02  0.34193691588E+02  0.51100000000E-03 0. -1.
        -11    1    3    3    0    0  0.52079921562E+01  0.76387149836E+01 -0.20955087320E+01  0.94796785814E+01  0.51100000000E-03 0.  1.
        -12    1    3    3    0    0 -0.10379853786E+02 -0.10349089232E+02  0.54226360216E+01  0.15628499415E+02  0.00000000000E+00 0.  1.
</event>
<event>
 7    1  0.6230310E-012  0.5930194E+02  0.7816164E-02  0.1266605E+00
        -11   -1    0    0    0    0  0.00000000000E+00  0.00000000000E+00  0.45593999997E+02  0.45594000000E+02  0.51100000000E-03 0.  1.
         11   -1    0    0    0    0 -0.00000000000E+00 -0.00000000000E+00 -0.45593999997E+02  0.45594000000E+02  0.51100000000E-03 0. -1.
    9900012    2    1    2    0    0 -0.13643949572E+02  0.14335632498E+02  0.25001058148E+02  0.59301943054E+02  0.49999998224E+02 0.  0.
         12    1    1    2    0    0  0.13643949572E+02 -0.14335632498E+02 -0.25001058148E+02  0.31886056946E+02  0.00000000000E+00 0. -1.
         11    1    3    3    0    0 -0.33028193047E+01 -0.33538763403E+01  0.31171730602E+00  0.47174431429E+01  0.51100000000E-03 0. -1.
        -11    1    3    3    0    0 -0.26810457283E+02  0.67084265073E+01  0.82172202926E+01  0.28832729935E+02  0.51100000000E-03 0.  1.
        -12    1    3    3    0    0  0.16469327015E+02  0.10981082332E+02  0.16472120549E+02  0.25751769976E+02  0.00000000000E+00 0.  1.
</event>
<event>
 7    1  0.6230310E-012  0.5930195E+02  0.7816164E-02  0.1266605E+00
        -11   -1    0    0    0    0  0.00000000000E+00  0.00000000000E+00  0.45593999997E+02  0.45594000000E+02  0.51100000000E-03 0.  1.
         11   -1    0    0    0    0 -0.00000000000E+00 -0.00000000000E+00 -0.45593999997E+02  0.45594000000E+02  0.51100000000E-03 0. -1.
    9900012    2    1    2    0    0  0.26232688943E+02  0.14306143670E+01  0.18069854023E+02  0.59301948958E+02  0.50000008992E+02 0.  0.
         12    1    1    2    0    0 -0.26232688943E+02 -0.14306143670E+01 -0.18069854023E+02  0.31886051042E+02  0.00000000000E+00 0. -1.
         11    1    3    3    0    0  0.18342665209E+02 -0.29556400335E+01  0.93522890337E+01  0.20800348204E+02  0.51100000000E-03 0. -1.
        -11    1    3    3    0    0 -0.24810647039E+01 -0.31337607073E+01  0.20626777688E+02  0.21010475870E+02  0.51100000000E-03 0.  1.
         12    1    3    3    0    0  0.10371088438E+02  0.75200151078E+01 -0.11909212699E+02  0.17491124884E+02  0.00000000000E+00 0. -1.
</event>
<event>
 7    1  0.6230310E-012  0.5930194E+02  0.7816164E-02  0.1266605E+00
        -11   -1    0    0    0    0  0.00000000000E+00  0.00000000000E+00  0.45593999997E+02  0.45594000000E+02  0.51100000000E-03 0.  1.
         11   -1    0    0    0    0 -0.00000000000E+00 -0.00000000000E+00 -0.45593999997E+02  0.45594000000E+02  0.51100000000E-03 0. -1.
    9900012    2    1    2    0    0 -0.18925865807E+02 -0.28227561136E+01  0.25506164038E+02  0.59301941094E+02  0.49999994649E+02 0.  0.
         12    1    1    2    0    0  0.18925865807E+02  0.28227561136E+01 -0.25506164038E+02  0.31886058906E+02  0.00000000000E+00 0. -1.
         11    1    3    3    0    0 -0.14096579167E+02  0.23454459085E+01  0.91168266298E+00  0.14319421296E+02  0.51100000000E-03 0. -1.
        -11    1    3    3    0    0 -0.50410639046E+01  0.14439911498E+02  0.25966281235E+01  0.15513408628E+02  0.51100000000E-03 0.  1.
         12    1    3    3    0    0  0.21177726410E+00 -0.19608113521E+02  0.21997853252E+02  0.29469111170E+02  0.00000000000E+00 0. -1.
</event>
<event>
 7    1  0.6230310E-012  0.5930197E+02  0.7816164E-02  0.1266605E+00
        -11   -1    0    0    0    0  0.00000000000E+00  0.00000000000E+00  0.45593999997E+02  0.45594000000E+02  0.51100000000E-03 0. -1.
         11   -1    0    0    0    0 -0.00000000000E+00 -0.00000000000E+00 -0.45593999997E+02  0.45594000000E+02  0.51100000000E-03 0.  1.
    9900012    2    1    2    0    0 -0.31026509186E+01 -0.29143483443E+01 -0.31600622547E+02  0.59301965214E+02  0.50000038639E+02 0.  0.
         12    1    1    2    0    0  0.31026509186E+01  0.29143483443E+01  0.31600622547E+02  0.31886034786E+02  0.00000000000E+00 0. -1.
         11    1    3    3    0    0 -0.47469582758E+00 -0.25129745059E+01 -0.24276199882E+02  0.24410535799E+02  0.51100000000E-03 0. -1.
        -11    1    3    3    0    0 -0.54236060840E+01 -0.16456011909E+02 -0.67192259596E+01  0.18583966979E+02  0.51100000000E-03 0.  1.
         12    1    3    3    0    0  0.27956509930E+01  0.16054638071E+02 -0.60519670528E+00  0.16307462436E+02  0.00000000000E+00 0. -1.
</event>
<event>
 7    1  0.6230310E-012  0.5930181E+02  0.7816164E-02  0.1266605E+00
        -11   -1    0    0    0    0  0.00000000000E+00  0.00000000000E+00  0.45593999997E+02  0.45594000000E+02  0.51100000000E-03 0. -1.
         11   -1    0    0    0    0 -0.00000000000E+00 -0.00000000000E+00 -0.45593999997E+02  0.45594000000E+02  0.51100000000E-03 0.  1.
    9900012    2    1    2    0    0  0.13473893516E+02  0.19902902951E+02 -0.20953707081E+02  0.59301808744E+02  0.49999753275E+02 0.  0.
         12    1    1    2    0    0 -0.13473893516E+02 -0.19902902951E+02  0.20953707081E+02  0.31886191256E+02  0.00000000000E+00 0. -1.
         11    1    3    3    0    0 -0.95021017588E+00  0.89933402155E+01 -0.96003140370E+01  0.13188976362E+02  0.51100000000E-03 0. -1.
        -11    1    3    3    0    0  0.18298061836E+02  0.14995601133E+02 -0.23113388467E+02  0.33074398664E+02  0.51100000000E-03 0.  1.
         12    1    3    3    0    0 -0.38739581442E+01 -0.40860383978E+01  0.11759995423E+02  0.13038433719E+02  0.00000000000E+00 0. -1.
</event>
<event>
 7    1  0.6230310E-012  0.5930193E+02  0.7816164E-02  0.1266605E+00
        -11   -1    0    0    0    0  0.00000000000E+00  0.00000000000E+00  0.45593999997E+02  0.45594000000E+02  0.51100000000E-03 0.  1.
         11   -1    0    0    0    0 -0.00000000000E+00 -0.00000000000E+00 -0.45593999997E+02  0.45594000000E+02  0.51100000000E-03 0. -1.
    9900012    2    1    2    0    0 -0.22303966242E+02  0.17369146250E+01  0.22720861791E+02  0.59301931834E+02  0.49999977762E+02 0.  0.
         12    1    1    2    0    0  0.22303966242E+02 -0.17369146250E+01 -0.22720861791E+02  0.31886068166E+02  0.00000000000E+00 0. -1.
         11    1    3    3    0    0 -0.54485399983E+01 -0.15971139410E+02  0.16769425391E+02  0.23790281847E+02  0.51100000000E-03 0. -1.
        -11    1    3    3    0    0 -0.16941264813E+02 -0.33405907460E+00  0.22460367421E+01  0.17092768361E+02  0.51100000000E-03 0.  1.
        -12    1    3    3    0    0  0.85838569027E-01  0.18042113110E+02  0.37053996585E+01  0.18418881626E+02  0.00000000000E+00 0.  1.
</event>
<event>
 7    1  0.6230310E-012  0.5930195E+02  0.7816164E-02  0.1266605E+00
        -11   -1    0    0    0    0  0.00000000000E+00  0.00000000000E+00  0.45593999997E+02  0.45594000000E+02  0.51100000000E-03 0.  1.
         11   -1    0    0    0    0 -0.00000000000E+00 -0.00000000000E+00 -0.45593999997E+02  0.45594000000E+02  0.51100000000E-03 0. -1.
    9900012    2    1    2    0    0 -0.20292206040E+02  0.12767033439E+02  0.21022595053E+02  0.59301948636E+02  0.50000008404E+02 0.  0.
         12    1    1    2    0    0  0.20292206040E+02 -0.12767033439E+02 -0.21022595053E+02  0.31886051364E+02  0.00000000000E+00 0. -1.
         11    1    3    3    0    0 -0.10126905021E+02  0.81494126949E+01  0.16850191435E+02  0.21281355319E+02  0.51100000000E-03 0. -1.
        -11    1    3    3    0    0 -0.23346749560E+02 -0.35620456082E+00  0.51054014806E+01  0.23901102929E+02  0.51100000000E-03 0.  1.
         12    1    3    3    0    0  0.13181448541E+02  0.49738253046E+01 -0.93299786176E+00  0.14119490387E+02  0.00000000000E+00 0. -1.
</event>
<event>
 7    1  0.6230310E-012  0.5930198E+02  0.7816164E-02  0.1266605E+00
        -11   -1    0    0    0    0  0.00000000000E+00  0.00000000000E+00  0.45593999997E+02  0.45594000000E+02  0.51100000000E-03 0. -1.
         11   -1    0    0    0    0 -0.00000000000E+00 -0.00000000000E+00 -0.45593999997E+02  0.45594000000E+02  0.51100000000E-03 0.  1.
    9900012    2    1    2    0    0  0.93272805882E+01  0.29652510214E+02 -0.71027447541E+01  0.59301976288E+02  0.50000058834E+02 0.  0.
         12    1    1    2    0    0 -0.93272805882E+01 -0.29652510214E+02  0.71027447541E+01  0.31886023712E+02  0.00000000000E+00 0. -1.
         11    1    3    3    0    0  0.68651452069E+01  0.16312200706E+01  0.98285286972E+01  0.12099217919E+02  0.51100000000E-03 0. -1.
        -11    1    3    3    0    0 -0.80777831419E+01  0.25888821574E+00  0.56800874860E+01  0.98783094558E+01  0.51100000000E-03 0.  1.
        -12    1    3    3    0    0  0.10539918523E+02  0.27762401927E+02 -0.22611360937E+02  0.37324448913E+02  0.00000000000E+00 0.  1.
</event>
<event>
 7    1  0.6230310E-012  0.5930197E+02  0.7816164E-02  0.1266605E+00
        -11   -1    0    0    0    0  0.00000000000E+00  0.00000000000E+00  0.45593999997E+02  0.45594000000E+02  0.51100000000E-03 0.  1.
         11   -1    0    0    0    0 -0.00000000000E+00 -0.00000000000E+00 -0.45593999997E+02  0.45594000000E+02  0.51100000000E-03 0. -1.
    9900012    2    1    2    0    0  0.18975682508E+02 -0.10741474609E+01  0.25602511191E+02  0.59301970165E+02  0.50000047667E+02 0.  0.
         12    1    1    2    0    0 -0.18975682508E+02  0.10741474609E+01 -0.25602511191E+02  0.31886029835E+02  0.00000000000E+00 0. -1.
         11    1    3    3    0    0  0.45784242240E+01 -0.14969889046E+02 -0.17699646042E+00  0.15655378450E+02  0.51100000000E-03 0. -1.
        -11    1    3    3    0    0 -0.35628208822E+01 -0.68154666312E+01  0.71584118303E+01  0.10506528363E+02  0.51100000000E-03 0.  1.
        -12    1    3    3    0    0  0.17960079166E+02  0.20711208216E+02  0.18621095821E+02  0.33140063352E+02  0.00000000000E+00 0.  1.
</event>
<event>
 7    1  0.6230310E-012  0.5930192E+02  0.7816164E-02  0.1266605E+00
        -11   -1    0    0    0    0  0.00000000000E+00  0.00000000000E+00  0.45593999997E+02  0.45594000000E+02  0.51100000000E-03 0.  1.
         11   -1    0    0    0    0 -0.00000000000E+00 -0.00000000000E+00 -0.45593999997E+02  0.45594000000E+02  0.51100000000E-03 0. -1.
    9900012    2    1    2    0    0 -0.20899642666E+02  0.11474835007E+02  0.21172038815E+02  0.59301919501E+02  0.49999955270E+02 0.  0.
         12    1    1    2    0    0  0.20899642666E+02 -0.11474835007E+02 -0.21172038815E+02  0.31886080499E+02  0.00000000000E+00 0. -1.
         11    1    3    3    0    0 -0.19665202910E+02 -0.55165529612E+01  0.81297076795E-01  0.20424474817E+02  0.51100000000E-03 0.  1.
        -11    1    3    3    0    0 -0.14552220864E+02  0.82519884326E+01  0.10961510420E+02  0.20000428898E+02  0.51100000000E-03 0. -1.
        -12    1    3    3    0    0  0.13317781108E+02  0.87393995358E+01  0.10129231318E+02  0.18877015786E+02  0.00000000000E+00 0.  1.
</event>
<event>
 7    1  0.6230310E-012  0.5930195E+02  0.7816164E-02  0.1266605E+00
        -11   -1    0    0    0    0  0.00000000000E+00  0.00000000000E+00  0.45593999997E+02  0.45594000000E+02  0.51100000000E-03 0.  1.
         11   -1    0    0    0    0 -0.00000000000E+00 -0.00000000000E+00 -0.45593999997E+02  0.45594000000E+02  0.51100000000E-03 0. -1.
    9900012    2    1    2    0    0 -0.25569947852E+02 -0.18818981221E+02 -0.29569850358E+01  0.59301952144E+02  0.50000014803E+02 0.  0.
         12    1    1    2    0    0  0.25569947852E+02  0.18818981221E+02  0.29569850358E+01  0.31886047856E+02  0.00000000000E+00 0. -1.
         11    1    3    3    0    0 -0.62822056421E+01 -0.26755012040E-02  0.16727055280E+01  0.65010813664E+01  0.51100000000E-03 0. -1.
        -11    1    3    3    0    0 -0.12509821981E+02  0.12904223651E+02 -0.89500951589E+01  0.20077819544E+02  0.51100000000E-03 0.  1.
         12    1    3    3    0    0 -0.67779202295E+01 -0.31720529371E+02  0.43204045951E+01  0.32723051234E+02  0.00000000000E+00 0. -1.
</event>
<event>
 7    1  0.6230310E-012  0.5930195E+02  0.7816164E-02  0.1266605E+00
        -11   -1    0    0    0    0  0.00000000000E+00  0.00000000000E+00  0.45593999997E+02  0.45594000000E+02  0.51100000000E-03 0.  1.
         11   -1    0    0    0    0 -0.00000000000E+00 -0.00000000000E+00 -0.45593999997E+02  0.45594000000E+02  0.51100000000E-03 0. -1.
    9900012    2    1    2    0    0  0.53674986639E+01 -0.26777344198E+02  0.16458559413E+02  0.59301946902E+02  0.50000005242E+02 0.  0.
         12    1    1    2    0    0 -0.53674986639E+01  0.26777344198E+02 -0.16458559413E+02  0.31886053098E+02  0.00000000000E+00 0. -1.
         11    1    3    3    0    0  0.80267758431E+01 -0.30558458577E+01 -0.50705220578E+01  0.99738417143E+01  0.51100000000E-03 0. -1.
        -11    1    3    3    0    0 -0.31179465966E+01  0.81553149288E+01 -0.28613341708E+01  0.91879261025E+01  0.51100000000E-03 0.  1.
        -12    1    3    3    0    0  0.45866941730E+00 -0.31876813269E+02  0.24390415641E+02  0.40140179085E+02  0.00000000000E+00 0.  1.
</event>
<event>
 7    1  0.6230310E-012  0.5930194E+02  0.7816164E-02  0.1266605E+00
        -11   -1    0    0    0    0  0.00000000000E+00  0.00000000000E+00  0.45593999997E+02  0.45594000000E+02  0.51100000000E-03 0.  1.
         11   -1    0    0    0    0 -0.00000000000E+00 -0.00000000000E+00 -0.45593999997E+02  0.45594000000E+02  0.51100000000E-03 0. -1.
    9900012    2    1    2    0    0  0.18804901854E+02 -0.25312976729E+02  0.47275483426E+01  0.59301939755E+02  0.49999992207E+02 0.  0.
         12    1    1    2    0    0 -0.18804901854E+02  0.25312976729E+02 -0.47275483426E+01  0.31886060245E+02  0.00000000000E+00 0. -1.
         11    1    3    3    0    0  0.14773314048E+02 -0.16389758559E+02  0.38940674676E+01  0.22406221353E+02  0.51100000000E-03 0. -1.
        -11    1    3    3    0    0  0.64900240803E+00 -0.12912381212E+02  0.16163490579E+02  0.20698048716E+02  0.51100000000E-03 0.  1.
         12    1    3    3    0    0  0.33825853975E+01  0.39891630415E+01 -0.15330009704E+02  0.16197669687E+02  0.00000000000E+00 0. -1.
</event>
<event>
 7    1  0.6230310E-012  0.5930195E+02  0.7816164E-02  0.1266605E+00
        -11   -1    0    0    0    0  0.00000000000E+00  0.00000000000E+00  0.45593999997E+02  0.45594000000E+02  0.51100000000E-03 0. -1.
         11   -1    0    0    0    0 -0.00000000000E+00 -0.00000000000E+00 -0.45593999997E+02  0.45594000000E+02  0.51100000000E-03 0.  1.
    9900012    2    1    2    0    0 -0.26643855378E+02 -0.11147824611E+02  0.13511151125E+02  0.59301949325E+02  0.50000009660E+02 0.  0.
         12    1    1    2    0    0  0.26643855378E+02  0.11147824611E+02 -0.13511151125E+02  0.31886050675E+02  0.00000000000E+00 0. -1.
         11    1    3    3    0    0 -0.20235111470E+02 -0.16759338050E+01  0.11721008299E+02  0.23444626807E+02  0.51100000000E-03 0. -1.
        -11    1    3    3    0    0 -0.18926307949E+02  0.97045409362E+00 -0.21896579820E+01  0.19077251272E+02  0.51100000000E-03 0.  1.
         12    1    3    3    0    0  0.12517564042E+02 -0.10442344899E+02  0.39798008081E+01  0.16780071245E+02  0.00000000000E+00 0. -1.
</event>
<event>
 7    1  0.6230310E-012  0.5930194E+02  0.7816164E-02  0.1266605E+00
        -11   -1    0    0    0    0  0.00000000000E+00  0.00000000000E+00  0.45593999997E+02  0.45594000000E+02  0.51100000000E-03 0.  1.
         11   -1    0    0    0    0 -0.00000000000E+00 -0.00000000000E+00 -0.45593999997E+02  0.45594000000E+02  0.51100000000E-03 0. -1.
    9900012    2    1    2    0    0 -0.31787988298E+02  0.17197346464E+01 -0.18130371581E+01  0.59301940491E+02  0.49999993550E+02 0.  0.
         12    1    1    2    0    0  0.31787988298E+02 -0.17197346464E+01  0.18130371581E+01  0.31886059509E+02  0.00000000000E+00 0. -1.
         11    1    3    3    0    0 -0.88642705775E+01  0.32718590692E+01 -0.18727513343E+02  0.20976179607E+02  0.51100000000E-03 0. -1.
        -11    1    3    3    0    0  0.20145441969E+01 -0.82889960916E+01  0.48843549698E+01  0.98296881060E+01  0.51100000000E-03 0.  1.
         12    1    3    3    0    0 -0.24938261917E+02  0.67368716689E+01  0.12030121215E+02  0.28496072778E+02  0.00000000000E+00 0. -1.
</event>
<event>
 7    1  0.7082934E-012  0.5930191E+02  0.7816164E-02  0.1266605E+00
        -11   -1    0    0    0    0  0.00000000000E+00  0.00000000000E+00  0.45593999997E+02  0.45594000000E+02  0.51100000000E-03 0. -1.
         11   -1    0    0    0    0 -0.00000000000E+00 -0.00000000000E+00 -0.45593999997E+02  0.45594000000E+02  0.51100000000E-03 0.  1.
    9900012    2    1    2    0    0  0.14931375029E+02  0.83084301520E+01 -0.26921116494E+02  0.59301913926E+02  0.49999945102E+02 0.  0.
         12    1    1    2    0    0 -0.14931375029E+02 -0.83084301520E+01  0.26921116494E+02  0.31886086074E+02  0.00000000000E+00 0. -1.
         11    1    3    3    0    0  0.48059638254E+01 -0.22573518710E+01  0.78422806929E+01  0.94707070743E+01  0.51100000000E-03 0. -1.
        -11    1    3    3    0    0  0.18002002575E+02 -0.45323067569E+01 -0.20073355988E+02  0.27341425020E+02  0.51100000000E-03 0.  1.
         12    1    3    3    0    0 -0.78765913707E+01  0.15098088780E+02 -0.14690041199E+02  0.22489781832E+02  0.00000000000E+00 0. -1.
</event>
<event>
 7    1  0.6230310E-012  0.5930195E+02  0.7816164E-02  0.1266605E+00
        -11   -1    0    0    0    0  0.00000000000E+00  0.00000000000E+00  0.45593999997E+02  0.45594000000E+02  0.51100000000E-03 0.  1.
         11   -1    0    0    0    0 -0.00000000000E+00 -0.00000000000E+00 -0.45593999997E+02  0.45594000000E+02  0.51100000000E-03 0. -1.
    9900012    2    1    2    0    0 -0.45623501729E+01  0.31546010854E+02  0.86845542456E+00  0.59301952037E+02  0.50000014607E+02 0.  0.
         12    1    1    2    0    0  0.45623501729E+01 -0.31546010854E+02 -0.86845542456E+00  0.31886047963E+02  0.00000000000E+00 0. -1.
         11    1    3    3    0    0 -0.60859680511E+01  0.14622580700E+02  0.90148992265E+00  0.15864159537E+02  0.51100000000E-03 0.  1.
        -11    1    3    3    0    0  0.13098951554E+00 -0.58911515865E+01  0.14975878180E+02  0.16093469259E+02  0.51100000000E-03 0. -1.
         12    1    3    3    0    0  0.13926283627E+01  0.22814581740E+02 -0.15008912678E+02  0.27344323241E+02  0.00000000000E+00 0. -1.
</event>
<event>
 7    1  0.6230310E-012  0.5930188E+02  0.7816164E-02  0.1266605E+00
        -11   -1    0    0    0    0  0.00000000000E+00  0.00000000000E+00  0.45593999997E+02  0.45594000000E+02  0.51100000000E-03 0.  1.
         11   -1    0    0    0    0 -0.00000000000E+00 -0.00000000000E+00 -0.45593999997E+02  0.45594000000E+02  0.51100000000E-03 0. -1.
    9900012    2    1    2    0    0 -0.28380223613E+01 -0.22876651875E+02  0.22030184749E+02  0.59301880574E+02  0.49999884276E+02 0.  0.
         12    1    1    2    0    0  0.28380223613E+01  0.22876651875E+02 -0.22030184749E+02  0.31886119426E+02  0.00000000000E+00 0. -1.
         11    1    3    3    0    0 -0.16067848759E+02 -0.74531612163E+01  0.14700489407E+02  0.23018031300E+02  0.51100000000E-03 0. -1.
        -11    1    3    3    0    0  0.31309779232E+01  0.86768913952E+01  0.35367473790E+01  0.98792737245E+01  0.51100000000E-03 0.  1.
        -12    1    3    3    0    0  0.10098848475E+02 -0.24100382054E+02  0.37929479631E+01  0.26404575549E+02  0.00000000000E+00 0.  1.
</event>
<event>
 7    1  0.6230310E-012  0.5930193E+02  0.7816164E-02  0.1266605E+00
        -11   -1    0    0    0    0  0.00000000000E+00  0.00000000000E+00  0.45593999997E+02  0.45594000000E+02  0.51100000000E-03 0.  1.
         11   -1    0    0    0    0 -0.00000000000E+00 -0.00000000000E+00 -0.45593999997E+02  0.45594000000E+02  0.51100000000E-03 0. -1.
    9900012    2    1    2    0    0  0.27401278819E+02 -0.95443938285E+01  0.13221042289E+02  0.59301929473E+02  0.49999973456E+02 0.  0.
         12    1    1    2    0    0 -0.27401278819E+02  0.95443938285E+01 -0.13221042289E+02  0.31886070527E+02  0.00000000000E+00 0. -1.
         11    1    3    3    0    0 -0.89286336912E+00  0.67321108786E+01 -0.67120026667E-01  0.67913936153E+01  0.51100000000E-03 0. -1.
        -11    1    3    3    0    0  0.79808615383E+01  0.68936304646E+01  0.18465619647E+02  0.21264886576E+02  0.51100000000E-03 0.  1.
        -12    1    3    3    0    0  0.20313280649E+02 -0.23170135172E+02 -0.51774573317E+01  0.31245649282E+02  0.00000000000E+00 0.  1.
</event>
<event>
 7    1  0.6230310E-012  0.5930194E+02  0.7816164E-02  0.1266605E+00
        -11   -1    0    0    0    0  0.00000000000E+00  0.00000000000E+00  0.45593999997E+02  0.45594000000E+02  0.51100000000E-03 0.  1.
         11   -1    0    0    0    0 -0.00000000000E+00 -0.00000000000E+00 -0.45593999997E+02  0.45594000000E+02  0.51100000000E-03 0. -1.
    9900012    2    1    2    0    0 -0.26578030035E+02 -0.17287077939E+02 -0.33891159865E+01  0.59301939544E+02  0.49999991824E+02 0.  0.
         12    1    1    2    0    0  0.26578030035E+02  0.17287077939E+02  0.33891159865E+01  0.31886060456E+02  0.00000000000E+00 0. -1.
         11    1    3    3    0    0 -0.21981073138E+02  0.83773347842E+01 -0.42339368603E+01  0.23901329168E+02  0.51100000000E-03 0. -1.
        -11    1    3    3    0    0 -0.22515671714E+01  0.12522841069E+01  0.71978598289E+01  0.76450609278E+01  0.51100000000E-03 0.  1.
         12    1    3    3    0    0 -0.23453897248E+01 -0.26916696830E+02 -0.63530389551E+01  0.27755549449E+02  0.00000000000E+00 0. -1.
</event>
<event>
 7    1  0.6230310E-012  0.5930196E+02  0.7816164E-02  0.1266605E+00
        -11   -1    0    0    0    0  0.00000000000E+00  0.00000000000E+00  0.45593999997E+02  0.45594000000E+02  0.51100000000E-03 0.  1.
         11   -1    0    0    0    0 -0.00000000000E+00 -0.00000000000E+00 -0.45593999997E+02  0.45594000000E+02  0.51100000000E-03 0. -1.
    9900012    2    1    2    0    0 -0.37334597557E+01 -0.51896768505E+01  0.31238564743E+02  0.59301962385E+02  0.50000033480E+02 0.  0.
         12    1    1    2    0    0  0.37334597557E+01  0.51896768505E+01 -0.31238564743E+02  0.31886037615E+02  0.00000000000E+00 0. -1.
         11    1    3    3    0    0  0.75130737375E+01  0.89772030862E+01  0.83056328758E+01  0.14353396461E+02  0.51100000000E-03 0. -1.
        -11    1    3    3    0    0  0.88173124952E+01 -0.31151207630E+01  0.19710964164E+02  0.21816761573E+02  0.51100000000E-03 0.  1.
         12    1    3    3    0    0 -0.20063845988E+02 -0.11051759174E+02  0.32219677034E+01  0.23131804352E+02  0.00000000000E+00 0. -1.
</event>
<event>
 7    1  0.6230310E-012  0.5930189E+02  0.7816164E-02  0.1266605E+00
        -11   -1    0    0    0    0  0.00000000000E+00  0.00000000000E+00  0.45593999997E+02  0.45594000000E+02  0.51100000000E-03 0.  1.
         11   -1    0    0    0    0 -0.00000000000E+00 -0.00000000000E+00 -0.45593999997E+02  0.45594000000E+02  0.51100000000E-03 0. -1.
    9900012    2    1    2    0    0  0.18237850577E+02  0.24531474960E+02  0.90725869542E+01  0.59301885602E+02  0.49999893446E+02 0.  0.
         12    1    1    2    0    0 -0.18237850577E+02 -0.24531474960E+02 -0.90725869542E+01  0.31886114398E+02  0.00000000000E+00 0. -1.
         11    1    3    3    0    0  0.14501220731E+02 -0.12474167610E+02  0.77921078312E+01  0.20654471791E+02  0.51100000000E-03 0. -1.
        -11    1    3    3    0    0  0.54764758591E+01  0.89965947138E+01  0.10374676023E+01  0.10583328567E+02  0.51100000000E-03 0.  1.
        -12    1    3    3    0    0 -0.17398460134E+01  0.28009047856E+02  0.24301152074E+00  0.28064085244E+02  0.00000000000E+00 0.  1.
</event>
<event>
 7    1  0.6230310E-012  0.5930195E+02  0.7816164E-02  0.1266605E+00
        -11   -1    0    0    0    0  0.00000000000E+00  0.00000000000E+00  0.45593999997E+02  0.45594000000E+02  0.51100000000E-03 0.  1.
         11   -1    0    0    0    0 -0.00000000000E+00 -0.00000000000E+00 -0.45593999997E+02  0.45594000000E+02  0.51100000000E-03 0. -1.
    9900012    2    1    2    0    0  0.55527553692E+00  0.31810469692E+02 -0.21226539028E+01  0.59301953325E+02  0.50000016957E+02 0.  0.
         12    1    1    2    0    0 -0.55527553692E+00 -0.31810469692E+02  0.21226539028E+01  0.31886046675E+02  0.00000000000E+00 0. -1.
         11    1    3    3    0    0 -0.10602486457E+02  0.17229650212E+02 -0.76006106161E+01  0.21611174135E+02  0.51100000000E-03 0. -1.
        -11    1    3    3    0    0 -0.57157895213E+01  0.16642352941E+02  0.98129021530E+01  0.20147734617E+02  0.51100000000E-03 0.  1.
        -12    1    3    3    0    0  0.16873551515E+02 -0.20615334616E+01 -0.43349454397E+01  0.17543044573E+02  0.00000000000E+00 0.  1.
</event>
<event>
 7    1  0.6230310E-012  0.5930201E+02  0.7816164E-02  0.1266605E+00
        -11   -1    0    0    0    0  0.00000000000E+00  0.00000000000E+00  0.45593999997E+02  0.45594000000E+02  0.51100000000E-03 0.  1.
         11   -1    0    0    0    0 -0.00000000000E+00 -0.00000000000E+00 -0.45593999997E+02  0.45594000000E+02  0.51100000000E-03 0. -1.
    9900012    2    1    2    0    0  0.21173871789E+02  0.23447133649E+02  0.43145649353E+01  0.59302009448E+02  0.50000119310E+02 0.  0.
         12    1    1    2    0    0 -0.21173871789E+02 -0.23447133649E+02 -0.43145649353E+01  0.31885990552E+02  0.00000000000E+00 0. -1.
         11    1    3    3    0    0  0.14191809632E+02  0.10582118202E+02  0.58675159421E+01  0.18649837261E+02  0.51100000000E-03 0. -1.
        -11    1    3    3    0    0  0.82370713197E+01  0.22040554406E+02 -0.12230226073E+02  0.26518178907E+02  0.51100000000E-03 0.  1.
         12    1    3    3    0    0 -0.12550091625E+01 -0.91755389590E+01  0.10677275067E+02  0.14133993280E+02  0.00000000000E+00 0. -1.
</event>
<event>
 7    1  0.6230310E-012  0.5930191E+02  0.7816164E-02  0.1266605E+00
        -11   -1    0    0    0    0  0.00000000000E+00  0.00000000000E+00  0.45593999997E+02  0.45594000000E+02  0.51100000000E-03 0.  1.
         11   -1    0    0    0    0 -0.00000000000E+00 -0.00000000000E+00 -0.45593999997E+02  0.45594000000E+02  0.51100000000E-03 0. -1.
    9900012    2    1    2    0    0 -0.11719245702E+01  0.25320182062E+02  0.19345230250E+02  0.59301906475E+02  0.49999931513E+02 0.  0.
         12    1    1    2    0    0  0.11719245702E+01 -0.25320182062E+02 -0.19345230250E+02  0.31886093525E+02  0.00000000000E+00 0. -1.
         11    1    3    3    0    0 -0.18374541935E+02 -0.15465825224E+01  0.12331176014E+02  0.22182732270E+02  0.51100000000E-03 0. -1.
        -11    1    3    3    0    0  0.48514079502E+01  0.10681235372E+02  0.11327309771E+02  0.16307449068E+02  0.51100000000E-03 0.  1.
        -12    1    3    3    0    0  0.12351209414E+02  0.16185529212E+02 -0.43132555358E+01  0.20811725137E+02  0.00000000000E+00 0.  1.
</event>
<event>
 7    1  0.6230310E-012  0.5930194E+02  0.7816164E-02  0.1266605E+00
        -11   -1    0    0    0    0  0.00000000000E+00  0.00000000000E+00  0.45593999997E+02  0.45594000000E+02  0.51100000000E-03 0.  1.
         11   -1    0    0    0    0 -0.00000000000E+00 -0.00000000000E+00 -0.45593999997E+02  0.45594000000E+02  0.51100000000E-03 0. -1.
    9900012    2    1    2    0    0  0.56814053008E+01  0.13185507324E+02  0.28470775358E+02  0.59301936915E+02  0.49999987028E+02 0.  0.
         12    1    1    2    0    0 -0.56814053008E+01 -0.13185507324E+02 -0.28470775358E+02  0.31886063085E+02  0.00000000000E+00 0. -1.
         11    1    3    3    0    0 -0.70189559123E+01  0.34969215512E+01 -0.47364395828E+01  0.91612260433E+01  0.51100000000E-03 0. -1.
        -11    1    3    3    0    0  0.75748544365E+01  0.12902994348E+02 -0.13824988507E+01  0.15025877220E+02  0.51100000000E-03 0.  1.
        -12    1    3    3    0    0  0.51255067766E+01 -0.32144085752E+01  0.34589713792E+02  0.35114833652E+02  0.00000000000E+00 0.  1.
</event>
<event>
 7    1  0.6230310E-012  0.5930194E+02  0.7816164E-02  0.1266605E+00
        -11   -1    0    0    0    0  0.00000000000E+00  0.00000000000E+00  0.45593999997E+02  0.45594000000E+02  0.51100000000E-03 0.  1.
         11   -1    0    0    0    0 -0.00000000000E+00 -0.00000000000E+00 -0.45593999997E+02  0.45594000000E+02  0.51100000000E-03 0. -1.
    9900012    2    1    2    0    0 -0.76931887867E+01 -0.49923812730E+00  0.30940048649E+02  0.59301937169E+02  0.49999987492E+02 0.  0.
         12    1    1    2    0    0  0.76931887867E+01  0.49923812730E+00 -0.30940048649E+02  0.31886062831E+02  0.00000000000E+00 0. -1.
         11    1    3    3    0    0 -0.10716138692E+02  0.81006618717E+01 -0.46879746581E+01  0.14227911227E+02  0.51100000000E-03 0. -1.
        -11    1    3    3    0    0  0.13068835499E+02  0.17411330338E+01  0.16461921237E+02  0.21090776577E+02  0.51100000000E-03 0.  1.
        -12    1    3    3    0    0 -0.10045885593E+02 -0.10341033033E+02  0.19166102070E+02  0.23983249365E+02  0.00000000000E+00 0.  1.
</event>
<event>
 7    1  0.6230310E-012  0.5930190E+02  0.7816164E-02  0.1266605E+00
        -11   -1    0    0    0    0  0.00000000000E+00  0.00000000000E+00  0.45593999997E+02  0.45594000000E+02  0.51100000000E-03 0.  1.
         11   -1    0    0    0    0 -0.00000000000E+00 -0.00000000000E+00 -0.45593999997E+02  0.45594000000E+02  0.51100000000E-03 0. -1.
    9900012    2    1    2    0    0 -0.32102757494E+01  0.61353733062E+01  0.31125149007E+02  0.59301896809E+02  0.49999913884E+02 0.  0.
         12    1    1    2    0    0  0.32102757494E+01 -0.61353733062E+01 -0.31125149007E+02  0.31886103191E+02  0.00000000000E+00 0. -1.
         11    1    3    3    0    0 -0.13583389198E+01 -0.99609495874E+01  0.98699369552E+01  0.14088337626E+02  0.51100000000E-03 0. -1.
        -11    1    3    3    0    0  0.49014324156E+01 -0.50733362663E+01  0.21874839596E+02  0.22984155155E+02  0.51100000000E-03 0.  1.
        -12    1    3    3    0    0 -0.67533692452E+01  0.21169659160E+02 -0.61962754390E+00  0.22229404027E+02  0.00000000000E+00 0.  1.
</event>
<event>
 7    1  0.6230310E-012  0.5930193E+02  0.7816164E-02  0.1266605E+00
        -11   -1    0    0    0    0  0.00000000000E+00  0.00000000000E+00  0.45593999997E+02  0.45594000000E+02  0.51100000000E-03 0.  1.
         11   -1    0    0    0    0 -0.00000000000E+00 -0.00000000000E+00 -0.45593999997E+02  0.45594000000E+02  0.51100000000E-03 0. -1.
    9900012    2    1    2    0    0  0.17548764236E+01 -0.42133139658E+01  0.31557723668E+02  0.59301928919E+02  0.49999972446E+02 0.  0.
         12    1    1    2    0    0 -0.17548764236E+01  0.42133139658E+01 -0.31557723668E+02  0.31886071081E+02  0.00000000000E+00 0. -1.
         11    1    3    3    0    0  0.68585446106E+01  0.95916716242E+01 -0.49807528076E+01  0.12800300681E+02  0.51100000000E-03 0. -1.
        -11    1    3    3    0    0  0.12337221277E+00  0.69267054373E+01  0.12797312087E+02  0.14552170485E+02  0.51100000000E-03 0.  1.
        -12    1    3    3    0    0 -0.52270403998E+01 -0.20731691027E+02  0.23741164389E+02  0.31949457753E+02  0.00000000000E+00 0.  1.
</event>
<event>
 7    1  0.6230310E-012  0.5930195E+02  0.7816164E-02  0.1266605E+00
        -11   -1    0    0    0    0  0.00000000000E+00  0.00000000000E+00  0.45593999997E+02  0.45594000000E+02  0.51100000000E-03 0. -1.
         11   -1    0    0    0    0 -0.00000000000E+00 -0.00000000000E+00 -0.45593999997E+02  0.45594000000E+02  0.51100000000E-03 0.  1.
    9900012    2    1    2    0    0 -0.19485884762E+01  0.26931698072E+02 -0.16958967885E+02  0.59301953682E+02  0.50000017606E+02 0.  0.
         12    1    1    2    0    0  0.19485884762E+01 -0.26931698072E+02  0.16958967885E+02  0.31886046318E+02  0.00000000000E+00 0. -1.
         11    1    3    3    0    0  0.10998405782E+01  0.22249163783E+02  0.11387154813E+02  0.25018038160E+02  0.51100000000E-03 0. -1.
        -11    1    3    3    0    0  0.72613637268E+01 -0.12816948067E+01 -0.10866039933E+02  0.13131678066E+02  0.51100000000E-03 0.  1.
        -12    1    3    3    0    0 -0.10309792781E+02  0.59642290954E+01 -0.17480082766E+02  0.21152237456E+02  0.00000000000E+00 0.  1.
</event>
<event>
 7    1  0.6230310E-012  0.5930194E+02  0.7816164E-02  0.1266605E+00
        -11   -1    0    0    0    0  0.00000000000E+00  0.00000000000E+00  0.45593999997E+02  0.45594000000E+02  0.51100000000E-03 0.  1.
         11   -1    0    0    0    0 -0.00000000000E+00 -0.00000000000E+00 -0.45593999997E+02  0.45594000000E+02  0.51100000000E-03 0. -1.
    9900012    2    1    2    0    0  0.27436412512E+02  0.11590101381E+02 -0.11385666904E+02  0.59301943605E+02  0.49999999229E+02 0.  0.
         12    1    1    2    0    0 -0.27436412512E+02 -0.11590101381E+02  0.11385666904E+02  0.31886056395E+02  0.00000000000E+00 0. -1.
         11    1    3    3    0    0  0.18992650127E+02  0.59015507695E+01 -0.21404223028E+02  0.29217970909E+02  0.51100000000E-03 0. -1.
        -11    1    3    3    0    0 -0.25797937838E+01  0.13575475025E+02  0.90009814252E+01  0.16491407611E+02  0.51100000000E-03 0.  1.
         12    1    3    3    0    0  0.11023556169E+02 -0.78869244136E+01  0.10175746988E+01  0.13592565085E+02  0.00000000000E+00 0. -1.
</event>
<event>
 7    1  0.6230310E-012  0.5930194E+02  0.7816164E-02  0.1266605E+00
        -11   -1    0    0    0    0  0.00000000000E+00  0.00000000000E+00  0.45593999997E+02  0.45594000000E+02  0.51100000000E-03 0. -1.
         11   -1    0    0    0    0 -0.00000000000E+00 -0.00000000000E+00 -0.45593999997E+02  0.45594000000E+02  0.51100000000E-03 0.  1.
    9900012    2    1    2    0    0  0.13286024574E+01  0.31748560030E+02 -0.26428512293E+01  0.59301938608E+02  0.49999990116E+02 0.  0.
         12    1    1    2    0    0 -0.13286024574E+01 -0.31748560030E+02  0.26428512293E+01  0.31886061392E+02  0.00000000000E+00 0. -1.
         11    1    3    3    0    0  0.95514710712E+01  0.21249377241E+02  0.99105176012E+01  0.25317681414E+02  0.51100000000E-03 0. -1.
        -11    1    3    3    0    0  0.12271653001E+01  0.10572180569E+02 -0.19527204800E+02  0.22239349456E+02  0.51100000000E-03 0.  1.
         12    1    3    3    0    0 -0.94500339138E+01 -0.72997780628E-01  0.69738359696E+01  0.11744907738E+02  0.00000000000E+00 0. -1.
</event>
<event>
 7    1  0.6230310E-012  0.5930193E+02  0.7816164E-02  0.1266605E+00
        -11   -1    0    0    0    0  0.00000000000E+00  0.00000000000E+00  0.45593999997E+02  0.45594000000E+02  0.51100000000E-03 0. -1.
         11   -1    0    0    0    0 -0.00000000000E+00 -0.00000000000E+00 -0.45593999997E+02  0.45594000000E+02  0.51100000000E-03 0.  1.
    9900012    2    1    2    0    0 -0.15696821384E+00 -0.29861605182E+02 -0.11179514652E+02  0.59301927007E+02  0.49999968958E+02 0.  0.
         12    1    1    2    0    0  0.15696821384E+00  0.29861605182E+02  0.11179514652E+02  0.31886072993E+02  0.00000000000E+00 0. -1.
         11    1    3    3    0    0  0.15806953434E+02 -0.22407269749E+01  0.64287506857E+00  0.15977919854E+02  0.51100000000E-03 0. -1.
        -11    1    3    3    0    0 -0.13453749184E+02 -0.12536588958E+00 -0.74219209501E+01  0.15365675858E+02  0.51100000000E-03 0.  1.
         12    1    3    3    0    0 -0.25101724636E+01 -0.27495512318E+02 -0.44004687705E+01  0.27958331295E+02  0.00000000000E+00 0. -1.
</event>
<event>
 7    1  0.6230310E-012  0.5930195E+02  0.7816164E-02  0.1266605E+00
        -11   -1    0    0    0    0  0.00000000000E+00  0.00000000000E+00  0.45593999997E+02  0.45594000000E+02  0.51100000000E-03 0.  1.
         11   -1    0    0    0    0 -0.00000000000E+00 -0.00000000000E+00 -0.45593999997E+02  0.45594000000E+02  0.51100000000E-03 0. -1.
    9900012    2    1    2    0    0  0.17862184312E+02 -0.13546577902E+02  0.22674941263E+02  0.59301947210E+02  0.50000005803E+02 0.  0.
         12    1    1    2    0    0 -0.17862184312E+02  0.13546577902E+02 -0.22674941263E+02  0.31886052790E+02  0.00000000000E+00 0. -1.
         11    1    3    3    0    0  0.10853011679E+02  0.53642806744E+00  0.44888439468E+01  0.11756927227E+02  0.51100000000E-03 0. -1.
        -11    1    3    3    0    0  0.13400206602E+02 -0.11364363637E+01 -0.94007990085E+01  0.16408292014E+02  0.51100000000E-03 0.  1.
        -12    1    3    3    0    0 -0.63910339681E+01 -0.12946569606E+02  0.27586896325E+02  0.31136727968E+02  0.00000000000E+00 0.  1.
</event>
<event>
 7    1  0.6230310E-012  0.5930192E+02  0.7816164E-02  0.1266605E+00
        -11   -1    0    0    0    0  0.00000000000E+00  0.00000000000E+00  0.45593999997E+02  0.45594000000E+02  0.51100000000E-03 0.  1.
         11   -1    0    0    0    0 -0.00000000000E+00 -0.00000000000E+00 -0.45593999997E+02  0.45594000000E+02  0.51100000000E-03 0. -1.
    9900012    2    1    2    0    0  0.57833501822E+01  0.85101900362E+01  0.30180322659E+02  0.59301916051E+02  0.49999948978E+02 0.  0.
         12    1    1    2    0    0 -0.57833501822E+01 -0.85101900362E+01 -0.30180322659E+02  0.31886083949E+02  0.00000000000E+00 0. -1.
         11    1    3    3    0    0 -0.48005770994E+01  0.65868538738E+01  0.48227433857E+00  0.81648498603E+01  0.51100000000E-03 0. -1.
        -11    1    3    3    0    0  0.89220927463E+01  0.15943441561E+02  0.31984527664E+02  0.36834862263E+02  0.51100000000E-03 0.  1.
         12    1    3    3    0    0  0.16618345353E+01 -0.14020105399E+02 -0.22864793436E+01  0.14302203928E+02  0.00000000000E+00 0. -1.
</event>
<event>
 7    1  0.6230310E-012  0.5930194E+02  0.7816164E-02  0.1266605E+00
        -11   -1    0    0    0    0  0.00000000000E+00  0.00000000000E+00  0.45593999997E+02  0.45594000000E+02  0.51100000000E-03 0. -1.
         11   -1    0    0    0    0 -0.00000000000E+00 -0.00000000000E+00 -0.45593999997E+02  0.45594000000E+02  0.51100000000E-03 0.  1.
    9900012    2    1    2    0    0  0.30512133289E+02 -0.85769249002E+01 -0.34881487061E+01  0.59301935646E+02  0.49999984714E+02 0.  0.
         12    1    1    2    0    0 -0.30512133289E+02  0.85769249002E+01  0.34881487061E+01  0.31886064354E+02  0.00000000000E+00 0. -1.
         11    1    3    3    0    0 -0.29874500987E+01  0.10350739626E+02  0.10419467759E+02  0.14987594121E+02  0.51100000000E-03 0. -1.
        -11    1    3    3    0    0  0.17145870334E+01 -0.23555828243E+01  0.34262052710E+01  0.44974950758E+01  0.51100000000E-03 0.  1.
        -12    1    3    3    0    0  0.31784996354E+02 -0.16572081702E+02 -0.17333821736E+02  0.39816846449E+02  0.00000000000E+00 0.  1.
</event>
<event>
 7    1  0.6230310E-012  0.5930193E+02  0.7816164E-02  0.1266605E+00
        -11   -1    0    0    0    0  0.00000000000E+00  0.00000000000E+00  0.45593999997E+02  0.45594000000E+02  0.51100000000E-03 0.  1.
         11   -1    0    0    0    0 -0.00000000000E+00 -0.00000000000E+00 -0.45593999997E+02  0.45594000000E+02  0.51100000000E-03 0. -1.
    9900012    2    1    2    0    0  0.28117792728E+02  0.17642413443E+01  0.14933131198E+02  0.59301933720E+02  0.49999981201E+02 0.  0.
         12    1    1    2    0    0 -0.28117792728E+02 -0.17642413443E+01 -0.14933131198E+02  0.31886066280E+02  0.00000000000E+00 0. -1.
         11    1    3    3    0    0 -0.47996222219E+01 -0.10529182500E+02  0.51277500063E+01  0.12656772020E+02  0.51100000000E-03 0. -1.
        -11    1    3    3    0    0  0.44816570162E+01 -0.79150247931E+01 -0.28556514234E+01  0.95334994834E+01  0.51100000000E-03 0.  1.
         12    1    3    3    0    0  0.28435757934E+02  0.20208448637E+02  0.12661032615E+02  0.37111662217E+02  0.00000000000E+00 0. -1.
</event>
<event>
 7    1  0.6230310E-012  0.5930193E+02  0.7816164E-02  0.1266605E+00
        -11   -1    0    0    0    0  0.00000000000E+00  0.00000000000E+00  0.45593999997E+02  0.45594000000E+02  0.51100000000E-03 0.  1.
         11   -1    0    0    0    0 -0.00000000000E+00 -0.00000000000E+00 -0.45593999997E+02  0.45594000000E+02  0.51100000000E-03 0. -1.
    9900012    2    1    2    0    0  0.57764607681E+01 -0.19565607409E+02  0.24505936912E+02  0.59301930374E+02  0.49999975099E+02 0.  0.
         12    1    1    2    0    0 -0.57764607681E+01  0.19565607409E+02 -0.24505936912E+02  0.31886069626E+02  0.00000000000E+00 0. -1.
         11    1    3    3    0    0 -0.74773813804E+00  0.80466667506E+01  0.22052318363E+02  0.23486436588E+02  0.51100000000E-03 0. -1.
        -11    1    3    3    0    0  0.13779014734E+02 -0.11096715189E+02  0.13386649552E+01  0.17742332405E+02  0.51100000000E-03 0.  1.
        -12    1    3    3    0    0 -0.72548158283E+01 -0.16515558970E+02  0.11149535931E+01  0.18073161381E+02  0.00000000000E+00 0.  1.
</event>
<event>
 7    1  0.6230310E-012  0.5930185E+02  0.7816164E-02  0.1266605E+00
        -11   -1    0    0    0    0  0.00000000000E+00  0.00000000000E+00  0.45593999997E+02  0.45594000000E+02  0.51100000000E-03 0.  1.
         11   -1    0    0    0    0 -0.00000000000E+00 -0.00000000000E+00 -0.45593999997E+02  0.45594000000E+02  0.51100000000E-03 0. -1.
    9900012    2    1    2    0    0  0.26059198155E+02 -0.95408343717E+01  0.15704047384E+02  0.59301852016E+02  0.49999832193E+02 0.  0.
         12    1    1    2    0    0 -0.26059198155E+02  0.95408343717E+01 -0.15704047384E+02  0.31886147984E+02  0.00000000000E+00 0. -1.
         11    1    3    3    0    0 -0.50212698578E+01 -0.31780038683E+01 -0.35508095549E+01  0.69225073729E+01  0.51100000000E-03 0. -1.
        -11    1    3    3    0    0 -0.91415112147E+00 -0.15266359434E+02  0.83485739284E+01  0.17424008998E+02  0.51100000000E-03 0.  1.
        -12    1    3    3    0    0  0.31994619135E+02  0.89035289311E+01  0.10906283010E+02  0.34955335646E+02  0.00000000000E+00 0.  1.
</event>
<event>
 7    1  0.6230310E-012  0.5930190E+02  0.7816164E-02  0.1266605E+00
        -11   -1    0    0    0    0  0.00000000000E+00  0.00000000000E+00  0.45593999997E+02  0.45594000000E+02  0.51100000000E-03 0. -1.
         11   -1    0    0    0    0 -0.00000000000E+00 -0.00000000000E+00 -0.45593999997E+02  0.45594000000E+02  0.51100000000E-03 0.  1.
    9900012    2    1    2    0    0  0.23461515945E+02 -0.21357787877E+02 -0.31820603017E+01  0.59301900501E+02  0.49999920618E+02 0.  0.
         12    1    1    2    0    0 -0.23461515945E+02  0.21357787877E+02  0.31820603017E+01  0.31886099499E+02  0.00000000000E+00 0. -1.
         11    1    3    3    0    0  0.43849262170E+01  0.46785819510E+01 -0.21878367360E+01  0.67752001332E+01  0.51100000000E-03 0. -1.
        -11    1    3    3    0    0  0.14451386727E+02 -0.25874730061E+01 -0.17974522581E+02  0.23208210986E+02  0.51100000000E-03 0.  1.
         12    1    3    3    0    0  0.46252030015E+01 -0.23448896822E+02  0.16980299016E+02  0.29318489382E+02  0.00000000000E+00 0. -1.
</event>
<event>
 7    1  0.6230310E-012  0.5930193E+02  0.7816164E-02  0.1266605E+00
        -11   -1    0    0    0    0  0.00000000000E+00  0.00000000000E+00  0.45593999997E+02  0.45594000000E+02  0.51100000000E-03 0. -1.
         11   -1    0    0    0    0 -0.00000000000E+00 -0.00000000000E+00 -0.45593999997E+02  0.45594000000E+02  0.51100000000E-03 0.  1.
    9900012    2    1    2    0    0  0.22158582291E+02  0.14979354848E+02 -0.17359080948E+02  0.59301928869E+02  0.49999972354E+02 0.  0.
         12    1    1    2    0    0 -0.22158582291E+02 -0.14979354848E+02  0.17359080948E+02  0.31886071131E+02  0.00000000000E+00 0. -1.
         11    1    3    3    0    0  0.13548213134E+02  0.83692205895E+01  0.54758322848E+01  0.16839913060E+02  0.51100000000E-03 0. -1.
        -11    1    3    3    0    0  0.14811305398E+02  0.14949147819E+02 -0.47028152718E+01  0.21563122683E+02  0.51100000000E-03 0.  1.
         12    1    3    3    0    0 -0.62009362415E+01 -0.83390135600E+01 -0.18132097961E+02  0.20898893126E+02  0.00000000000E+00 0. -1.
</event>
<event>
 7    1  0.6230310E-012  0.5930197E+02  0.7816164E-02  0.1266605E+00
        -11   -1    0    0    0    0  0.00000000000E+00  0.00000000000E+00  0.45593999997E+02  0.45594000000E+02  0.51100000000E-03 0.  1.
         11   -1    0    0    0    0 -0.00000000000E+00 -0.00000000000E+00 -0.45593999997E+02  0.45594000000E+02  0.51100000000E-03 0. -1.
    9900012    2    1    2    0    0  0.96093683630E+01 -0.24506192428E+02 -0.17995154364E+02  0.59301968446E+02  0.50000044534E+02 0.  0.
         12    1    1    2    0    0 -0.96093683630E+01  0.24506192428E+02  0.17995154364E+02  0.31886031554E+02  0.00000000000E+00 0. -1.
         11    1    3    3    0    0  0.51520670136E+01 -0.10948848650E+02 -0.25728716215E+02  0.28432163470E+02  0.51100000000E-03 0. -1.
        -11    1    3    3    0    0  0.93764819598E+01  0.12310956195E+01 -0.50424744616E+01  0.10717301868E+02  0.51100000000E-03 0.  1.
        -12    1    3    3    0    0 -0.49191806104E+01 -0.14788439398E+02  0.12776036312E+02  0.20152503109E+02  0.00000000000E+00 0.  1.
</event>
<event>
 7    1  0.6230310E-012  0.5930196E+02  0.7816164E-02  0.1266605E+00
        -11   -1    0    0    0    0  0.00000000000E+00  0.00000000000E+00  0.45593999997E+02  0.45594000000E+02  0.51100000000E-03 0. -1.
         11   -1    0    0    0    0 -0.00000000000E+00 -0.00000000000E+00 -0.45593999997E+02  0.45594000000E+02  0.51100000000E-03 0.  1.
    9900012    2    1    2    0    0  0.23794807361E+01  0.31593645177E+02 -0.35915036861E+01  0.59301964767E+02  0.50000037824E+02 0.  0.
         12    1    1    2    0    0 -0.23794807361E+01 -0.31593645177E+02  0.35915036861E+01  0.31886035233E+02  0.00000000000E+00 0. -1.
         11    1    3    3    0    0  0.44321642222E+01  0.19448213559E+01  0.49713548024E+01  0.69383556143E+01  0.51100000000E-03 0. -1.
        -11    1    3    3    0    0  0.18835806885E+02  0.22998390473E+02 -0.54323027215E+01  0.30219587993E+02  0.51100000000E-03 0.  1.
        -12    1    3    3    0    0 -0.20888490371E+02  0.66504333482E+01 -0.31305557670E+01  0.22144021160E+02  0.00000000000E+00 0.  1.
</event>
<event>
 7    1  0.6230310E-012  0.5930193E+02  0.7816164E-02  0.1266605E+00
        -11   -1    0    0    0    0  0.00000000000E+00  0.00000000000E+00  0.45593999997E+02  0.45594000000E+02  0.51100000000E-03 0.  1.
         11   -1    0    0    0    0 -0.00000000000E+00 -0.00000000000E+00 -0.45593999997E+02  0.45594000000E+02  0.51100000000E-03 0. -1.
    9900012    2    1    2    0    0 -0.17462262393E+02  0.18127839044E+02  0.19574781395E+02  0.59301933718E+02  0.49999981197E+02 0.  0.
         12    1    1    2    0    0  0.17462262393E+02 -0.18127839044E+02 -0.19574781395E+02  0.31886066282E+02  0.00000000000E+00 0. -1.
         11    1    3    3    0    0  0.70560219626E+01  0.79961270154E+01  0.14925464467E+02  0.18343799579E+02  0.51100000000E-03 0. -1.
        -11    1    3    3    0    0  0.54957226940E+01  0.77851195641E+01 -0.28234440729E+01  0.99389582578E+01  0.51100000000E-03 0.  1.
        -12    1    3    3    0    0 -0.30014007049E+02  0.23465924650E+01  0.74727610011E+01  0.31019175881E+02  0.00000000000E+00 0.  1.
</event>
<event>
 7    1  0.6230310E-012  0.5930196E+02  0.7816164E-02  0.1266605E+00
        -11   -1    0    0    0    0  0.00000000000E+00  0.00000000000E+00  0.45593999997E+02  0.45594000000E+02  0.51100000000E-03 0.  1.
         11   -1    0    0    0    0 -0.00000000000E+00 -0.00000000000E+00 -0.45593999997E+02  0.45594000000E+02  0.51100000000E-03 0. -1.
    9900012    2    1    2    0    0 -0.13628596517E+02  0.13702639372E+02  0.25361750888E+02  0.59301962665E+02  0.50000033990E+02 0.  0.
         12    1    1    2    0    0  0.13628596517E+02 -0.13702639372E+02 -0.25361750888E+02  0.31886037335E+02  0.00000000000E+00 0. -1.
         11    1    3    3    0    0  0.24230681371E+01 -0.33455781220E+01 -0.10961364098E+02  0.11713908627E+02  0.51100000000E-03 0. -1.
        -11    1    3    3    0    0  0.67293628557E+00 -0.77581898310E+00  0.15341061398E+02  0.15375399293E+02  0.51100000000E-03 0.  1.
        -12    1    3    3    0    0 -0.16724600940E+02  0.17824036478E+02  0.20982053589E+02  0.32212654746E+02  0.00000000000E+00 0.  1.
</event>
<event>
 7    1  0.6230310E-012  0.5930191E+02  0.7816164E-02  0.1266605E+00
        -11   -1    0    0    0    0  0.00000000000E+00  0.00000000000E+00  0.45593999997E+02  0.45594000000E+02  0.51100000000E-03 0.  1.
         11   -1    0    0    0    0 -0.00000000000E+00 -0.00000000000E+00 -0.45593999997E+02  0.45594000000E+02  0.51100000000E-03 0. -1.
    9900012    2    1    2    0    0 -0.13953386764E+02  0.12104066190E+01  0.28645428968E+02  0.59301910758E+02  0.49999939324E+02 0.  0.
         12    1    1    2    0    0  0.13953386764E+02 -0.12104066190E+01 -0.28645428968E+02  0.31886089242E+02  0.00000000000E+00 0. -1.
         11    1    3    3    0    0 -0.53288977999E+01 -0.14938487687E+02  0.78921191145E+01  0.17715561253E+02  0.51100000000E-03 0. -1.
        -11    1    3    3    0    0 -0.16934469847E+02  0.49610550690E+01  0.13513489031E+01  0.17697866552E+02  0.51100000000E-03 0.  1.
        -12    1    3    3    0    0  0.83099808826E+01  0.11187839237E+02  0.19401960951E+02  0.23888482953E+02  0.00000000000E+00 0.  1.
</event>
<event>
 7    1  0.6230310E-012  0.5930200E+02  0.7816164E-02  0.1266605E+00
        -11   -1    0    0    0    0  0.00000000000E+00  0.00000000000E+00  0.45593999997E+02  0.45594000000E+02  0.51100000000E-03 0.  1.
         11   -1    0    0    0    0 -0.00000000000E+00 -0.00000000000E+00 -0.45593999997E+02  0.45594000000E+02  0.51100000000E-03 0. -1.
    9900012    2    1    2    0    0 -0.29320982544E+02  0.10028741097E+02  0.75113971451E+01  0.59302003819E+02  0.50000109046E+02 0.  0.
         12    1    1    2    0    0  0.29320982544E+02 -0.10028741097E+02 -0.75113971451E+01  0.31885996181E+02  0.00000000000E+00 0. -1.
         11    1    3    3    0    0 -0.61972597505E+01  0.10908172351E+02  0.54124154185E+00  0.12557356215E+02  0.51100000000E-03 0. -1.
        -11    1    3    3    0    0 -0.33506722812E+02  0.46695044214E+01  0.17763577806E+01  0.33877133768E+02  0.51100000000E-03 0.  1.
         12    1    3    3    0    0  0.10383000018E+02 -0.55489356752E+01  0.51937978226E+01  0.12867513836E+02  0.00000000000E+00 0. -1.
</event>
<event>
 7    1  0.6230310E-012  0.5930194E+02  0.7816164E-02  0.1266605E+00
        -11   -1    0    0    0    0  0.00000000000E+00  0.00000000000E+00  0.45593999997E+02  0.45594000000E+02  0.51100000000E-03 0.  1.
         11   -1    0    0    0    0 -0.00000000000E+00 -0.00000000000E+00 -0.45593999997E+02  0.45594000000E+02  0.51100000000E-03 0. -1.
    9900012    2    1    2    0    0  0.31756810970E+02 -0.18762588132E+01 -0.21691741106E+01  0.59301941817E+02  0.49999995968E+02 0.  0.
         12    1    1    2    0    0 -0.31756810970E+02  0.18762588132E+01  0.21691741106E+01  0.31886058183E+02  0.00000000000E+00 0. -1.
         11    1    3    3    0    0  0.99001379217E+01 -0.68715841112E+01 -0.14630321044E+02  0.18954621948E+02  0.51100000000E-03 0. -1.
        -11    1    3    3    0    0 -0.54519554651E+01  0.75291151123E+01 -0.17486539931E+01  0.94588151381E+01  0.51100000000E-03 0.  1.
        -12    1    3    3    0    0  0.27308628514E+02 -0.25337898143E+01  0.14209800927E+02  0.30888504731E+02  0.00000000000E+00 0.  1.
</event>
<event>
 7    1  0.6230310E-012  0.5930195E+02  0.7816164E-02  0.1266605E+00
        -11   -1    0    0    0    0  0.00000000000E+00  0.00000000000E+00  0.45593999997E+02  0.45594000000E+02  0.51100000000E-03 0. -1.
         11   -1    0    0    0    0 -0.00000000000E+00 -0.00000000000E+00 -0.45593999997E+02  0.45594000000E+02  0.51100000000E-03 0.  1.
    9900012    2    1    2    0    0  0.18589307180E+01  0.30605367552E+02 -0.87507889455E+01  0.59301945782E+02  0.50000003199E+02 0.  0.
         12    1    1    2    0    0 -0.18589307180E+01 -0.30605367552E+02  0.87507889455E+01  0.31886054218E+02  0.00000000000E+00 0. -1.
         11    1    3    3    0    0 -0.20807564665E+02  0.16601221720E+02 -0.60873653276E+00  0.26625661876E+02  0.51100000000E-03 0. -1.
        -11    1    3    3    0    0  0.42323665706E+01 -0.30744112233E+01  0.19682178335E+01  0.55891692459E+01  0.51100000000E-03 0.  1.
        -12    1    3    3    0    0  0.18434128812E+02  0.17078557056E+02 -0.10110270246E+02  0.27087114660E+02  0.00000000000E+00 0.  1.
</event>
<event>
 7    1  0.6230310E-012  0.5930197E+02  0.7816164E-02  0.1266605E+00
        -11   -1    0    0    0    0  0.00000000000E+00  0.00000000000E+00  0.45593999997E+02  0.45594000000E+02  0.51100000000E-03 0. -1.
         11   -1    0    0    0    0 -0.00000000000E+00 -0.00000000000E+00 -0.45593999997E+02  0.45594000000E+02  0.51100000000E-03 0.  1.
    9900012    2    1    2    0    0 -0.42558103521E+00  0.31096300266E+02  0.70397149582E+01  0.59301974908E+02  0.50000056319E+02 0.  0.
         12    1    1    2    0    0  0.42558103521E+00 -0.31096300266E+02 -0.70397149582E+01  0.31886025092E+02  0.00000000000E+00 0. -1.
         11    1    3    3    0    0 -0.27565010861E+01  0.11100390490E+02 -0.12452819698E+02  0.16908272707E+02  0.51100000000E-03 0. -1.
        -11    1    3    3    0    0 -0.11620290583E+02  0.14128045636E+02  0.75693205499E+00  0.18308625648E+02  0.51100000000E-03 0.  1.
         12    1    3    3    0    0  0.13951210634E+02  0.58678641400E+01  0.18735602601E+02  0.24085076552E+02  0.00000000000E+00 0. -1.
</event>
<event>
 7    1  0.6230310E-012  0.5930195E+02  0.7816164E-02  0.1266605E+00
        -11   -1    0    0    0    0  0.00000000000E+00  0.00000000000E+00  0.45593999997E+02  0.45594000000E+02  0.51100000000E-03 0. -1.
         11   -1    0    0    0    0 -0.00000000000E+00 -0.00000000000E+00 -0.45593999997E+02  0.45594000000E+02  0.51100000000E-03 0.  1.
    9900012    2    1    2    0    0 -0.18255657509E+01  0.31195262716E+02 -0.63437251557E+01  0.59301953599E+02  0.50000017456E+02 0.  0.
         12    1    1    2    0    0  0.18255657509E+01 -0.31195262716E+02  0.63437251557E+01  0.31886046401E+02  0.00000000000E+00 0. -1.
         11    1    3    3    0    0 -0.82812312038E+01  0.12768813421E+02  0.10217859120E+02  0.18331012839E+02  0.51100000000E-03 0. -1.
        -11    1    3    3    0    0  0.47441766225E+01  0.17668008501E+02  0.52868202496E+01  0.19042484208E+02  0.51100000000E-03 0.  1.
        -12    1    3    3    0    0  0.17114888305E+01  0.75844079420E+00 -0.21848404525E+02  0.21928456552E+02  0.00000000000E+00 0.  1.
</event>
<event>
 7    1  0.6230310E-012  0.5930199E+02  0.7816164E-02  0.1266605E+00
        -11   -1    0    0    0    0  0.00000000000E+00  0.00000000000E+00  0.45593999997E+02  0.45594000000E+02  0.51100000000E-03 0.  1.
         11   -1    0    0    0    0 -0.00000000000E+00 -0.00000000000E+00 -0.45593999997E+02  0.45594000000E+02  0.51100000000E-03 0. -1.
    9900012    2    1    2    0    0  0.31136156817E+02 -0.66038496690E+01  0.19096243185E+01  0.59301988069E+02  0.50000080321E+02 0.  0.
         12    1    1    2    0    0 -0.31136156817E+02  0.66038496690E+01 -0.19096243185E+01  0.31886011931E+02  0.00000000000E+00 0. -1.
         11    1    3    3    0    0  0.10914420999E+02 -0.16034321935E+01  0.25684973631E+00  0.11034561731E+02  0.51100000000E-03 0.  1.
        -11    1    3    3    0    0  0.19757331927E+02 -0.15933104907E+01  0.20847894038E+02  0.28766742764E+02  0.51100000000E-03 0. -1.
         12    1    3    3    0    0  0.46440389199E+00 -0.34071069848E+01 -0.19195119455E+02  0.19500683575E+02  0.00000000000E+00 0. -1.
</event>
<event>
 7    1  0.6230310E-012  0.5930196E+02  0.7816164E-02  0.1266605E+00
        -11   -1    0    0    0    0  0.00000000000E+00  0.00000000000E+00  0.45593999997E+02  0.45594000000E+02  0.51100000000E-03 0. -1.
         11   -1    0    0    0    0 -0.00000000000E+00 -0.00000000000E+00 -0.45593999997E+02  0.45594000000E+02  0.51100000000E-03 0.  1.
    9900012    2    1    2    0    0 -0.18438411632E+02  0.18687867631E+02 -0.18097188382E+02  0.59301958423E+02  0.50000026253E+02 0.  0.
         12    1    1    2    0    0  0.18438411632E+02 -0.18687867631E+02  0.18097188382E+02  0.31886041577E+02  0.00000000000E+00 0. -1.
         11    1    3    3    0    0  0.48728325158E+01 -0.31488749639E+01 -0.97263547636E+01  0.11325276487E+02  0.51100000000E-03 0. -1.
        -11    1    3    3    0    0 -0.11736408277E+02 -0.85826563534E+01 -0.80682445670E+00  0.14562150779E+02  0.51100000000E-03 0.  1.
        -12    1    3    3    0    0 -0.11574835871E+02  0.30419398949E+02 -0.75640091614E+01  0.33414531157E+02  0.00000000000E+00 0.  1.
</event>
<event>
 7    1  0.6230310E-012  0.5930193E+02  0.7816164E-02  0.1266605E+00
        -11   -1    0    0    0    0  0.00000000000E+00  0.00000000000E+00  0.45593999997E+02  0.45594000000E+02  0.51100000000E-03 0.  1.
         11   -1    0    0    0    0 -0.00000000000E+00 -0.00000000000E+00 -0.45593999997E+02  0.45594000000E+02  0.51100000000E-03 0. -1.
    9900012    2    1    2    0    0  0.94661262999E+01  0.30437614569E+02  0.81576367826E+00  0.59301930970E+02  0.49999976186E+02 0.  0.
         12    1    1    2    0    0 -0.94661262999E+01 -0.30437614569E+02 -0.81576367826E+00  0.31886069030E+02  0.00000000000E+00 0. -1.
         11    1    3    3    0    0 -0.87784317985E+01  0.72959225952E+01 -0.52768970976E+01  0.12575253262E+02  0.51100000000E-03 0. -1.
        -11    1    3    3    0    0 -0.12097862881E+01  0.19764265691E+02 -0.91201568016E+01  0.21800620210E+02  0.51100000000E-03 0.  1.
        -12    1    3    3    0    0  0.19454344386E+02  0.33774262828E+01  0.15212817577E+02  0.24926057499E+02  0.00000000000E+00 0.  1.
</event>
<event>
 7    1  0.6230310E-012  0.5930187E+02  0.7816164E-02  0.1266605E+00
        -11   -1    0    0    0    0  0.00000000000E+00  0.00000000000E+00  0.45593999997E+02  0.45594000000E+02  0.51100000000E-03 0. -1.
         11   -1    0    0    0    0 -0.00000000000E+00 -0.00000000000E+00 -0.45593999997E+02  0.45594000000E+02  0.51100000000E-03 0.  1.
    9900012    2    1    2    0    0 -0.43063292568E-01 -0.96568135050E+01 -0.30388634508E+02  0.59301874353E+02  0.49999872930E+02 0.  0.
         12    1    1    2    0    0  0.43063292568E-01  0.96568135050E+01  0.30388634508E+02  0.31886125647E+02  0.00000000000E+00 0. -1.
         11    1    3    3    0    0  0.28306447695E+01  0.43913022528E+01  0.23290852189E+01  0.57202030999E+01  0.51100000000E-03 0. -1.
        -11    1    3    3    0    0  0.10409779208E+02 -0.19827938124E+02 -0.59918414692E+01  0.23182165512E+02  0.51100000000E-03 0.  1.
        -12    1    3    3    0    0 -0.13283487270E+02  0.57798223657E+01 -0.26725878258E+02  0.30399505741E+02  0.00000000000E+00 0.  1.
</event>
<event>
 7    1  0.6230310E-012  0.5930194E+02  0.7816164E-02  0.1266605E+00
        -11   -1    0    0    0    0  0.00000000000E+00  0.00000000000E+00  0.45593999997E+02  0.45594000000E+02  0.51100000000E-03 0. -1.
         11   -1    0    0    0    0 -0.00000000000E+00 -0.00000000000E+00 -0.45593999997E+02  0.45594000000E+02  0.51100000000E-03 0.  1.
    9900012    2    1    2    0    0 -0.29188949434E+01  0.29948445947E+02 -0.10549464058E+02  0.59301944204E+02  0.50000000321E+02 0.  0.
         12    1    1    2    0    0  0.29188949434E+01 -0.29948445947E+02  0.10549464058E+02  0.31886055796E+02  0.00000000000E+00 0. -1.
         11    1    3    3    0    0 -0.89083636908E+01  0.39770404428E+01  0.16769317738E+01  0.98988835111E+01  0.51100000000E-03 0. -1.
        -11    1    3    3    0    0 -0.10541159148E+02 -0.57901574712E+01 -0.38825142523E+01  0.12637874699E+02  0.51100000000E-03 0.  1.
        -12    1    3    3    0    0  0.16530627896E+02  0.31761562976E+02 -0.83438815789E+01  0.36765185993E+02  0.00000000000E+00 0.  1.
</event>
<event>
 7    1  0.6230310E-012  0.5930194E+02  0.7816164E-02  0.1266605E+00
        -11   -1    0    0    0    0  0.00000000000E+00  0.00000000000E+00  0.45593999997E+02  0.45594000000E+02  0.51100000000E-03 0.  1.
         11   -1    0    0    0    0 -0.00000000000E+00 -0.00000000000E+00 -0.45593999997E+02  0.45594000000E+02  0.51100000000E-03 0. -1.
    9900012    2    1    2    0    0  0.11199159916E+02 -0.12224783868E+02  0.27237006630E+02  0.59301936373E+02  0.49999986039E+02 0.  0.
         12    1    1    2    0    0 -0.11199159916E+02  0.12224783868E+02 -0.27237006630E+02  0.31886063627E+02  0.00000000000E+00 0. -1.
         11    1    3    3    0    0 -0.33609766808E+01  0.68107124607E+01  0.78687431205E+00  0.76355183134E+01  0.51100000000E-03 0. -1.
        -11    1    3    3    0    0 -0.20597238904E+01 -0.10415797072E+02  0.30686108570E+02  0.32471041723E+02  0.51100000000E-03 0.  1.
         12    1    3    3    0    0  0.16619860487E+02 -0.86196992574E+01 -0.42359762518E+01  0.19195376337E+02  0.00000000000E+00 0. -1.
</event>
<event>
 7    1  0.6230310E-012  0.5930200E+02  0.7816164E-02  0.1266605E+00
        -11   -1    0    0    0    0  0.00000000000E+00  0.00000000000E+00  0.45593999997E+02  0.45594000000E+02  0.51100000000E-03 0. -1.
         11   -1    0    0    0    0 -0.00000000000E+00 -0.00000000000E+00 -0.45593999997E+02  0.45594000000E+02  0.51100000000E-03 0.  1.
    9900012    2    1    2    0    0 -0.76535606086E+01  0.30542166716E+02 -0.50315215553E+01  0.59301997635E+02  0.50000097766E+02 0.  0.
         12    1    1    2    0    0  0.76535606086E+01 -0.30542166716E+02  0.50315215553E+01  0.31886002365E+02  0.00000000000E+00 0. -1.
         11    1    3    3    0    0 -0.69140297729E+01  0.35353775850E+02 -0.18525667746E+02  0.40507945397E+02  0.51100000000E-03 0.  1.
        -11    1    3    3    0    0  0.53064127349E+01 -0.44420735216E+01  0.60088683116E+01  0.91649621893E+01  0.51100000000E-03 0. -1.
        -12    1    3    3    0    0 -0.60459435706E+01 -0.36953561259E+00  0.74852778795E+01  0.96290900485E+01  0.00000000000E+00 0.  1.
</event>
<event>
 7    1  0.6230310E-012  0.5930195E+02  0.7816164E-02  0.1266605E+00
        -11   -1    0    0    0    0  0.00000000000E+00  0.00000000000E+00  0.45593999997E+02  0.45594000000E+02  0.51100000000E-03 0. -1.
         11   -1    0    0    0    0 -0.00000000000E+00 -0.00000000000E+00 -0.45593999997E+02  0.45594000000E+02  0.51100000000E-03 0.  1.
    9900012    2    1    2    0    0 -0.17918776284E+02  0.25785609049E+02 -0.55443797502E+01  0.59301947808E+02  0.50000006895E+02 0.  0.
         12    1    1    2    0    0  0.17918776284E+02 -0.25785609049E+02  0.55443797502E+01  0.31886052192E+02  0.00000000000E+00 0. -1.
         11    1    3    3    0    0 -0.44505403676E+01  0.11997897657E+01  0.49796824658E+01  0.67855760821E+01  0.51100000000E-03 0. -1.
        -11    1    3    3    0    0 -0.11718116114E+02 -0.10431754356E+02  0.69432202773E+00  0.15704070413E+02  0.51100000000E-03 0.  1.
        -12    1    3    3    0    0 -0.17501198029E+01  0.35017573640E+02 -0.11218384244E+02  0.36812301313E+02  0.00000000000E+00 0.  1.
</event>
<event>
 7    1  0.6230310E-012  0.5930194E+02  0.7816164E-02  0.1266605E+00
        -11   -1    0    0    0    0  0.00000000000E+00  0.00000000000E+00  0.45593999997E+02  0.45594000000E+02  0.51100000000E-03 0.  1.
         11   -1    0    0    0    0 -0.00000000000E+00 -0.00000000000E+00 -0.45593999997E+02  0.45594000000E+02  0.51100000000E-03 0. -1.
    9900012    2    1    2    0    0 -0.28454172454E+02 -0.59807674049E+01  0.13088590686E+02  0.59301941684E+02  0.49999995725E+02 0.  0.
         12    1    1    2    0    0  0.28454172454E+02  0.59807674049E+01 -0.13088590686E+02  0.31886058316E+02  0.00000000000E+00 0. -1.
         11    1    3    3    0    0 -0.50799251512E+01 -0.11893271711E+02  0.10144738392E+02  0.16436887444E+02  0.51100000000E-03 0. -1.
        -11    1    3    3    0    0 -0.63655792122E+01 -0.13215764150E+02 -0.58609361811E+01  0.15796442446E+02  0.51100000000E-03 0.  1.
         12    1    3    3    0    0 -0.17008668091E+02  0.19128268456E+02  0.88047884746E+01  0.27068611794E+02  0.00000000000E+00 0. -1.
</event>
<event>
 7    1  0.6230310E-012  0.5930194E+02  0.7816164E-02  0.1266605E+00
        -11   -1    0    0    0    0  0.00000000000E+00  0.00000000000E+00  0.45593999997E+02  0.45594000000E+02  0.51100000000E-03 0. -1.
         11   -1    0    0    0    0 -0.00000000000E+00 -0.00000000000E+00 -0.45593999997E+02  0.45594000000E+02  0.51100000000E-03 0.  1.
    9900012    2    1    2    0    0  0.22881908074E+02 -0.15700149384E+02  0.15704923200E+02  0.59301936892E+02  0.49999986987E+02 0.  0.
         12    1    1    2    0    0 -0.22881908074E+02  0.15700149384E+02 -0.15704923200E+02  0.31886063108E+02  0.00000000000E+00 0. -1.
         11    1    3    3    0    0 -0.73737904750E+01  0.53376099853E+01  0.69467770721E+01  0.11450789417E+02  0.51100000000E-03 0. -1.
        -11    1    3    3    0    0  0.25934191683E+02 -0.38010511442E+00  0.46729270685E+01  0.26354563662E+02  0.51100000000E-03 0.  1.
        -12    1    3    3    0    0  0.43215068661E+01 -0.20657654255E+02  0.40852190592E+01  0.21496583814E+02  0.00000000000E+00 0.  1.
</event>
<event>
 7    1  0.6230310E-012  0.5930192E+02  0.7816164E-02  0.1266605E+00
        -11   -1    0    0    0    0  0.00000000000E+00  0.00000000000E+00  0.45593999997E+02  0.45594000000E+02  0.51100000000E-03 0.  1.
         11   -1    0    0    0    0 -0.00000000000E+00 -0.00000000000E+00 -0.45593999997E+02  0.45594000000E+02  0.51100000000E-03 0. -1.
    9900012    2    1    2    0    0  0.39117121695E+01 -0.27088099265E+01  0.31529085429E+02  0.59301915711E+02  0.49999948357E+02 0.  0.
         12    1    1    2    0    0 -0.39117121695E+01  0.27088099265E+01 -0.31529085429E+02  0.31886084289E+02  0.00000000000E+00 0. -1.
         11    1    3    3    0    0 -0.50050614021E+01 -0.83077065867E+01 -0.17634181494E+01  0.98579040470E+01  0.51100000000E-03 0. -1.
        -11    1    3    3    0    0 -0.79709801495E+01  0.14151309554E+02  0.22188501594E+02  0.27497739723E+02  0.51100000000E-03 0.  1.
         12    1    3    3    0    0  0.16887753721E+02 -0.85524128937E+01  0.11104001984E+02  0.21946271941E+02  0.00000000000E+00 0. -1.
</event>
<event>
 7    1  0.6230310E-012  0.5930184E+02  0.7816164E-02  0.1266605E+00
        -11   -1    0    0    0    0  0.00000000000E+00  0.00000000000E+00  0.45593999997E+02  0.45594000000E+02  0.51100000000E-03 0.  1.
         11   -1    0    0    0    0 -0.00000000000E+00 -0.00000000000E+00 -0.45593999997E+02  0.45594000000E+02  0.51100000000E-03 0. -1.
    9900012    2    1    2    0    0  0.26726265260E+02  0.11558338885E+02  0.12993796134E+02  0.59301840141E+02  0.49999810536E+02 0.  0.
         12    1    1    2    0    0 -0.26726265260E+02 -0.11558338885E+02 -0.12993796134E+02  0.31886159859E+02  0.00000000000E+00 0. -1.
         11    1    3    3    0    0 -0.10156943023E+01 -0.30067431527E+01  0.33360469468E+01  0.46044922407E+01  0.51100000000E-03 0. -1.
        -11    1    3    3    0    0  0.61406286932E+01 -0.56633140377E+01 -0.14340359141E+02  0.16595973825E+02  0.51100000000E-03 0.  1.
        -12    1    3    3    0    0  0.21601330870E+02  0.20228396075E+02  0.23998108329E+02  0.38101374076E+02  0.00000000000E+00 0.  1.
</event>
<event>
 7    1  0.6230310E-012  0.5930194E+02  0.7816164E-02  0.1266605E+00
        -11   -1    0    0    0    0  0.00000000000E+00  0.00000000000E+00  0.45593999997E+02  0.45594000000E+02  0.51100000000E-03 0.  1.
         11   -1    0    0    0    0 -0.00000000000E+00 -0.00000000000E+00 -0.45593999997E+02  0.45594000000E+02  0.51100000000E-03 0. -1.
    9900012    2    1    2    0    0  0.16548667289E+02 -0.23749735549E+02 -0.13372072345E+02  0.59301942757E+02  0.49999997682E+02 0.  0.
         12    1    1    2    0    0 -0.16548667289E+02  0.23749735549E+02  0.13372072345E+02  0.31886057243E+02  0.00000000000E+00 0. -1.
         11    1    3    3    0    0  0.17628339296E+02 -0.72518329868E+01  0.43503698247E+01  0.19551806716E+02  0.51100000000E-03 0. -1.
        -11    1    3    3    0    0  0.44682915772E+01 -0.12795238162E+02  0.62082691165E+01  0.14907258465E+02  0.51100000000E-03 0.  1.
         12    1    3    3    0    0 -0.55479635837E+01 -0.37026644004E+01 -0.23930711286E+02  0.24842877576E+02  0.00000000000E+00 0. -1.
</event>
<event>
 7    1  0.6230310E-012  0.5930195E+02  0.7816164E-02  0.1266605E+00
        -11   -1    0    0    0    0  0.00000000000E+00  0.00000000000E+00  0.45593999997E+02  0.45594000000E+02  0.51100000000E-03 0.  1.
         11   -1    0    0    0    0 -0.00000000000E+00 -0.00000000000E+00 -0.45593999997E+02  0.45594000000E+02  0.51100000000E-03 0. -1.
    9900012    2    1    2    0    0 -0.26798797101E+02 -0.16843166763E+02  0.38539093565E+01  0.59301946465E+02  0.50000004446E+02 0.  0.
         12    1    1    2    0    0  0.26798797101E+02  0.16843166763E+02 -0.38539093565E+01  0.31886053535E+02  0.00000000000E+00 0. -1.
         11    1    3    3    0    0 -0.44156933559E+01 -0.11707949222E+02  0.60264939424E-01  0.12513115317E+02  0.51100000000E-03 0. -1.
        -11    1    3    3    0    0  0.64636990303E+01  0.95597449331E+01  0.81434167199E+01  0.14123857988E+02  0.51100000000E-03 0.  1.
         12    1    3    3    0    0 -0.28846802775E+02 -0.14694962474E+02 -0.43497723028E+01  0.32664973160E+02  0.00000000000E+00 0. -1.
</event>
<event>
 7    1  0.6230310E-012  0.5930193E+02  0.7816164E-02  0.1266605E+00
        -11   -1    0    0    0    0  0.00000000000E+00  0.00000000000E+00  0.45593999997E+02  0.45594000000E+02  0.51100000000E-03 0.  1.
         11   -1    0    0    0    0 -0.00000000000E+00 -0.00000000000E+00 -0.45593999997E+02  0.45594000000E+02  0.51100000000E-03 0. -1.
    9900012    2    1    2    0    0 -0.92792178289E+01  0.16668855842E+02  0.25549296380E+02  0.59301934327E+02  0.49999982308E+02 0.  0.
         12    1    1    2    0    0  0.92792178289E+01 -0.16668855842E+02 -0.25549296380E+02  0.31886065673E+02  0.00000000000E+00 0. -1.
         11    1    3    3    0    0  0.62331272569E+01 -0.94233589746E+01 -0.89496109865E+00  0.11333689840E+02  0.51100000000E-03 0. -1.
        -11    1    3    3    0    0  0.48031902693E+01  0.14089912198E+02  0.40269529915E+01  0.15421174183E+02  0.51100000000E-03 0.  1.
        -12    1    3    3    0    0 -0.20315535355E+02  0.12002302619E+02  0.22417304487E+02  0.32547070304E+02  0.00000000000E+00 0.  1.
</event>
<event>
 7    1  0.6230310E-012  0.5930179E+02  0.7816164E-02  0.1266605E+00
        -11   -1    0    0    0    0  0.00000000000E+00  0.00000000000E+00  0.45593999997E+02  0.45594000000E+02  0.51100000000E-03 0.  1.
         11   -1    0    0    0    0 -0.00000000000E+00 -0.00000000000E+00 -0.45593999997E+02  0.45594000000E+02  0.51100000000E-03 0. -1.
    9900012    2    1    2    0    0  0.10580445288E+02 -0.29428042818E+02  0.62269368615E+01  0.59301791865E+02  0.49999722490E+02 0.  0.
         12    1    1    2    0    0 -0.10580445288E+02  0.29428042818E+02 -0.62269368615E+01  0.31886208135E+02  0.00000000000E+00 0. -1.
         11    1    3    3    0    0 -0.74872088769E+01  0.72731989814E+01 -0.74262307241E+01  0.12810410736E+02  0.51100000000E-03 0. -1.
        -11    1    3    3    0    0 -0.32188560925E+01 -0.23492873179E+01  0.18282127984E+01  0.43843526026E+01  0.51100000000E-03 0.  1.
        -12    1    3    3    0    0  0.21286510257E+02 -0.34351954481E+02  0.11824954787E+02  0.42107028526E+02  0.00000000000E+00 0.  1.
</event>
<event>
 7    1  0.6230310E-012  0.5930194E+02  0.7816164E-02  0.1266605E+00
        -11   -1    0    0    0    0  0.00000000000E+00  0.00000000000E+00  0.45593999997E+02  0.45594000000E+02  0.51100000000E-03 0. -1.
         11   -1    0    0    0    0 -0.00000000000E+00 -0.00000000000E+00 -0.45593999997E+02  0.45594000000E+02  0.51100000000E-03 0.  1.
    9900012    2    1    2    0    0 -0.12430437474E+02 -0.27755638380E+02  0.95827684101E+01  0.59301942105E+02  0.49999996493E+02 0.  0.
         12    1    1    2    0    0  0.12430437474E+02  0.27755638380E+02 -0.95827684101E+01  0.31886057895E+02  0.00000000000E+00 0. -1.
         11    1    3    3    0    0 -0.77435890132E+01  0.31609078307E+01  0.12258211511E+02  0.14839752654E+02  0.51100000000E-03 0. -1.
        -11    1    3    3    0    0 -0.82762868654E+01 -0.92594191421E+01 -0.14850859224E+02  0.19359281677E+02  0.51100000000E-03 0.  1.
        -12    1    3    3    0    0  0.35894384047E+01 -0.21657127069E+02  0.12175416123E+02  0.25102907774E+02  0.00000000000E+00 0.  1.
</event>
<event>
 7    1  0.6230310E-012  0.5930194E+02  0.7816164E-02  0.1266605E+00
        -11   -1    0    0    0    0  0.00000000000E+00  0.00000000000E+00  0.45593999997E+02  0.45594000000E+02  0.51100000000E-03 0. -1.
         11   -1    0    0    0    0 -0.00000000000E+00 -0.00000000000E+00 -0.45593999997E+02  0.45594000000E+02  0.51100000000E-03 0.  1.
    9900012    2    1    2    0    0  0.45121110901E+01  0.16155816559E+02 -0.27117357924E+02  0.59301942609E+02  0.49999997412E+02 0.  0.
         12    1    1    2    0    0 -0.45121110901E+01 -0.16155816559E+02  0.27117357924E+02  0.31886057391E+02  0.00000000000E+00 0. -1.
         11    1    3    3    0    0  0.89914577194E+01 -0.67312253279E+01 -0.25578035557E+02  0.27935490143E+02  0.51100000000E-03 0. -1.
        -11    1    3    3    0    0  0.58958889010E+01  0.27005653233E+01 -0.52812465407E+01  0.83633799557E+01  0.51100000000E-03 0.  1.
        -12    1    3    3    0    0 -0.10375235530E+02  0.20186476564E+02  0.37419241734E+01  0.23003072510E+02  0.00000000000E+00 0.  1.
</event>
<event>
 7    1  0.6230310E-012  0.5930192E+02  0.7816164E-02  0.1266605E+00
        -11   -1    0    0    0    0  0.00000000000E+00  0.00000000000E+00  0.45593999997E+02  0.45594000000E+02  0.51100000000E-03 0.  1.
         11   -1    0    0    0    0 -0.00000000000E+00 -0.00000000000E+00 -0.45593999997E+02  0.45594000000E+02  0.51100000000E-03 0. -1.
    9900012    2    1    2    0    0 -0.58079624823E+01  0.13524633790E+02  0.28285578237E+02  0.59301920223E+02  0.49999956586E+02 0.  0.
         12    1    1    2    0    0  0.58079624823E+01 -0.13524633790E+02 -0.28285578237E+02  0.31886079777E+02  0.00000000000E+00 0. -1.
         11    1    3    3    0    0  0.82549148625E+00  0.17855986155E+02  0.14989407449E+02  0.23328094943E+02  0.51100000000E-03 0. -1.
        -11    1    3    3    0    0 -0.93816283419E+01  0.94889840959E+01  0.16799317223E+02  0.21453970004E+02  0.51100000000E-03 0.  1.
        -12    1    3    3    0    0  0.27481743734E+01 -0.13820336460E+02 -0.35031464357E+01  0.14519855275E+02  0.00000000000E+00 0.  1.
</event>
<event>
 7    1  0.6230310E-012  0.5930194E+02  0.7816164E-02  0.1266605E+00
        -11   -1    0    0    0    0  0.00000000000E+00  0.00000000000E+00  0.45593999997E+02  0.45594000000E+02  0.51100000000E-03 0. -1.
         11   -1    0    0    0    0 -0.00000000000E+00 -0.00000000000E+00 -0.45593999997E+02  0.45594000000E+02  0.51100000000E-03 0.  1.
    9900012    2    1    2    0    0  0.11714073596E+02  0.28384839081E+02 -0.85908260875E+01  0.59301938739E+02  0.49999990354E+02 0.  0.
         12    1    1    2    0    0 -0.11714073596E+02 -0.28384839081E+02  0.85908260875E+01  0.31886061261E+02  0.00000000000E+00 0. -1.
         11    1    3    3    0    0 -0.23510999177E+01  0.29856461348E+01  0.20094345249E+01  0.42987883218E+01  0.51100000000E-03 0. -1.
        -11    1    3    3    0    0 -0.12215449043E+02  0.21455357053E+02 -0.13721035364E+02  0.28245643086E+02  0.51100000000E-03 0.  1.
         12    1    3    3    0    0  0.26280622557E+02  0.39438358935E+01  0.31207747518E+01  0.26757507331E+02  0.00000000000E+00 0. -1.
</event>
<event>
 7    1  0.6230310E-012  0.5930194E+02  0.7816164E-02  0.1266605E+00
        -11   -1    0    0    0    0  0.00000000000E+00  0.00000000000E+00  0.45593999997E+02  0.45594000000E+02  0.51100000000E-03 0.  1.
         11   -1    0    0    0    0 -0.00000000000E+00 -0.00000000000E+00 -0.45593999997E+02  0.45594000000E+02  0.51100000000E-03 0. -1.
    9900012    2    1    2    0    0 -0.98602853031E+01  0.71631201233E+01  0.29464987303E+02  0.59301937325E+02  0.49999987775E+02 0.  0.
         12    1    1    2    0    0  0.98602853031E+01 -0.71631201233E+01 -0.29464987303E+02  0.31886062675E+02  0.00000000000E+00 0. -1.
         11    1    3    3    0    0  0.25783949021E+01  0.15894915273E+02  0.29859246642E+02  0.33924490594E+02  0.51100000000E-03 0.  1.
        -11    1    3    3    0    0  0.28929450759E+01 -0.18448954584E+01 -0.66181411093E+01  0.74547006961E+01  0.51100000000E-03 0. -1.
        -12    1    3    3    0    0 -0.15331625281E+02 -0.68868996910E+01  0.62238817704E+01  0.17922746034E+02  0.00000000000E+00 0.  1.
</event>
<event>
 7    1  0.6230310E-012  0.5930196E+02  0.7816164E-02  0.1266605E+00
        -11   -1    0    0    0    0  0.00000000000E+00  0.00000000000E+00  0.45593999997E+02  0.45594000000E+02  0.51100000000E-03 0. -1.
         11   -1    0    0    0    0 -0.00000000000E+00 -0.00000000000E+00 -0.45593999997E+02  0.45594000000E+02  0.51100000000E-03 0.  1.
    9900012    2    1    2    0    0  0.95364387544E+01  0.27982090162E+02 -0.11948994577E+02  0.59301960651E+02  0.50000030317E+02 0.  0.
         12    1    1    2    0    0 -0.95364387544E+01 -0.27982090162E+02  0.11948994577E+02  0.31886039349E+02  0.00000000000E+00 0. -1.
         11    1    3    3    0    0  0.87118000267E+01  0.19921257966E+02 -0.83391701007E+01  0.23287201139E+02  0.51100000000E-03 0.  1.
        -11    1    3    3    0    0 -0.82658773489E+01  0.10805549014E+02 -0.15613598583E+02  0.20709154468E+02  0.51100000000E-03 0. -1.
         12    1    3    3    0    0  0.90905160765E+01 -0.27447168180E+01  0.12003774107E+02  0.15305605044E+02  0.00000000000E+00 0. -1.
</event>
<event>
 7    1  0.6230310E-012  0.5930195E+02  0.7816164E-02  0.1266605E+00
        -11   -1    0    0    0    0  0.00000000000E+00  0.00000000000E+00  0.45593999997E+02  0.45594000000E+02  0.51100000000E-03 0.  1.
         11   -1    0    0    0    0 -0.00000000000E+00 -0.00000000000E+00 -0.45593999997E+02  0.45594000000E+02  0.51100000000E-03 0. -1.
    9900012    2    1    2    0    0 -0.63833198733E+01  0.25896168857E+02  0.17474611119E+02  0.59301947127E+02  0.50000005652E+02 0.  0.
         12    1    1    2    0    0  0.63833198733E+01 -0.25896168857E+02 -0.17474611119E+02  0.31886052873E+02  0.00000000000E+00 0. -1.
         11    1    3    3    0    0 -0.20512453667E+02  0.88999389432E+01  0.75487959611E+00  0.22372740380E+02  0.51100000000E-03 0. -1.
        -11    1    3    3    0    0  0.33795254966E+01  0.69582156427E+01 -0.60513979995E+01  0.98212715837E+01  0.51100000000E-03 0.  1.
        -12    1    3    3    0    0  0.10749608297E+02  0.10038014271E+02  0.22771129523E+02  0.27107935163E+02  0.00000000000E+00 0.  1.
</event>
<event>
 7    1  0.6230310E-012  0.5930196E+02  0.7816164E-02  0.1266605E+00
        -11   -1    0    0    0    0  0.00000000000E+00  0.00000000000E+00  0.45593999997E+02  0.45594000000E+02  0.51100000000E-03 0.  1.
         11   -1    0    0    0    0 -0.00000000000E+00 -0.00000000000E+00 -0.45593999997E+02  0.45594000000E+02  0.51100000000E-03 0. -1.
    9900012    2    1    2    0    0  0.43567684398E+01  0.28067664121E+02  0.14489461419E+02  0.59301957714E+02  0.50000024960E+02 0.  0.
         12    1    1    2    0    0 -0.43567684398E+01 -0.28067664121E+02 -0.14489461419E+02  0.31886042286E+02  0.00000000000E+00 0. -1.
         11    1    3    3    0    0  0.49688766066E+01  0.26637984440E+02 -0.43282986214E+01  0.27440956962E+02  0.51100000000E-03 0. -1.
        -11    1    3    3    0    0  0.11950127424E+02  0.36914739521E+01  0.63863139519E+01  0.14043415950E+02  0.51100000000E-03 0.  1.
        -12    1    3    3    0    0 -0.12562235590E+02 -0.22617942709E+01  0.12431446088E+02  0.17817584802E+02  0.00000000000E+00 0.  1.
</event>
<event>
 7    1  0.6230310E-012  0.5930195E+02  0.7816164E-02  0.1266605E+00
        -11   -1    0    0    0    0  0.00000000000E+00  0.00000000000E+00  0.45593999997E+02  0.45594000000E+02  0.51100000000E-03 0.  1.
         11   -1    0    0    0    0 -0.00000000000E+00 -0.00000000000E+00 -0.45593999997E+02  0.45594000000E+02  0.51100000000E-03 0. -1.
    9900012    2    1    2    0    0  0.25465624328E+02  0.84764045058E+01  0.17215477842E+02  0.59301950808E+02  0.50000012366E+02 0.  0.
         12    1    1    2    0    0 -0.25465624328E+02 -0.84764045058E+01 -0.17215477842E+02  0.31886049192E+02  0.00000000000E+00 0. -1.
         11    1    3    3    0    0  0.32436493018E+01  0.56559920783E+01 -0.15333712212E+01  0.66979649705E+01  0.51100000000E-03 0. -1.
        -11    1    3    3    0    0  0.29475816468E+02 -0.85598103159E+01  0.15367560133E+01  0.30731998445E+02  0.51100000000E-03 0.  1.
        -12    1    3    3    0    0 -0.72538414422E+01  0.11380222743E+02  0.17212093050E+02  0.21871987393E+02  0.00000000000E+00 0.  1.
</event>
<event>
 7    1  0.6230310E-012  0.5930188E+02  0.7816164E-02  0.1266605E+00
        -11   -1    0    0    0    0  0.00000000000E+00  0.00000000000E+00  0.45593999997E+02  0.45594000000E+02  0.51100000000E-03 0.  1.
         11   -1    0    0    0    0 -0.00000000000E+00 -0.00000000000E+00 -0.45593999997E+02  0.45594000000E+02  0.51100000000E-03 0. -1.
    9900012    2    1    2    0    0 -0.32015665712E+01 -0.37295667494E+01  0.31504998238E+02  0.59301880597E+02  0.49999884317E+02 0.  0.
         12    1    1    2    0    0  0.32015665712E+01  0.37295667494E+01 -0.31504998238E+02  0.31886119403E+02  0.00000000000E+00 0. -1.
         11    1    3    3    0    0  0.51339039423E+01  0.85418626479E+01  0.20621120268E+02  0.22903078146E+02  0.51100000000E-03 0. -1.
        -11    1    3    3    0    0  0.50892171043E+01  0.68846889963E+01  0.97557669166E+01  0.12979755841E+02  0.51100000000E-03 0.  1.
         12    1    3    3    0    0 -0.13424687618E+02 -0.19156118394E+02  0.11281110532E+01  0.23419046609E+02  0.00000000000E+00 0. -1.
</event>
<event>
 7    1  0.6230310E-012  0.5930195E+02  0.7816164E-02  0.1266605E+00
        -11   -1    0    0    0    0  0.00000000000E+00  0.00000000000E+00  0.45593999997E+02  0.45594000000E+02  0.51100000000E-03 0.  1.
         11   -1    0    0    0    0 -0.00000000000E+00 -0.00000000000E+00 -0.45593999997E+02  0.45594000000E+02  0.51100000000E-03 0. -1.
    9900012    2    1    2    0    0 -0.69237677778E+01 -0.93478976999E+01  0.29688354009E+02  0.59301951085E+02  0.50000012871E+02 0.  0.
         12    1    1    2    0    0  0.69237677778E+01  0.93478976999E+01 -0.29688354009E+02  0.31886048915E+02  0.00000000000E+00 0. -1.
         11    1    3    3    0    0  0.10115699833E+02  0.74345022425E+00 -0.51414416598E+01  0.11371654407E+02  0.51100000000E-03 0. -1.
        -11    1    3    3    0    0 -0.12313902637E+02 -0.11086185750E+02  0.44324498193E+01  0.17151744060E+02  0.51100000000E-03 0.  1.
         12    1    3    3    0    0 -0.47255649733E+01  0.99483782565E+00  0.30397345849E+02  0.30778552618E+02  0.00000000000E+00 0. -1.
</event>
<event>
 7    1  0.6230310E-012  0.5930196E+02  0.7816164E-02  0.1266605E+00
        -11   -1    0    0    0    0  0.00000000000E+00  0.00000000000E+00  0.45593999997E+02  0.45594000000E+02  0.51100000000E-03 0.  1.
         11   -1    0    0    0    0 -0.00000000000E+00 -0.00000000000E+00 -0.45593999997E+02  0.45594000000E+02  0.51100000000E-03 0. -1.
    9900012    2    1    2    0    0 -0.17537437210E+02  0.21679572356E+02  0.15464613146E+02  0.59301955698E+02  0.50000021284E+02 0.  0.
         12    1    1    2    0    0  0.17537437210E+02 -0.21679572356E+02 -0.15464613146E+02  0.31886044302E+02  0.00000000000E+00 0. -1.
         11    1    3    3    0    0 -0.79928913737E+01  0.14934999294E+02  0.10219464615E+02  0.19783275101E+02  0.51100000000E-03 0.  1.
        -11    1    3    3    0    0 -0.36083540610E+01  0.21680873895E+02 -0.16253658117E+01  0.22039109015E+02  0.51100000000E-03 0. -1.
         12    1    3    3    0    0 -0.59361917755E+01 -0.14936300833E+02  0.68705143432E+01  0.17479571583E+02  0.00000000000E+00 0. -1.
</event>
<event>
 7    1  0.6230310E-012  0.5930214E+02  0.7816164E-02  0.1266604E+00
        -11   -1    0    0    0    0  0.00000000000E+00  0.00000000000E+00  0.45593999997E+02  0.45594000000E+02  0.51100000000E-03 0. -1.
         11   -1    0    0    0    0 -0.00000000000E+00 -0.00000000000E+00 -0.45593999997E+02  0.45594000000E+02  0.51100000000E-03 0.  1.
    9900012    2    1    2    0    0  0.23497440018E+02  0.11296008561E+00 -0.21553789647E+02  0.59302136431E+02  0.50000350897E+02 0.  0.
         12    1    1    2    0    0 -0.23497440018E+02 -0.11296008561E+00  0.21553789647E+02  0.31885863569E+02  0.00000000000E+00 0. -1.
         11    1    3    3    0    0  0.14602990781E+02  0.12300478843E+02  0.54091118400E+01  0.19844586432E+02  0.51100000000E-03 0. -1.
        -11    1    3    3    0    0  0.12864945634E+02  0.15166599449E+01 -0.64510857956E+01  0.14471475107E+02  0.51100000000E-03 0.  1.
        -12    1    3    3    0    0 -0.39704963975E+01 -0.13704178702E+02 -0.20511815692E+02  0.24986074892E+02  0.00000000000E+00 0.  1.
</event>
<event>
 7    1  0.6230310E-012  0.5930192E+02  0.7816164E-02  0.1266605E+00
        -11   -1    0    0    0    0  0.00000000000E+00  0.00000000000E+00  0.45593999997E+02  0.45594000000E+02  0.51100000000E-03 0. -1.
         11   -1    0    0    0    0 -0.00000000000E+00 -0.00000000000E+00 -0.45593999997E+02  0.45594000000E+02  0.51100000000E-03 0.  1.
    9900012    2    1    2    0    0  0.20077920276E+02 -0.22425593090E+02  0.10521037500E+02  0.59301916231E+02  0.49999949305E+02 0.  0.
         12    1    1    2    0    0 -0.20077920276E+02  0.22425593090E+02 -0.10521037500E+02  0.31886083769E+02  0.00000000000E+00 0. -1.
         11    1    3    3    0    0 -0.55363471890E+01  0.18067127719E+01  0.13397318321E+02  0.14608336308E+02  0.51100000000E-03 0. -1.
        -11    1    3    3    0    0  0.55799618089E+00  0.20914652109E+01 -0.77311894238E+01  0.80285040098E+01  0.51100000000E-03 0.  1.
         12    1    3    3    0    0  0.25056271284E+02 -0.26323771073E+02  0.48549086029E+01  0.36665075913E+02  0.00000000000E+00 0. -1.
</event>
<event>
 7    1  0.6230310E-012  0.5930194E+02  0.7816164E-02  0.1266605E+00
        -11   -1    0    0    0    0  0.00000000000E+00  0.00000000000E+00  0.45593999997E+02  0.45594000000E+02  0.51100000000E-03 0. -1.
         11   -1    0    0    0    0 -0.00000000000E+00 -0.00000000000E+00 -0.45593999997E+02  0.45594000000E+02  0.51100000000E-03 0.  1.
    9900012    2    1    2    0    0 -0.21846479231E+02 -0.22822640921E+02 -0.43103626683E+01  0.59301940040E+02  0.49999992728E+02 0.  0.
         12    1    1    2    0    0  0.21846479231E+02  0.22822640921E+02  0.43103626683E+01  0.31886059960E+02  0.00000000000E+00 0. -1.
         11    1    3    3    0    0  0.56880594914E+01  0.24904370871E+01  0.54887821321E+01  0.82875223811E+01  0.51100000000E-03 0.  1.
        -11    1    3    3    0    0  0.23604608786E+01 -0.17259080280E+02 -0.99339725710E+01  0.20053215178E+02  0.51100000000E-03 0. -1.
        -12    1    3    3    0    0 -0.29894999601E+02 -0.80539977281E+01  0.13482777062E+00  0.30961202481E+02  0.00000000000E+00 0.  1.
</event>
<event>
 7    1  0.6230310E-012  0.5930194E+02  0.7816164E-02  0.1266605E+00
        -11   -1    0    0    0    0  0.00000000000E+00  0.00000000000E+00  0.45593999997E+02  0.45594000000E+02  0.51100000000E-03 0. -1.
         11   -1    0    0    0    0 -0.00000000000E+00 -0.00000000000E+00 -0.45593999997E+02  0.45594000000E+02  0.51100000000E-03 0.  1.
    9900012    2    1    2    0    0 -0.25401176862E+02 -0.18640659256E+02 -0.49016988928E+01  0.59301943243E+02  0.49999998570E+02 0.  0.
         12    1    1    2    0    0  0.25401176862E+02  0.18640659256E+02  0.49016988928E+01  0.31886056757E+02  0.00000000000E+00 0. -1.
         11    1    3    3    0    0  0.55209782483E+01 -0.15481653754E+02 -0.76044766104E+01  0.18110518174E+02  0.51100000000E-03 0. -1.
        -11    1    3    3    0    0 -0.12490392463E+02 -0.10017397726E+02 -0.89390771264E+01  0.18337536945E+02  0.51100000000E-03 0.  1.
        -12    1    3    3    0    0 -0.18431762647E+02  0.68583922238E+01  0.11641854844E+02  0.22853888124E+02  0.00000000000E+00 0.  1.
</event>
<event>
 7    1  0.6230310E-012  0.5930195E+02  0.7816164E-02  0.1266605E+00
        -11   -1    0    0    0    0  0.00000000000E+00  0.00000000000E+00  0.45593999997E+02  0.45594000000E+02  0.51100000000E-03 0.  1.
         11   -1    0    0    0    0 -0.00000000000E+00 -0.00000000000E+00 -0.45593999997E+02  0.45594000000E+02  0.51100000000E-03 0. -1.
    9900012    2    1    2    0    0  0.13243683993E+02  0.27716968518E+02 -0.85495526814E+01  0.59301947240E+02  0.50000005859E+02 0.  0.
         12    1    1    2    0    0 -0.13243683993E+02 -0.27716968518E+02  0.85495526814E+01  0.31886052760E+02  0.00000000000E+00 0. -1.
         11    1    3    3    0    0  0.80935626219E+01 -0.79957062334E+01 -0.97486256769E+01  0.14982415591E+02  0.51100000000E-03 0. -1.
        -11    1    3    3    0    0  0.96112940420E+01  0.23045509829E+01  0.36253744460E+01  0.10527643066E+02  0.51100000000E-03 0.  1.
        -12    1    3    3    0    0 -0.44611726705E+01  0.33408123768E+02 -0.24263014505E+01  0.33791888584E+02  0.00000000000E+00 0.  1.
</event>
<event>
 7    1  0.6230310E-012  0.5930193E+02  0.7816164E-02  0.1266605E+00
        -11   -1    0    0    0    0  0.00000000000E+00  0.00000000000E+00  0.45593999997E+02  0.45594000000E+02  0.51100000000E-03 0. -1.
         11   -1    0    0    0    0 -0.00000000000E+00 -0.00000000000E+00 -0.45593999997E+02  0.45594000000E+02  0.51100000000E-03 0.  1.
    9900012    2    1    2    0    0  0.30401413353E+00  0.29729586226E+02 -0.11523043273E+02  0.59301933324E+02  0.49999980480E+02 0.  0.
         12    1    1    2    0    0 -0.30401413353E+00 -0.29729586226E+02  0.11523043273E+02  0.31886066676E+02  0.00000000000E+00 0. -1.
         11    1    3    3    0    0  0.82848055465E+01  0.23504728534E+02 -0.12698510808E+02  0.27970742632E+02  0.51100000000E-03 0. -1.
        -11    1    3    3    0    0  0.33292123198E+01  0.99194358706E+01  0.11521778847E+02  0.15563747965E+02  0.51100000000E-03 0.  1.
         12    1    3    3    0    0 -0.11310003733E+02 -0.36945781789E+01 -0.10346311313E+02  0.15767442727E+02  0.00000000000E+00 0. -1.
</event>
<event>
 7    1  0.6230310E-012  0.5930220E+02  0.7816164E-02  0.1266604E+00
        -11   -1    0    0    0    0  0.00000000000E+00  0.00000000000E+00  0.45593999997E+02  0.45594000000E+02  0.51100000000E-03 0.  1.
         11   -1    0    0    0    0 -0.00000000000E+00 -0.00000000000E+00 -0.45593999997E+02  0.45594000000E+02  0.51100000000E-03 0. -1.
    9900012    2    1    2    0    0  0.17347835139E+02  0.26748333300E+02 -0.53244881395E+00  0.59302200338E+02  0.50000467446E+02 0.  0.
         12    1    1    2    0    0 -0.17347835139E+02 -0.26748333300E+02  0.53244881395E+00  0.31885799662E+02  0.00000000000E+00 0. -1.
         11    1    3    3    0    0  0.25521651362E+01  0.12554242323E+02 -0.51168633798E+01  0.13795101967E+02  0.51100000000E-03 0. -1.
        -11    1    3    3    0    0  0.42761923459E+01  0.27377290994E+02  0.67037560668E+01  0.28508634285E+02  0.51100000000E-03 0.  1.
         12    1    3    3    0    0  0.10519477657E+02 -0.13183200017E+02 -0.21193415009E+01  0.16998464085E+02  0.00000000000E+00 0. -1.
</event>
<event>
 7    1  0.6230310E-012  0.5930193E+02  0.7816164E-02  0.1266605E+00
        -11   -1    0    0    0    0  0.00000000000E+00  0.00000000000E+00  0.45593999997E+02  0.45594000000E+02  0.51100000000E-03 0. -1.
         11   -1    0    0    0    0 -0.00000000000E+00 -0.00000000000E+00 -0.45593999997E+02  0.45594000000E+02  0.51100000000E-03 0.  1.
    9900012    2    1    2    0    0 -0.77344349255E+01  0.16532516173E+02 -0.26145278820E+02  0.59301934404E+02  0.49999982449E+02 0.  0.
         12    1    1    2    0    0  0.77344349255E+01 -0.16532516173E+02  0.26145278820E+02  0.31886065596E+02  0.00000000000E+00 0. -1.
         11    1    3    3    0    0 -0.12345378774E+02  0.89896186224E+01  0.13246520807E+01  0.15328937453E+02  0.51100000000E-03 0. -1.
        -11    1    3    3    0    0 -0.10953047255E+02  0.23791785374E+01  0.85788972757E+00  0.11241250363E+02  0.51100000000E-03 0.  1.
        -12    1    3    3    0    0  0.15563991104E+02  0.51637190130E+01 -0.28327820628E+02  0.32731746587E+02  0.00000000000E+00 0.  1.
</event>
<event>
 7    1  0.6230310E-012  0.5930195E+02  0.7816164E-02  0.1266605E+00
        -11   -1    0    0    0    0  0.00000000000E+00  0.00000000000E+00  0.45593999997E+02  0.45594000000E+02  0.51100000000E-03 0. -1.
         11   -1    0    0    0    0 -0.00000000000E+00 -0.00000000000E+00 -0.45593999997E+02  0.45594000000E+02  0.51100000000E-03 0.  1.
    9900012    2    1    2    0    0  0.19706865751E+02 -0.14859114448E+02 -0.20188273240E+02  0.59301949503E+02  0.50000009985E+02 0.  0.
         12    1    1    2    0    0 -0.19706865751E+02  0.14859114448E+02  0.20188273240E+02  0.31886050497E+02  0.00000000000E+00 0. -1.
         11    1    3    3    0    0  0.19746082615E+01 -0.23243354911E+02 -0.14272273455E+01  0.23370699678E+02  0.51100000000E-03 0. -1.
        -11    1    3    3    0    0 -0.97545037777E+00 -0.57995590590E+01 -0.84377136973E+01  0.10285008576E+02  0.51100000000E-03 0.  1.
        -12    1    3    3    0    0  0.18707707867E+02  0.14183799521E+02 -0.10323332197E+02  0.25646241248E+02  0.00000000000E+00 0.  1.
</event>
<event>
 7    1  0.6230310E-012  0.5930192E+02  0.7816164E-02  0.1266605E+00
        -11   -1    0    0    0    0  0.00000000000E+00  0.00000000000E+00  0.45593999997E+02  0.45594000000E+02  0.51100000000E-03 0.  1.
         11   -1    0    0    0    0 -0.00000000000E+00 -0.00000000000E+00 -0.45593999997E+02  0.45594000000E+02  0.51100000000E-03 0. -1.
    9900012    2    1    2    0    0 -0.60490273796E+01  0.30554325353E+02  0.68238083364E+01  0.59301923254E+02  0.49999962114E+02 0.  0.
         12    1    1    2    0    0  0.60490273796E+01 -0.30554325353E+02 -0.68238083364E+01  0.31886076746E+02  0.00000000000E+00 0. -1.
         11    1    3    3    0    0 -0.37181421186E+01  0.11939525512E+02  0.19512466791E+02  0.23175703027E+02  0.51100000000E-03 0. -1.
        -11    1    3    3    0    0 -0.14249208394E+02  0.15151200072E+02 -0.45695059835E+01  0.21295050803E+02  0.51100000000E-03 0.  1.
         12    1    3    3    0    0  0.11918323133E+02  0.34635997689E+01 -0.81191524709E+01  0.14831169425E+02  0.00000000000E+00 0. -1.
</event>
<event>
 7    1  0.6230310E-012  0.5930193E+02  0.7816164E-02  0.1266605E+00
        -11   -1    0    0    0    0  0.00000000000E+00  0.00000000000E+00  0.45593999997E+02  0.45594000000E+02  0.51100000000E-03 0.  1.
         11   -1    0    0    0    0 -0.00000000000E+00 -0.00000000000E+00 -0.45593999997E+02  0.45594000000E+02  0.51100000000E-03 0. -1.
    9900012    2    1    2    0    0 -0.92919808371E+01  0.11121702568E+02  0.28402262137E+02  0.59301926701E+02  0.49999968401E+02 0.  0.
         12    1    1    2    0    0  0.92919808371E+01 -0.11121702568E+02 -0.28402262137E+02  0.31886073299E+02  0.00000000000E+00 0. -1.
         11    1    3    3    0    0 -0.28975253371E+01  0.10962359693E+02 -0.11788958261E+01  0.11399946436E+02  0.51100000000E-03 0. -1.
        -11    1    3    3    0    0 -0.18601518655E+02  0.78930391154E+01  0.26153572746E+02  0.33050354467E+02  0.51100000000E-03 0.  1.
         12    1    3    3    0    0  0.12207063155E+02 -0.77336962408E+01  0.34275852171E+01  0.14851625798E+02  0.00000000000E+00 0. -1.
</event>
<event>
 7    1  0.6230310E-012  0.5930198E+02  0.7816164E-02  0.1266605E+00
        -11   -1    0    0    0    0  0.00000000000E+00  0.00000000000E+00  0.45593999997E+02  0.45594000000E+02  0.51100000000E-03 0.  1.
         11   -1    0    0    0    0 -0.00000000000E+00 -0.00000000000E+00 -0.45593999997E+02  0.45594000000E+02  0.51100000000E-03 0. -1.
    9900012    2    1    2    0    0 -0.27010094896E+02 -0.40151830723E+01  0.16463644558E+02  0.59301976204E+02  0.50000058681E+02 0.  0.
         12    1    1    2    0    0  0.27010094896E+02  0.40151830723E+01 -0.16463644558E+02  0.31886023796E+02  0.00000000000E+00 0. -1.
         11    1    3    3    0    0  0.57765617201E+00 -0.17267652440E+02  0.79250680809E+01  0.19008214324E+02  0.51100000000E-03 0. -1.
        -11    1    3    3    0    0 -0.22455109718E+02  0.39015299649E+01  0.15494112795E+02  0.27559416178E+02  0.51100000000E-03 0.  1.
        -12    1    3    3    0    0 -0.51326413506E+01  0.93509394032E+01 -0.69555363186E+01  0.12734345701E+02  0.00000000000E+00 0.  1.
</event>
<event>
 7    1  0.6230310E-012  0.5930188E+02  0.7816164E-02  0.1266605E+00
        -11   -1    0    0    0    0  0.00000000000E+00  0.00000000000E+00  0.45593999997E+02  0.45594000000E+02  0.51100000000E-03 0.  1.
         11   -1    0    0    0    0 -0.00000000000E+00 -0.00000000000E+00 -0.45593999997E+02  0.45594000000E+02  0.51100000000E-03 0. -1.
    9900012    2    1    2    0    0  0.87933356224E+01 -0.22573412884E+02  0.20732661230E+02  0.59301875083E+02  0.49999874261E+02 0.  0.
         12    1    1    2    0    0 -0.87933356224E+01  0.22573412884E+02 -0.20732661230E+02  0.31886124917E+02  0.00000000000E+00 0. -1.
         11    1    3    3    0    0 -0.11772904950E+02 -0.15394681094E+02  0.23360070760E+02  0.30352765988E+02  0.51100000000E-03 0. -1.
        -11    1    3    3    0    0  0.68615860914E+01 -0.71352274896E+01  0.70664064298E+01  0.12162521741E+02  0.51100000000E-03 0.  1.
         12    1    3    3    0    0  0.13704654481E+02 -0.43504299731E-01 -0.96938159604E+01  0.16786587353E+02  0.00000000000E+00 0. -1.
</event>
<event>
 7    1  0.6230310E-012  0.5930195E+02  0.7816164E-02  0.1266605E+00
        -11   -1    0    0    0    0  0.00000000000E+00  0.00000000000E+00  0.45593999997E+02  0.45594000000E+02  0.51100000000E-03 0.  1.
         11   -1    0    0    0    0 -0.00000000000E+00 -0.00000000000E+00 -0.45593999997E+02  0.45594000000E+02  0.51100000000E-03 0. -1.
    9900012    2    1    2    0    0  0.20344489248E+02  0.18935498139E+02  0.15629109525E+02  0.59301946668E+02  0.50000004815E+02 0.  0.
         12    1    1    2    0    0 -0.20344489248E+02 -0.18935498139E+02 -0.15629109525E+02  0.31886053332E+02  0.00000000000E+00 0. -1.
         11    1    3    3    0    0  0.29498318626E+01 -0.11081829979E+02 -0.39765659714E+01  0.12137608532E+02  0.51100000000E-03 0. -1.
        -11    1    3    3    0    0 -0.30593816201E+01  0.56872066227E+01 -0.39783444616E+01  0.75849429782E+01  0.51100000000E-03 0.  1.
        -12    1    3    3    0    0  0.20454039006E+02  0.24330121495E+02  0.23584019959E+02  0.39579395157E+02  0.00000000000E+00 0.  1.
</event>
<event>
 7    1  0.6230310E-012  0.5930195E+02  0.7816164E-02  0.1266605E+00
        -11   -1    0    0    0    0  0.00000000000E+00  0.00000000000E+00  0.45593999997E+02  0.45594000000E+02  0.51100000000E-03 0.  1.
         11   -1    0    0    0    0 -0.00000000000E+00 -0.00000000000E+00 -0.45593999997E+02  0.45594000000E+02  0.51100000000E-03 0. -1.
    9900012    2    1    2    0    0  0.38309939450E+01 -0.31651326845E+02 -0.48707138997E+00  0.59301949065E+02  0.50000009187E+02 0.  0.
         12    1    1    2    0    0 -0.38309939450E+01  0.31651326845E+02  0.48707138997E+00  0.31886050935E+02  0.00000000000E+00 0. -1.
         11    1    3    3    0    0  0.90844196335E+01 -0.21103385168E+02 -0.12002739212E+02  0.25921907617E+02  0.51100000000E-03 0. -1.
        -11    1    3    3    0    0 -0.12693260254E+02 -0.13122088948E+02 -0.13395009179E+01  0.18305800643E+02  0.51100000000E-03 0.  1.
        -12    1    3    3    0    0  0.74398345653E+01  0.25741472701E+01  0.12855168740E+02  0.15074240805E+02  0.00000000000E+00 0.  1.
</event>
<event>
 7    1  0.6230310E-012  0.5930196E+02  0.7816164E-02  0.1266605E+00
        -11   -1    0    0    0    0  0.00000000000E+00  0.00000000000E+00  0.45593999997E+02  0.45594000000E+02  0.51100000000E-03 0.  1.
         11   -1    0    0    0    0 -0.00000000000E+00 -0.00000000000E+00 -0.45593999997E+02  0.45594000000E+02  0.51100000000E-03 0. -1.
    9900012    2    1    2    0    0  0.16909738944E+02 -0.19484284990E+02  0.18738807332E+02  0.59301960219E+02  0.50000029528E+02 0.  0.
         12    1    1    2    0    0 -0.16909738944E+02  0.19484284990E+02 -0.18738807332E+02  0.31886039781E+02  0.00000000000E+00 0. -1.
         11    1    3    3    0    0 -0.44419351036E+01  0.12026022013E+00 -0.51879618226E+01  0.68308270450E+01  0.51100000000E-03 0. -1.
        -11    1    3    3    0    0 -0.80527632316E+01 -0.38906377030E+01  0.15799239382E+02  0.18154889774E+02  0.51100000000E-03 0.  1.
        -12    1    3    3    0    0  0.29404437279E+02 -0.15713907507E+02  0.81275297719E+01  0.34316243399E+02  0.00000000000E+00 0.  1.
</event>
<event>
 7    1  0.6230310E-012  0.5930196E+02  0.7816164E-02  0.1266605E+00
        -11   -1    0    0    0    0  0.00000000000E+00  0.00000000000E+00  0.45593999997E+02  0.45594000000E+02  0.51100000000E-03 0. -1.
         11   -1    0    0    0    0 -0.00000000000E+00 -0.00000000000E+00 -0.45593999997E+02  0.45594000000E+02  0.51100000000E-03 0.  1.
    9900012    2    1    2    0    0  0.23718662226E+02  0.53146373222E+01 -0.20637331549E+02  0.59301956640E+02  0.50000023002E+02 0.  0.
         12    1    1    2    0    0 -0.23718662226E+02 -0.53146373222E+01  0.20637331549E+02  0.31886043360E+02  0.00000000000E+00 0. -1.
         11    1    3    3    0    0  0.17158402959E+01  0.77446419329E+01 -0.47088287340E+01  0.92247848158E+01  0.51100000000E-03 0. -1.
        -11    1    3    3    0    0  0.12953739508E+02  0.57655471722E+01  0.12649016849E+02  0.19001013892E+02  0.51100000000E-03 0.  1.
        -12    1    3    3    0    0  0.90490824226E+01 -0.81955517829E+01 -0.28577519663E+02  0.31076157932E+02  0.00000000000E+00 0.  1.
</event>
<event>
 7    1  0.6230310E-012  0.5930205E+02  0.7816164E-02  0.1266604E+00
        -11   -1    0    0    0    0  0.00000000000E+00  0.00000000000E+00  0.45593999997E+02  0.45594000000E+02  0.51100000000E-03 0.  1.
         11   -1    0    0    0    0 -0.00000000000E+00 -0.00000000000E+00 -0.45593999997E+02  0.45594000000E+02  0.51100000000E-03 0. -1.
    9900012    2    1    2    0    0  0.23823006101E+02 -0.39209559595E+01  0.20827970061E+02  0.59302049298E+02  0.50000191987E+02 0.  0.
         12    1    1    2    0    0 -0.23823006101E+02  0.39209559595E+01 -0.20827970061E+02  0.31885950702E+02  0.00000000000E+00 0. -1.
         11    1    3    3    0    0 -0.45165571496E+01 -0.10705361276E+02  0.16035406136E+02  0.19802482136E+02  0.51100000000E-03 0. -1.
        -11    1    3    3    0    0  0.21438199103E+01  0.47122699024E+01  0.11298928507E+02  0.12428484908E+02  0.51100000000E-03 0.  1.
        -12    1    3    3    0    0  0.26195743340E+02  0.20721354142E+01 -0.65063645824E+01  0.27071082254E+02  0.00000000000E+00 0.  1.
</event>
<event>
 7    1  0.6230310E-012  0.5930190E+02  0.7816164E-02  0.1266605E+00
        -11   -1    0    0    0    0  0.00000000000E+00  0.00000000000E+00  0.45593999997E+02  0.45594000000E+02  0.51100000000E-03 0.  1.
         11   -1    0    0    0    0 -0.00000000000E+00 -0.00000000000E+00 -0.45593999997E+02  0.45594000000E+02  0.51100000000E-03 0. -1.
    9900012    2    1    2    0    0 -0.92878185252E+01 -0.51409329840E+01  0.30067103909E+02  0.59301897975E+02  0.49999916010E+02 0.  0.
         12    1    1    2    0    0  0.92878185252E+01  0.51409329840E+01 -0.30067103909E+02  0.31886102025E+02  0.00000000000E+00 0. -1.
         11    1    3    3    0    0 -0.97605205824E+00  0.10536208572E+02  0.58442723609E+00  0.10597448945E+02  0.51100000000E-03 0. -1.
        -11    1    3    3    0    0 -0.61852131358E+01  0.10465538439E+02  0.62673945623E+01  0.13677155816E+02  0.51100000000E-03 0.  1.
        -12    1    3    3    0    0 -0.21265533311E+01 -0.26142679995E+02  0.23215282110E+02  0.35027293213E+02  0.00000000000E+00 0.  1.
</event>
<event>
 7    1  0.6230310E-012  0.5930198E+02  0.7816164E-02  0.1266605E+00
        -11   -1    0    0    0    0  0.00000000000E+00  0.00000000000E+00  0.45593999997E+02  0.45594000000E+02  0.51100000000E-03 0.  1.
         11   -1    0    0    0    0 -0.00000000000E+00 -0.00000000000E+00 -0.45593999997E+02  0.45594000000E+02  0.51100000000E-03 0. -1.
    9900012    2    1    2    0    0 -0.31699094627E+02  0.34434143521E+01  0.16875568049E+00  0.59301981417E+02  0.50000068190E+02 0.  0.
         12    1    1    2    0    0  0.31699094627E+02 -0.34434143521E+01 -0.16875568049E+00  0.31886018583E+02  0.00000000000E+00 0. -1.
         11    1    3    3    0    0 -0.10757441051E+02  0.12233467936E+02  0.26045145937E+00  0.16292578400E+02  0.51100000000E-03 0. -1.
        -11    1    3    3    0    0  0.86544346179E+01  0.67920297481E+00 -0.70295639551E+01  0.11170287592E+02  0.51100000000E-03 0.  1.
        -12    1    3    3    0    0 -0.29596088194E+02 -0.94692565590E+01  0.69378681763E+01  0.31839115425E+02  0.00000000000E+00 0.  1.
</event>
<event>
 7    1  0.6230310E-012  0.5930197E+02  0.7816164E-02  0.1266605E+00
        -11   -1    0    0    0    0  0.00000000000E+00  0.00000000000E+00  0.45593999997E+02  0.45594000000E+02  0.51100000000E-03 0.  1.
         11   -1    0    0    0    0 -0.00000000000E+00 -0.00000000000E+00 -0.45593999997E+02  0.45594000000E+02  0.51100000000E-03 0. -1.
    9900012    2    1    2    0    0  0.15431873619E+02 -0.12583436336E+02  0.24904481159E+02  0.59301972101E+02  0.50000051198E+02 0.  0.
         12    1    1    2    0    0 -0.15431873619E+02  0.12583436336E+02 -0.24904481159E+02  0.31886027899E+02  0.00000000000E+00 0. -1.
         11    1    3    3    0    0  0.10989651077E+02 -0.12119481014E+02  0.24256999516E+02  0.29258439409E+02  0.51100000000E-03 0.  1.
        -11    1    3    3    0    0  0.68875526582E+01  0.10600618894E+02 -0.87066698155E+01  0.15349840458E+02  0.51100000000E-03 0. -1.
         12    1    3    3    0    0 -0.24453301172E+01 -0.11064574215E+02  0.93541514584E+01  0.14693692234E+02  0.00000000000E+00 0. -1.
</event>
<event>
 7    1  0.6230310E-012  0.5930196E+02  0.7816164E-02  0.1266605E+00
        -11   -1    0    0    0    0  0.00000000000E+00  0.00000000000E+00  0.45593999997E+02  0.45594000000E+02  0.51100000000E-03 0. -1.
         11   -1    0    0    0    0 -0.00000000000E+00 -0.00000000000E+00 -0.45593999997E+02  0.45594000000E+02  0.51100000000E-03 0.  1.
    9900012    2    1    2    0    0 -0.23122838705E+02 -0.18556700639E+02 -0.11734690637E+02  0.59301956458E+02  0.50000022670E+02 0.  0.
         12    1    1    2    0    0  0.23122838705E+02  0.18556700639E+02  0.11734690637E+02  0.31886043542E+02  0.00000000000E+00 0. -1.
         11    1    3    3    0    0 -0.10319417981E+02 -0.29814805458E+01 -0.25267843640E+01  0.11034684100E+02  0.51100000000E-03 0. -1.
        -11    1    3    3    0    0 -0.18532384778E+02  0.91425287910E+01 -0.98365160919E+01  0.22886506228E+02  0.51100000000E-03 0.  1.
         12    1    3    3    0    0  0.57289640531E+01 -0.24717748884E+02  0.62860981865E+00  0.25380766130E+02  0.00000000000E+00 0. -1.
</event>
<event>
 7    1  0.6230310E-012  0.5930197E+02  0.7816164E-02  0.1266605E+00
        -11   -1    0    0    0    0  0.00000000000E+00  0.00000000000E+00  0.45593999997E+02  0.45594000000E+02  0.51100000000E-03 0. -1.
         11   -1    0    0    0    0 -0.00000000000E+00 -0.00000000000E+00 -0.45593999997E+02  0.45594000000E+02  0.51100000000E-03 0.  1.
    9900012    2    1    2    0    0  0.17512516878E+02 -0.13927585149E+02 -0.22716798301E+02  0.59301971704E+02  0.50000050475E+02 0.  0.
         12    1    1    2    0    0 -0.17512516878E+02  0.13927585149E+02  0.22716798301E+02  0.31886028296E+02  0.00000000000E+00 0. -1.
         11    1    3    3    0    0 -0.65218719410E+01 -0.13525837108E+02 -0.24744624668E+01  0.15218608604E+02  0.51100000000E-03 0. -1.
        -11    1    3    3    0    0  0.26071488396E+02  0.68992171737E+01 -0.55253422468E+01  0.27529095735E+02  0.51100000000E-03 0.  1.
         12    1    3    3    0    0 -0.20370995772E+01 -0.73009652146E+01 -0.14716993587E+02  0.16554267365E+02  0.00000000000E+00 0. -1.
</event>
<event>
 7    1  0.6230310E-012  0.5930203E+02  0.7816164E-02  0.1266604E+00
        -11   -1    0    0    0    0  0.00000000000E+00  0.00000000000E+00  0.45593999997E+02  0.45594000000E+02  0.51100000000E-03 0.  1.
         11   -1    0    0    0    0 -0.00000000000E+00 -0.00000000000E+00 -0.45593999997E+02  0.45594000000E+02  0.51100000000E-03 0. -1.
    9900012    2    1    2    0    0 -0.16619370868E+02 -0.32251684815E+01  0.27020547992E+02  0.59302027950E+02  0.50000153054E+02 0.  0.
         12    1    1    2    0    0  0.16619370868E+02  0.32251684815E+01 -0.27020547992E+02  0.31885972050E+02  0.00000000000E+00 0. -1.
         11    1    3    3    0    0 -0.20539837804E+02  0.62789809396E+01  0.26776165337E+02  0.34325989702E+02  0.51100000000E-03 0.  1.
        -11    1    3    3    0    0  0.37130414120E+01  0.82546706692E+00  0.10041514116E+02  0.10737787407E+02  0.51100000000E-03 0. -1.
         12    1    3    3    0    0  0.20742552373E+00 -0.10329616488E+02 -0.97971314604E+01  0.14238250840E+02  0.00000000000E+00 0. -1.
</event>
<event>
 7    1  0.6230310E-012  0.5930195E+02  0.7816164E-02  0.1266605E+00
        -11   -1    0    0    0    0  0.00000000000E+00  0.00000000000E+00  0.45593999997E+02  0.45594000000E+02  0.51100000000E-03 0.  1.
         11   -1    0    0    0    0 -0.00000000000E+00 -0.00000000000E+00 -0.45593999997E+02  0.45594000000E+02  0.51100000000E-03 0. -1.
    9900012    2    1    2    0    0 -0.47541903499E+01  0.78947179069E+01  0.30525258591E+02  0.59301948053E+02  0.50000007341E+02 0.  0.
         12    1    1    2    0    0  0.47541903499E+01 -0.78947179069E+01 -0.30525258591E+02  0.31886051947E+02  0.00000000000E+00 0. -1.
         11    1    3    3    0    0 -0.42993483464E+01  0.16388005031E+01 -0.91825794482E+01  0.10270824158E+02  0.51100000000E-03 0. -1.
        -11    1    3    3    0    0  0.46689541902E+01  0.10512828369E+02  0.32269672364E+01  0.11947050320E+02  0.51100000000E-03 0.  1.
         12    1    3    3    0    0 -0.51237961937E+01 -0.42569109654E+01  0.36480870803E+02  0.37084073575E+02  0.00000000000E+00 0. -1.
</event>
<event>
 7    1  0.6230310E-012  0.5930193E+02  0.7816164E-02  0.1266605E+00
        -11   -1    0    0    0    0  0.00000000000E+00  0.00000000000E+00  0.45593999997E+02  0.45594000000E+02  0.51100000000E-03 0. -1.
         11   -1    0    0    0    0 -0.00000000000E+00 -0.00000000000E+00 -0.45593999997E+02  0.45594000000E+02  0.51100000000E-03 0.  1.
    9900012    2    1    2    0    0  0.20139018847E+02  0.21075931561E+02 -0.12920769228E+02  0.59301933314E+02  0.49999980460E+02 0.  0.
         12    1    1    2    0    0 -0.20139018847E+02 -0.21075931561E+02  0.12920769228E+02  0.31886066686E+02  0.00000000000E+00 0. -1.
         11    1    3    3    0    0 -0.31404925499E+01  0.67340968409E+01  0.82204006016E+01  0.11080872711E+02  0.51100000000E-03 0. -1.
        -11    1    3    3    0    0  0.14017254257E+02  0.14706898098E+02 -0.29446380884E+02  0.35775209517E+02  0.51100000000E-03 0.  1.
         12    1    3    3    0    0  0.92622571403E+01 -0.36506337811E+00  0.83052110542E+01  0.12445851086E+02  0.00000000000E+00 0. -1.
</event>
<event>
 7    1  0.6230310E-012  0.5930198E+02  0.7816164E-02  0.1266605E+00
        -11   -1    0    0    0    0  0.00000000000E+00  0.00000000000E+00  0.45593999997E+02  0.45594000000E+02  0.51100000000E-03 0. -1.
         11   -1    0    0    0    0 -0.00000000000E+00 -0.00000000000E+00 -0.45593999997E+02  0.45594000000E+02  0.51100000000E-03 0.  1.
    9900012    2    1    2    0    0  0.25941953499E+02  0.12638768524E+02 -0.13564480639E+02  0.59301975536E+02  0.50000057463E+02 0.  0.
         12    1    1    2    0    0 -0.25941953499E+02 -0.12638768524E+02  0.13564480639E+02  0.31886024464E+02  0.00000000000E+00 0. -1.
         11    1    3    3    0    0  0.24422361772E+01  0.13906994571E+02 -0.24367307794E+01  0.14328526536E+02  0.51100000000E-03 0. -1.
        -11    1    3    3    0    0  0.11805752807E+02  0.15147479675E+02 -0.15100731997E+02  0.24430596533E+02  0.51100000000E-03 0.  1.
        -12    1    3    3    0    0  0.11693964515E+02 -0.16415705722E+02  0.39729821377E+01  0.20542852467E+02  0.00000000000E+00 0.  1.
</event>
<event>
 7    1  0.6230310E-012  0.5930190E+02  0.7816164E-02  0.1266605E+00
        -11   -1    0    0    0    0  0.00000000000E+00  0.00000000000E+00  0.45593999997E+02  0.45594000000E+02  0.51100000000E-03 0.  1.
         11   -1    0    0    0    0 -0.00000000000E+00 -0.00000000000E+00 -0.45593999997E+02  0.45594000000E+02  0.51100000000E-03 0. -1.
    9900012    2    1    2    0    0  0.19713095317E+01 -0.26403730893E+02  0.17767387054E+02  0.59301904142E+02  0.49999927257E+02 0.  0.
         12    1    1    2    0    0 -0.19713095317E+01  0.26403730893E+02 -0.17767387054E+02  0.31886095858E+02  0.00000000000E+00 0. -1.
         11    1    3    3    0    0 -0.97188144465E+01 -0.82121623815E+01  0.58838947796E+01  0.14018387328E+02  0.51100000000E-03 0. -1.
        -11    1    3    3    0    0 -0.22626754814E+01  0.21694033772E+01  0.19266631185E+02  0.19519966414E+02  0.51100000000E-03 0.  1.
         12    1    3    3    0    0  0.13952799460E+02 -0.20360971889E+02 -0.73831389101E+01  0.25763550400E+02  0.00000000000E+00 0. -1.
</event>
<event>
 7    1  0.6230310E-012  0.5930194E+02  0.7816164E-02  0.1266605E+00
        -11   -1    0    0    0    0  0.00000000000E+00  0.00000000000E+00  0.45593999997E+02  0.45594000000E+02  0.51100000000E-03 0.  1.
         11   -1    0    0    0    0 -0.00000000000E+00 -0.00000000000E+00 -0.45593999997E+02  0.45594000000E+02  0.51100000000E-03 0. -1.
    9900012    2    1    2    0    0 -0.16080681134E+02  0.78162909768E+01  0.26401480963E+02  0.59301938666E+02  0.49999990221E+02 0.  0.
         12    1    1    2    0    0  0.16080681134E+02 -0.78162909768E+01 -0.26401480963E+02  0.31886061334E+02  0.00000000000E+00 0. -1.
         11    1    3    3    0    0 -0.27703350685E+01  0.88578346564E+01  0.12048395009E+02  0.15208544103E+02  0.51100000000E-03 0. -1.
        -11    1    3    3    0    0  0.16351188531E+01  0.17667030802E+02  0.64139365860E+01  0.18866270798E+02  0.51100000000E-03 0.  1.
         12    1    3    3    0    0 -0.14945464919E+02 -0.18708574482E+02  0.79391493681E+01  0.25227123765E+02  0.00000000000E+00 0. -1.
</event>
<event>
 7    1  0.6230310E-012  0.5930194E+02  0.7816164E-02  0.1266605E+00
        -11   -1    0    0    0    0  0.00000000000E+00  0.00000000000E+00  0.45593999997E+02  0.45594000000E+02  0.51100000000E-03 0.  1.
         11   -1    0    0    0    0 -0.00000000000E+00 -0.00000000000E+00 -0.45593999997E+02  0.45594000000E+02  0.51100000000E-03 0. -1.
    9900012    2    1    2    0    0  0.29416620593E+01  0.89399818162E+01  0.30465459239E+02  0.59301939453E+02  0.49999991657E+02 0.  0.
         12    1    1    2    0    0 -0.29416620593E+01 -0.89399818162E+01 -0.30465459239E+02  0.31886060547E+02  0.00000000000E+00 0. -1.
         11    1    3    3    0    0  0.24459828064E+01 -0.18236039157E+02  0.54704731418E+01  0.19195364875E+02  0.51100000000E-03 0. -1.
        -11    1    3    3    0    0  0.29441881179E+01  0.13576636431E+02  0.21918451526E+02  0.25950179537E+02  0.51100000000E-03 0.  1.
        -12    1    3    3    0    0 -0.24485088650E+01  0.13599384543E+02  0.30765345719E+01  0.14156395042E+02  0.00000000000E+00 0.  1.
</event>
<event>
 7    1  0.6230310E-012  0.5930187E+02  0.7816164E-02  0.1266605E+00
        -11   -1    0    0    0    0  0.00000000000E+00  0.00000000000E+00  0.45593999997E+02  0.45594000000E+02  0.51100000000E-03 0.  1.
         11   -1    0    0    0    0 -0.00000000000E+00 -0.00000000000E+00 -0.45593999997E+02  0.45594000000E+02  0.51100000000E-03 0. -1.
    9900012    2    1    2    0    0  0.28666831040E+02 -0.13577472225E+02  0.32542947606E+01  0.59301868403E+02  0.49999862078E+02 0.  0.
         12    1    1    2    0    0 -0.28666831040E+02  0.13577472225E+02 -0.32542947606E+01  0.31886131597E+02  0.00000000000E+00 0. -1.
         11    1    3    3    0    0  0.15490227205E+00  0.67643327792E+01  0.42763534952E+01  0.80042109004E+01  0.51100000000E-03 0. -1.
        -11    1    3    3    0    0  0.33347737372E+02 -0.55059210152E+01  0.57545269865E+01  0.34285584947E+02  0.51100000000E-03 0.  1.
         12    1    3    3    0    0 -0.48358086046E+01 -0.14835883989E+02 -0.67765857212E+01  0.17012072555E+02  0.00000000000E+00 0. -1.
</event>
<event>
 7    1  0.6230310E-012  0.5930195E+02  0.7816164E-02  0.1266605E+00
        -11   -1    0    0    0    0  0.00000000000E+00  0.00000000000E+00  0.45593999997E+02  0.45594000000E+02  0.51100000000E-03 0.  1.
         11   -1    0    0    0    0 -0.00000000000E+00 -0.00000000000E+00 -0.45593999997E+02  0.45594000000E+02  0.51100000000E-03 0. -1.
    9900012    2    1    2    0    0  0.34976192550E+01  0.29797790733E+01  0.31553249270E+02  0.59301953471E+02  0.50000017221E+02 0.  0.
         12    1    1    2    0    0 -0.34976192550E+01 -0.29797790733E+01 -0.31553249270E+02  0.31886046529E+02  0.00000000000E+00 0. -1.
         11    1    3    3    0    0 -0.15564694795E+02 -0.37011888236E+01  0.48825068517E+01  0.16727145488E+02  0.51100000000E-03 0. -1.
        -11    1    3    3    0    0 -0.50328499848E+01 -0.20389007205E+00  0.13190847036E+02  0.14119829883E+02  0.51100000000E-03 0.  1.
        -12    1    3    3    0    0  0.24095164035E+02  0.68848579690E+01  0.13479895382E+02  0.28454978099E+02  0.00000000000E+00 0.  1.
</event>
<event>
 7    1  0.6230310E-012  0.5930193E+02  0.7816164E-02  0.1266605E+00
        -11   -1    0    0    0    0  0.00000000000E+00  0.00000000000E+00  0.45593999997E+02  0.45594000000E+02  0.51100000000E-03 0. -1.
         11   -1    0    0    0    0 -0.00000000000E+00 -0.00000000000E+00 -0.45593999997E+02  0.45594000000E+02  0.51100000000E-03 0.  1.
    9900012    2    1    2    0    0 -0.30124617006E+02 -0.10125207915E+02  0.25901339246E+01  0.59301934409E+02  0.49999982458E+02 0.  0.
         12    1    1    2    0    0  0.30124617006E+02  0.10125207915E+02 -0.25901339246E+01  0.31886065591E+02  0.00000000000E+00 0. -1.
         11    1    3    3    0    0 -0.71907496903E+01  0.69721578200E+01  0.62960940002E-01  0.10016078580E+02  0.51100000000E-03 0. -1.
        -11    1    3    3    0    0 -0.20958773308E+02 -0.89256792067E+01 -0.16736612024E+02  0.28267509798E+02  0.51100000000E-03 0.  1.
         12    1    3    3    0    0 -0.19750940083E+01 -0.81716865282E+01  0.19263785009E+02  0.21018346032E+02  0.00000000000E+00 0. -1.
</event>
<event>
 7    1  0.6230310E-012  0.5930188E+02  0.7816164E-02  0.1266605E+00
        -11   -1    0    0    0    0  0.00000000000E+00  0.00000000000E+00  0.45593999997E+02  0.45594000000E+02  0.51100000000E-03 0.  1.
         11   -1    0    0    0    0 -0.00000000000E+00 -0.00000000000E+00 -0.45593999997E+02  0.45594000000E+02  0.51100000000E-03 0. -1.
    9900012    2    1    2    0    0  0.21913888504E+02 -0.22276035313E+02  0.63469845496E+01  0.59301882778E+02  0.49999888294E+02 0.  0.
         12    1    1    2    0    0 -0.21913888504E+02  0.22276035313E+02 -0.63469845496E+01  0.31886117222E+02  0.00000000000E+00 0. -1.
         11    1    3    3    0    0 -0.34798984414E+01 -0.19849040127E+01 -0.71584413747E+01  0.82032201164E+01  0.51100000000E-03 0. -1.
        -11    1    3    3    0    0  0.83972914278E+01 -0.24673486775E+02 -0.39305677991E+01  0.26358012376E+02  0.51100000000E-03 0.  1.
         12    1    3    3    0    0  0.16996495518E+02  0.43823554742E+01  0.17435993723E+02  0.24740650285E+02  0.00000000000E+00 0. -1.
</event>
<event>
 7    1  0.6230310E-012  0.5930203E+02  0.7816164E-02  0.1266604E+00
        -11   -1    0    0    0    0  0.00000000000E+00  0.00000000000E+00  0.45593999997E+02  0.45594000000E+02  0.51100000000E-03 0. -1.
         11   -1    0    0    0    0 -0.00000000000E+00 -0.00000000000E+00 -0.45593999997E+02  0.45594000000E+02  0.51100000000E-03 0.  1.
    9900012    2    1    2    0    0  0.68928452138E+01 -0.10594884794E+02 -0.29273743160E+02  0.59302032279E+02  0.50000160949E+02 0.  0.
         12    1    1    2    0    0 -0.68928452138E+01  0.10594884794E+02  0.29273743160E+02  0.31885967721E+02  0.00000000000E+00 0. -1.
         11    1    3    3    0    0 -0.21473981971E+01  0.34960468712E+01 -0.26020824474E+01  0.48584458489E+01  0.51100000000E-03 0. -1.
        -11    1    3    3    0    0 -0.15234713256E+01 -0.47175137178E+01 -0.36756760823E+02  0.37089558733E+02  0.51100000000E-03 0.  1.
        -12    1    3    3    0    0  0.10563714737E+02 -0.93734179473E+01  0.10085100111E+02  0.17354027697E+02  0.00000000000E+00 0.  1.
</event>
<event>
 7    1  0.6230310E-012  0.5930195E+02  0.7816164E-02  0.1266605E+00
        -11   -1    0    0    0    0  0.00000000000E+00  0.00000000000E+00  0.45593999997E+02  0.45594000000E+02  0.51100000000E-03 0.  1.
         11   -1    0    0    0    0 -0.00000000000E+00 -0.00000000000E+00 -0.45593999997E+02  0.45594000000E+02  0.51100000000E-03 0. -1.
    9900012    2    1    2    0    0  0.12170008829E+02  0.12818015096E+02  0.26538833894E+02  0.59301947714E+02  0.50000006723E+02 0.  0.
         12    1    1    2    0    0 -0.12170008829E+02 -0.12818015096E+02 -0.26538833894E+02  0.31886052286E+02  0.00000000000E+00 0. -1.
         11    1    3    3    0    0  0.13095124201E+02  0.29982037007E+01  0.17411134852E+02  0.21991341941E+02  0.51100000000E-03 0. -1.
        -11    1    3    3    0    0  0.48898365797E+01  0.16525838710E+02  0.17888122187E+02  0.24839459786E+02  0.51100000000E-03 0.  1.
         12    1    3    3    0    0 -0.58149519516E+01 -0.67060273142E+01 -0.87604231449E+01  0.12471145986E+02  0.00000000000E+00 0. -1.
</event>
<event>
 7    1  0.6230310E-012  0.5930186E+02  0.7816164E-02  0.1266605E+00
        -11   -1    0    0    0    0  0.00000000000E+00  0.00000000000E+00  0.45593999997E+02  0.45594000000E+02  0.51100000000E-03 0.  1.
         11   -1    0    0    0    0 -0.00000000000E+00 -0.00000000000E+00 -0.45593999997E+02  0.45594000000E+02  0.51100000000E-03 0. -1.
    9900012    2    1    2    0    0 -0.11490283079E+01 -0.31826673868E+02  0.15710722102E+01  0.59301863460E+02  0.49999853064E+02 0.  0.
         12    1    1    2    0    0  0.11490283079E+01  0.31826673868E+02 -0.15710722102E+01  0.31886136540E+02  0.00000000000E+00 0. -1.
         11    1    3    3    0    0 -0.75261066462E+01  0.50995752144E+01 -0.91513622559E+01  0.12899433322E+02  0.51100000000E-03 0. -1.
        -11    1    3    3    0    0  0.69768420803E+01  0.11006948771E+01  0.87949850158E+00  0.71176802753E+01  0.51100000000E-03 0.  1.
        -12    1    3    3    0    0 -0.59976374196E+00 -0.38026943959E+02  0.98429359644E+01  0.39284749863E+02  0.00000000000E+00 0.  1.
</event>
<event>
 7    1  0.6230310E-012  0.5930198E+02  0.7816164E-02  0.1266605E+00
        -11   -1    0    0    0    0  0.00000000000E+00  0.00000000000E+00  0.45593999997E+02  0.45594000000E+02  0.51100000000E-03 0.  1.
         11   -1    0    0    0    0 -0.00000000000E+00 -0.00000000000E+00 -0.45593999997E+02  0.45594000000E+02  0.51100000000E-03 0. -1.
    9900012    2    1    2    0    0  0.86318467846E+01  0.30525314072E+02 -0.32272038171E+01  0.59301977630E+02  0.50000061283E+02 0.  0.
         12    1    1    2    0    0 -0.86318467846E+01 -0.30525314072E+02  0.32272038171E+01  0.31886022370E+02  0.00000000000E+00 0. -1.
         11    1    3    3    0    0 -0.76987248332E+00 -0.74138927601E+00  0.54559000503E+01  0.55596049607E+01  0.51100000000E-03 0. -1.
        -11    1    3    3    0    0  0.10513360421E+01  0.22756127779E+02  0.14966678535E+02  0.27257074781E+02  0.51100000000E-03 0.  1.
         12    1    3    3    0    0  0.83503832258E+01  0.85105755686E+01 -0.23649782403E+02  0.26485297888E+02  0.00000000000E+00 0. -1.
</event>
<event>
 7    1  0.6230310E-012  0.5930195E+02  0.7816164E-02  0.1266605E+00
        -11   -1    0    0    0    0  0.00000000000E+00  0.00000000000E+00  0.45593999997E+02  0.45594000000E+02  0.51100000000E-03 0. -1.
         11   -1    0    0    0    0 -0.00000000000E+00 -0.00000000000E+00 -0.45593999997E+02  0.45594000000E+02  0.51100000000E-03 0.  1.
    9900012    2    1    2    0    0 -0.24938980571E+02 -0.12929661487E+02 -0.15086129259E+02  0.59301949851E+02  0.50000010620E+02 0.  0.
         12    1    1    2    0    0  0.24938980571E+02  0.12929661487E+02  0.15086129259E+02  0.31886050149E+02  0.00000000000E+00 0. -1.
         11    1    3    3    0    0 -0.71492150009E+01  0.91234415247E+00 -0.65164669124E+01  0.97163773220E+01  0.51100000000E-03 0. -1.
        -11    1    3    3    0    0 -0.86321221739E+01 -0.22368098886E+02 -0.21055728689E+02  0.31909075384E+02  0.51100000000E-03 0.  1.
         12    1    3    3    0    0 -0.91576433961E+01  0.85260932457E+01  0.12486066342E+02  0.17676497145E+02  0.00000000000E+00 0. -1.
</event>
<event>
 7    1  0.6230310E-012  0.5930193E+02  0.7816164E-02  0.1266605E+00
        -11   -1    0    0    0    0  0.00000000000E+00  0.00000000000E+00  0.45593999997E+02  0.45594000000E+02  0.51100000000E-03 0.  1.
         11   -1    0    0    0    0 -0.00000000000E+00 -0.00000000000E+00 -0.45593999997E+02  0.45594000000E+02  0.51100000000E-03 0. -1.
    9900012    2    1    2    0    0 -0.11626759705E+02 -0.17694571390E+02  0.23842018902E+02  0.59301933086E+02  0.49999980045E+02 0.  0.
         12    1    1    2    0    0  0.11626759705E+02  0.17694571390E+02 -0.23842018902E+02  0.31886066914E+02  0.00000000000E+00 0. -1.
         11    1    3    3    0    0  0.74045372339E+01 -0.11890723610E+02 -0.31060699009E+00  0.14011172563E+02  0.51100000000E-03 0. -1.
        -11    1    3    3    0    0 -0.13439408266E+02 -0.16490586928E+02  0.37670850858E+01  0.21604353313E+02  0.51100000000E-03 0.  1.
        -12    1    3    3    0    0 -0.55918886730E+01  0.10686739148E+02  0.20385540806E+02  0.23686407210E+02  0.00000000000E+00 0.  1.
</event>
<event>
 7    1  0.6230310E-012  0.5930193E+02  0.7816164E-02  0.1266605E+00
        -11   -1    0    0    0    0  0.00000000000E+00  0.00000000000E+00  0.45593999997E+02  0.45594000000E+02  0.51100000000E-03 0.  1.
         11   -1    0    0    0    0 -0.00000000000E+00 -0.00000000000E+00 -0.45593999997E+02  0.45594000000E+02  0.51100000000E-03 0. -1.
    9900012    2    1    2    0    0 -0.52366092247E+01 -0.31444829043E+02  0.72239370267E+00  0.59301934040E+02  0.49999981785E+02 0.  0.
         12    1    1    2    0    0  0.52366092247E+01  0.31444829043E+02 -0.72239370267E+00  0.31886065960E+02  0.00000000000E+00 0. -1.
         11    1    3    3    0    0  0.19438733539E+01  0.97841159291E+00  0.10754559436E+02  0.10972533061E+02  0.51100000000E-03 0. -1.
        -11    1    3    3    0    0  0.52532033825E+01 -0.15284046697E+02  0.10144289727E+02  0.19081531478E+02  0.51100000000E-03 0.  1.
         12    1    3    3    0    0 -0.12433685961E+02 -0.17139193939E+02 -0.20176455459E+02  0.29247869501E+02  0.00000000000E+00 0. -1.
</event>
<event>
 7    1  0.6230310E-012  0.5930192E+02  0.7816164E-02  0.1266605E+00
        -11   -1    0    0    0    0  0.00000000000E+00  0.00000000000E+00  0.45593999997E+02  0.45594000000E+02  0.51100000000E-03 0. -1.
         11   -1    0    0    0    0 -0.00000000000E+00 -0.00000000000E+00 -0.45593999997E+02  0.45594000000E+02  0.51100000000E-03 0.  1.
    9900012    2    1    2    0    0  0.25330001472E+02 -0.10644646977E+02 -0.16180377765E+02  0.59301919832E+02  0.49999955873E+02 0.  0.
         12    1    1    2    0    0 -0.25330001472E+02  0.10644646977E+02  0.16180377765E+02  0.31886080168E+02  0.00000000000E+00 0. -1.
         11    1    3    3    0    0  0.47229259826E+01  0.47374153718E+01 -0.82109464674E+01  0.10590976178E+02  0.51100000000E-03 0. -1.
        -11    1    3    3    0    0 -0.39019069549E+01  0.11222515500E+02 -0.19734130304E+01  0.12044255530E+02  0.51100000000E-03 0.  1.
        -12    1    3    3    0    0  0.24508982445E+02 -0.26604577848E+02 -0.59960182673E+01  0.36666688124E+02  0.00000000000E+00 0.  1.
</event>
<event>
 7    1  0.6230310E-012  0.5930194E+02  0.7816164E-02  0.1266605E+00
        -11   -1    0    0    0    0  0.00000000000E+00  0.00000000000E+00  0.45593999997E+02  0.45594000000E+02  0.51100000000E-03 0.  1.
         11   -1    0    0    0    0 -0.00000000000E+00 -0.00000000000E+00 -0.45593999997E+02  0.45594000000E+02  0.51100000000E-03 0. -1.
    9900012    2    1    2    0    0 -0.13014116000E+02  0.12584298550E+02  0.26248601192E+02  0.59301939570E+02  0.49999991869E+02 0.  0.
         12    1    1    2    0    0  0.13014116000E+02 -0.12584298550E+02 -0.26248601192E+02  0.31886060430E+02  0.00000000000E+00 0. -1.
         11    1    3    3    0    0  0.10852777165E+02  0.10062339536E+02  0.15781980158E+02  0.21635719242E+02  0.51100000000E-03 0. -1.
        -11    1    3    3    0    0 -0.47527729052E+01  0.78568863863E+01  0.14740358748E+02  0.17366568177E+02  0.51100000000E-03 0.  1.
         12    1    3    3    0    0 -0.19114120260E+02 -0.53349273723E+01 -0.42737377145E+01  0.20299652150E+02  0.00000000000E+00 0. -1.
</event>
<event>
 7    1  0.6230310E-012  0.5930170E+02  0.7816164E-02  0.1266606E+00
        -11   -1    0    0    0    0  0.00000000000E+00  0.00000000000E+00  0.45593999997E+02  0.45594000000E+02  0.51100000000E-03 0. -1.
         11   -1    0    0    0    0 -0.00000000000E+00 -0.00000000000E+00 -0.45593999997E+02  0.45594000000E+02  0.51100000000E-03 0.  1.
    9900012    2    1    2    0    0  0.85414084931E+01  0.29809671630E+01 -0.30576041217E+02  0.59301700108E+02  0.49999555147E+02 0.  0.
         12    1    1    2    0    0 -0.85414084931E+01 -0.29809671630E+01  0.30576041217E+02  0.31886299892E+02  0.00000000000E+00 0. -1.
         11    1    3    3    0    0  0.20219912024E+02 -0.35720758030E+01 -0.26542554941E+02  0.33557589169E+02  0.51100000000E-03 0. -1.
        -11    1    3    3    0    0 -0.99995108426E+01 -0.68098111151E+00 -0.11471690537E+02  0.15233306811E+02  0.51100000000E-03 0.  1.
        -12    1    3    3    0    0 -0.16789926887E+01  0.72340240775E+01  0.74382042600E+01  0.10510804128E+02  0.00000000000E+00 0.  1.
</event>
<event>
 7    1  0.6230310E-012  0.5930197E+02  0.7816164E-02  0.1266605E+00
        -11   -1    0    0    0    0  0.00000000000E+00  0.00000000000E+00  0.45593999997E+02  0.45594000000E+02  0.51100000000E-03 0.  1.
         11   -1    0    0    0    0 -0.00000000000E+00 -0.00000000000E+00 -0.45593999997E+02  0.45594000000E+02  0.51100000000E-03 0. -1.
    9900012    2    1    2    0    0 -0.25458643423E+01  0.28216534284E+02  0.14630953364E+02  0.59301968127E+02  0.50000043951E+02 0.  0.
         12    1    1    2    0    0  0.25458643423E+01 -0.28216534284E+02 -0.14630953364E+02  0.31886031873E+02  0.00000000000E+00 0. -1.
         11    1    3    3    0    0  0.10736610820E+01  0.91055181871E+01  0.10228024157E+02  0.13735926907E+02  0.51100000000E-03 0. -1.
        -11    1    3    3    0    0  0.16769536116E+02  0.18442475338E+02  0.31895062519E+01  0.25129965948E+02  0.51100000000E-03 0.  1.
         12    1    3    3    0    0 -0.20389061541E+02  0.66854075896E+00  0.12134229548E+01  0.20436075272E+02  0.00000000000E+00 0. -1.
</event>
<event>
 7    1  0.6230310E-012  0.5930194E+02  0.7816164E-02  0.1266605E+00
        -11   -1    0    0    0    0  0.00000000000E+00  0.00000000000E+00  0.45593999997E+02  0.45594000000E+02  0.51100000000E-03 0.  1.
         11   -1    0    0    0    0 -0.00000000000E+00 -0.00000000000E+00 -0.45593999997E+02  0.45594000000E+02  0.51100000000E-03 0. -1.
    9900012    2    1    2    0    0  0.10605649297E+02  0.27764080087E+02 -0.11549756780E+02  0.59301940009E+02  0.49999992671E+02 0.  0.
         12    1    1    2    0    0 -0.10605649297E+02 -0.27764080087E+02  0.11549756780E+02  0.31886059991E+02  0.00000000000E+00 0. -1.
         11    1    3    3    0    0 -0.18118522101E+01  0.59954791850E+01  0.52149193730E+01  0.81500897797E+01  0.51100000000E-03 0. -1.
        -11    1    3    3    0    0  0.36714232060E+01  0.25157211008E+02  0.63516239526E+01  0.26205109066E+02  0.51100000000E-03 0.  1.
         12    1    3    3    0    0  0.87460783010E+01 -0.33886101064E+01 -0.23116300106E+02  0.24946741163E+02  0.00000000000E+00 0. -1.
</event>
<event>
 7    1  0.6230310E-012  0.5930184E+02  0.7816164E-02  0.1266605E+00
        -11   -1    0    0    0    0  0.00000000000E+00  0.00000000000E+00  0.45593999997E+02  0.45594000000E+02  0.51100000000E-03 0.  1.
         11   -1    0    0    0    0 -0.00000000000E+00 -0.00000000000E+00 -0.45593999997E+02  0.45594000000E+02  0.51100000000E-03 0. -1.
    9900012    2    1    2    0    0 -0.21872338892E+02  0.98547304436E+01  0.21005057320E+02  0.59301837582E+02  0.49999805869E+02 0.  0.
         12    1    1    2    0    0  0.21872338892E+02 -0.98547304436E+01 -0.21005057320E+02  0.31886162418E+02  0.00000000000E+00 0. -1.
         11    1    3    3    0    0  0.13034379000E+00 -0.67209340723E+01 -0.38499450132E+00  0.67332135964E+01  0.51100000000E-03 0. -1.
        -11    1    3    3    0    0 -0.17930594108E+02 -0.75537908669E+01  0.20233542019E+02  0.28070664125E+02  0.51100000000E-03 0.  1.
         12    1    3    3    0    0 -0.40720885743E+01  0.24129455383E+02  0.11565098017E+01  0.24497959861E+02  0.00000000000E+00 0. -1.
</event>
<event>
 7    1  0.6230310E-012  0.5930203E+02  0.7816164E-02  0.1266604E+00
        -11   -1    0    0    0    0  0.00000000000E+00  0.00000000000E+00  0.45593999997E+02  0.45594000000E+02  0.51100000000E-03 0.  1.
         11   -1    0    0    0    0 -0.00000000000E+00 -0.00000000000E+00 -0.45593999997E+02  0.45594000000E+02  0.51100000000E-03 0. -1.
    9900012    2    1    2    0    0 -0.12349527781E+02  0.28202010085E+02  0.82976398093E+01  0.59302030740E+02  0.50000158143E+02 0.  0.
         12    1    1    2    0    0  0.12349527781E+02 -0.28202010085E+02 -0.82976398093E+01  0.31885969260E+02  0.00000000000E+00 0. -1.
         11    1    3    3    0    0  0.12919408166E+02  0.14980466610E+01  0.33217729740E+01  0.13423465540E+02  0.51100000000E-03 0. -1.
        -11    1    3    3    0    0 -0.35132992893E+01 -0.36316027064E+01  0.68373607613E+01  0.85018417155E+01  0.51100000000E-03 0.  1.
         12    1    3    3    0    0 -0.21755636657E+02  0.30335566130E+02 -0.18614939261E+01  0.37376723485E+02  0.00000000000E+00 0. -1.
</event>
<event>
 7    1  0.6230310E-012  0.5930193E+02  0.7816164E-02  0.1266605E+00
        -11   -1    0    0    0    0  0.00000000000E+00  0.00000000000E+00  0.45593999997E+02  0.45594000000E+02  0.51100000000E-03 0.  1.
         11   -1    0    0    0    0 -0.00000000000E+00 -0.00000000000E+00 -0.45593999997E+02  0.45594000000E+02  0.51100000000E-03 0. -1.
    9900012    2    1    2    0    0 -0.75286325743E+01  0.26543444172E+02  0.15983955114E+02  0.59301928463E+02  0.49999971614E+02 0.  0.
         12    1    1    2    0    0  0.75286325743E+01 -0.26543444172E+02 -0.15983955114E+02  0.31886071537E+02  0.00000000000E+00 0. -1.
         11    1    3    3    0    0  0.62064711523E+00  0.14715277084E+02 -0.10152907643E+02  0.17888714777E+02  0.51100000000E-03 0. -1.
        -11    1    3    3    0    0 -0.88421634863E+01  0.20786375241E+02  0.15052868504E+02  0.27144909306E+02  0.51100000000E-03 0.  1.
        -12    1    3    3    0    0  0.69288379670E+00 -0.89582081534E+01  0.11083994254E+02  0.14268304380E+02  0.00000000000E+00 0.  1.
</event>
<event>
 7    1  0.6230310E-012  0.5930198E+02  0.7816164E-02  0.1266605E+00
        -11   -1    0    0    0    0  0.00000000000E+00  0.00000000000E+00  0.45593999997E+02  0.45594000000E+02  0.51100000000E-03 0. -1.
         11   -1    0    0    0    0 -0.00000000000E+00 -0.00000000000E+00 -0.45593999997E+02  0.45594000000E+02  0.51100000000E-03 0.  1.
    9900012    2    1    2    0    0  0.23127490182E+02  0.16653227159E+02 -0.14300618097E+02  0.59301977123E+02  0.50000060359E+02 0.  0.
         12    1    1    2    0    0 -0.23127490182E+02 -0.16653227159E+02  0.14300618097E+02  0.31886022877E+02  0.00000000000E+00 0. -1.
         11    1    3    3    0    0  0.20717342311E+02  0.67265086753E+01 -0.32266212088E+01  0.22019656584E+02  0.51100000000E-03 0.  1.
        -11    1    3    3    0    0  0.68718757665E+00  0.33286863366E+01 -0.23158461929E+02  0.23406553328E+02  0.51100000000E-03 0. -1.
         12    1    3    3    0    0  0.17229602940E+01  0.65980321471E+01  0.12084465041E+02  0.13875767212E+02  0.00000000000E+00 0. -1.
</event>
<event>
 7    1  0.6230310E-012  0.5930190E+02  0.7816164E-02  0.1266605E+00
        -11   -1    0    0    0    0  0.00000000000E+00  0.00000000000E+00  0.45593999997E+02  0.45594000000E+02  0.51100000000E-03 0. -1.
         11   -1    0    0    0    0 -0.00000000000E+00 -0.00000000000E+00 -0.45593999997E+02  0.45594000000E+02  0.51100000000E-03 0.  1.
    9900012    2    1    2    0    0 -0.76255849361E+01  0.61065162671E+01 -0.30352664136E+02  0.59301901043E+02  0.49999921606E+02 0.  0.
         12    1    1    2    0    0  0.76255849361E+01 -0.61065162671E+01  0.30352664136E+02  0.31886098957E+02  0.00000000000E+00 0. -1.
         11    1    3    3    0    0 -0.17463214644E+01 -0.78084738356E+01 -0.19037495001E+02  0.20650620293E+02  0.51100000000E-03 0. -1.
        -11    1    3    3    0    0  0.11280248076E+02  0.10551653479E+02 -0.14137202857E+02  0.20939004100E+02  0.51100000000E-03 0.  1.
         12    1    3    3    0    0 -0.17159511548E+02  0.33633366236E+01  0.28220337220E+01  0.17712276650E+02  0.00000000000E+00 0. -1.
</event>
<event>
 7    1  0.6230310E-012  0.5930184E+02  0.7816164E-02  0.1266605E+00
        -11   -1    0    0    0    0  0.00000000000E+00  0.00000000000E+00  0.45593999997E+02  0.45594000000E+02  0.51100000000E-03 0. -1.
         11   -1    0    0    0    0 -0.00000000000E+00 -0.00000000000E+00 -0.45593999997E+02  0.45594000000E+02  0.51100000000E-03 0.  1.
    9900012    2    1    2    0    0 -0.24452066340E+02 -0.16955158958E+02  0.11460637153E+02  0.59301840502E+02  0.49999811194E+02 0.  0.
         12    1    1    2    0    0  0.24452066340E+02  0.16955158958E+02 -0.11460637153E+02  0.31886159498E+02  0.00000000000E+00 0. -1.
         11    1    3    3    0    0 -0.13680299840E+02 -0.95788930619E+01  0.59803575986E+01  0.17738953556E+02  0.51100000000E-03 0.  1.
        -11    1    3    3    0    0  0.40156331218E+01  0.62221673967E+01  0.16902310680E+02  0.18453421988E+02  0.51100000000E-03 0. -1.
         12    1    3    3    0    0 -0.14787399622E+02 -0.13598433293E+02 -0.11422031126E+02  0.23109464958E+02  0.00000000000E+00 0. -1.
</event>
<event>
 7    1  0.6230310E-012  0.5930194E+02  0.7816164E-02  0.1266605E+00
        -11   -1    0    0    0    0  0.00000000000E+00  0.00000000000E+00  0.45593999997E+02  0.45594000000E+02  0.51100000000E-03 0.  1.
         11   -1    0    0    0    0 -0.00000000000E+00 -0.00000000000E+00 -0.45593999997E+02  0.45594000000E+02  0.51100000000E-03 0. -1.
    9900012    2    1    2    0    0 -0.22045119419E+02  0.99596347143E+01  0.20773519033E+02  0.59301941811E+02  0.49999995957E+02 0.  0.
         12    1    1    2    0    0  0.22045119419E+02 -0.99596347143E+01 -0.20773519033E+02  0.31886058189E+02  0.00000000000E+00 0. -1.
         11    1    3    3    0    0 -0.10636351917E+02  0.94458339245E+01  0.67616212827E+01  0.15750405813E+02  0.51100000000E-03 0. -1.
        -11    1    3    3    0    0 -0.13905351473E+02  0.94715560088E+01  0.24381477047E+02  0.29623058520E+02  0.51100000000E-03 0.  1.
         12    1    3    3    0    0  0.24965839714E+01 -0.89577552189E+01 -0.10369579296E+02  0.13928477478E+02  0.00000000000E+00 0. -1.
</event>
<event>
 7    1  0.6230310E-012  0.5930184E+02  0.7816164E-02  0.1266605E+00
        -11   -1    0    0    0    0  0.00000000000E+00  0.00000000000E+00  0.45593999997E+02  0.45594000000E+02  0.51100000000E-03 0.  1.
         11   -1    0    0    0    0 -0.00000000000E+00 -0.00000000000E+00 -0.45593999997E+02  0.45594000000E+02  0.51100000000E-03 0. -1.
    9900012    2    1    2    0    0  0.22866592126E+02 -0.77420792299E+01  0.20830424873E+02  0.59301836439E+02  0.49999803783E+02 0.  0.
         12    1    1    2    0    0 -0.22866592126E+02  0.77420792299E+01 -0.20830424873E+02  0.31886163561E+02  0.00000000000E+00 0. -1.
         11    1    3    3    0    0  0.14649739499E+02  0.11248640210E+02  0.11249420570E+02  0.21626285798E+02  0.51100000000E-03 0. -1.
        -11    1    3    3    0    0  0.27250591690E+01 -0.68915079915E+01 -0.10948813239E+02  0.13221018927E+02  0.51100000000E-03 0.  1.
        -12    1    3    3    0    0  0.54917934575E+01 -0.12099211448E+02  0.20529817542E+02  0.24454531714E+02  0.00000000000E+00 0.  1.
</event>
<event>
 7    1  0.7112871E-012  0.5930195E+02  0.7816164E-02  0.1266605E+00
        -11   -1    0    0    0    0  0.00000000000E+00  0.00000000000E+00  0.45593999997E+02  0.45594000000E+02  0.51100000000E-03 0. -1.
         11   -1    0    0    0    0 -0.00000000000E+00 -0.00000000000E+00 -0.45593999997E+02  0.45594000000E+02  0.51100000000E-03 0.  1.
    9900012    2    1    2    0    0  0.23766102034E+02  0.10806120118E+02 -0.18306300146E+02  0.59301945636E+02  0.50000002933E+02 0.  0.
         12    1    1    2    0    0 -0.23766102034E+02 -0.10806120118E+02  0.18306300146E+02  0.31886054364E+02  0.00000000000E+00 0. -1.
         11    1    3    3    0    0 -0.23915627325E+01  0.70971094752E-02  0.65909782076E+01  0.70114632329E+01  0.51100000000E-03 0. -1.
        -11    1    3    3    0    0 -0.48670732472E+01  0.49777496052E+01 -0.18924280601E+02  0.20164195736E+02  0.51100000000E-03 0.  1.
         12    1    3    3    0    0  0.31024738014E+02  0.58212734029E+01 -0.59729977518E+01  0.32126286667E+02  0.00000000000E+00 0. -1.
</event>
<event>
 7    1  0.6230310E-012  0.5930204E+02  0.7816164E-02  0.1266604E+00
        -11   -1    0    0    0    0  0.00000000000E+00  0.00000000000E+00  0.45593999997E+02  0.45594000000E+02  0.51100000000E-03 0. -1.
         11   -1    0    0    0    0 -0.00000000000E+00 -0.00000000000E+00 -0.45593999997E+02  0.45594000000E+02  0.51100000000E-03 0.  1.
    9900012    2    1    2    0    0  0.15550379985E+02 -0.27442356851E+02 -0.46708916661E+01  0.59302039199E+02  0.50000173569E+02 0.  0.
         12    1    1    2    0    0 -0.15550379985E+02  0.27442356851E+02  0.46708916661E+01  0.31885960801E+02  0.00000000000E+00 0. -1.
         11    1    3    3    0    0  0.17654076288E+02  0.99216377326E-02  0.62798568351E+01  0.18737745599E+02  0.51100000000E-03 0. -1.
        -11    1    3    3    0    0 -0.10902277011E+01  0.10398037195E-01 -0.12963543810E+02  0.13009311009E+02  0.51100000000E-03 0.  1.
         12    1    3    3    0    0 -0.10134686016E+01 -0.27462676526E+02  0.20127953089E+01  0.27554982590E+02  0.00000000000E+00 0. -1.
</event>
<event>
 7    1  0.6230310E-012  0.5930171E+02  0.7816164E-02  0.1266606E+00
        -11   -1    0    0    0    0  0.00000000000E+00  0.00000000000E+00  0.45593999997E+02  0.45594000000E+02  0.51100000000E-03 0. -1.
         11   -1    0    0    0    0 -0.00000000000E+00 -0.00000000000E+00 -0.45593999997E+02  0.45594000000E+02  0.51100000000E-03 0.  1.
    9900012    2    1    2    0    0 -0.30933560255E+02  0.77342763393E+01  0.17720666622E+00  0.59301708545E+02  0.49999570534E+02 0.  0.
         12    1    1    2    0    0  0.30933560255E+02 -0.77342763393E+01 -0.17720666622E+00  0.31886291455E+02  0.00000000000E+00 0. -1.
         11    1    3    3    0    0 -0.11910417819E+02  0.31758500990E+01 -0.43127673739E+01  0.13059251095E+02  0.51100000000E-03 0. -1.
        -11    1    3    3    0    0 -0.14019494560E+01 -0.53606892779E+01 -0.16314644428E+02  0.17229918018E+02  0.51100000000E-03 0.  1.
         12    1    3    3    0    0 -0.17621192980E+02  0.99191155182E+01  0.20804618468E+02  0.29012539432E+02  0.00000000000E+00 0. -1.
</event>
<event>
 7    1  0.6230310E-012  0.5930195E+02  0.7816164E-02  0.1266605E+00
        -11   -1    0    0    0    0  0.00000000000E+00  0.00000000000E+00  0.45593999997E+02  0.45594000000E+02  0.51100000000E-03 0.  1.
         11   -1    0    0    0    0 -0.00000000000E+00 -0.00000000000E+00 -0.45593999997E+02  0.45594000000E+02  0.51100000000E-03 0. -1.
    9900012    2    1    2    0    0  0.70232376227E+01  0.24237911806E+02  0.19491486241E+02  0.59301948640E+02  0.50000008412E+02 0.  0.
         12    1    1    2    0    0 -0.70232376227E+01 -0.24237911806E+02 -0.19491486241E+02  0.31886051360E+02  0.00000000000E+00 0. -1.
         11    1    3    3    0    0  0.18677476684E+02  0.10349383376E+02  0.21788604016E+02  0.30507394788E+02  0.51100000000E-03 0. -1.
        -11    1    3    3    0    0 -0.96661108566E+01  0.77580194127E+01  0.93213321733E+01  0.15508313836E+02  0.51100000000E-03 0.  1.
        -12    1    3    3    0    0 -0.19881282045E+01  0.61305090176E+01 -0.11618449948E+02  0.13286240016E+02  0.00000000000E+00 0.  1.
</event>
<event>
 7    1  0.6230310E-012  0.5930195E+02  0.7816164E-02  0.1266605E+00
        -11   -1    0    0    0    0  0.00000000000E+00  0.00000000000E+00  0.45593999997E+02  0.45594000000E+02  0.51100000000E-03 0.  1.
         11   -1    0    0    0    0 -0.00000000000E+00 -0.00000000000E+00 -0.45593999997E+02  0.45594000000E+02  0.51100000000E-03 0. -1.
    9900012    2    1    2    0    0 -0.94130423091E+00  0.10352275848E+02  0.30144058945E+02  0.59301953544E+02  0.50000017355E+02 0.  0.
         12    1    1    2    0    0  0.94130423091E+00 -0.10352275848E+02 -0.30144058945E+02  0.31886046456E+02  0.00000000000E+00 0. -1.
         11    1    3    3    0    0 -0.24176026156E+01  0.15091968438E+02  0.71151314288E+01  0.16859341898E+02  0.51100000000E-03 0. -1.
        -11    1    3    3    0    0 -0.14758938757E+01  0.14721871809E+02  0.46423633723E+01  0.15506879448E+02  0.51100000000E-03 0.  1.
         12    1    3    3    0    0  0.29521922604E+01 -0.19461564398E+02  0.18386564144E+02  0.26935732197E+02  0.00000000000E+00 0. -1.
</event>
<event>
 7    1  0.6230310E-012  0.5930194E+02  0.7816164E-02  0.1266605E+00
        -11   -1    0    0    0    0  0.00000000000E+00  0.00000000000E+00  0.45593999997E+02  0.45594000000E+02  0.51100000000E-03 0. -1.
         11   -1    0    0    0    0 -0.00000000000E+00 -0.00000000000E+00 -0.45593999997E+02  0.45594000000E+02  0.51100000000E-03 0.  1.
    9900012    2    1    2    0    0  0.22038882937E+02  0.12611831966E+02 -0.19286004206E+02  0.59301943096E+02  0.49999998301E+02 0.  0.
         12    1    1    2    0    0 -0.22038882937E+02 -0.12611831966E+02  0.19286004206E+02  0.31886056904E+02  0.00000000000E+00 0. -1.
         11    1    3    3    0    0  0.20677011634E+02  0.80188290241E+01 -0.74833390566E+01  0.23405999075E+02  0.51100000000E-03 0. -1.
        -11    1    3    3    0    0  0.12555807368E+02  0.93921603368E+01  0.37693759932E+01  0.16126660228E+02  0.51100000000E-03 0.  1.
        -12    1    3    3    0    0 -0.11193936065E+02 -0.47991573948E+01 -0.15572041143E+02  0.19769283793E+02  0.00000000000E+00 0.  1.
</event>
<event>
 7    1  0.6230310E-012  0.5930196E+02  0.7816164E-02  0.1266605E+00
        -11   -1    0    0    0    0  0.00000000000E+00  0.00000000000E+00  0.45593999997E+02  0.45594000000E+02  0.51100000000E-03 0.  1.
         11   -1    0    0    0    0 -0.00000000000E+00 -0.00000000000E+00 -0.45593999997E+02  0.45594000000E+02  0.51100000000E-03 0. -1.
    9900012    2    1    2    0    0 -0.16180556520E+02  0.42830310498E+00  0.27472275143E+02  0.59301956746E+02  0.50000023196E+02 0.  0.
         12    1    1    2    0    0  0.16180556520E+02 -0.42830310498E+00 -0.27472275143E+02  0.31886043254E+02  0.00000000000E+00 0. -1.
         11    1    3    3    0    0 -0.16858094384E+02 -0.17105147511E+01 -0.33886282932E+00  0.16948039275E+02  0.51100000000E-03 0. -1.
        -11    1    3    3    0    0  0.24214084656E+01 -0.10179722551E+02  0.28020800223E+02  0.29910787612E+02  0.51100000000E-03 0.  1.
        -12    1    3    3    0    0 -0.17438706013E+01  0.12318540407E+02 -0.20966225037E+00  0.12443129860E+02  0.00000000000E+00 0.  1.
</event>
<event>
 7    1  0.6230310E-012  0.5930197E+02  0.7816164E-02  0.1266605E+00
        -11   -1    0    0    0    0  0.00000000000E+00  0.00000000000E+00  0.45593999997E+02  0.45594000000E+02  0.51100000000E-03 0.  1.
         11   -1    0    0    0    0 -0.00000000000E+00 -0.00000000000E+00 -0.45593999997E+02  0.45594000000E+02  0.51100000000E-03 0. -1.
    9900012    2    1    2    0    0 -0.27280405763E+02 -0.16280112214E+02 -0.27306387267E+01  0.59301968886E+02  0.50000045336E+02 0.  0.
         12    1    1    2    0    0  0.27280405763E+02  0.16280112214E+02  0.27306387267E+01  0.31886031114E+02  0.00000000000E+00 0. -1.
         11    1    3    3    0    0 -0.82881465343E+01 -0.88650587420E+00 -0.12424654586E+02  0.14961661254E+02  0.51100000000E-03 0.  1.
        -11    1    3    3    0    0  0.56058799431E+01  0.18994040622E+01 -0.76156788908E+01  0.96453196399E+01  0.51100000000E-03 0. -1.
        -12    1    3    3    0    0 -0.24598139172E+02 -0.17293010402E+02  0.17309694750E+02  0.34694987993E+02  0.00000000000E+00 0.  1.
</event>
<event>
 7    1  0.6230310E-012  0.5930191E+02  0.7816164E-02  0.1266605E+00
        -11   -1    0    0    0    0  0.00000000000E+00  0.00000000000E+00  0.45593999997E+02  0.45594000000E+02  0.51100000000E-03 0. -1.
         11   -1    0    0    0    0 -0.00000000000E+00 -0.00000000000E+00 -0.45593999997E+02  0.45594000000E+02  0.51100000000E-03 0.  1.
    9900012    2    1    2    0    0 -0.64645549829E+01  0.31189829260E+02  0.14583151759E+01  0.59301912069E+02  0.49999941714E+02 0.  0.
         12    1    1    2    0    0  0.64645549829E+01 -0.31189829260E+02 -0.14583151759E+01  0.31886087931E+02  0.00000000000E+00 0. -1.
         11    1    3    3    0    0 -0.87019222461E+01  0.12593362599E+02  0.11249409926E+02  0.18996459045E+02  0.51100000000E-03 0. -1.
        -11    1    3    3    0    0  0.18485272923E+01  0.21357106040E+02  0.75606449358E+01  0.22731176469E+02  0.51100000000E-03 0.  1.
        -12    1    3    3    0    0  0.38883997084E+00 -0.27606393786E+01 -0.17351739685E+02  0.17574276555E+02  0.00000000000E+00 0.  1.
</event>
<event>
 7    1  0.6230310E-012  0.5930195E+02  0.7816164E-02  0.1266605E+00
        -11   -1    0    0    0    0  0.00000000000E+00  0.00000000000E+00  0.45593999997E+02  0.45594000000E+02  0.51100000000E-03 0.  1.
         11   -1    0    0    0    0 -0.00000000000E+00 -0.00000000000E+00 -0.45593999997E+02  0.45594000000E+02  0.51100000000E-03 0. -1.
    9900012    2    1    2    0    0  0.23933242181E+02 -0.18395891067E+02  0.10271883310E+02  0.59301945428E+02  0.50000002553E+02 0.  0.
         12    1    1    2    0    0 -0.23933242181E+02  0.18395891067E+02 -0.10271883310E+02  0.31886054572E+02  0.00000000000E+00 0. -1.
         11    1    3    3    0    0 -0.19969583775E+00 -0.53982068780E+01  0.11031910539E+02  0.12283467195E+02  0.51100000000E-03 0. -1.
        -11    1    3    3    0    0  0.21097640190E+02 -0.14810191035E+01  0.15956147444E+02  0.26493442220E+02  0.51100000000E-03 0.  1.
         12    1    3    3    0    0  0.30352978293E+01 -0.11516665085E+02 -0.16716174673E+02  0.20525036012E+02  0.00000000000E+00 0. -1.
</event>
<event>
 7    1  0.6230310E-012  0.5930189E+02  0.7816164E-02  0.1266605E+00
        -11   -1    0    0    0    0  0.00000000000E+00  0.00000000000E+00  0.45593999997E+02  0.45594000000E+02  0.51100000000E-03 0. -1.
         11   -1    0    0    0    0 -0.00000000000E+00 -0.00000000000E+00 -0.45593999997E+02  0.45594000000E+02  0.51100000000E-03 0.  1.
    9900012    2    1    2    0    0  0.26702134298E+02  0.75734392436E+01 -0.15695948758E+02  0.59301893849E+02  0.49999908486E+02 0.  0.
         12    1    1    2    0    0 -0.26702134298E+02 -0.75734392436E+01  0.15695948758E+02  0.31886106151E+02  0.00000000000E+00 0. -1.
         11    1    3    3    0    0  0.19493880741E+01 -0.98532366925E+01 -0.21381817046E+02  0.23623473234E+02  0.51100000000E-03 0. -1.
        -11    1    3    3    0    0 -0.26473340709E+00  0.36267184564E+01 -0.40977298502E+01  0.54785546201E+01  0.51100000000E-03 0.  1.
         12    1    3    3    0    0  0.25017479631E+02  0.13799957480E+02  0.97835981385E+01  0.30199865994E+02  0.00000000000E+00 0. -1.
</event>
<event>
 7    1  0.6230310E-012  0.5930195E+02  0.7816164E-02  0.1266605E+00
        -11   -1    0    0    0    0  0.00000000000E+00  0.00000000000E+00  0.45593999997E+02  0.45594000000E+02  0.51100000000E-03 0.  1.
         11   -1    0    0    0    0 -0.00000000000E+00 -0.00000000000E+00 -0.45593999997E+02  0.45594000000E+02  0.51100000000E-03 0. -1.
    9900012    2    1    2    0    0 -0.22170862399E+02  0.74719449426E+01  0.21664324550E+02  0.59301951970E+02  0.50000014485E+02 0.  0.
         12    1    1    2    0    0  0.22170862399E+02 -0.74719449426E+01 -0.21664324550E+02  0.31886048030E+02  0.00000000000E+00 0. -1.
         11    1    3    3    0    0 -0.40422768484E+01 -0.12232904195E+02  0.25877028159E+02  0.28906825038E+02  0.51100000000E-03 0. -1.
        -11    1    3    3    0    0 -0.28913903704E+00  0.88639149791E+01  0.86676106268E+00  0.89108846441E+01  0.51100000000E-03 0.  1.
        -12    1    3    3    0    0 -0.17839446514E+02  0.10840934159E+02 -0.50794646714E+01  0.21484242288E+02  0.00000000000E+00 0.  1.
</event>
<event>
 7    1  0.6230310E-012  0.5930197E+02  0.7816164E-02  0.1266605E+00
        -11   -1    0    0    0    0  0.00000000000E+00  0.00000000000E+00  0.45593999997E+02  0.45594000000E+02  0.51100000000E-03 0.  1.
         11   -1    0    0    0    0 -0.00000000000E+00 -0.00000000000E+00 -0.45593999997E+02  0.45594000000E+02  0.51100000000E-03 0. -1.
    9900012    2    1    2    0    0  0.25136133252E+02  0.14343409535E+02  0.13385080462E+02  0.59301969031E+02  0.50000045601E+02 0.  0.
         12    1    1    2    0    0 -0.25136133252E+02 -0.14343409535E+02 -0.13385080462E+02  0.31886030969E+02  0.00000000000E+00 0. -1.
         11    1    3    3    0    0 -0.41032736432E+01  0.98464050536E+00 -0.77963708306E+01  0.88650871347E+01  0.51100000000E-03 0. -1.
        -11    1    3    3    0    0  0.25039256007E+02  0.94978001932E+00 -0.54862007198E+00  0.25063268097E+02  0.51100000000E-03 0.  1.
         12    1    3    3    0    0  0.42001508887E+01  0.12408989011E+02  0.21730071365E+02  0.25373613800E+02  0.00000000000E+00 0. -1.
</event>
<event>
 7    1  0.6230310E-012  0.5930159E+02  0.7816164E-02  0.1266606E+00
        -11   -1    0    0    0    0  0.00000000000E+00  0.00000000000E+00  0.45593999997E+02  0.45594000000E+02  0.51100000000E-03 0. -1.
         11   -1    0    0    0    0 -0.00000000000E+00 -0.00000000000E+00 -0.45593999997E+02  0.45594000000E+02  0.51100000000E-03 0.  1.
    9900012    2    1    2    0    0  0.29119858351E+02 -0.46253362002E+01 -0.12140145859E+02  0.59301591817E+02  0.49999357647E+02 0.  0.
         12    1    1    2    0    0 -0.29119858351E+02  0.46253362002E+01  0.12140145859E+02  0.31886408183E+02  0.00000000000E+00 0. -1.
         11    1    3    3    0    0  0.47396441724E+01 -0.43805515403E+01 -0.60806868392E+01  0.88672550080E+01  0.51100000000E-03 0. -1.
        -11    1    3    3    0    0  0.35156086722E+02 -0.82356283350E+01 -0.10780123875E+01  0.36123927232E+02  0.51100000000E-03 0.  1.
         12    1    3    3    0    0 -0.10775872543E+02  0.79908436751E+01 -0.49814466321E+01  0.14310409577E+02  0.00000000000E+00 0. -1.
</event>
<event>
 7    1  0.6230310E-012  0.5930195E+02  0.7816164E-02  0.1266605E+00
        -11   -1    0    0    0    0  0.00000000000E+00  0.00000000000E+00  0.45593999997E+02  0.45594000000E+02  0.51100000000E-03 0. -1.
         11   -1    0    0    0    0 -0.00000000000E+00 -0.00000000000E+00 -0.45593999997E+02  0.45594000000E+02  0.51100000000E-03 0.  1.
    9900012    2    1    2    0    0  0.25101675716E+02 -0.19467676810E+02 -0.27632406845E+01  0.59301951903E+02  0.50000014363E+02 0.  0.
         12    1    1    2    0    0 -0.25101675716E+02  0.19467676810E+02  0.27632406845E+01  0.31886048097E+02  0.00000000000E+00 0. -1.
         11    1    3    3    0    0  0.20477399286E+02 -0.10852046619E+02  0.10316833256E+02  0.25367850639E+02  0.51100000000E-03 0. -1.
        -11    1    3    3    0    0  0.15564282169E+02 -0.10397263689E+02 -0.30089683559E+01  0.18957949849E+02  0.51100000000E-03 0.  1.
         12    1    3    3    0    0 -0.10940005739E+02  0.17816334983E+01 -0.10071105585E+02  0.14976151415E+02  0.00000000000E+00 0. -1.
</event>
<event>
 7    1  0.6230310E-012  0.5930195E+02  0.7816164E-02  0.1266605E+00
        -11   -1    0    0    0    0  0.00000000000E+00  0.00000000000E+00  0.45593999997E+02  0.45594000000E+02  0.51100000000E-03 0. -1.
         11   -1    0    0    0    0 -0.00000000000E+00 -0.00000000000E+00 -0.45593999997E+02  0.45594000000E+02  0.51100000000E-03 0.  1.
    9900012    2    1    2    0    0 -0.12628536927E+02 -0.13047318460E+02 -0.26210835815E+02  0.59301946967E+02  0.50000005361E+02 0.  0.
         12    1    1    2    0    0  0.12628536927E+02  0.13047318460E+02  0.26210835815E+02  0.31886053033E+02  0.00000000000E+00 0. -1.
         11    1    3    3    0    0 -0.94560160194E+01 -0.18996222527E+01 -0.32405853828E+00  0.96503791563E+01  0.51100000000E-03 0. -1.
        -11    1    3    3    0    0 -0.14838955003E+02  0.99241423025E+01 -0.75619263540E+01  0.19387261706E+02  0.51100000000E-03 0.  1.
        -12    1    3    3    0    0  0.11666434096E+02 -0.21071838509E+02 -0.18324850922E+02  0.30264306105E+02  0.00000000000E+00 0.  1.
</event>
<event>
 7    1  0.6230310E-012  0.5930199E+02  0.7816164E-02  0.1266605E+00
        -11   -1    0    0    0    0  0.00000000000E+00  0.00000000000E+00  0.45593999997E+02  0.45594000000E+02  0.51100000000E-03 0. -1.
         11   -1    0    0    0    0 -0.00000000000E+00 -0.00000000000E+00 -0.45593999997E+02  0.45594000000E+02  0.51100000000E-03 0.  1.
    9900012    2    1    2    0    0 -0.19584810829E+02  0.85223875603E+01 -0.23675343568E+02  0.59301987424E+02  0.50000079144E+02 0.  0.
         12    1    1    2    0    0  0.19584810829E+02 -0.85223875603E+01  0.23675343568E+02  0.31886012576E+02  0.00000000000E+00 0. -1.
         11    1    3    3    0    0 -0.29647348634E+01  0.13084946683E+02  0.14302893033E+01  0.13492635409E+02  0.51100000000E-03 0. -1.
        -11    1    3    3    0    0  0.14869506487E+01  0.11643210183E+02 -0.16034081110E+02  0.19871263747E+02  0.51100000000E-03 0.  1.
         12    1    3    3    0    0 -0.18107026615E+02 -0.16205769306E+02 -0.90715517612E+01  0.25938088268E+02  0.00000000000E+00 0. -1.
</event>
<event>
 7    1  0.6230310E-012  0.5930195E+02  0.7816164E-02  0.1266605E+00
        -11   -1    0    0    0    0  0.00000000000E+00  0.00000000000E+00  0.45593999997E+02  0.45594000000E+02  0.51100000000E-03 0. -1.
         11   -1    0    0    0    0 -0.00000000000E+00 -0.00000000000E+00 -0.45593999997E+02  0.45594000000E+02  0.51100000000E-03 0.  1.
    9900012    2    1    2    0    0  0.27327396903E+02 -0.82789342455E+01 -0.14191302838E+02  0.59301945839E+02  0.50000003303E+02 0.  0.
         12    1    1    2    0    0 -0.27327396903E+02  0.82789342455E+01  0.14191302838E+02  0.31886054161E+02  0.00000000000E+00 0. -1.
         11    1    3    3    0    0 -0.28824619175E+01  0.88897488393E+01 -0.34930770500E+01  0.99768636690E+01  0.51100000000E-03 0.  1.
        -11    1    3    3    0    0  0.19330284389E+02 -0.26812434954E+02 -0.39248418136E+01  0.33286197534E+02  0.51100000000E-03 0. -1.
         12    1    3    3    0    0  0.10879574431E+02  0.96437518692E+01 -0.67733839746E+01  0.16038884636E+02  0.00000000000E+00 0. -1.
</event>
<event>
 7    1  0.6230310E-012  0.5930195E+02  0.7816164E-02  0.1266605E+00
        -11   -1    0    0    0    0  0.00000000000E+00  0.00000000000E+00  0.45593999997E+02  0.45594000000E+02  0.51100000000E-03 0.  1.
         11   -1    0    0    0    0 -0.00000000000E+00 -0.00000000000E+00 -0.45593999997E+02  0.45594000000E+02  0.51100000000E-03 0. -1.
    9900012    2    1    2    0    0 -0.25331033335E+02  0.12599092892E+02  0.14707879507E+02  0.59301951152E+02  0.50000012993E+02 0.  0.
         12    1    1    2    0    0  0.25331033335E+02 -0.12599092892E+02 -0.14707879507E+02  0.31886048848E+02  0.00000000000E+00 0. -1.
         11    1    3    3    0    0 -0.57367413506E+01  0.48067170452E+01 -0.12622992298E+01  0.75900019554E+01  0.51100000000E-03 0. -1.
        -11    1    3    3    0    0 -0.30228285878E+02 -0.58924672201E+01  0.49987980217E+01  0.31200295175E+02  0.51100000000E-03 0.  1.
         12    1    3    3    0    0  0.10633993894E+02  0.13684843067E+02  0.10971380715E+02  0.20511654022E+02  0.00000000000E+00 0. -1.
</event>
<event>
 7    1  0.6230310E-012  0.5930194E+02  0.7816164E-02  0.1266605E+00
        -11   -1    0    0    0    0  0.00000000000E+00  0.00000000000E+00  0.45593999997E+02  0.45594000000E+02  0.51100000000E-03 0.  1.
         11   -1    0    0    0    0 -0.00000000000E+00 -0.00000000000E+00 -0.45593999997E+02  0.45594000000E+02  0.51100000000E-03 0. -1.
    9900012    2    1    2    0    0  0.22340446772E+02  0.20113793746E+02 -0.10632994760E+02  0.59301939748E+02  0.49999992195E+02 0.  0.
         12    1    1    2    0    0 -0.22340446772E+02 -0.20113793746E+02  0.10632994760E+02  0.31886060252E+02  0.00000000000E+00 0. -1.
         11    1    3    3    0    0  0.85751786199E+01 -0.73640525175E+01  0.45847415782E+01  0.12197656063E+02  0.51100000000E-03 0. -1.
        -11    1    3    3    0    0  0.21860113921E+02  0.11460122240E+02 -0.18984785107E+01  0.24754862215E+02  0.51100000000E-03 0.  1.
        -12    1    3    3    0    0 -0.80948457690E+01  0.16017724024E+02 -0.13319257828E+02  0.22349421469E+02  0.00000000000E+00 0.  1.
</event>
<event>
 7    1  0.6230310E-012  0.5930195E+02  0.7816164E-02  0.1266605E+00
        -11   -1    0    0    0    0  0.00000000000E+00  0.00000000000E+00  0.45593999997E+02  0.45594000000E+02  0.51100000000E-03 0. -1.
         11   -1    0    0    0    0 -0.00000000000E+00 -0.00000000000E+00 -0.45593999997E+02  0.45594000000E+02  0.51100000000E-03 0.  1.
    9900012    2    1    2    0    0  0.15452178603E+02 -0.26102638627E+02  0.98286642586E+01  0.59301949633E+02  0.50000010222E+02 0.  0.
         12    1    1    2    0    0 -0.15452178603E+02  0.26102638627E+02 -0.98286642586E+01  0.31886050367E+02  0.00000000000E+00 0. -1.
         11    1    3    3    0    0  0.66548081885E+01  0.11056628603E+02  0.20825842140E+01  0.13071827163E+02  0.51100000000E-03 0. -1.
        -11    1    3    3    0    0  0.18408468015E+00 -0.22159491161E+02 -0.72723363294E+01  0.23323031784E+02  0.51100000000E-03 0.  1.
         12    1    3    3    0    0  0.86132857348E+01 -0.14999776070E+02  0.15018416374E+02  0.22907090686E+02  0.00000000000E+00 0. -1.
</event>
<event>
 7    1  0.6230310E-012  0.5930195E+02  0.7816164E-02  0.1266605E+00
        -11   -1    0    0    0    0  0.00000000000E+00  0.00000000000E+00  0.45593999997E+02  0.45594000000E+02  0.51100000000E-03 0.  1.
         11   -1    0    0    0    0 -0.00000000000E+00 -0.00000000000E+00 -0.45593999997E+02  0.45594000000E+02  0.51100000000E-03 0. -1.
    9900012    2    1    2    0    0 -0.23114703240E+02  0.52387375420E+01  0.21330408528E+02  0.59301949682E+02  0.50000010312E+02 0.  0.
         12    1    1    2    0    0  0.23114703240E+02 -0.52387375420E+01 -0.21330408528E+02  0.31886050318E+02  0.00000000000E+00 0. -1.
         11    1    3    3    0    0 -0.30902991643E+02  0.17535592981E+02  0.16064635754E+02  0.38994415445E+02  0.51100000000E-03 0. -1.
        -11    1    3    3    0    0  0.27334542976E+01 -0.32487893976E+00  0.66901662173E+01  0.72343377720E+01  0.51100000000E-03 0.  1.
        -12    1    3    3    0    0  0.50548341052E+01 -0.11971976500E+02 -0.14243934436E+01  0.13073196465E+02  0.00000000000E+00 0.  1.
</event>
<event>
 7    1  0.6230310E-012  0.5930197E+02  0.7816164E-02  0.1266605E+00
        -11   -1    0    0    0    0  0.00000000000E+00  0.00000000000E+00  0.45593999997E+02  0.45594000000E+02  0.51100000000E-03 0.  1.
         11   -1    0    0    0    0 -0.00000000000E+00 -0.00000000000E+00 -0.45593999997E+02  0.45594000000E+02  0.51100000000E-03 0. -1.
    9900012    2    1    2    0    0 -0.15942667452E+02 -0.23718537888E+01  0.27512257754E+02  0.59301973866E+02  0.50000054418E+02 0.  0.
         12    1    1    2    0    0  0.15942667452E+02  0.23718537888E+01 -0.27512257754E+02  0.31886026134E+02  0.00000000000E+00 0. -1.
         11    1    3    3    0    0 -0.43943918094E+01 -0.19338466826E+02  0.18525581797E+02  0.27138241648E+02  0.51100000000E-03 0. -1.
        -11    1    3    3    0    0  0.55522006111E+01 -0.13590820351E+01  0.67159477959E+00  0.57554387681E+01  0.51100000000E-03 0.  1.
        -12    1    3    3    0    0 -0.17100476254E+02  0.18325695072E+02  0.83150811768E+01  0.26408293450E+02  0.00000000000E+00 0.  1.
</event>
<event>
 7    1  0.6230310E-012  0.5930196E+02  0.7816164E-02  0.1266605E+00
        -11   -1    0    0    0    0  0.00000000000E+00  0.00000000000E+00  0.45593999997E+02  0.45594000000E+02  0.51100000000E-03 0.  1.
         11   -1    0    0    0    0 -0.00000000000E+00 -0.00000000000E+00 -0.45593999997E+02  0.45594000000E+02  0.51100000000E-03 0. -1.
    9900012    2    1    2    0    0  0.24776112695E+01  0.27917875705E+01  0.31666807820E+02  0.59301963041E+02  0.50000034675E+02 0.  0.
         12    1    1    2    0    0 -0.24776112695E+01 -0.27917875705E+01 -0.31666807820E+02  0.31886036959E+02  0.00000000000E+00 0. -1.
         11    1    3    3    0    0  0.17326685907E+01  0.17059769809E+02  0.50435829001E+01  0.17873880807E+02  0.51100000000E-03 0. -1.
        -11    1    3    3    0    0  0.87464432598E+01 -0.96128125111E+01  0.29078665513E+02  0.31850827656E+02  0.51100000000E-03 0.  1.
         12    1    3    3    0    0 -0.80015005810E+01 -0.46551697272E+01 -0.24554405931E+01  0.95772545775E+01  0.00000000000E+00 0. -1.
</event>
<event>
 7    1  0.6230310E-012  0.5930192E+02  0.7816164E-02  0.1266605E+00
        -11   -1    0    0    0    0  0.00000000000E+00  0.00000000000E+00  0.45593999997E+02  0.45594000000E+02  0.51100000000E-03 0.  1.
         11   -1    0    0    0    0 -0.00000000000E+00 -0.00000000000E+00 -0.45593999997E+02  0.45594000000E+02  0.51100000000E-03 0. -1.
    9900012    2    1    2    0    0  0.10061819571E+02  0.28256631746E+02  0.10818727016E+02  0.59301916751E+02  0.49999950254E+02 0.  0.
         12    1    1    2    0    0 -0.10061819571E+02 -0.28256631746E+02 -0.10818727016E+02  0.31886083249E+02  0.00000000000E+00 0. -1.
         11    1    3    3    0    0  0.79184198423E+01  0.87213762196E+01 -0.87296233520E+01  0.14661858685E+02  0.51100000000E-03 0. -1.
        -11    1    3    3    0    0 -0.46644965184E+01  0.27697332999E+02  0.19168142164E+02  0.34004668170E+02  0.51100000000E-03 0.  1.
         12    1    3    3    0    0  0.68078962472E+01 -0.81620774726E+01  0.38020820354E+00  0.10635389897E+02  0.00000000000E+00 0. -1.
</event>
<event>
 7    1  0.6230310E-012  0.5930196E+02  0.7816164E-02  0.1266605E+00
        -11   -1    0    0    0    0  0.00000000000E+00  0.00000000000E+00  0.45593999997E+02  0.45594000000E+02  0.51100000000E-03 0.  1.
         11   -1    0    0    0    0 -0.00000000000E+00 -0.00000000000E+00 -0.45593999997E+02  0.45594000000E+02  0.51100000000E-03 0. -1.
    9900012    2    1    2    0    0 -0.19781844241E+01 -0.92362773946E+00  0.31811209892E+02  0.59301962670E+02  0.50000034000E+02 0.  0.
         12    1    1    2    0    0  0.19781844241E+01  0.92362773946E+00 -0.31811209892E+02  0.31886037330E+02  0.00000000000E+00 0. -1.
         11    1    3    3    0    0 -0.12882979611E+02  0.83294972128E+01  0.53010148864E+01  0.16231218271E+02  0.51100000000E-03 0. -1.
        -11    1    3    3    0    0  0.15626586981E+02  0.42203664583E+01  0.44383691991E+01  0.16783945755E+02  0.51100000000E-03 0.  1.
        -12    1    3    3    0    0 -0.47217917934E+01 -0.13473491411E+02  0.22071825806E+02  0.26286798644E+02  0.00000000000E+00 0.  1.
</event>
<event>
 7    1  0.6230310E-012  0.5930199E+02  0.7816164E-02  0.1266605E+00
        -11   -1    0    0    0    0  0.00000000000E+00  0.00000000000E+00  0.45593999997E+02  0.45594000000E+02  0.51100000000E-03 0. -1.
         11   -1    0    0    0    0 -0.00000000000E+00 -0.00000000000E+00 -0.45593999997E+02  0.45594000000E+02  0.51100000000E-03 0.  1.
    9900012    2    1    2    0    0 -0.15350546398E+01  0.16404783829E+01 -0.31806762291E+02  0.59301989125E+02  0.50000082247E+02 0.  0.
         12    1    1    2    0    0  0.15350546398E+01 -0.16404783829E+01  0.31806762291E+02  0.31886010875E+02  0.00000000000E+00 0. -1.
         11    1    3    3    0    0  0.13553402704E+02  0.11177726548E+02 -0.14947556558E+02  0.23066550305E+02  0.51100000000E-03 0. -1.
        -11    1    3    3    0    0 -0.20501278514E+01 -0.72122663339E+01 -0.21048943092E+02  0.22344525402E+02  0.51100000000E-03 0.  1.
        -12    1    3    3    0    0 -0.13038329492E+02 -0.23249818315E+01  0.41897373595E+01  0.13890913419E+02  0.00000000000E+00 0.  1.
</event>
<event>
 7    1  0.6230310E-012  0.5930194E+02  0.7816164E-02  0.1266605E+00
        -11   -1    0    0    0    0  0.00000000000E+00  0.00000000000E+00  0.45593999997E+02  0.45594000000E+02  0.51100000000E-03 0. -1.
         11   -1    0    0    0    0 -0.00000000000E+00 -0.00000000000E+00 -0.45593999997E+02  0.45594000000E+02  0.51100000000E-03 0.  1.
    9900012    2    1    2    0    0 -0.86910164919E+01  0.12462285053E+02 -0.28033519383E+02  0.59301944656E+02  0.50000001146E+02 0.  0.
         12    1    1    2    0    0  0.86910164919E+01 -0.12462285053E+02  0.28033519383E+02  0.31886055344E+02  0.00000000000E+00 0. -1.
         11    1    3    3    0    0 -0.74182064283E+01  0.16844073595E+02 -0.89109573950E+01  0.20448906177E+02  0.51100000000E-03 0. -1.
        -11    1    3    3    0    0  0.13535497938E+02  0.67204322083E+01 -0.10712957166E+02  0.18524075281E+02  0.51100000000E-03 0.  1.
         12    1    3    3    0    0 -0.14808308002E+02 -0.11102220750E+02 -0.84096048214E+01  0.20328963198E+02  0.00000000000E+00 0. -1.
</event>
<event>
 7    1  0.6230310E-012  0.5930209E+02  0.7816164E-02  0.1266604E+00
        -11   -1    0    0    0    0  0.00000000000E+00  0.00000000000E+00  0.45593999997E+02  0.45594000000E+02  0.51100000000E-03 0. -1.
         11   -1    0    0    0    0 -0.00000000000E+00 -0.00000000000E+00 -0.45593999997E+02  0.45594000000E+02  0.51100000000E-03 0.  1.
    9900012    2    1    2    0    0 -0.30433276072E+02  0.17955898182E+00  0.95128599198E+01  0.59302093430E+02  0.50000272474E+02 0.  0.
         12    1    1    2    0    0  0.30433276072E+02 -0.17955898182E+00 -0.95128599198E+01  0.31885906570E+02  0.00000000000E+00 0. -1.
         11    1    3    3    0    0  0.62319881896E+01 -0.25321008381E+01  0.92568809843E+01  0.11442860537E+02  0.51100000000E-03 0. -1.
        -11    1    3    3    0    0  0.54087650445E+01 -0.12760466181E+01  0.64744784130E+00  0.55948389831E+01  0.51100000000E-03 0.  1.
        -12    1    3    3    0    0 -0.42074029306E+02  0.39877064381E+01 -0.39146890587E+00  0.42264393910E+02  0.00000000000E+00 0.  1.
</event>
<event>
 7    1  0.6230310E-012  0.5930198E+02  0.7816164E-02  0.1266605E+00
        -11   -1    0    0    0    0  0.00000000000E+00  0.00000000000E+00  0.45593999997E+02  0.45594000000E+02  0.51100000000E-03 0.  1.
         11   -1    0    0    0    0 -0.00000000000E+00 -0.00000000000E+00 -0.45593999997E+02  0.45594000000E+02  0.51100000000E-03 0. -1.
    9900012    2    1    2    0    0  0.38658606044E+01  0.28368648076E+02  0.14035421099E+02  0.59301982417E+02  0.50000070013E+02 0.  0.
         12    1    1    2    0    0 -0.38658606044E+01 -0.28368648076E+02 -0.14035421099E+02  0.31886017583E+02  0.00000000000E+00 0. -1.
         11    1    3    3    0    0  0.17497659709E+02  0.28681075349E+02  0.11743947932E+02  0.35590623650E+02  0.51100000000E-03 0. -1.
        -11    1    3    3    0    0  0.49390229431E+01  0.64689495828E+00  0.91828636037E+00  0.50651427246E+01  0.51100000000E-03 0.  1.
        -12    1    3    3    0    0 -0.18570822048E+02 -0.95932223168E+00  0.13731868068E+01  0.18646216042E+02  0.00000000000E+00 0.  1.
</event>
<event>
 7    1  0.6230310E-012  0.5930194E+02  0.7816164E-02  0.1266605E+00
        -11   -1    0    0    0    0  0.00000000000E+00  0.00000000000E+00  0.45593999997E+02  0.45594000000E+02  0.51100000000E-03 0.  1.
         11   -1    0    0    0    0 -0.00000000000E+00 -0.00000000000E+00 -0.45593999997E+02  0.45594000000E+02  0.51100000000E-03 0. -1.
    9900012    2    1    2    0    0  0.72021932506E+01 -0.14627954957E+01  0.31027558893E+02  0.59301940834E+02  0.49999994176E+02 0.  0.
         12    1    1    2    0    0 -0.72021932506E+01  0.14627954957E+01 -0.31027558893E+02  0.31886059166E+02  0.00000000000E+00 0. -1.
         11    1    3    3    0    0 -0.12838256863E+02 -0.30845657800E+01 -0.43808276463E+01  0.13911399514E+02  0.51100000000E-03 0. -1.
        -11    1    3    3    0    0  0.42706498176E+01 -0.84236864309E+01  0.14872953302E+02  0.17618220203E+02  0.51100000000E-03 0.  1.
        -12    1    3    3    0    0  0.15769800296E+02  0.10045456715E+02  0.20535433237E+02  0.27772321117E+02  0.00000000000E+00 0.  1.
</event>
<event>
 7    1  0.6230310E-012  0.5930199E+02  0.7816164E-02  0.1266605E+00
        -11   -1    0    0    0    0  0.00000000000E+00  0.00000000000E+00  0.45593999997E+02  0.45594000000E+02  0.51100000000E-03 0.  1.
         11   -1    0    0    0    0 -0.00000000000E+00 -0.00000000000E+00 -0.45593999997E+02  0.45594000000E+02  0.51100000000E-03 0. -1.
    9900012    2    1    2    0    0 -0.48975983684E+01  0.41914165810E+01  0.31227598003E+02  0.59301994923E+02  0.50000092821E+02 0.  0.
         12    1    1    2    0    0  0.48975983684E+01 -0.41914165810E+01 -0.31227598003E+02  0.31886005077E+02  0.00000000000E+00 0. -1.
         11    1    3    3    0    0  0.39914642826E+01  0.11278897912E+01 -0.74608815497E+01  0.85363151453E+01  0.51100000000E-03 0. -1.
        -11    1    3    3    0    0  0.81006699271E+01  0.59670061698E+01  0.20392275121E+01  0.10265693596E+02  0.51100000000E-03 0.  1.
        -12    1    3    3    0    0 -0.16989732578E+02 -0.29034793800E+01  0.36649252041E+02  0.40499986182E+02  0.00000000000E+00 0.  1.
</event>
<event>
 7    1  0.6230310E-012  0.5930190E+02  0.7816164E-02  0.1266605E+00
        -11   -1    0    0    0    0  0.00000000000E+00  0.00000000000E+00  0.45593999997E+02  0.45594000000E+02  0.51100000000E-03 0.  1.
         11   -1    0    0    0    0 -0.00000000000E+00 -0.00000000000E+00 -0.45593999997E+02  0.45594000000E+02  0.51100000000E-03 0. -1.
    9900012    2    1    2    0    0  0.53360495474E+01 -0.25448064059E+02 -0.18456591923E+02  0.59301903115E+02  0.49999925385E+02 0.  0.
         12    1    1    2    0    0 -0.53360495474E+01  0.25448064059E+02  0.18456591923E+02  0.31886096885E+02  0.00000000000E+00 0. -1.
         11    1    3    3    0    0 -0.82577200430E+01 -0.24386815694E+00  0.77325225480E+01  0.11315534331E+02  0.51100000000E-03 0. -1.
        -11    1    3    3    0    0 -0.88369900025E+01 -0.61036993789E+01 -0.65643212770E+01  0.12587209878E+02  0.51100000000E-03 0.  1.
         12    1    3    3    0    0  0.22430759593E+02 -0.19100496524E+02 -0.19624793194E+02  0.35399158906E+02  0.00000000000E+00 0. -1.
</event>
<event>
 7    1  0.6230310E-012  0.5930194E+02  0.7816164E-02  0.1266605E+00
        -11   -1    0    0    0    0  0.00000000000E+00  0.00000000000E+00  0.45593999997E+02  0.45594000000E+02  0.51100000000E-03 0. -1.
         11   -1    0    0    0    0 -0.00000000000E+00 -0.00000000000E+00 -0.45593999997E+02  0.45594000000E+02  0.51100000000E-03 0.  1.
    9900012    2    1    2    0    0 -0.22490117570E+02  0.21458356303E+02 -0.71031046581E+01  0.59301944438E+02  0.50000000748E+02 0.  0.
         12    1    1    2    0    0  0.22490117570E+02 -0.21458356303E+02  0.71031046581E+01  0.31886055562E+02  0.00000000000E+00 0. -1.
         11    1    3    3    0    0  0.35781852427E+01 -0.10760784685E+02  0.31464113010E+01  0.11768508870E+02  0.51100000000E-03 0. -1.
        -11    1    3    3    0    0 -0.13945413040E+02  0.24655578497E+01 -0.15388068456E+01  0.14245049916E+02  0.51100000000E-03 0.  1.
        -12    1    3    3    0    0 -0.12122889773E+02  0.29753583139E+02 -0.87107091134E+01  0.33288385652E+02  0.00000000000E+00 0.  1.
</event>
<event>
 7    1  0.6230310E-012  0.5930193E+02  0.7816164E-02  0.1266605E+00
        -11   -1    0    0    0    0  0.00000000000E+00  0.00000000000E+00  0.45593999997E+02  0.45594000000E+02  0.51100000000E-03 0.  1.
         11   -1    0    0    0    0 -0.00000000000E+00 -0.00000000000E+00 -0.45593999997E+02  0.45594000000E+02  0.51100000000E-03 0. -1.
    9900012    2    1    2    0    0 -0.16270590394E+02  0.13015039362E+02  0.24137067088E+02  0.59301931428E+02  0.49999977021E+02 0.  0.
         12    1    1    2    0    0  0.16270590394E+02 -0.13015039362E+02 -0.24137067088E+02  0.31886068572E+02  0.00000000000E+00 0. -1.
         11    1    3    3    0    0 -0.18607352388E+02 -0.51313762254E+01  0.85197977545E+01  0.21098614620E+02  0.51100000000E-03 0. -1.
        -11    1    3    3    0    0 -0.11133351251E+02  0.18103238159E+02  0.11226000132E+02  0.24035428457E+02  0.51100000000E-03 0.  1.
         12    1    3    3    0    0  0.13470113245E+02  0.43177428143E-01  0.43912692017E+01  0.14167888351E+02  0.00000000000E+00 0. -1.
</event>
<event>
 7    1  0.6230310E-012  0.5930175E+02  0.7816164E-02  0.1266605E+00
        -11   -1    0    0    0    0  0.00000000000E+00  0.00000000000E+00  0.45593999997E+02  0.45594000000E+02  0.51100000000E-03 0. -1.
         11   -1    0    0    0    0 -0.00000000000E+00 -0.00000000000E+00 -0.45593999997E+02  0.45594000000E+02  0.51100000000E-03 0.  1.
    9900012    2    1    2    0    0 -0.13291888024E+02  0.11271110443E+02 -0.26702447518E+02  0.59301750278E+02  0.49999646646E+02 0.  0.
         12    1    1    2    0    0  0.13291888024E+02 -0.11271110443E+02  0.26702447518E+02  0.31886249722E+02  0.00000000000E+00 0. -1.
         11    1    3    3    0    0  0.12146302379E+02  0.30219469651E+01  0.28336582931E+00  0.12519789191E+02  0.51100000000E-03 0.  1.
        -11    1    3    3    0    0 -0.11657980669E+02 -0.93584163182E+01 -0.59725456929E+01  0.16098440036E+02  0.51100000000E-03 0. -1.
        -12    1    3    3    0    0 -0.13780209733E+02  0.17607579796E+02 -0.21013267655E+02  0.30683521051E+02  0.00000000000E+00 0.  1.
</event>
<event>
 7    1  0.6230310E-012  0.5930194E+02  0.7816164E-02  0.1266605E+00
        -11   -1    0    0    0    0  0.00000000000E+00  0.00000000000E+00  0.45593999997E+02  0.45594000000E+02  0.51100000000E-03 0.  1.
         11   -1    0    0    0    0 -0.00000000000E+00 -0.00000000000E+00 -0.45593999997E+02  0.45594000000E+02  0.51100000000E-03 0. -1.
    9900012    2    1    2    0    0  0.28598842530E+02 -0.13708790124E+02  0.33009247045E+01  0.59301939964E+02  0.49999992589E+02 0.  0.
         12    1    1    2    0    0 -0.28598842530E+02  0.13708790124E+02 -0.33009247045E+01  0.31886060036E+02  0.00000000000E+00 0. -1.
         11    1    3    3    0    0  0.68159031668E+01  0.41937387115E+01 -0.68947975807E+01  0.10563248284E+02  0.51100000000E-03 0.  1.
        -11    1    3    3    0    0  0.80849297575E+01 -0.13991021471E+02  0.23979729458E+02  0.28916123463E+02  0.51100000000E-03 0. -1.
         12    1    3    3    0    0  0.13698009605E+02 -0.39115073640E+01 -0.13784007173E+02  0.19822568218E+02  0.00000000000E+00 0. -1.
</event>
<event>
 7    1  0.6230310E-012  0.5930186E+02  0.7816164E-02  0.1266605E+00
        -11   -1    0    0    0    0  0.00000000000E+00  0.00000000000E+00  0.45593999997E+02  0.45594000000E+02  0.51100000000E-03 0.  1.
         11   -1    0    0    0    0 -0.00000000000E+00 -0.00000000000E+00 -0.45593999997E+02  0.45594000000E+02  0.51100000000E-03 0. -1.
    9900012    2    1    2    0    0 -0.52719516014E+01 -0.13383032650E+02  0.28457452351E+02  0.59301864598E+02  0.49999855139E+02 0.  0.
         12    1    1    2    0    0  0.52719516014E+01  0.13383032650E+02 -0.28457452351E+02  0.31886135402E+02  0.00000000000E+00 0. -1.
         11    1    3    3    0    0 -0.30193478891E+00 -0.14723019765E+02  0.91801903123E+01  0.17353223621E+02  0.51100000000E-03 0. -1.
        -11    1    3    3    0    0  0.15767580763E+02 -0.30298736865E+01  0.78841068132E+01  0.17887310535E+02  0.51100000000E-03 0.  1.
         12    1    3    3    0    0 -0.20737597575E+02  0.43698608017E+01  0.11393155225E+02  0.24061330441E+02  0.00000000000E+00 0. -1.
</event>
<event>
 7    1  0.6230310E-012  0.5930195E+02  0.7816164E-02  0.1266605E+00
        -11   -1    0    0    0    0  0.00000000000E+00  0.00000000000E+00  0.45593999997E+02  0.45594000000E+02  0.51100000000E-03 0. -1.
         11   -1    0    0    0    0 -0.00000000000E+00 -0.00000000000E+00 -0.45593999997E+02  0.45594000000E+02  0.51100000000E-03 0.  1.
    9900012    2    1    2    0    0 -0.11905740119E+02 -0.18315123793E+02 -0.23227784153E+02  0.59301947187E+02  0.50000005761E+02 0.  0.
         12    1    1    2    0    0  0.11905740119E+02  0.18315123793E+02  0.23227784153E+02  0.31886052813E+02  0.00000000000E+00 0. -1.
         11    1    3    3    0    0  0.80602646137E+01 -0.38545144745E+01  0.48993630570E+01  0.10189647006E+02  0.51100000000E-03 0. -1.
        -11    1    3    3    0    0 -0.20697809691E+02 -0.22839167820E+01 -0.28134460190E+01  0.21012640973E+02  0.51100000000E-03 0.  1.
        -12    1    3    3    0    0  0.73180495849E+00 -0.12176692537E+02 -0.25313701191E+02  0.28099659208E+02  0.00000000000E+00 0.  1.
</event>
<event>
 7    1  0.6230310E-012  0.5930172E+02  0.7816164E-02  0.1266606E+00
        -11   -1    0    0    0    0  0.00000000000E+00  0.00000000000E+00  0.45593999997E+02  0.45594000000E+02  0.51100000000E-03 0.  1.
         11   -1    0    0    0    0 -0.00000000000E+00 -0.00000000000E+00 -0.45593999997E+02  0.45594000000E+02  0.51100000000E-03 0. -1.
    9900012    2    1    2    0    0  0.22992124473E+01 -0.31750878026E+02  0.18248627115E+01  0.59301721490E+02  0.49999594143E+02 0.  0.
         12    1    1    2    0    0 -0.22992124473E+01  0.31750878026E+02 -0.18248627115E+01  0.31886278510E+02  0.00000000000E+00 0. -1.
         11    1    3    3    0    0  0.12623092895E+01  0.19316744108E+01  0.39714084299E+01  0.45931335654E+01  0.51100000000E-03 0. -1.
        -11    1    3    3    0    0 -0.16144034453E+02 -0.18264235263E+01  0.64953629749E+01  0.17497297270E+02  0.51100000000E-03 0.  1.
         12    1    3    3    0    0  0.17180937610E+02 -0.31856128911E+02 -0.86419086933E+01  0.37211290655E+02  0.00000000000E+00 0. -1.
</event>
<event>
 7    1  0.6230310E-012  0.5930196E+02  0.7816164E-02  0.1266605E+00
        -11   -1    0    0    0    0  0.00000000000E+00  0.00000000000E+00  0.45593999997E+02  0.45594000000E+02  0.51100000000E-03 0.  1.
         11   -1    0    0    0    0 -0.00000000000E+00 -0.00000000000E+00 -0.45593999997E+02  0.45594000000E+02  0.51100000000E-03 0. -1.
    9900012    2    1    2    0    0  0.10592189071E+02 -0.30051759072E+02 -0.11903975872E+01  0.59301956987E+02  0.50000023634E+02 0.  0.
         12    1    1    2    0    0 -0.10592189071E+02  0.30051759072E+02  0.11903975872E+01  0.31886043013E+02  0.00000000000E+00 0. -1.
         11    1    3    3    0    0  0.11519718032E+02 -0.54681606038E+01 -0.38931354634E+01  0.13332711199E+02  0.51100000000E-03 0. -1.
        -11    1    3    3    0    0  0.15595483044E+02 -0.15637421342E+02  0.11858952542E+02  0.25067564566E+02  0.51100000000E-03 0.  1.
         12    1    3    3    0    0 -0.16523012005E+02 -0.89461771268E+01 -0.91562146657E+01  0.20901681222E+02  0.00000000000E+00 0. -1.
</event>
<event>
 7    1  0.6230310E-012  0.5930196E+02  0.7816164E-02  0.1266605E+00
        -11   -1    0    0    0    0  0.00000000000E+00  0.00000000000E+00  0.45593999997E+02  0.45594000000E+02  0.51100000000E-03 0. -1.
         11   -1    0    0    0    0 -0.00000000000E+00 -0.00000000000E+00 -0.45593999997E+02  0.45594000000E+02  0.51100000000E-03 0.  1.
    9900012    2    1    2    0    0 -0.14982132969E+02  0.63592377604E+01 -0.27419248467E+02  0.59301962308E+02  0.50000033340E+02 0.  0.
         12    1    1    2    0    0  0.14982132969E+02 -0.63592377604E+01  0.27419248467E+02  0.31886037692E+02  0.00000000000E+00 0. -1.
         11    1    3    3    0    0 -0.12303714585E+02  0.44466464386E+01  0.25180178481E+01  0.13322705104E+02  0.51100000000E-03 0. -1.
        -11    1    3    3    0    0 -0.17081529317E+02 -0.58080468834E+01 -0.11761014799E+02  0.21536794603E+02  0.51100000000E-03 0.  1.
        -12    1    3    3    0    0  0.14403110933E+02  0.77206382052E+01 -0.18176251516E+02  0.24442462602E+02  0.00000000000E+00 0.  1.
</event>
<event>
 7    1  0.6230310E-012  0.5930196E+02  0.7816164E-02  0.1266605E+00
        -11   -1    0    0    0    0  0.00000000000E+00  0.00000000000E+00  0.45593999997E+02  0.45594000000E+02  0.51100000000E-03 0.  1.
         11   -1    0    0    0    0 -0.00000000000E+00 -0.00000000000E+00 -0.45593999997E+02  0.45594000000E+02  0.51100000000E-03 0. -1.
    9900012    2    1    2    0    0 -0.12795448664E+02 -0.19428019883E+02  0.21807062315E+02  0.59301961835E+02  0.50000032476E+02 0.  0.
         12    1    1    2    0    0  0.12795448664E+02  0.19428019883E+02 -0.21807062315E+02  0.31886038165E+02  0.00000000000E+00 0. -1.
         11    1    3    3    0    0 -0.17947560133E+02 -0.32780405121E+01  0.12220550080E+02  0.21959105374E+02  0.51100000000E-03 0. -1.
        -11    1    3    3    0    0  0.91328540859E+01  0.30097103746E+01  0.14282973476E+02  0.17218324886E+02  0.51100000000E-03 0.  1.
        -12    1    3    3    0    0 -0.39807426165E+01 -0.19159689745E+02 -0.46964612406E+01  0.20124531574E+02  0.00000000000E+00 0.  1.
</event>
<event>
 7    1  0.6230310E-012  0.5930196E+02  0.7816164E-02  0.1266605E+00
        -11   -1    0    0    0    0  0.00000000000E+00  0.00000000000E+00  0.45593999997E+02  0.45594000000E+02  0.51100000000E-03 0. -1.
         11   -1    0    0    0    0 -0.00000000000E+00 -0.00000000000E+00 -0.45593999997E+02  0.45594000000E+02  0.51100000000E-03 0.  1.
    9900012    2    1    2    0    0  0.18699983803E+02  0.16242128795E+01 -0.25775806680E+02  0.59301958042E+02  0.50000025559E+02 0.  0.
         12    1    1    2    0    0 -0.18699983803E+02 -0.16242128795E+01  0.25775806680E+02  0.31886041958E+02  0.00000000000E+00 0. -1.
         11    1    3    3    0    0 -0.12531283151E+01  0.42065522613E+01 -0.28572804998E+02  0.28907967729E+02  0.51100000000E-03 0. -1.
        -11    1    3    3    0    0  0.82073102348E+01  0.20216803906E+01 -0.95417936147E+01  0.12747272592E+02  0.51100000000E-03 0.  1.
         12    1    3    3    0    0  0.11745801884E+02 -0.46040197724E+01  0.12338791933E+02  0.17646717721E+02  0.00000000000E+00 0. -1.
</event>
<event>
 7    1  0.6230310E-012  0.5930201E+02  0.7816164E-02  0.1266605E+00
        -11   -1    0    0    0    0  0.00000000000E+00  0.00000000000E+00  0.45593999997E+02  0.45594000000E+02  0.51100000000E-03 0. -1.
         11   -1    0    0    0    0 -0.00000000000E+00 -0.00000000000E+00 -0.45593999997E+02  0.45594000000E+02  0.51100000000E-03 0.  1.
    9900012    2    1    2    0    0  0.74074281964E+01  0.25143046972E+02 -0.18156916742E+02  0.59302008890E+02  0.50000118292E+02 0.  0.
         12    1    1    2    0    0 -0.74074281964E+01 -0.25143046972E+02  0.18156916742E+02  0.31885991110E+02  0.00000000000E+00 0. -1.
         11    1    3    3    0    0  0.10060799427E+02  0.87847822627E-01 -0.12776770328E+02  0.16262633939E+02  0.51100000000E-03 0. -1.
        -11    1    3    3    0    0  0.39932719265E+01  0.13326933298E+02 -0.19214968566E+02  0.23722739915E+02  0.51100000000E-03 0.  1.
         12    1    3    3    0    0 -0.66466431570E+01  0.11728265851E+02  0.13834822152E+02  0.19316635036E+02  0.00000000000E+00 0. -1.
</event>
<event>
 7    1  0.6230310E-012  0.5930194E+02  0.7816164E-02  0.1266605E+00
        -11   -1    0    0    0    0  0.00000000000E+00  0.00000000000E+00  0.45593999997E+02  0.45594000000E+02  0.51100000000E-03 0. -1.
         11   -1    0    0    0    0 -0.00000000000E+00 -0.00000000000E+00 -0.45593999997E+02  0.45594000000E+02  0.51100000000E-03 0.  1.
    9900012    2    1    2    0    0 -0.13252083397E+02 -0.13013540801E+02 -0.25918157615E+02  0.59301939524E+02  0.49999991786E+02 0.  0.
         12    1    1    2    0    0  0.13252083397E+02  0.13013540801E+02  0.25918157615E+02  0.31886060476E+02  0.00000000000E+00 0. -1.
         11    1    3    3    0    0  0.99775746578E+01 -0.30017081674E+00 -0.22945770884E+02  0.25022999426E+02  0.51100000000E-03 0. -1.
        -11    1    3    3    0    0 -0.21507077122E+01  0.53888774333E+01  0.18255189002E+01  0.60826033218E+01  0.51100000000E-03 0.  1.
        -12    1    3    3    0    0 -0.21078950343E+02 -0.18102247417E+02 -0.47979056315E+01  0.28196336776E+02  0.00000000000E+00 0.  1.
</event>
<event>
 7    1  0.6230310E-012  0.5930191E+02  0.7816164E-02  0.1266605E+00
        -11   -1    0    0    0    0  0.00000000000E+00  0.00000000000E+00  0.45593999997E+02  0.45594000000E+02  0.51100000000E-03 0. -1.
         11   -1    0    0    0    0 -0.00000000000E+00 -0.00000000000E+00 -0.45593999997E+02  0.45594000000E+02  0.51100000000E-03 0.  1.
    9900012    2    1    2    0    0  0.24880908936E+02  0.16469506230E+02 -0.11243608785E+02  0.59301905798E+02  0.49999930278E+02 0.  0.
         12    1    1    2    0    0 -0.24880908936E+02 -0.16469506230E+02  0.11243608785E+02  0.31886094202E+02  0.00000000000E+00 0. -1.
         11    1    3    3    0    0  0.11357150645E+02  0.28327344648E+00 -0.17466705853E+02  0.20836288735E+02  0.51100000000E-03 0. -1.
        -11    1    3    3    0    0  0.17046280797E+02  0.34444318878E+01 -0.79172317985E+01  0.19108175204E+02  0.51100000000E-03 0.  1.
         12    1    3    3    0    0 -0.35225225050E+01  0.12741800895E+02  0.14140328867E+02  0.19357441859E+02  0.00000000000E+00 0. -1.
</event>
<event>
 7    1  0.6230310E-012  0.5930196E+02  0.7816164E-02  0.1266605E+00
        -11   -1    0    0    0    0  0.00000000000E+00  0.00000000000E+00  0.45593999997E+02  0.45594000000E+02  0.51100000000E-03 0.  1.
         11   -1    0    0    0    0 -0.00000000000E+00 -0.00000000000E+00 -0.45593999997E+02  0.45594000000E+02  0.51100000000E-03 0. -1.
    9900012    2    1    2    0    0 -0.18838580758E+02  0.19193498279E+02  0.17130006102E+02  0.59301959007E+02  0.50000027318E+02 0.  0.
         12    1    1    2    0    0  0.18838580758E+02 -0.19193498279E+02 -0.17130006102E+02  0.31886040993E+02  0.00000000000E+00 0. -1.
         11    1    3    3    0    0  0.91661309642E+01 -0.73791253410E+01  0.50123620896E+00  0.11777974599E+02  0.51100000000E-03 0. -1.
        -11    1    3    3    0    0 -0.17270262697E+02  0.88376344694E+01  0.18373780610E+02  0.26720059334E+02  0.51100000000E-03 0.  1.
         12    1    3    3    0    0 -0.10734449026E+02  0.17734989151E+02 -0.17450107175E+01  0.20803925074E+02  0.00000000000E+00 0. -1.
</event>
<event>
 7    1  0.6230310E-012  0.5930193E+02  0.7816164E-02  0.1266605E+00
        -11   -1    0    0    0    0  0.00000000000E+00  0.00000000000E+00  0.45593999997E+02  0.45594000000E+02  0.51100000000E-03 0.  1.
         11   -1    0    0    0    0 -0.00000000000E+00 -0.00000000000E+00 -0.45593999997E+02  0.45594000000E+02  0.51100000000E-03 0. -1.
    9900012    2    1    2    0    0 -0.81471204417E+01  0.19105471144E+02  0.24193528520E+02  0.59301930606E+02  0.49999975523E+02 0.  0.
         12    1    1    2    0    0  0.81471204417E+01 -0.19105471144E+02 -0.24193528520E+02  0.31886069394E+02  0.00000000000E+00 0. -1.
         11    1    3    3    0    0  0.10844729224E+02  0.49336035995E+01  0.94406619769E+01  0.15201141248E+02  0.51100000000E-03 0. -1.
        -11    1    3    3    0    0  0.33782795201E+01 -0.24046744361E+01 -0.74253417845E+01  0.85047594050E+01  0.51100000000E-03 0.  1.
        -12    1    3    3    0    0 -0.22370129186E+02  0.16576541980E+02  0.22178208328E+02  0.35596029953E+02  0.00000000000E+00 0.  1.
</event>
<event>
 7    1  0.6230310E-012  0.5930196E+02  0.7816164E-02  0.1266605E+00
        -11   -1    0    0    0    0  0.00000000000E+00  0.00000000000E+00  0.45593999997E+02  0.45594000000E+02  0.51100000000E-03 0.  1.
         11   -1    0    0    0    0 -0.00000000000E+00 -0.00000000000E+00 -0.45593999997E+02  0.45594000000E+02  0.51100000000E-03 0. -1.
    9900012    2    1    2    0    0  0.39414234806E+01 -0.19752643827E+02  0.24718769924E+02  0.59301963185E+02  0.50000034938E+02 0.  0.
         12    1    1    2    0    0 -0.39414234806E+01  0.19752643827E+02 -0.24718769924E+02  0.31886036815E+02  0.00000000000E+00 0. -1.
         11    1    3    3    0    0 -0.16319852010E+01  0.71103710874E+01  0.69964445031E+01  0.10107966593E+02  0.51100000000E-03 0. -1.
        -11    1    3    3    0    0 -0.15267423859E+02 -0.13808221988E+02  0.12403102165E+02  0.24033272132E+02  0.51100000000E-03 0.  1.
        -12    1    3    3    0    0  0.20840832541E+02 -0.13054792926E+02  0.53192232558E+01  0.25160724460E+02  0.00000000000E+00 0.  1.
</event>
<event>
 7    1  0.6230310E-012  0.5930194E+02  0.7816164E-02  0.1266605E+00
        -11   -1    0    0    0    0  0.00000000000E+00  0.00000000000E+00  0.45593999997E+02  0.45594000000E+02  0.51100000000E-03 0. -1.
         11   -1    0    0    0    0 -0.00000000000E+00 -0.00000000000E+00 -0.45593999997E+02  0.45594000000E+02  0.51100000000E-03 0.  1.
    9900012    2    1    2    0    0  0.11709122983E+02  0.28573135192E+02 -0.79494353069E+01  0.59301935059E+02  0.49999983644E+02 0.  0.
         12    1    1    2    0    0 -0.11709122983E+02 -0.28573135192E+02  0.79494353069E+01  0.31886064941E+02  0.00000000000E+00 0. -1.
         11    1    3    3    0    0 -0.10932456617E+02 -0.30799274686E+01 -0.48193257561E+00  0.11368237338E+02  0.51100000000E-03 0. -1.
        -11    1    3    3    0    0 -0.26796040239E+01 -0.31435187585E+01  0.52334855746E+00  0.41636380587E+01  0.51100000000E-03 0.  1.
        -12    1    3    3    0    0  0.25321183624E+02  0.34796581419E+02 -0.79908512887E+01  0.43770059663E+02  0.00000000000E+00 0.  1.
</event>
<event>
 7    1  0.6230310E-012  0.5930193E+02  0.7816164E-02  0.1266605E+00
        -11   -1    0    0    0    0  0.00000000000E+00  0.00000000000E+00  0.45593999997E+02  0.45594000000E+02  0.51100000000E-03 0.  1.
         11   -1    0    0    0    0 -0.00000000000E+00 -0.00000000000E+00 -0.45593999997E+02  0.45594000000E+02  0.51100000000E-03 0. -1.
    9900012    2    1    2    0    0  0.21709709753E+02  0.13103201673E+02  0.19331744107E+02  0.59301925895E+02  0.49999966930E+02 0.  0.
         12    1    1    2    0    0 -0.21709709753E+02 -0.13103201673E+02 -0.19331744107E+02  0.31886074105E+02  0.00000000000E+00 0. -1.
         11    1    3    3    0    0  0.21025058994E+02  0.13545024988E+01  0.13856856356E+02  0.25217062697E+02  0.51100000000E-03 0. -1.
        -11    1    3    3    0    0 -0.12318014740E+01 -0.78681597322E+01  0.11031949725E+02  0.13606218705E+02  0.51100000000E-03 0.  1.
        -12    1    3    3    0    0  0.19164522332E+01  0.19616858906E+02 -0.55570619744E+01  0.20478644493E+02  0.00000000000E+00 0.  1.
</event>
<event>
 7    1  0.6230310E-012  0.5930197E+02  0.7816164E-02  0.1266605E+00
        -11   -1    0    0    0    0  0.00000000000E+00  0.00000000000E+00  0.45593999997E+02  0.45594000000E+02  0.51100000000E-03 0. -1.
         11   -1    0    0    0    0 -0.00000000000E+00 -0.00000000000E+00 -0.45593999997E+02  0.45594000000E+02  0.51100000000E-03 0.  1.
    9900012    2    1    2    0    0  0.99439445813E+01  0.63133370931E+01 -0.29630707638E+02  0.59301967098E+02  0.50000042075E+02 0.  0.
         12    1    1    2    0    0 -0.99439445813E+01 -0.63133370931E+01  0.29630707638E+02  0.31886032902E+02  0.00000000000E+00 0. -1.
         11    1    3    3    0    0  0.40206244878E+01 -0.98001868799E+01  0.12392667833E+01  0.10665123842E+02  0.51100000000E-03 0. -1.
        -11    1    3    3    0    0 -0.62574039626E+01  0.95250773897E+00 -0.28324303485E+02  0.29022896884E+02  0.51100000000E-03 0.  1.
        -12    1    3    3    0    0  0.12180724056E+02  0.15161016234E+02 -0.25456709362E+01  0.19613946372E+02  0.00000000000E+00 0.  1.
</event>
<event>
 7    1  0.6230310E-012  0.5930195E+02  0.7816164E-02  0.1266605E+00
        -11   -1    0    0    0    0  0.00000000000E+00  0.00000000000E+00  0.45593999997E+02  0.45594000000E+02  0.51100000000E-03 0.  1.
         11   -1    0    0    0    0 -0.00000000000E+00 -0.00000000000E+00 -0.45593999997E+02  0.45594000000E+02  0.51100000000E-03 0. -1.
    9900012    2    1    2    0    0  0.16214078188E+01  0.11760388570E+02  0.29593650986E+02  0.59301954756E+02  0.50000019566E+02 0.  0.
         12    1    1    2    0    0 -0.16214078188E+01 -0.11760388570E+02 -0.29593650986E+02  0.31886045244E+02  0.00000000000E+00 0. -1.
         11    1    3    3    0    0  0.13414522191E+02  0.29097872492E+01  0.24627369787E+02  0.28194389696E+02  0.51100000000E-03 0.  1.
        -11    1    3    3    0    0 -0.10450733341E+02 -0.61318678099E+01  0.94996787212E+01  0.15396802469E+02  0.51100000000E-03 0. -1.
        -12    1    3    3    0    0 -0.13423810309E+01  0.14982469131E+02 -0.45333975225E+01  0.15710762591E+02  0.00000000000E+00 0.  1.
</event>
<event>
 7    1  0.6230310E-012  0.5930197E+02  0.7816164E-02  0.1266605E+00
        -11   -1    0    0    0    0  0.00000000000E+00  0.00000000000E+00  0.45593999997E+02  0.45594000000E+02  0.51100000000E-03 0.  1.
         11   -1    0    0    0    0 -0.00000000000E+00 -0.00000000000E+00 -0.45593999997E+02  0.45594000000E+02  0.51100000000E-03 0. -1.
    9900012    2    1    2    0    0  0.19806605574E+02  0.18837441817E+02  0.16418524405E+02  0.59301971990E+02  0.50000050997E+02 0.  0.
         12    1    1    2    0    0 -0.19806605574E+02 -0.18837441817E+02 -0.16418524405E+02  0.31886028010E+02  0.00000000000E+00 0. -1.
         11    1    3    3    0    0  0.19539780640E+02 -0.39242556831E+01 -0.99782724611E+00  0.19954910915E+02  0.51100000000E-03 0. -1.
        -11    1    3    3    0    0  0.88057306651E+01  0.32061318122E+01  0.15249473237E+02  0.17898787893E+02  0.51100000000E-03 0.  1.
         12    1    3    3    0    0 -0.85389057314E+01  0.19555565688E+02  0.21668784141E+01  0.21448273183E+02  0.00000000000E+00 0. -1.
</event>
<event>
 7    1  0.6230310E-012  0.5930187E+02  0.7816164E-02  0.1266605E+00
        -11   -1    0    0    0    0  0.00000000000E+00  0.00000000000E+00  0.45593999997E+02  0.45594000000E+02  0.51100000000E-03 0.  1.
         11   -1    0    0    0    0 -0.00000000000E+00 -0.00000000000E+00 -0.45593999997E+02  0.45594000000E+02  0.51100000000E-03 0. -1.
    9900012    2    1    2    0    0 -0.12000604909E+02 -0.25634306137E+02  0.14683097639E+02  0.59301866249E+02  0.49999858151E+02 0.  0.
         12    1    1    2    0    0  0.12000604909E+02  0.25634306137E+02 -0.14683097639E+02  0.31886133751E+02  0.00000000000E+00 0. -1.
         11    1    3    3    0    0 -0.13421267528E+02  0.32892392100E+01  0.71230917629E+01  0.15546316386E+02  0.51100000000E-03 0. -1.
        -11    1    3    3    0    0 -0.33920013417E+01 -0.10565798560E+02  0.18703486042E+02  0.21747693273E+02  0.51100000000E-03 0.  1.
        -12    1    3    3    0    0  0.48126639610E+01 -0.18357746786E+02 -0.11143480166E+02  0.22007856590E+02  0.00000000000E+00 0.  1.
</event>
<event>
 7    1  0.6230310E-012  0.5930193E+02  0.7816164E-02  0.1266605E+00
        -11   -1    0    0    0    0  0.00000000000E+00  0.00000000000E+00  0.45593999997E+02  0.45594000000E+02  0.51100000000E-03 0. -1.
         11   -1    0    0    0    0 -0.00000000000E+00 -0.00000000000E+00 -0.45593999997E+02  0.45594000000E+02  0.51100000000E-03 0.  1.
    9900012    2    1    2    0    0 -0.27387864217E+02 -0.16050192973E+02 -0.30029708639E+01  0.59301927259E+02  0.49999969418E+02 0.  0.
         12    1    1    2    0    0  0.27387864217E+02  0.16050192973E+02  0.30029708639E+01  0.31886072741E+02  0.00000000000E+00 0. -1.
         11    1    3    3    0    0  0.59216819975E+01 -0.94620408321E+01 -0.17707791514E+01  0.11301866813E+02  0.51100000000E-03 0. -1.
        -11    1    3    3    0    0  0.42181083616E+01  0.36929272928E+01  0.62293397967E+01  0.83806219759E+01  0.51100000000E-03 0.  1.
        -12    1    3    3    0    0 -0.37527654576E+02 -0.10281079433E+02 -0.74615315092E+01  0.39619438471E+02  0.00000000000E+00 0.  1.
</event>
<event>
 7    1  0.6230310E-012  0.5930183E+02  0.7816164E-02  0.1266605E+00
        -11   -1    0    0    0    0  0.00000000000E+00  0.00000000000E+00  0.45593999997E+02  0.45594000000E+02  0.51100000000E-03 0. -1.
         11   -1    0    0    0    0 -0.00000000000E+00 -0.00000000000E+00 -0.45593999997E+02  0.45594000000E+02  0.51100000000E-03 0.  1.
    9900012    2    1    2    0    0  0.14232382293E+02  0.20355450152E+02 -0.19995571262E+02  0.59301828597E+02  0.49999789482E+02 0.  0.
         12    1    1    2    0    0 -0.14232382293E+02 -0.20355450152E+02  0.19995571262E+02  0.31886171403E+02  0.00000000000E+00 0. -1.
         11    1    3    3    0    0  0.11062812803E+02 -0.18396846695E+01 -0.89146824784E+01  0.14326263670E+02  0.51100000000E-03 0. -1.
        -11    1    3    3    0    0  0.19202349593E+02  0.60982504009E+01 -0.11484319537E+01  0.20180133401E+02  0.51100000000E-03 0.  1.
         12    1    3    3    0    0 -0.16032780104E+02  0.16096884421E+02 -0.99324568297E+01  0.24795431527E+02  0.00000000000E+00 0. -1.
</event>
<event>
 7    1  0.6230310E-012  0.5930197E+02  0.7816164E-02  0.1266605E+00
        -11   -1    0    0    0    0  0.00000000000E+00  0.00000000000E+00  0.45593999997E+02  0.45594000000E+02  0.51100000000E-03 0.  1.
         11   -1    0    0    0    0 -0.00000000000E+00 -0.00000000000E+00 -0.45593999997E+02  0.45594000000E+02  0.51100000000E-03 0. -1.
    9900012    2    1    2    0    0 -0.23804199254E+02  0.77280106622E+01  0.19757445640E+02  0.59301973137E+02  0.50000053088E+02 0.  0.
         12    1    1    2    0    0  0.23804199254E+02 -0.77280106622E+01 -0.19757445640E+02  0.31886026863E+02  0.00000000000E+00 0. -1.
         11    1    3    3    0    0 -0.11488811200E+02  0.84621453824E+01  0.16223140298E+01  0.14360800477E+02  0.51100000000E-03 0. -1.
        -11    1    3    3    0    0 -0.14698731754E+02  0.81158933223E+01  0.27254833656E+02  0.32011660336E+02  0.51100000000E-03 0.  1.
         12    1    3    3    0    0  0.23833437001E+01 -0.88500280425E+01 -0.91197020453E+01  0.12929512324E+02  0.00000000000E+00 0. -1.
</event>
<event>
 7    1  0.6230310E-012  0.5930194E+02  0.7816164E-02  0.1266605E+00
        -11   -1    0    0    0    0  0.00000000000E+00  0.00000000000E+00  0.45593999997E+02  0.45594000000E+02  0.51100000000E-03 0.  1.
         11   -1    0    0    0    0 -0.00000000000E+00 -0.00000000000E+00 -0.45593999997E+02  0.45594000000E+02  0.51100000000E-03 0. -1.
    9900012    2    1    2    0    0 -0.43620762234E+01 -0.15009150974E+02  0.27792416735E+02  0.59301941135E+02  0.49999994725E+02 0.  0.
         12    1    1    2    0    0  0.43620762234E+01  0.15009150974E+02 -0.27792416735E+02  0.31886058865E+02  0.00000000000E+00 0. -1.
         11    1    3    3    0    0 -0.18461188073E+01 -0.11574886496E+02  0.36075231477E+01  0.12263783086E+02  0.51100000000E-03 0. -1.
        -11    1    3    3    0    0 -0.11676356606E+01 -0.42511969952E+01 -0.10983079476E+02  0.11834867298E+02  0.51100000000E-03 0.  1.
        -12    1    3    3    0    0 -0.13483217556E+01  0.81693251788E+00  0.35167973064E+02  0.35203290751E+02  0.00000000000E+00 0.  1.
</event>
<event>
 7    1  0.6230310E-012  0.5930196E+02  0.7816164E-02  0.1266605E+00
        -11   -1    0    0    0    0  0.00000000000E+00  0.00000000000E+00  0.45593999997E+02  0.45594000000E+02  0.51100000000E-03 0. -1.
         11   -1    0    0    0    0 -0.00000000000E+00 -0.00000000000E+00 -0.45593999997E+02  0.45594000000E+02  0.51100000000E-03 0.  1.
    9900012    2    1    2    0    0  0.29533288575E+02 -0.11955841386E+02  0.12498441923E+01  0.59301962494E+02  0.50000033679E+02 0.  0.
         12    1    1    2    0    0 -0.29533288575E+02  0.11955841386E+02 -0.12498441923E+01  0.31886037506E+02  0.00000000000E+00 0. -1.
         11    1    3    3    0    0  0.95312917846E+01  0.46438346478E+00  0.10854686289E+02  0.14452867874E+02  0.51100000000E-03 0. -1.
        -11    1    3    3    0    0  0.26164438688E+02  0.27039299959E+01 -0.84654150398E+00  0.26317403407E+02  0.51100000000E-03 0.  1.
        -12    1    3    3    0    0 -0.61624418975E+01 -0.15124154847E+02 -0.87583005928E+01  0.18531691214E+02  0.00000000000E+00 0.  1.
</event>
<event>
 7    1  0.6230310E-012  0.5930193E+02  0.7816164E-02  0.1266605E+00
        -11   -1    0    0    0    0  0.00000000000E+00  0.00000000000E+00  0.45593999997E+02  0.45594000000E+02  0.51100000000E-03 0. -1.
         11   -1    0    0    0    0 -0.00000000000E+00 -0.00000000000E+00 -0.45593999997E+02  0.45594000000E+02  0.51100000000E-03 0.  1.
    9900012    2    1    2    0    0  0.30570373034E+02 -0.14566383045E+01  0.89471826602E+01  0.59301928117E+02  0.49999970983E+02 0.  0.
         12    1    1    2    0    0 -0.30570373034E+02  0.14566383045E+01 -0.89471826602E+01  0.31886071883E+02  0.00000000000E+00 0. -1.
         11    1    3    3    0    0  0.21027263351E+02  0.57703428023E+01  0.47814058594E+01  0.22322735100E+02  0.51100000000E-03 0. -1.
        -11    1    3    3    0    0 -0.73074321071E+01  0.60449104117E+01  0.10946585789E+02  0.14483343764E+02  0.51100000000E-03 0.  1.
        -12    1    3    3    0    0  0.16850541789E+02 -0.13271891518E+02 -0.67808089884E+01  0.22495849253E+02  0.00000000000E+00 0.  1.
</event>
<event>
 7    1  0.6230310E-012  0.5930199E+02  0.7816164E-02  0.1266605E+00
        -11   -1    0    0    0    0  0.00000000000E+00  0.00000000000E+00  0.45593999997E+02  0.45594000000E+02  0.51100000000E-03 0.  1.
         11   -1    0    0    0    0 -0.00000000000E+00 -0.00000000000E+00 -0.45593999997E+02  0.45594000000E+02  0.51100000000E-03 0. -1.
    9900012    2    1    2    0    0  0.19889046562E+02  0.13578429827E+02  0.20899033219E+02  0.59301991796E+02  0.50000087117E+02 0.  0.
         12    1    1    2    0    0 -0.19889046562E+02 -0.13578429827E+02 -0.20899033219E+02  0.31886008204E+02  0.00000000000E+00 0. -1.
         11    1    3    3    0    0  0.33246213463E+01  0.42151621857E+01 -0.12815147507E+02  0.13894196819E+02  0.51100000000E-03 0.  1.
        -11    1    3    3    0    0 -0.37782026705E+01 -0.37102960905E+01  0.11106121760E+02  0.12303944624E+02  0.51100000000E-03 0. -1.
        -12    1    3    3    0    0  0.20342627886E+02  0.13073563732E+02  0.22608058967E+02  0.33103850353E+02  0.00000000000E+00 0.  1.
</event>
<event>
 7    1  0.6230310E-012  0.5930196E+02  0.7816164E-02  0.1266605E+00
        -11   -1    0    0    0    0  0.00000000000E+00  0.00000000000E+00  0.45593999997E+02  0.45594000000E+02  0.51100000000E-03 0.  1.
         11   -1    0    0    0    0 -0.00000000000E+00 -0.00000000000E+00 -0.45593999997E+02  0.45594000000E+02  0.51100000000E-03 0. -1.
    9900012    2    1    2    0    0  0.27393095243E+02  0.64071839778E+01  0.15009528224E+02  0.59301958994E+02  0.50000027294E+02 0.  0.
         12    1    1    2    0    0 -0.27393095243E+02 -0.64071839778E+01 -0.15009528224E+02  0.31886041006E+02  0.00000000000E+00 0. -1.
         11    1    3    3    0    0  0.14539863065E+02  0.21372837924E+02 -0.79253245470E+01  0.27037318438E+02  0.51100000000E-03 0. -1.
        -11    1    3    3    0    0  0.32824995322E+01 -0.43718103867E+01  0.26449403365E+00  0.54733432737E+01  0.51100000000E-03 0.  1.
        -12    1    3    3    0    0  0.95707326458E+01 -0.10593843560E+02  0.22670358738E+02  0.26791297282E+02  0.00000000000E+00 0.  1.
</event>
<event>
 7    1  0.6230310E-012  0.5930194E+02  0.7816164E-02  0.1266605E+00
        -11   -1    0    0    0    0  0.00000000000E+00  0.00000000000E+00  0.45593999997E+02  0.45594000000E+02  0.51100000000E-03 0.  1.
         11   -1    0    0    0    0 -0.00000000000E+00 -0.00000000000E+00 -0.45593999997E+02  0.45594000000E+02  0.51100000000E-03 0. -1.
    9900012    2    1    2    0    0 -0.74393811766E+01 -0.15285383041E+01  0.30968372252E+02  0.59301938758E+02  0.49999990388E+02 0.  0.
         12    1    1    2    0    0  0.74393811766E+01  0.15285383041E+01 -0.30968372252E+02  0.31886061242E+02  0.00000000000E+00 0. -1.
         11    1    3    3    0    0 -0.12472969797E+02 -0.15267029065E+02  0.16444074791E+02  0.25672256387E+02  0.51100000000E-03 0. -1.
        -11    1    3    3    0    0 -0.72977216399E+01  0.63629958909E+01 -0.37499728860E+01  0.10383003166E+02  0.51100000000E-03 0.  1.
         12    1    3    3    0    0  0.12331310260E+02  0.73754948701E+01  0.18274270347E+02  0.23246679204E+02  0.00000000000E+00 0. -1.
</event>
<event>
 7    1  0.6230310E-012  0.5930193E+02  0.7816164E-02  0.1266605E+00
        -11   -1    0    0    0    0  0.00000000000E+00  0.00000000000E+00  0.45593999997E+02  0.45594000000E+02  0.51100000000E-03 0.  1.
         11   -1    0    0    0    0 -0.00000000000E+00 -0.00000000000E+00 -0.45593999997E+02  0.45594000000E+02  0.51100000000E-03 0. -1.
    9900012    2    1    2    0    0 -0.12475137881E+02 -0.13471344771E+02  0.26069435561E+02  0.59301926778E+02  0.49999968540E+02 0.  0.
         12    1    1    2    0    0  0.12475137881E+02  0.13471344771E+02 -0.26069435561E+02  0.31886073222E+02  0.00000000000E+00 0. -1.
         11    1    3    3    0    0  0.77763530842E+01  0.11886980069E+01 -0.37402786601E+01  0.87105886689E+01  0.51100000000E-03 0. -1.
        -11    1    3    3    0    0 -0.87351897365E+01  0.68654661048E+01 -0.11442056434E+01  0.11169036278E+02  0.51100000000E-03 0.  1.
         12    1    3    3    0    0 -0.11516301229E+02 -0.21525508882E+02  0.30953919865E+02  0.39422301830E+02  0.00000000000E+00 0. -1.
</event>
<event>
 7    1  0.6230310E-012  0.5930199E+02  0.7816164E-02  0.1266605E+00
        -11   -1    0    0    0    0  0.00000000000E+00  0.00000000000E+00  0.45593999997E+02  0.45594000000E+02  0.51100000000E-03 0.  1.
         11   -1    0    0    0    0 -0.00000000000E+00 -0.00000000000E+00 -0.45593999997E+02  0.45594000000E+02  0.51100000000E-03 0. -1.
    9900012    2    1    2    0    0 -0.23070260563E+02 -0.21897834294E+02  0.22283180464E+01  0.59301992559E+02  0.50000088509E+02 0.  0.
         12    1    1    2    0    0  0.23070260563E+02  0.21897834294E+02 -0.22283180464E+01  0.31886007441E+02  0.00000000000E+00 0. -1.
         11    1    3    3    0    0  0.70921250325E+01  0.72576268122E+01 -0.46361574417E+01  0.11156403565E+02  0.51100000000E-03 0. -1.
        -11    1    3    3    0    0 -0.17600529377E+02 -0.35730958737E+01 -0.25303160261E+01  0.18136927742E+02  0.51100000000E-03 0.  1.
        -12    1    3    3    0    0 -0.12561856219E+02 -0.25582365232E+02  0.93947915142E+01  0.30008661252E+02  0.00000000000E+00 0.  1.
</event>
<event>
 7    1  0.6230310E-012  0.5930191E+02  0.7816164E-02  0.1266605E+00
        -11   -1    0    0    0    0  0.00000000000E+00  0.00000000000E+00  0.45593999997E+02  0.45594000000E+02  0.51100000000E-03 0.  1.
         11   -1    0    0    0    0 -0.00000000000E+00 -0.00000000000E+00 -0.45593999997E+02  0.45594000000E+02  0.51100000000E-03 0. -1.
    9900012    2    1    2    0    0 -0.15730401235E+02 -0.14648589825E+02  0.23551982315E+02  0.59301912472E+02  0.49999942450E+02 0.  0.
         12    1    1    2    0    0  0.15730401235E+02  0.14648589825E+02 -0.23551982315E+02  0.31886087528E+02  0.00000000000E+00 0. -1.
         11    1    3    3    0    0 -0.15482719302E+02  0.65124730932E+00 -0.83616207989E+01  0.17608390690E+02  0.51100000000E-03 0. -1.
        -11    1    3    3    0    0 -0.57496102871E+01 -0.14071652950E+02  0.81052303997E+01  0.17226845193E+02  0.51100000000E-03 0.  1.
        -12    1    3    3    0    0  0.55019283548E+01 -0.12281841840E+01  0.23808372714E+02  0.24466676589E+02  0.00000000000E+00 0.  1.
</event>
<event>
 7    1  0.6230310E-012  0.5930193E+02  0.7816164E-02  0.1266605E+00
        -11   -1    0    0    0    0  0.00000000000E+00  0.00000000000E+00  0.45593999997E+02  0.45594000000E+02  0.51100000000E-03 0.  1.
         11   -1    0    0    0    0 -0.00000000000E+00 -0.00000000000E+00 -0.45593999997E+02  0.45594000000E+02  0.51100000000E-03 0. -1.
    9900012    2    1    2    0    0  0.16170860938E+00 -0.31482105057E+01  0.31729859343E+02  0.59301931679E+02  0.49999977478E+02 0.  0.
         12    1    1    2    0    0 -0.16170860938E+00  0.31482105057E+01 -0.31729859343E+02  0.31886068321E+02  0.00000000000E+00 0. -1.
         11    1    3    3    0    0 -0.12194487649E+02  0.10975597071E+02  0.22693935841E+02  0.28003285241E+02  0.51100000000E-03 0. -1.
        -11    1    3    3    0    0  0.35427624253E+01  0.55233339202E+01  0.71162731910E+01  0.96798619611E+01  0.51100000000E-03 0.  1.
         12    1    3    3    0    0  0.88134338327E+01 -0.19647141497E+02  0.19196503109E+01  0.21618784476E+02  0.00000000000E+00 0. -1.
</event>
<event>
 7    1  0.6230310E-012  0.5930195E+02  0.7816164E-02  0.1266605E+00
        -11   -1    0    0    0    0  0.00000000000E+00  0.00000000000E+00  0.45593999997E+02  0.45594000000E+02  0.51100000000E-03 0. -1.
         11   -1    0    0    0    0 -0.00000000000E+00 -0.00000000000E+00 -0.45593999997E+02  0.45594000000E+02  0.51100000000E-03 0.  1.
    9900012    2    1    2    0    0 -0.29577827710E+02  0.11908666213E+02 -0.23647071348E+00  0.59301950677E+02  0.50000012127E+02 0.  0.
         12    1    1    2    0    0  0.29577827710E+02 -0.11908666213E+02  0.23647071348E+00  0.31886049323E+02  0.00000000000E+00 0. -1.
         11    1    3    3    0    0  0.19743320056E+00 -0.67857119194E+00  0.15970570791E+02  0.15986199373E+02  0.51100000000E-03 0. -1.
        -11    1    3    3    0    0 -0.64955415133E+01  0.98879963533E+01  0.38788788315E+01  0.12450310546E+02  0.51100000000E-03 0.  1.
        -12    1    3    3    0    0 -0.23279719397E+02  0.26992410515E+01 -0.20085920336E+02  0.30865440759E+02  0.00000000000E+00 0.  1.
</event>
<event>
 7    1  0.6230310E-012  0.5930195E+02  0.7816164E-02  0.1266605E+00
        -11   -1    0    0    0    0  0.00000000000E+00  0.00000000000E+00  0.45593999997E+02  0.45594000000E+02  0.51100000000E-03 0. -1.
         11   -1    0    0    0    0 -0.00000000000E+00 -0.00000000000E+00 -0.45593999997E+02  0.45594000000E+02  0.51100000000E-03 0.  1.
    9900012    2    1    2    0    0  0.13755014138E+02  0.56347090211E+00 -0.28761123708E+02  0.59301950538E+02  0.50000011872E+02 0.  0.
         12    1    1    2    0    0 -0.13755014138E+02 -0.56347090211E+00  0.28761123708E+02  0.31886049462E+02  0.00000000000E+00 0. -1.
         11    1    3    3    0    0  0.19967135199E+02  0.11489082474E+02 -0.26473269088E+02  0.35093011848E+02  0.51100000000E-03 0. -1.
        -11    1    3    3    0    0  0.45694868378E+01 -0.50648695259E+01 -0.81341481047E+01  0.10615906882E+02  0.51100000000E-03 0.  1.
         12    1    3    3    0    0 -0.10781607898E+02 -0.58607420457E+01  0.58462934849E+01  0.13593031807E+02  0.00000000000E+00 0. -1.
</event>
<event>
 7    1  0.6230310E-012  0.5930193E+02  0.7816164E-02  0.1266605E+00
        -11   -1    0    0    0    0  0.00000000000E+00  0.00000000000E+00  0.45593999997E+02  0.45594000000E+02  0.51100000000E-03 0.  1.
         11   -1    0    0    0    0 -0.00000000000E+00 -0.00000000000E+00 -0.45593999997E+02  0.45594000000E+02  0.51100000000E-03 0. -1.
    9900012    2    1    2    0    0 -0.81375744201E+01  0.12774661622E+01  0.30803719962E+02  0.59301934066E+02  0.49999981832E+02 0.  0.
         12    1    1    2    0    0  0.81375744201E+01 -0.12774661622E+01 -0.30803719962E+02  0.31886065934E+02  0.00000000000E+00 0. -1.
         11    1    3    3    0    0  0.12550223960E+02  0.68053565840E+01  0.37261416237E+01  0.14754834168E+02  0.51100000000E-03 0. -1.
        -11    1    3    3    0    0 -0.23873347775E+01 -0.14140205104E+02  0.66730133640E+01  0.15816885766E+02  0.51100000000E-03 0.  1.
        -12    1    3    3    0    0 -0.18300463602E+02  0.86123146821E+01  0.20404564975E+02  0.28730214132E+02  0.00000000000E+00 0.  1.
</event>
<event>
 7    1  0.6230310E-012  0.5930193E+02  0.7816164E-02  0.1266605E+00
        -11   -1    0    0    0    0  0.00000000000E+00  0.00000000000E+00  0.45593999997E+02  0.45594000000E+02  0.51100000000E-03 0.  1.
         11   -1    0    0    0    0 -0.00000000000E+00 -0.00000000000E+00 -0.45593999997E+02  0.45594000000E+02  0.51100000000E-03 0. -1.
    9900012    2    1    2    0    0  0.99436972961E+01 -0.29231056816E+02  0.79617644352E+01  0.59301929508E+02  0.49999973520E+02 0.  0.
         12    1    1    2    0    0 -0.99436972961E+01  0.29231056816E+02 -0.79617644352E+01  0.31886070492E+02  0.00000000000E+00 0. -1.
         11    1    3    3    0    0 -0.38923142911E+01 -0.36775708501E+01 -0.44287929877E+01  0.69490175915E+01  0.51100000000E-03 0. -1.
        -11    1    3    3    0    0 -0.36389977939E+00  0.88861217663E+01  0.12203387457E+02  0.15100273136E+02  0.51100000000E-03 0.  1.
        -12    1    3    3    0    0  0.14199911367E+02 -0.34439607732E+02  0.18716996599E+00  0.37252638781E+02  0.00000000000E+00 0.  1.
</event>
<event>
 7    1  0.6230310E-012  0.5930187E+02  0.7816164E-02  0.1266605E+00
        -11   -1    0    0    0    0  0.00000000000E+00  0.00000000000E+00  0.45593999997E+02  0.45594000000E+02  0.51100000000E-03 0. -1.
         11   -1    0    0    0    0 -0.00000000000E+00 -0.00000000000E+00 -0.45593999997E+02  0.45594000000E+02  0.51100000000E-03 0.  1.
    9900012    2    1    2    0    0  0.12859635015E+02  0.20223798284E+02  0.21032193673E+02  0.59301868211E+02  0.49999861729E+02 0.  0.
         12    1    1    2    0    0 -0.12859635015E+02 -0.20223798284E+02 -0.21032193673E+02  0.31886131789E+02  0.00000000000E+00 0. -1.
         11    1    3    3    0    0 -0.64637683839E+01 -0.14851611152E+01 -0.36052486423E+01  0.75487630306E+01  0.51100000000E-03 0. -1.
        -11    1    3    3    0    0 -0.67860044754E+01  0.17878339589E+02  0.10484942194E+02  0.21808688550E+02  0.51100000000E-03 0.  1.
        -12    1    3    3    0    0  0.26109407874E+02  0.38306198103E+01  0.14152500121E+02  0.29944416631E+02  0.00000000000E+00 0.  1.
</event>
<event>
 7    1  0.6230310E-012  0.5930195E+02  0.7816164E-02  0.1266605E+00
        -11   -1    0    0    0    0  0.00000000000E+00  0.00000000000E+00  0.45593999997E+02  0.45594000000E+02  0.51100000000E-03 0. -1.
         11   -1    0    0    0    0 -0.00000000000E+00 -0.00000000000E+00 -0.45593999997E+02  0.45594000000E+02  0.51100000000E-03 0.  1.
    9900012    2    1    2    0    0  0.19686385485E+02  0.20666035148E+02 -0.14215531902E+02  0.59301950865E+02  0.50000012470E+02 0.  0.
         12    1    1    2    0    0 -0.19686385485E+02 -0.20666035148E+02  0.14215531902E+02  0.31886049135E+02  0.00000000000E+00 0. -1.
         11    1    3    3    0    0 -0.65396034653E+01  0.23525590545E+01 -0.14307212009E+01  0.70956261883E+01  0.51100000000E-03 0. -1.
        -11    1    3    3    0    0  0.46821002005E+00 -0.11320341051E+02 -0.35241122582E+01  0.11865441821E+02  0.51100000000E-03 0.  1.
         12    1    3    3    0    0  0.25757778930E+02  0.29633817144E+02 -0.92606984433E+01  0.40340882856E+02  0.00000000000E+00 0. -1.
</event>
<event>
 7    1  0.6230310E-012  0.5930198E+02  0.7816164E-02  0.1266605E+00
        -11   -1    0    0    0    0  0.00000000000E+00  0.00000000000E+00  0.45593999997E+02  0.45594000000E+02  0.51100000000E-03 0. -1.
         11   -1    0    0    0    0 -0.00000000000E+00 -0.00000000000E+00 -0.45593999997E+02  0.45594000000E+02  0.51100000000E-03 0.  1.
    9900012    2    1    2    0    0  0.14738218725E+02  0.20121336771E+02 -0.19865417835E+02  0.59301982525E+02  0.50000070211E+02 0.  0.
         12    1    1    2    0    0 -0.14738218725E+02 -0.20121336771E+02  0.19865417835E+02  0.31886017475E+02  0.00000000000E+00 0. -1.
         11    1    3    3    0    0  0.46714731452E+01 -0.84673566950E+01 -0.45690325975E+01  0.10695552809E+02  0.51100000000E-03 0. -1.
        -11    1    3    3    0    0  0.12876075319E+02  0.36472148716E+01  0.69389720414E+01  0.15074641793E+02  0.51100000000E-03 0.  1.
        -12    1    3    3    0    0 -0.28093297391E+01  0.24941478594E+02 -0.22235357279E+02  0.33531787924E+02  0.00000000000E+00 0.  1.
</event>
<event>
 7    1  0.6230310E-012  0.5930194E+02  0.7816164E-02  0.1266605E+00
        -11   -1    0    0    0    0  0.00000000000E+00  0.00000000000E+00  0.45593999997E+02  0.45594000000E+02  0.51100000000E-03 0.  1.
         11   -1    0    0    0    0 -0.00000000000E+00 -0.00000000000E+00 -0.45593999997E+02  0.45594000000E+02  0.51100000000E-03 0. -1.
    9900012    2    1    2    0    0 -0.18282649595E+02  0.26123566006E+02 -0.15787224542E+00  0.59301938770E+02  0.49999990412E+02 0.  0.
         12    1    1    2    0    0  0.18282649595E+02 -0.26123566006E+02  0.15787224542E+00  0.31886061230E+02  0.00000000000E+00 0. -1.
         11    1    3    3    0    0  0.65705850348E+01  0.21169332776E+02  0.77431868389E+01  0.23479143523E+02  0.51100000000E-03 0. -1.
        -11    1    3    3    0    0 -0.38426640211E+01  0.44358418872E+01  0.76760540580E+01  0.96625341495E+01  0.51100000000E-03 0.  1.
         12    1    3    3    0    0 -0.21010570609E+02  0.51839134343E+00 -0.15577113142E+02  0.26160261098E+02  0.00000000000E+00 0. -1.
</event>
<event>
 7    1  0.6230310E-012  0.5930193E+02  0.7816164E-02  0.1266605E+00
        -11   -1    0    0    0    0  0.00000000000E+00  0.00000000000E+00  0.45593999997E+02  0.45594000000E+02  0.51100000000E-03 0.  1.
         11   -1    0    0    0    0 -0.00000000000E+00 -0.00000000000E+00 -0.45593999997E+02  0.45594000000E+02  0.51100000000E-03 0. -1.
    9900012    2    1    2    0    0  0.63591217694E+01  0.23181130703E+02  0.20950374152E+02  0.59301930511E+02  0.49999975348E+02 0.  0.
         12    1    1    2    0    0 -0.63591217694E+01 -0.23181130703E+02 -0.20950374152E+02  0.31886069489E+02  0.00000000000E+00 0. -1.
         11    1    3    3    0    0  0.20193090255E+01 -0.14172390295E+01 -0.34095745576E+01  0.42084883666E+01  0.51100000000E-03 0. -1.
        -11    1    3    3    0    0  0.20158691717E+02  0.46867243239E+01  0.20926441550E+02  0.29432196534E+02  0.51100000000E-03 0.  1.
         12    1    3    3    0    0 -0.15818878973E+02  0.19911645409E+02  0.34335071601E+01  0.25661245610E+02  0.00000000000E+00 0. -1.
</event>
<event>
 7    1  0.6230310E-012  0.5930194E+02  0.7816164E-02  0.1266605E+00
        -11   -1    0    0    0    0  0.00000000000E+00  0.00000000000E+00  0.45593999997E+02  0.45594000000E+02  0.51100000000E-03 0.  1.
         11   -1    0    0    0    0 -0.00000000000E+00 -0.00000000000E+00 -0.45593999997E+02  0.45594000000E+02  0.51100000000E-03 0. -1.
    9900012    2    1    2    0    0 -0.19969232658E+02 -0.17149483557E+02  0.17995714533E+02  0.59301940651E+02  0.49999993842E+02 0.  0.
         12    1    1    2    0    0  0.19969232658E+02  0.17149483557E+02 -0.17995714533E+02  0.31886059349E+02  0.00000000000E+00 0. -1.
         11    1    3    3    0    0  0.22230461453E+01  0.13240018134E+01 -0.12627791105E+02  0.12890152188E+02  0.51100000000E-03 0. -1.
        -11    1    3    3    0    0 -0.18907979384E+01 -0.95685946673E+01  0.15898527770E+01  0.98823455143E+01  0.51100000000E-03 0.  1.
         12    1    3    3    0    0 -0.20301480865E+02 -0.89048907030E+01  0.29033652861E+02  0.36529442950E+02  0.00000000000E+00 0. -1.
</event>
<event>
 7    1  0.6230310E-012  0.5930195E+02  0.7816164E-02  0.1266605E+00
        -11   -1    0    0    0    0  0.00000000000E+00  0.00000000000E+00  0.45593999997E+02  0.45594000000E+02  0.51100000000E-03 0.  1.
         11   -1    0    0    0    0 -0.00000000000E+00 -0.00000000000E+00 -0.45593999997E+02  0.45594000000E+02  0.51100000000E-03 0. -1.
    9900012    2    1    2    0    0 -0.10100886026E+02 -0.81034416547E+01  0.29138056608E+02  0.59301952769E+02  0.50000015941E+02 0.  0.
         12    1    1    2    0    0  0.10100886026E+02  0.81034416547E+01 -0.29138056608E+02  0.31886047231E+02  0.00000000000E+00 0. -1.
         11    1    3    3    0    0  0.60730117697E+01 -0.18738702747E+02  0.64168649563E+01  0.20717060813E+02  0.51100000000E-03 0. -1.
        -11    1    3    3    0    0 -0.43806084759E+01 -0.79890596988E+01  0.58821267293E+01  0.10845009018E+02  0.51100000000E-03 0.  1.
         12    1    3    3    0    0 -0.11793289320E+02  0.18624320791E+02  0.16839064922E+02  0.27739882937E+02  0.00000000000E+00 0. -1.
</event>
<event>
 7    1  0.6230310E-012  0.5930194E+02  0.7816164E-02  0.1266605E+00
        -11   -1    0    0    0    0  0.00000000000E+00  0.00000000000E+00  0.45593999997E+02  0.45594000000E+02  0.51100000000E-03 0.  1.
         11   -1    0    0    0    0 -0.00000000000E+00 -0.00000000000E+00 -0.45593999997E+02  0.45594000000E+02  0.51100000000E-03 0. -1.
    9900012    2    1    2    0    0 -0.20925535374E+02  0.15194410285E+02  0.18654019349E+02  0.59301943918E+02  0.49999999800E+02 0.  0.
         12    1    1    2    0    0  0.20925535374E+02 -0.15194410285E+02 -0.18654019349E+02  0.31886056082E+02  0.00000000000E+00 0. -1.
         11    1    3    3    0    0  0.23361516580E+01 -0.32112885967E+01 -0.57438506399E+01  0.69829649473E+01  0.51100000000E-03 0. -1.
        -11    1    3    3    0    0 -0.90317118544E+01 -0.79508883170E+01 -0.22344701356E+01  0.12238517112E+02  0.51100000000E-03 0.  1.
        -12    1    3    3    0    0 -0.14229975177E+02  0.26356587199E+02  0.26632340124E+02  0.40080461859E+02  0.00000000000E+00 0.  1.
</event>
<event>
 7    1  0.6230310E-012  0.5930193E+02  0.7816164E-02  0.1266605E+00
        -11   -1    0    0    0    0  0.00000000000E+00  0.00000000000E+00  0.45593999997E+02  0.45594000000E+02  0.51100000000E-03 0.  1.
         11   -1    0    0    0    0 -0.00000000000E+00 -0.00000000000E+00 -0.45593999997E+02  0.45594000000E+02  0.51100000000E-03 0. -1.
    9900012    2    1    2    0    0 -0.17392599625E+00  0.29849535177E+02  0.11211440055E+02  0.59301931119E+02  0.49999976458E+02 0.  0.
         12    1    1    2    0    0  0.17392599625E+00 -0.29849535177E+02 -0.11211440055E+02  0.31886068881E+02  0.00000000000E+00 0. -1.
         11    1    3    3    0    0  0.53949302876E+01  0.87739036272E+01 -0.33005632959E+01  0.10815746669E+02  0.51100000000E-03 0. -1.
        -11    1    3    3    0    0  0.17286329588E+02  0.14271752046E+02  0.71508466431E+01  0.23529443365E+02  0.51100000000E-03 0.  1.
        -12    1    3    3    0    0 -0.22855185872E+02  0.68038795036E+01  0.73611567081E+01  0.24956741086E+02  0.00000000000E+00 0.  1.
</event>
<event>
 7    1  0.6230310E-012  0.5930194E+02  0.7816164E-02  0.1266605E+00
        -11   -1    0    0    0    0  0.00000000000E+00  0.00000000000E+00  0.45593999997E+02  0.45594000000E+02  0.51100000000E-03 0. -1.
         11   -1    0    0    0    0 -0.00000000000E+00 -0.00000000000E+00 -0.45593999997E+02  0.45594000000E+02  0.51100000000E-03 0.  1.
    9900012    2    1    2    0    0 -0.69920816259E+01  0.18510040870E+02 -0.25004205751E+02  0.59301935274E+02  0.49999984035E+02 0.  0.
         12    1    1    2    0    0  0.69920816259E+01 -0.18510040870E+02  0.25004205751E+02  0.31886064726E+02  0.00000000000E+00 0. -1.
         11    1    3    3    0    0 -0.41259836395E+01 -0.46587634919E+01 -0.84630482518E+01  0.10504808625E+02  0.51100000000E-03 0. -1.
        -11    1    3    3    0    0 -0.21069473589E+02  0.12981290535E+02 -0.11742845421E+02  0.27392171146E+02  0.51100000000E-03 0.  1.
        -12    1    3    3    0    0  0.18203375602E+02  0.10187513826E+02 -0.47983120788E+01  0.21404955503E+02  0.00000000000E+00 0.  1.
</event>
<event>
 7    1  0.6230310E-012  0.5930195E+02  0.7816164E-02  0.1266605E+00
        -11   -1    0    0    0    0  0.00000000000E+00  0.00000000000E+00  0.45593999997E+02  0.45594000000E+02  0.51100000000E-03 0. -1.
         11   -1    0    0    0    0 -0.00000000000E+00 -0.00000000000E+00 -0.45593999997E+02  0.45594000000E+02  0.51100000000E-03 0.  1.
    9900012    2    1    2    0    0 -0.20603345135E+02 -0.23931223377E+02  0.44179904276E+01  0.59301954111E+02  0.50000018389E+02 0.  0.
         12    1    1    2    0    0  0.20603345135E+02  0.23931223377E+02 -0.44179904276E+01  0.31886045889E+02  0.00000000000E+00 0. -1.
         11    1    3    3    0    0  0.18425336283E+01  0.57485777747E+01  0.34439267934E+01  0.69499430662E+01  0.51100000000E-03 0. -1.
        -11    1    3    3    0    0 -0.43963812129E+01  0.82793169502E+01  0.40416492516E+01  0.10208339036E+02  0.51100000000E-03 0.  1.
         12    1    3    3    0    0 -0.18049497550E+02 -0.37959118102E+02 -0.30675856174E+01  0.42143672009E+02  0.00000000000E+00 0. -1.
</event>
<event>
 7    1  0.6230310E-012  0.5930195E+02  0.7816164E-02  0.1266605E+00
        -11   -1    0    0    0    0  0.00000000000E+00  0.00000000000E+00  0.45593999997E+02  0.45594000000E+02  0.51100000000E-03 0. -1.
         11   -1    0    0    0    0 -0.00000000000E+00 -0.00000000000E+00 -0.45593999997E+02  0.45594000000E+02  0.51100000000E-03 0.  1.
    9900012    2    1    2    0    0 -0.13850863031E+02 -0.11491087657E+02 -0.26321640383E+02  0.59301948901E+02  0.50000008887E+02 0.  0.
         12    1    1    2    0    0  0.13850863031E+02  0.11491087657E+02  0.26321640383E+02  0.31886051099E+02  0.00000000000E+00 0. -1.
         11    1    3    3    0    0 -0.27522077661E+02 -0.12007491681E+02 -0.19403650757E+02  0.35751171704E+02  0.51100000000E-03 0.  1.
        -11    1    3    3    0    0  0.28443131819E+01  0.61056221767E+01 -0.89465133032E+01  0.11198608851E+02  0.51100000000E-03 0. -1.
        -12    1    3    3    0    0  0.10826901448E+02 -0.55892181533E+01  0.20285236775E+01  0.12352168346E+02  0.00000000000E+00 0.  1.
</event>
<event>
 7    1  0.6230310E-012  0.5930192E+02  0.7816164E-02  0.1266605E+00
        -11   -1    0    0    0    0  0.00000000000E+00  0.00000000000E+00  0.45593999997E+02  0.45594000000E+02  0.51100000000E-03 0.  1.
         11   -1    0    0    0    0 -0.00000000000E+00 -0.00000000000E+00 -0.45593999997E+02  0.45594000000E+02  0.51100000000E-03 0. -1.
    9900012    2    1    2    0    0  0.92337995243E+01 -0.23409943621E+02  0.19581463841E+02  0.59301917768E+02  0.49999952108E+02 0.  0.
         12    1    1    2    0    0 -0.92337995243E+01  0.23409943621E+02 -0.19581463841E+02  0.31886082232E+02  0.00000000000E+00 0. -1.
         11    1    3    3    0    0  0.20669937726E+02 -0.23081856179E+02  0.52545207976E+01  0.31426555640E+02  0.51100000000E-03 0. -1.
        -11    1    3    3    0    0 -0.25771269241E+01 -0.98863538794E+01  0.31074104385E+01  0.10678837769E+02  0.51100000000E-03 0.  1.
        -12    1    3    3    0    0 -0.88590112781E+01  0.95582664383E+01  0.11219532605E+02  0.17196524358E+02  0.00000000000E+00 0.  1.
</event>
<event>
 7    1  0.6230310E-012  0.5930193E+02  0.7816164E-02  0.1266605E+00
        -11   -1    0    0    0    0  0.00000000000E+00  0.00000000000E+00  0.45593999997E+02  0.45594000000E+02  0.51100000000E-03 0.  1.
         11   -1    0    0    0    0 -0.00000000000E+00 -0.00000000000E+00 -0.45593999997E+02  0.45594000000E+02  0.51100000000E-03 0. -1.
    9900012    2    1    2    0    0  0.99736839244E+01 -0.26523831889E+02  0.14619627818E+02  0.59301928642E+02  0.49999971940E+02 0.  0.
         12    1    1    2    0    0 -0.99736839244E+01  0.26523831889E+02 -0.14619627818E+02  0.31886071358E+02  0.00000000000E+00 0. -1.
         11    1    3    3    0    0 -0.80468975968E+01  0.55289809704E+01 -0.36454523891E+01  0.10421684839E+02  0.51100000000E-03 0. -1.
        -11    1    3    3    0    0  0.20409651384E+02 -0.10959675242E+02  0.14475001043E+02  0.27316551878E+02  0.51100000000E-03 0.  1.
         12    1    3    3    0    0 -0.23890698630E+01 -0.21093137617E+02  0.37900791635E+01  0.21563691925E+02  0.00000000000E+00 0. -1.
</event>
<event>
 7    1  0.6230310E-012  0.5930194E+02  0.7816164E-02  0.1266605E+00
        -11   -1    0    0    0    0  0.00000000000E+00  0.00000000000E+00  0.45593999997E+02  0.45594000000E+02  0.51100000000E-03 0. -1.
         11   -1    0    0    0    0 -0.00000000000E+00 -0.00000000000E+00 -0.45593999997E+02  0.45594000000E+02  0.51100000000E-03 0.  1.
    9900012    2    1    2    0    0 -0.23440033421E+02  0.10660926403E+02  0.18805055096E+02  0.59301943240E+02  0.49999998563E+02 0.  0.
         12    1    1    2    0    0  0.23440033421E+02 -0.10660926403E+02 -0.18805055096E+02  0.31886056760E+02  0.00000000000E+00 0. -1.
         11    1    3    3    0    0 -0.34710204868E+01 -0.78659240511E+01  0.15179357154E+02  0.17445160598E+02  0.51100000000E-03 0. -1.
        -11    1    3    3    0    0 -0.16957006222E+02 -0.37900584804E+01  0.76428436241E+01  0.18982035249E+02  0.51100000000E-03 0.  1.
        -12    1    3    3    0    0 -0.30120067121E+01  0.22316908935E+02 -0.40171456824E+01  0.22874747393E+02  0.00000000000E+00 0.  1.
</event>
<event>
 7    1  0.6230310E-012  0.5930196E+02  0.7816164E-02  0.1266605E+00
        -11   -1    0    0    0    0  0.00000000000E+00  0.00000000000E+00  0.45593999997E+02  0.45594000000E+02  0.51100000000E-03 0.  1.
         11   -1    0    0    0    0 -0.00000000000E+00 -0.00000000000E+00 -0.45593999997E+02  0.45594000000E+02  0.51100000000E-03 0. -1.
    9900012    2    1    2    0    0  0.18567133110E+02  0.20654839610E+02  0.15663935206E+02  0.59301957640E+02  0.50000024826E+02 0.  0.
         12    1    1    2    0    0 -0.18567133110E+02 -0.20654839610E+02 -0.15663935206E+02  0.31886042360E+02  0.00000000000E+00 0. -1.
         11    1    3    3    0    0  0.16574359937E+01 -0.19095551132E+01 -0.16703305599E+01  0.30304288878E+01  0.51100000000E-03 0. -1.
        -11    1    3    3    0    0  0.53920604498E+01  0.28843932232E+02 -0.55785354229E+01  0.29869161358E+02  0.51100000000E-03 0.  1.
        -12    1    3    3    0    0  0.11517636666E+02 -0.62795375085E+01  0.22912801189E+02  0.26402367394E+02  0.00000000000E+00 0.  1.
</event>
<event>
 7    1  0.6230310E-012  0.5930195E+02  0.7816164E-02  0.1266605E+00
        -11   -1    0    0    0    0  0.00000000000E+00  0.00000000000E+00  0.45593999997E+02  0.45594000000E+02  0.51100000000E-03 0.  1.
         11   -1    0    0    0    0 -0.00000000000E+00 -0.00000000000E+00 -0.45593999997E+02  0.45594000000E+02  0.51100000000E-03 0. -1.
    9900012    2    1    2    0    0  0.10514158157E+02  0.60236874524E+01  0.29493864661E+02  0.59301946859E+02  0.50000005164E+02 0.  0.
         12    1    1    2    0    0 -0.10514158157E+02 -0.60236874524E+01 -0.29493864661E+02  0.31886053141E+02  0.00000000000E+00 0. -1.
         11    1    3    3    0    0 -0.71973626874E+01 -0.28806081198E+01 -0.56540522418E-02  0.77524167214E+01  0.51100000000E-03 0. -1.
        -11    1    3    3    0    0  0.13490527381E+00 -0.13545308178E+02  0.11992621411E+02  0.18091891599E+02  0.51100000000E-03 0.  1.
        -12    1    3    3    0    0  0.17576615571E+02  0.22449603750E+02  0.17506897302E+02  0.33457638539E+02  0.00000000000E+00 0.  1.
</event>
<event>
 7    1  0.6230310E-012  0.5930191E+02  0.7816164E-02  0.1266605E+00
        -11   -1    0    0    0    0  0.00000000000E+00  0.00000000000E+00  0.45593999997E+02  0.45594000000E+02  0.51100000000E-03 0. -1.
         11   -1    0    0    0    0 -0.00000000000E+00 -0.00000000000E+00 -0.45593999997E+02  0.45594000000E+02  0.51100000000E-03 0.  1.
    9900012    2    1    2    0    0  0.28523868436E+02  0.14050666835E+02 -0.23854330124E+01  0.59301912129E+02  0.49999941825E+02 0.  0.
         12    1    1    2    0    0 -0.28523868436E+02 -0.14050666835E+02  0.23854330124E+01  0.31886087871E+02  0.00000000000E+00 0. -1.
         11    1    3    3    0    0  0.20182073154E+02 -0.65406760429E+01  0.14848508220E+02  0.25895457449E+02  0.51100000000E-03 0. -1.
        -11    1    3    3    0    0  0.35599996612E+01  0.11628844242E+01  0.31130262521E+01  0.48699928624E+01  0.51100000000E-03 0.  1.
        -12    1    3    3    0    0  0.47817956208E+01  0.19428458454E+02 -0.20346967485E+02  0.28536461817E+02  0.00000000000E+00 0.  1.
</event>
<event>
 7    1  0.6230310E-012  0.5930194E+02  0.7816164E-02  0.1266605E+00
        -11   -1    0    0    0    0  0.00000000000E+00  0.00000000000E+00  0.45593999997E+02  0.45594000000E+02  0.51100000000E-03 0.  1.
         11   -1    0    0    0    0 -0.00000000000E+00 -0.00000000000E+00 -0.45593999997E+02  0.45594000000E+02  0.51100000000E-03 0. -1.
    9900012    2    1    2    0    0 -0.47512294884E+01  0.10698646830E+02  0.29659498066E+02  0.59301936412E+02  0.49999986110E+02 0.  0.
         12    1    1    2    0    0  0.47512294884E+01 -0.10698646830E+02 -0.29659498066E+02  0.31886063588E+02  0.00000000000E+00 0. -1.
         11    1    3    3    0    0 -0.51374116151E+01  0.79256529860E+01  0.20833778726E+02  0.22874774526E+02  0.51100000000E-03 0. -1.
        -11    1    3    3    0    0 -0.80480527062E+01 -0.73143527623E+01  0.17550650855E+02  0.20646942979E+02  0.51100000000E-03 0.  1.
         12    1    3    3    0    0  0.84342348329E+01  0.10087346607E+02 -0.87249315153E+01  0.15780218906E+02  0.00000000000E+00 0. -1.
</event>
<event>
 7    1  0.6230310E-012  0.5930195E+02  0.7816164E-02  0.1266605E+00
        -11   -1    0    0    0    0  0.00000000000E+00  0.00000000000E+00  0.45593999997E+02  0.45594000000E+02  0.51100000000E-03 0.  1.
         11   -1    0    0    0    0 -0.00000000000E+00 -0.00000000000E+00 -0.45593999997E+02  0.45594000000E+02  0.51100000000E-03 0. -1.
    9900012    2    1    2    0    0 -0.19053112743E+02  0.22922015350E+02 -0.11326096084E+02  0.59301947478E+02  0.50000006293E+02 0.  0.
         12    1    1    2    0    0  0.19053112743E+02 -0.22922015350E+02  0.11326096084E+02  0.31886052522E+02  0.00000000000E+00 0. -1.
         11    1    3    3    0    0 -0.21573685470E+02  0.11885110940E+02 -0.22049866975E+02  0.33058681169E+02  0.51100000000E-03 0. -1.
        -11    1    3    3    0    0  0.17427828877E+00  0.11650008579E+02 -0.32216876885E+01  0.12088521193E+02  0.51100000000E-03 0.  1.
        -12    1    3    3    0    0  0.23462944373E+01 -0.61310416985E+00  0.13945458579E+02  0.14154745116E+02  0.00000000000E+00 0.  1.
</event>
<event>
 7    1  0.6230310E-012  0.5930194E+02  0.7816164E-02  0.1266605E+00
        -11   -1    0    0    0    0  0.00000000000E+00  0.00000000000E+00  0.45593999997E+02  0.45594000000E+02  0.51100000000E-03 0.  1.
         11   -1    0    0    0    0 -0.00000000000E+00 -0.00000000000E+00 -0.45593999997E+02  0.45594000000E+02  0.51100000000E-03 0. -1.
    9900012    2    1    2    0    0  0.70890132380E+01  0.25160986890E+02  0.18259003896E+02  0.59301943592E+02  0.49999999205E+02 0.  0.
         12    1    1    2    0    0 -0.70890132380E+01 -0.25160986890E+02 -0.18259003896E+02  0.31886056408E+02  0.00000000000E+00 0. -1.
         11    1    3    3    0    0 -0.74253749341E+01  0.20212407086E+02 -0.10703271975E+01  0.21559758665E+02  0.51100000000E-03 0. -1.
        -11    1    3    3    0    0 -0.83805331522E+01 -0.67004670086E+00  0.24796420198E+01  0.87653250541E+01  0.51100000000E-03 0.  1.
         12    1    3    3    0    0  0.22894921324E+02  0.56186265057E+01  0.16849689073E+02  0.28976859873E+02  0.00000000000E+00 0. -1.
</event>
<event>
 7    1  0.6230310E-012  0.5930194E+02  0.7816164E-02  0.1266605E+00
        -11   -1    0    0    0    0  0.00000000000E+00  0.00000000000E+00  0.45593999997E+02  0.45594000000E+02  0.51100000000E-03 0.  1.
         11   -1    0    0    0    0 -0.00000000000E+00 -0.00000000000E+00 -0.45593999997E+02  0.45594000000E+02  0.51100000000E-03 0. -1.
    9900012    2    1    2    0    0  0.26104741951E+02  0.36122355836E+01  0.17950349811E+02  0.59301939463E+02  0.49999991674E+02 0.  0.
         12    1    1    2    0    0 -0.26104741951E+02 -0.36122355836E+01 -0.17950349811E+02  0.31886060537E+02  0.00000000000E+00 0. -1.
         11    1    3    3    0    0  0.87953775410E+01  0.68871641080E+01  0.12489176493E+02  0.16756229447E+02  0.51100000000E-03 0. -1.
        -11    1    3    3    0    0  0.64782968390E+00 -0.36624550146E+01  0.20052664349E+02  0.20394671063E+02  0.51100000000E-03 0.  1.
         12    1    3    3    0    0  0.16661534726E+02  0.38752649025E+00 -0.14591491030E+02  0.22151038953E+02  0.00000000000E+00 0. -1.
</event>
<event>
 7    1  0.6230310E-012  0.5930195E+02  0.7816164E-02  0.1266605E+00
        -11   -1    0    0    0    0  0.00000000000E+00  0.00000000000E+00  0.45593999997E+02  0.45594000000E+02  0.51100000000E-03 0. -1.
         11   -1    0    0    0    0 -0.00000000000E+00 -0.00000000000E+00 -0.45593999997E+02  0.45594000000E+02  0.51100000000E-03 0.  1.
    9900012    2    1    2    0    0 -0.12629003564E+02  0.15161973756E+02 -0.25046809941E+02  0.59301954974E+02  0.50000019963E+02 0.  0.
         12    1    1    2    0    0  0.12629003564E+02 -0.15161973756E+02  0.25046809941E+02  0.31886045026E+02  0.00000000000E+00 0. -1.
         11    1    3    3    0    0  0.13612322980E+02  0.15619706420E+02 -0.31413022702E+01  0.20955628021E+02  0.51100000000E-03 0. -1.
        -11    1    3    3    0    0 -0.90545806004E+01 -0.38229794696E+01 -0.17838855026E+02  0.20367261740E+02  0.51100000000E-03 0.  1.
        -12    1    3    3    0    0 -0.17186745944E+02  0.33652468064E+01 -0.40666526441E+01  0.17979065213E+02  0.00000000000E+00 0.  1.
</event>
<event>
 7    1  0.6230310E-012  0.5930196E+02  0.7816164E-02  0.1266605E+00
        -11   -1    0    0    0    0  0.00000000000E+00  0.00000000000E+00  0.45593999997E+02  0.45594000000E+02  0.51100000000E-03 0.  1.
         11   -1    0    0    0    0 -0.00000000000E+00 -0.00000000000E+00 -0.45593999997E+02  0.45594000000E+02  0.51100000000E-03 0. -1.
    9900012    2    1    2    0    0  0.83623123803E+01  0.19597856426E+02  0.23721627352E+02  0.59301955261E+02  0.50000020487E+02 0.  0.
         12    1    1    2    0    0 -0.83623123803E+01 -0.19597856426E+02 -0.23721627352E+02  0.31886044739E+02  0.00000000000E+00 0. -1.
         11    1    3    3    0    0  0.51298293251E+01 -0.99217660701E+00  0.11002035728E+01  0.53394767053E+01  0.51100000000E-03 0. -1.
        -11    1    3    3    0    0  0.23075307005E+02  0.17378433025E+02  0.13015723266E+02  0.31684203954E+02  0.51100000000E-03 0.  1.
         12    1    3    3    0    0 -0.19842823950E+02  0.32116000079E+01  0.96057005129E+01  0.22278274602E+02  0.00000000000E+00 0. -1.
</event>
<event>
 7    1  0.6230310E-012  0.5930205E+02  0.7816164E-02  0.1266604E+00
        -11   -1    0    0    0    0  0.00000000000E+00  0.00000000000E+00  0.45593999997E+02  0.45594000000E+02  0.51100000000E-03 0.  1.
         11   -1    0    0    0    0 -0.00000000000E+00 -0.00000000000E+00 -0.45593999997E+02  0.45594000000E+02  0.51100000000E-03 0. -1.
    9900012    2    1    2    0    0 -0.30119581882E+02  0.10280397706E+02 -0.19591105597E+01  0.59302048486E+02  0.50000190507E+02 0.  0.
         12    1    1    2    0    0  0.30119581882E+02 -0.10280397706E+02  0.19591105597E+01  0.31885951514E+02  0.00000000000E+00 0. -1.
         11    1    3    3    0    0 -0.14852185103E+02 -0.94712816640E+01  0.18126413148E+01  0.17708140713E+02  0.51100000000E-03 0. -1.
        -11    1    3    3    0    0 -0.15130831671E+02  0.41362127169E+00 -0.13196181029E+02  0.20081143982E+02  0.51100000000E-03 0.  1.
        -12    1    3    3    0    0 -0.13656510828E+00  0.19338058099E+02  0.94244291547E+01  0.21512763792E+02  0.00000000000E+00 0.  1.
</event>
<event>
 7    1  0.6230310E-012  0.5930194E+02  0.7816164E-02  0.1266605E+00
        -11   -1    0    0    0    0  0.00000000000E+00  0.00000000000E+00  0.45593999997E+02  0.45594000000E+02  0.51100000000E-03 0.  1.
         11   -1    0    0    0    0 -0.00000000000E+00 -0.00000000000E+00 -0.45593999997E+02  0.45594000000E+02  0.51100000000E-03 0. -1.
    9900012    2    1    2    0    0 -0.27607170083E+02 -0.15973341800E+00 -0.15954285499E+02  0.59301943792E+02  0.49999999570E+02 0.  0.
         12    1    1    2    0    0  0.27607170083E+02  0.15973341800E+00  0.15954285499E+02  0.31886056208E+02  0.00000000000E+00 0. -1.
         11    1    3    3    0    0  0.79398055475E+01  0.14920063075E+02 -0.42153758771E+01  0.17418903190E+02  0.51100000000E-03 0. -1.
        -11    1    3    3    0    0 -0.18103797887E+00 -0.15952863835E+01  0.10648903924E+01  0.19265786265E+01  0.51100000000E-03 0.  1.
        -12    1    3    3    0    0 -0.35365937651E+02 -0.13484510109E+02 -0.12803800014E+02  0.39956461976E+02  0.00000000000E+00 0.  1.
</event>
<event>
 7    1  0.6230310E-012  0.5930195E+02  0.7816164E-02  0.1266605E+00
        -11   -1    0    0    0    0  0.00000000000E+00  0.00000000000E+00  0.45593999997E+02  0.45594000000E+02  0.51100000000E-03 0. -1.
         11   -1    0    0    0    0 -0.00000000000E+00 -0.00000000000E+00 -0.45593999997E+02  0.45594000000E+02  0.51100000000E-03 0.  1.
    9900012    2    1    2    0    0 -0.46367741744E+01 -0.14284891471E+02 -0.28127606194E+02  0.59301952435E+02  0.50000015334E+02 0.  0.
         12    1    1    2    0    0  0.46367741744E+01  0.14284891471E+02  0.28127606194E+02  0.31886047565E+02  0.00000000000E+00 0. -1.
         11    1    3    3    0    0  0.14928559019E+01 -0.25858831143E+02 -0.13973045153E+02  0.29430490277E+02  0.51100000000E-03 0. -1.
        -11    1    3    3    0    0 -0.10450413757E+02 -0.29848350439E+01 -0.38991054827E+01  0.11546575759E+02  0.51100000000E-03 0.  1.
        -12    1    3    3    0    0  0.43207836807E+01  0.14558774716E+02 -0.10255455558E+02  0.18324886400E+02  0.00000000000E+00 0.  1.
</event>
<event>
 7    1  0.6230310E-012  0.5930195E+02  0.7816164E-02  0.1266605E+00
        -11   -1    0    0    0    0  0.00000000000E+00  0.00000000000E+00  0.45593999997E+02  0.45594000000E+02  0.51100000000E-03 0.  1.
         11   -1    0    0    0    0 -0.00000000000E+00 -0.00000000000E+00 -0.45593999997E+02  0.45594000000E+02  0.51100000000E-03 0. -1.
    9900012    2    1    2    0    0  0.25609166104E+02 -0.29314757807E+01  0.18769576877E+02  0.59301953601E+02  0.50000017460E+02 0.  0.
         12    1    1    2    0    0 -0.25609166104E+02  0.29314757807E+01 -0.18769576877E+02  0.31886046399E+02  0.00000000000E+00 0. -1.
         11    1    3    3    0    0  0.30165027413E+01 -0.10354070253E+02  0.32613387482E+01  0.11266871362E+02  0.51100000000E-03 0. -1.
        -11    1    3    3    0    0 -0.80317803086E+01 -0.74968621073E+01  0.66279667296E+01  0.12831304673E+02  0.51100000000E-03 0.  1.
        -12    1    3    3    0    0  0.30624443671E+02  0.14919456580E+02  0.88802713995E+01  0.35203777566E+02  0.00000000000E+00 0.  1.
</event>
<event>
 7    1  0.6230310E-012  0.5930208E+02  0.7816164E-02  0.1266604E+00
        -11   -1    0    0    0    0  0.00000000000E+00  0.00000000000E+00  0.45593999997E+02  0.45594000000E+02  0.51100000000E-03 0. -1.
         11   -1    0    0    0    0 -0.00000000000E+00 -0.00000000000E+00 -0.45593999997E+02  0.45594000000E+02  0.51100000000E-03 0.  1.
    9900012    2    1    2    0    0 -0.15198246037E+02 -0.26744936920E+02 -0.83924842458E+01  0.59302076378E+02  0.50000241374E+02 0.  0.
         12    1    1    2    0    0  0.15198246037E+02  0.26744936920E+02  0.83924842458E+01  0.31885923622E+02  0.00000000000E+00 0. -1.
         11    1    3    3    0    0  0.47360507736E+00 -0.71103532311E+01  0.16677611306E+02  0.18136265987E+02  0.51100000000E-03 0. -1.
        -11    1    3    3    0    0 -0.62206162756E+01 -0.19515329444E+02 -0.86809880331E+01  0.22246431257E+02  0.51100000000E-03 0.  1.
        -12    1    3    3    0    0 -0.94512348386E+01 -0.11925424428E+00 -0.16389107518E+02  0.18919379133E+02  0.00000000000E+00 0.  1.
</event>
<event>
 7    1  0.6230310E-012  0.5930192E+02  0.7816164E-02  0.1266605E+00
        -11   -1    0    0    0    0  0.00000000000E+00  0.00000000000E+00  0.45593999997E+02  0.45594000000E+02  0.51100000000E-03 0. -1.
         11   -1    0    0    0    0 -0.00000000000E+00 -0.00000000000E+00 -0.45593999997E+02  0.45594000000E+02  0.51100000000E-03 0.  1.
    9900012    2    1    2    0    0  0.18715595597E+02  0.17440741695E+02 -0.19033364054E+02  0.59301922527E+02  0.49999960787E+02 0.  0.
         12    1    1    2    0    0 -0.18715595597E+02 -0.17440741695E+02  0.19033364054E+02  0.31886077473E+02  0.00000000000E+00 0. -1.
         11    1    3    3    0    0  0.13220653943E+02  0.84479430821E-01  0.58744568939E+01  0.14467275884E+02  0.51100000000E-03 0. -1.
        -11    1    3    3    0    0  0.35376354908E+01 -0.88936663572E+01 -0.16574711309E+01  0.97138754856E+01  0.51100000000E-03 0.  1.
        -12    1    3    3    0    0  0.19573061636E+01  0.26249928622E+02 -0.23250349817E+02  0.35120771157E+02  0.00000000000E+00 0.  1.
</event>
<event>
 7    1  0.6230310E-012  0.5930191E+02  0.7816164E-02  0.1266605E+00
        -11   -1    0    0    0    0  0.00000000000E+00  0.00000000000E+00  0.45593999997E+02  0.45594000000E+02  0.51100000000E-03 0.  1.
         11   -1    0    0    0    0 -0.00000000000E+00 -0.00000000000E+00 -0.45593999997E+02  0.45594000000E+02  0.51100000000E-03 0. -1.
    9900012    2    1    2    0    0  0.10934039272E+02 -0.26110543280E+02 -0.14676826278E+02  0.59301907188E+02  0.49999932814E+02 0.  0.
         12    1    1    2    0    0 -0.10934039272E+02  0.26110543280E+02  0.14676826278E+02  0.31886092812E+02  0.00000000000E+00 0. -1.
         11    1    3    3    0    0 -0.11915375603E+02 -0.11449321165E+01 -0.32149332619E+01  0.12394468180E+02  0.51100000000E-03 0. -1.
        -11    1    3    3    0    0  0.39056702476E+01 -0.25056741864E+01  0.96629672793E+01  0.10719402974E+02  0.51100000000E-03 0.  1.
         12    1    3    3    0    0  0.18943744628E+02 -0.22459936977E+02 -0.21124860295E+02  0.36188036035E+02  0.00000000000E+00 0. -1.
</event>
<event>
 7    1  0.6230310E-012  0.5930196E+02  0.7816164E-02  0.1266605E+00
        -11   -1    0    0    0    0  0.00000000000E+00  0.00000000000E+00  0.45593999997E+02  0.45594000000E+02  0.51100000000E-03 0.  1.
         11   -1    0    0    0    0 -0.00000000000E+00 -0.00000000000E+00 -0.45593999997E+02  0.45594000000E+02  0.51100000000E-03 0. -1.
    9900012    2    1    2    0    0 -0.26148943255E+02 -0.16175710546E+02 -0.84438634989E+01  0.59301957978E+02  0.50000025442E+02 0.  0.
         12    1    1    2    0    0  0.26148943255E+02  0.16175710546E+02  0.84438634989E+01  0.31886042022E+02  0.00000000000E+00 0. -1.
         11    1    3    3    0    0 -0.11591144901E+02 -0.85468773726E+01 -0.92830920781E+01  0.17134163292E+02  0.51100000000E-03 0. -1.
        -11    1    3    3    0    0 -0.24199299159E+02 -0.16298124213E+02  0.18723539599E-01  0.29175936720E+02  0.51100000000E-03 0.  1.
        -12    1    3    3    0    0  0.96415008045E+01  0.86692910398E+01  0.82050503963E+00  0.12991857966E+02  0.00000000000E+00 0.  1.
</event>
<event>
 7    1  0.6230310E-012  0.5930181E+02  0.7816164E-02  0.1266605E+00
        -11   -1    0    0    0    0  0.00000000000E+00  0.00000000000E+00  0.45593999997E+02  0.45594000000E+02  0.51100000000E-03 0.  1.
         11   -1    0    0    0    0 -0.00000000000E+00 -0.00000000000E+00 -0.45593999997E+02  0.45594000000E+02  0.51100000000E-03 0. -1.
    9900012    2    1    2    0    0 -0.27929544856E+02 -0.81253491121E+01  0.13063248333E+02  0.59301808144E+02  0.49999752181E+02 0.  0.
         12    1    1    2    0    0  0.27929544856E+02  0.81253491121E+01 -0.13063248333E+02  0.31886191856E+02  0.00000000000E+00 0. -1.
         11    1    3    3    0    0 -0.73152835747E+01 -0.19767663892E+01  0.74546615954E+01  0.10629814622E+02  0.51100000000E-03 0. -1.
        -11    1    3    3    0    0  0.90117341215E+01 -0.14869024232E+02  0.69383566619E+00  0.17400593141E+02  0.51100000000E-03 0.  1.
         12    1    3    3    0    0 -0.29625995402E+02  0.87204415086E+01  0.49147510716E+01  0.31271400381E+02  0.00000000000E+00 0. -1.
</event>
<event>
 7    1  0.6230310E-012  0.5930196E+02  0.7816164E-02  0.1266605E+00
        -11   -1    0    0    0    0  0.00000000000E+00  0.00000000000E+00  0.45593999997E+02  0.45594000000E+02  0.51100000000E-03 0.  1.
         11   -1    0    0    0    0 -0.00000000000E+00 -0.00000000000E+00 -0.45593999997E+02  0.45594000000E+02  0.51100000000E-03 0. -1.
    9900012    2    1    2    0    0 -0.18407488984E+02 -0.17482251519E+02  0.19293912176E+02  0.59301955781E+02  0.50000021435E+02 0.  0.
         12    1    1    2    0    0  0.18407488984E+02  0.17482251519E+02 -0.19293912176E+02  0.31886044219E+02  0.00000000000E+00 0. -1.
         11    1    3    3    0    0 -0.57903132300E+01  0.70132213077E+01  0.91819788512E+00  0.91409019265E+01  0.51100000000E-03 0. -1.
        -11    1    3    3    0    0 -0.21978182317E+02 -0.20877558477E+01  0.58622642328E+01  0.22842183885E+02  0.51100000000E-03 0.  1.
        -12    1    3    3    0    0  0.93610065623E+01 -0.22407716979E+02  0.12513450058E+02  0.27318869970E+02  0.00000000000E+00 0.  1.
</event>
<event>
 7    1  0.6230310E-012  0.5930198E+02  0.7816164E-02  0.1266605E+00
        -11   -1    0    0    0    0  0.00000000000E+00  0.00000000000E+00  0.45593999997E+02  0.45594000000E+02  0.51100000000E-03 0.  1.
         11   -1    0    0    0    0 -0.00000000000E+00 -0.00000000000E+00 -0.45593999997E+02  0.45594000000E+02  0.51100000000E-03 0. -1.
    9900012    2    1    2    0    0 -0.80239995352E+01 -0.12762414141E+02  0.28097228502E+02  0.59301983743E+02  0.50000072431E+02 0.  0.
         12    1    1    2    0    0  0.80239995352E+01  0.12762414141E+02 -0.28097228502E+02  0.31886016257E+02  0.00000000000E+00 0. -1.
         11    1    3    3    0    0  0.74119472565E+01 -0.60578792289E+01  0.25186774337E+01  0.98984139720E+01  0.51100000000E-03 0. -1.
        -11    1    3    3    0    0 -0.53570612293E+01 -0.87388775978E+01  0.34375889485E+02  0.35871546731E+02  0.51100000000E-03 0.  1.
         12    1    3    3    0    0 -0.10078885562E+02  0.20343426854E+01 -0.87973384173E+01  0.13532023040E+02  0.00000000000E+00 0. -1.
</event>
<event>
 7    1  0.6230310E-012  0.5930179E+02  0.7816164E-02  0.1266605E+00
        -11   -1    0    0    0    0  0.00000000000E+00  0.00000000000E+00  0.45593999997E+02  0.45594000000E+02  0.51100000000E-03 0.  1.
         11   -1    0    0    0    0 -0.00000000000E+00 -0.00000000000E+00 -0.45593999997E+02  0.45594000000E+02  0.51100000000E-03 0. -1.
    9900012    2    1    2    0    0  0.17824927861E+02  0.17554600900E+02  0.19769633887E+02  0.59301788402E+02  0.49999716175E+02 0.  0.
         12    1    1    2    0    0 -0.17824927861E+02 -0.17554600900E+02 -0.19769633887E+02  0.31886211598E+02  0.00000000000E+00 0. -1.
         11    1    3    3    0    0  0.16233307410E+02  0.38502258831E+01 -0.41546180023E+01  0.17193177712E+02  0.51100000000E-03 0. -1.
        -11    1    3    3    0    0 -0.57366263238E+01 -0.34281626665E+01 -0.45459144190E+01  0.80824822309E+01  0.51100000000E-03 0.  1.
        -12    1    3    3    0    0  0.73282467745E+01  0.17132537684E+02  0.28470166309E+02  0.34026128459E+02  0.00000000000E+00 0.  1.
</event>
<event>
 7    1  0.6230310E-012  0.5930194E+02  0.7816164E-02  0.1266605E+00
        -11   -1    0    0    0    0  0.00000000000E+00  0.00000000000E+00  0.45593999997E+02  0.45594000000E+02  0.51100000000E-03 0. -1.
         11   -1    0    0    0    0 -0.00000000000E+00 -0.00000000000E+00 -0.45593999997E+02  0.45594000000E+02  0.51100000000E-03 0.  1.
    9900012    2    1    2    0    0  0.26402358882E+02 -0.82866957866E+01 -0.15841931722E+02  0.59301942196E+02  0.49999996659E+02 0.  0.
         12    1    1    2    0    0 -0.26402358882E+02  0.82866957866E+01  0.15841931722E+02  0.31886057804E+02  0.00000000000E+00 0. -1.
         11    1    3    3    0    0  0.20596946006E+02 -0.74746574485E+00  0.59936059532E+01  0.21464300650E+02  0.51100000000E-03 0.  1.
        -11    1    3    3    0    0  0.32648454741E+01  0.82183784896E+01  0.20805895518E+01  0.90845921269E+01  0.51100000000E-03 0. -1.
         12    1    3    3    0    0  0.25405674027E+01 -0.15757608531E+02 -0.23916127227E+02  0.28753049419E+02  0.00000000000E+00 0. -1.
</event>
<event>
 7    1  0.6230310E-012  0.5930195E+02  0.7816164E-02  0.1266605E+00
        -11   -1    0    0    0    0  0.00000000000E+00  0.00000000000E+00  0.45593999997E+02  0.45594000000E+02  0.51100000000E-03 0.  1.
         11   -1    0    0    0    0 -0.00000000000E+00 -0.00000000000E+00 -0.45593999997E+02  0.45594000000E+02  0.51100000000E-03 0. -1.
    9900012    2    1    2    0    0  0.20674475050E+01  0.31308493436E+02  0.56766535506E+01  0.59301945118E+02  0.50000001988E+02 0.  0.
         12    1    1    2    0    0 -0.20674475050E+01 -0.31308493436E+02 -0.56766535506E+01  0.31886054882E+02  0.00000000000E+00 0. -1.
         11    1    3    3    0    0  0.20684115783E+02  0.23246380144E+02  0.86337572917E+01  0.32291927796E+02  0.51100000000E-03 0. -1.
        -11    1    3    3    0    0  0.14965529541E+01 -0.20735554816E+01  0.27706475269E+01  0.37703834101E+01  0.51100000000E-03 0.  1.
        -12    1    3    3    0    0 -0.20113221232E+02  0.10135668773E+02 -0.57277512679E+01  0.23239633912E+02  0.00000000000E+00 0.  1.
</event>
<event>
 7    1  0.6230310E-012  0.5930194E+02  0.7816164E-02  0.1266605E+00
        -11   -1    0    0    0    0  0.00000000000E+00  0.00000000000E+00  0.45593999997E+02  0.45594000000E+02  0.51100000000E-03 0. -1.
         11   -1    0    0    0    0 -0.00000000000E+00 -0.00000000000E+00 -0.45593999997E+02  0.45594000000E+02  0.51100000000E-03 0.  1.
    9900012    2    1    2    0    0  0.29058140444E+02 -0.88170568163E+01  0.97265114498E+01  0.59301936556E+02  0.49999986374E+02 0.  0.
         12    1    1    2    0    0 -0.29058140444E+02  0.88170568163E+01 -0.97265114498E+01  0.31886063444E+02  0.00000000000E+00 0. -1.
         11    1    3    3    0    0  0.25458438170E+01 -0.14567383105E+02 -0.73707322032E+01  0.16523246193E+02  0.51100000000E-03 0. -1.
        -11    1    3    3    0    0  0.63427425325E+01  0.90649895102E+01 -0.54604678744E+01  0.12337792644E+02  0.51100000000E-03 0.  1.
         12    1    3    3    0    0  0.20169554094E+02 -0.33146632215E+01  0.22557711527E+02  0.30440897720E+02  0.00000000000E+00 0. -1.
</event>
<event>
 7    1  0.6230310E-012  0.5930219E+02  0.7816164E-02  0.1266604E+00
        -11   -1    0    0    0    0  0.00000000000E+00  0.00000000000E+00  0.45593999997E+02  0.45594000000E+02  0.51100000000E-03 0.  1.
         11   -1    0    0    0    0 -0.00000000000E+00 -0.00000000000E+00 -0.45593999997E+02  0.45594000000E+02  0.51100000000E-03 0. -1.
    9900012    2    1    2    0    0 -0.16101534767E+02  0.14165541023E+02  0.23596241304E+02  0.59302194725E+02  0.50000457210E+02 0.  0.
         12    1    1    2    0    0  0.16101534767E+02 -0.14165541023E+02 -0.23596241304E+02  0.31885805275E+02  0.00000000000E+00 0. -1.
         11    1    3    3    0    0 -0.10536506566E+02  0.51413290117E+01  0.10433391835E+01  0.11770292755E+02  0.51100000000E-03 0. -1.
        -11    1    3    3    0    0 -0.92282758341E+00  0.22698501910E+02  0.25484291950E+01  0.22859748278E+02  0.51100000000E-03 0.  1.
        -12    1    3    3    0    0 -0.46422006172E+01 -0.13674289898E+02  0.20004472926E+02  0.24672153692E+02  0.00000000000E+00 0.  1.
</event>
<event>
 7    1  0.6230310E-012  0.5930196E+02  0.7816164E-02  0.1266605E+00
        -11   -1    0    0    0    0  0.00000000000E+00  0.00000000000E+00  0.45593999997E+02  0.45594000000E+02  0.51100000000E-03 0.  1.
         11   -1    0    0    0    0 -0.00000000000E+00 -0.00000000000E+00 -0.45593999997E+02  0.45594000000E+02  0.51100000000E-03 0. -1.
    9900012    2    1    2    0    0 -0.26294084999E+02 -0.16939058487E+02 -0.61975180058E+01  0.59301955438E+02  0.50000020810E+02 0.  0.
         12    1    1    2    0    0  0.26294084999E+02  0.16939058487E+02  0.61975180058E+01  0.31886044562E+02  0.00000000000E+00 0. -1.
         11    1    3    3    0    0 -0.16226322105E+02 -0.22640376253E+01 -0.17148234715E+02  0.23716689262E+02  0.51100000000E-03 0. -1.
        -11    1    3    3    0    0 -0.12841138470E+02 -0.10965080814E+02 -0.60714868798E+01  0.17944101751E+02  0.51100000000E-03 0.  1.
         12    1    3    3    0    0  0.27733755753E+01 -0.37099400475E+01  0.17022203589E+02  0.17641164425E+02  0.00000000000E+00 0. -1.
</event>
<event>
 7    1  0.6230310E-012  0.5930193E+02  0.7816164E-02  0.1266605E+00
        -11   -1    0    0    0    0  0.00000000000E+00  0.00000000000E+00  0.45593999997E+02  0.45594000000E+02  0.51100000000E-03 0.  1.
         11   -1    0    0    0    0 -0.00000000000E+00 -0.00000000000E+00 -0.45593999997E+02  0.45594000000E+02  0.51100000000E-03 0. -1.
    9900012    2    1    2    0    0  0.80840230309E+01 -0.14682529698E+01  0.30809316184E+02  0.59301934723E+02  0.49999983031E+02 0.  0.
         12    1    1    2    0    0 -0.80840230309E+01  0.14682529698E+01 -0.30809316184E+02  0.31886065277E+02  0.00000000000E+00 0. -1.
         11    1    3    3    0    0  0.17159086263E+02 -0.18016166689E+02  0.12473394257E+02  0.27831673829E+02  0.51100000000E-03 0. -1.
        -11    1    3    3    0    0 -0.12130479647E+01 -0.28887396006E+01 -0.63292416785E+00  0.31963878219E+01  0.51100000000E-03 0.  1.
        -12    1    3    3    0    0 -0.78620152679E+01  0.19436653320E+02  0.18968846094E+02  0.28273873072E+02  0.00000000000E+00 0.  1.
</event>
<event>
 7    1  0.6230310E-012  0.5930193E+02  0.7816164E-02  0.1266605E+00
        -11   -1    0    0    0    0  0.00000000000E+00  0.00000000000E+00  0.45593999997E+02  0.45594000000E+02  0.51100000000E-03 0. -1.
         11   -1    0    0    0    0 -0.00000000000E+00 -0.00000000000E+00 -0.45593999997E+02  0.45594000000E+02  0.51100000000E-03 0.  1.
    9900012    2    1    2    0    0  0.88597084603E+01  0.10570233683E+01 -0.30612252769E+02  0.59301925422E+02  0.49999966067E+02 0.  0.
         12    1    1    2    0    0 -0.88597084603E+01 -0.10570233683E+01  0.30612252769E+02  0.31886074578E+02  0.00000000000E+00 0. -1.
         11    1    3    3    0    0  0.19908867738E+02 -0.65363245118E+01 -0.90734680538E+01  0.22834499677E+02  0.51100000000E-03 0. -1.
        -11    1    3    3    0    0 -0.42700516261E+00  0.15516822848E+02 -0.15389200844E+02  0.21858216478E+02  0.51100000000E-03 0.  1.
        -12    1    3    3    0    0 -0.10622154115E+02 -0.79234749676E+01 -0.61495838714E+01  0.14609209267E+02  0.00000000000E+00 0.  1.
</event>
<event>
 7    1  0.6230310E-012  0.5930195E+02  0.7816164E-02  0.1266605E+00
        -11   -1    0    0    0    0  0.00000000000E+00  0.00000000000E+00  0.45593999997E+02  0.45594000000E+02  0.51100000000E-03 0.  1.
         11   -1    0    0    0    0 -0.00000000000E+00 -0.00000000000E+00 -0.45593999997E+02  0.45594000000E+02  0.51100000000E-03 0. -1.
    9900012    2    1    2    0    0 -0.11844847554E+02  0.19871241727E+02  0.21944322831E+02  0.59301953430E+02  0.50000017148E+02 0.  0.
         12    1    1    2    0    0  0.11844847554E+02 -0.19871241727E+02 -0.21944322831E+02  0.31886046570E+02  0.00000000000E+00 0. -1.
         11    1    3    3    0    0 -0.35707340752E+00 -0.38029891032E+01  0.52291678731E+01  0.64756794581E+01  0.51100000000E-03 0. -1.
        -11    1    3    3    0    0 -0.56546969249E+01  0.93438875328E+01  0.30317733294E+02  0.32224971433E+02  0.51100000000E-03 0.  1.
        -12    1    3    3    0    0 -0.58330772211E+01  0.14330343298E+02 -0.13602578336E+02  0.20601302538E+02  0.00000000000E+00 0.  1.
</event>
<event>
 7    1  0.6230310E-012  0.5930195E+02  0.7816164E-02  0.1266605E+00
        -11   -1    0    0    0    0  0.00000000000E+00  0.00000000000E+00  0.45593999997E+02  0.45594000000E+02  0.51100000000E-03 0.  1.
         11   -1    0    0    0    0 -0.00000000000E+00 -0.00000000000E+00 -0.45593999997E+02  0.45594000000E+02  0.51100000000E-03 0. -1.
    9900012    2    1    2    0    0  0.60301848775E+01 -0.31025646143E+02 -0.42150171849E+01  0.59301949475E+02  0.50000009934E+02 0.  0.
         12    1    1    2    0    0 -0.60301848775E+01  0.31025646143E+02  0.42150171849E+01  0.31886050525E+02  0.00000000000E+00 0. -1.
         11    1    3    3    0    0  0.20860583460E+02 -0.34109709651E+01 -0.11381829881E+01  0.21168233890E+02  0.51100000000E-03 0. -1.
        -11    1    3    3    0    0  0.36944957265E+01 -0.10133059788E+02 -0.62501741202E+01  0.12465667898E+02  0.51100000000E-03 0.  1.
        -12    1    3    3    0    0 -0.18524894309E+02 -0.17481615390E+02  0.31733399233E+01  0.25668047687E+02  0.00000000000E+00 0.  1.
</event>
<event>
 7    1  0.6230310E-012  0.5930193E+02  0.7816164E-02  0.1266605E+00
        -11   -1    0    0    0    0  0.00000000000E+00  0.00000000000E+00  0.45593999997E+02  0.45594000000E+02  0.51100000000E-03 0. -1.
         11   -1    0    0    0    0 -0.00000000000E+00 -0.00000000000E+00 -0.45593999997E+02  0.45594000000E+02  0.51100000000E-03 0.  1.
    9900012    2    1    2    0    0  0.16021043784E+02  0.27525482899E+02  0.15477384831E+01  0.59301928634E+02  0.49999971925E+02 0.  0.
         12    1    1    2    0    0 -0.16021043784E+02 -0.27525482899E+02 -0.15477384831E+01  0.31886071366E+02  0.00000000000E+00 0. -1.
         11    1    3    3    0    0  0.18335293117E+02  0.77725980128E+01  0.20251393251E+02  0.28402731954E+02  0.51100000000E-03 0. -1.
        -11    1    3    3    0    0 -0.46457654920E+01  0.27039609577E+01 -0.10586813663E+02  0.11873296327E+02  0.51100000000E-03 0.  1.
        -12    1    3    3    0    0  0.23315161591E+01  0.17048923929E+02 -0.81168411056E+01  0.19025900353E+02  0.00000000000E+00 0.  1.
</event>
<event>
 7    1  0.6230310E-012  0.5930194E+02  0.7816164E-02  0.1266605E+00
        -11   -1    0    0    0    0  0.00000000000E+00  0.00000000000E+00  0.45593999997E+02  0.45594000000E+02  0.51100000000E-03 0.  1.
         11   -1    0    0    0    0 -0.00000000000E+00 -0.00000000000E+00 -0.45593999997E+02  0.45594000000E+02  0.51100000000E-03 0. -1.
    9900012    2    1    2    0    0  0.37062826788E+01  0.19674190726E+02  0.24817540496E+02  0.59301943043E+02  0.49999998204E+02 0.  0.
         12    1    1    2    0    0 -0.37062826788E+01 -0.19674190726E+02 -0.24817540496E+02  0.31886056957E+02  0.00000000000E+00 0. -1.
         11    1    3    3    0    0  0.87374527823E+01  0.10898207976E+02 -0.27253585670E+01  0.14231710993E+02  0.51100000000E-03 0. -1.
        -11    1    3    3    0    0 -0.40499959009E+01  0.10413463066E+02 -0.51631184565E+01  0.12308552810E+02  0.51100000000E-03 0.  1.
        -12    1    3    3    0    0 -0.98117420268E+00 -0.16374803165E+01  0.32706017519E+02  0.32761679239E+02  0.00000000000E+00 0.  1.
</event>
<event>
 7    1  0.6230310E-012  0.5930193E+02  0.7816164E-02  0.1266605E+00
        -11   -1    0    0    0    0  0.00000000000E+00  0.00000000000E+00  0.45593999997E+02  0.45594000000E+02  0.51100000000E-03 0.  1.
         11   -1    0    0    0    0 -0.00000000000E+00 -0.00000000000E+00 -0.45593999997E+02  0.45594000000E+02  0.51100000000E-03 0. -1.
    9900012    2    1    2    0    0  0.17331871619E+02  0.26166710280E+02  0.56241155533E+01  0.59301934447E+02  0.49999982528E+02 0.  0.
         12    1    1    2    0    0 -0.17331871619E+02 -0.26166710280E+02 -0.56241155533E+01  0.31886065553E+02  0.00000000000E+00 0. -1.
         11    1    3    3    0    0  0.92946520240E+01  0.31761560312E+01 -0.10347251633E+02  0.14266889640E+02  0.51100000000E-03 0. -1.
        -11    1    3    3    0    0  0.66005100296E+01 -0.69177509357E+01  0.11180487723E+02  0.14711400907E+02  0.51100000000E-03 0.  1.
        -12    1    3    3    0    0  0.14367095651E+01  0.29908305184E+02  0.47908794630E+01  0.30323643900E+02  0.00000000000E+00 0.  1.
</event>
<event>
 7    1  0.6230310E-012  0.5930194E+02  0.7816164E-02  0.1266605E+00
        -11   -1    0    0    0    0  0.00000000000E+00  0.00000000000E+00  0.45593999997E+02  0.45594000000E+02  0.51100000000E-03 0. -1.
         11   -1    0    0    0    0 -0.00000000000E+00 -0.00000000000E+00 -0.45593999997E+02  0.45594000000E+02  0.51100000000E-03 0.  1.
    9900012    2    1    2    0    0  0.23736904782E+02  0.19387505865E+02 -0.87979873604E+01  0.59301943269E+02  0.49999998616E+02 0.  0.
         12    1    1    2    0    0 -0.23736904782E+02 -0.19387505865E+02  0.87979873604E+01  0.31886056731E+02  0.00000000000E+00 0. -1.
         11    1    3    3    0    0  0.27528580418E+01  0.73913023529E+01  0.99402444950E+01  0.12689288347E+02  0.51100000000E-03 0. -1.
        -11    1    3    3    0    0  0.16687287426E+02  0.72142172248E+01  0.74497530890E+01  0.19647119717E+02  0.51100000000E-03 0.  1.
        -12    1    3    3    0    0  0.42967593143E+01  0.47819862870E+01 -0.26187984944E+02  0.26965535205E+02  0.00000000000E+00 0.  1.
</event>
<event>
 7    1  0.6230310E-012  0.5930193E+02  0.7816164E-02  0.1266605E+00
        -11   -1    0    0    0    0  0.00000000000E+00  0.00000000000E+00  0.45593999997E+02  0.45594000000E+02  0.51100000000E-03 0.  1.
         11   -1    0    0    0    0 -0.00000000000E+00 -0.00000000000E+00 -0.45593999997E+02  0.45594000000E+02  0.51100000000E-03 0. -1.
    9900012    2    1    2    0    0 -0.77218067116E+01  0.10091334459E+02  0.29244825895E+02  0.59301934521E+02  0.49999982663E+02 0.  0.
         12    1    1    2    0    0  0.77218067116E+01 -0.10091334459E+02 -0.29244825895E+02  0.31886065479E+02  0.00000000000E+00 0. -1.
         11    1    3    3    0    0  0.29997407485E+01 -0.12854157356E+01  0.18692132579E+02  0.18974892853E+02  0.51100000000E-03 0. -1.
        -11    1    3    3    0    0  0.11871697271E+02  0.19275588919E+01  0.10301956561E+02  0.15836129218E+02  0.51100000000E-03 0.  1.
         12    1    3    3    0    0 -0.22593244731E+02  0.94491913029E+01  0.25073675552E+00  0.24490912451E+02  0.00000000000E+00 0. -1.
</event>
<event>
 7    1  0.6230310E-012  0.5930193E+02  0.7816164E-02  0.1266605E+00
        -11   -1    0    0    0    0  0.00000000000E+00  0.00000000000E+00  0.45593999997E+02  0.45594000000E+02  0.51100000000E-03 0.  1.
         11   -1    0    0    0    0 -0.00000000000E+00 -0.00000000000E+00 -0.45593999997E+02  0.45594000000E+02  0.51100000000E-03 0. -1.
    9900012    2    1    2    0    0 -0.14973871452E+01 -0.31727936056E+02  0.27959058412E+01  0.59301934327E+02  0.49999982308E+02 0.  0.
         12    1    1    2    0    0  0.14973871452E+01  0.31727936056E+02 -0.27959058412E+01  0.31886065673E+02  0.00000000000E+00 0. -1.
         11    1    3    3    0    0  0.11299130560E+02 -0.25345245511E+02 -0.11976534477E+02  0.30223983850E+02  0.51100000000E-03 0. -1.
        -11    1    3    3    0    0  0.26603354821E+01 -0.85700045284E+01  0.27854190793E+01  0.93957927927E+01  0.51100000000E-03 0.  1.
         12    1    3    3    0    0 -0.15456853187E+02  0.21873139833E+01  0.11987021239E+02  0.19682157684E+02  0.00000000000E+00 0. -1.
</event>
<event>
 7    1  0.6230310E-012  0.5930196E+02  0.7816164E-02  0.1266605E+00
        -11   -1    0    0    0    0  0.00000000000E+00  0.00000000000E+00  0.45593999997E+02  0.45594000000E+02  0.51100000000E-03 0.  1.
         11   -1    0    0    0    0 -0.00000000000E+00 -0.00000000000E+00 -0.45593999997E+02  0.45594000000E+02  0.51100000000E-03 0. -1.
    9900012    2    1    2    0    0  0.23112449504E+02  0.32557769740E+01  0.21724049553E+02  0.59301957054E+02  0.50000023757E+02 0.  0.
         12    1    1    2    0    0 -0.23112449504E+02 -0.32557769740E+01 -0.21724049553E+02  0.31886042946E+02  0.00000000000E+00 0. -1.
         11    1    3    3    0    0  0.15859142036E+01  0.12750453534E+01 -0.35530204466E+01  0.40944864232E+01  0.51100000000E-03 0.  1.
        -11    1    3    3    0    0 -0.26094058349E+01  0.17667296102E+02  0.15912116812E+01  0.17929704550E+02  0.51100000000E-03 0. -1.
        -12    1    3    3    0    0  0.24135941135E+02 -0.15686564481E+02  0.23685858319E+02  0.37277766081E+02  0.00000000000E+00 0.  1.
</event>
<event>
 7    1  0.6230310E-012  0.5930194E+02  0.7816164E-02  0.1266605E+00
        -11   -1    0    0    0    0  0.00000000000E+00  0.00000000000E+00  0.45593999997E+02  0.45594000000E+02  0.51100000000E-03 0.  1.
         11   -1    0    0    0    0 -0.00000000000E+00 -0.00000000000E+00 -0.45593999997E+02  0.45594000000E+02  0.51100000000E-03 0. -1.
    9900012    2    1    2    0    0 -0.12310469579E+02 -0.57941090919E+01  0.28837505850E+02  0.59301935567E+02  0.49999984569E+02 0.  0.
         12    1    1    2    0    0  0.12310469579E+02  0.57941090919E+01 -0.28837505850E+02  0.31886064433E+02  0.00000000000E+00 0. -1.
         11    1    3    3    0    0 -0.88252287122E+01  0.54442390355E+01  0.12251338377E+02  0.16050535592E+02  0.51100000000E-03 0. -1.
        -11    1    3    3    0    0  0.59532444681E+01  0.15253895076E+01  0.24679295586E+02  0.25432962150E+02  0.51100000000E-03 0.  1.
         12    1    3    3    0    0 -0.94384853345E+01 -0.12763737635E+02 -0.80931281138E+01  0.17818437824E+02  0.00000000000E+00 0. -1.
</event>
<event>
 7    1  0.6230310E-012  0.5930196E+02  0.7816164E-02  0.1266605E+00
        -11   -1    0    0    0    0  0.00000000000E+00  0.00000000000E+00  0.45593999997E+02  0.45594000000E+02  0.51100000000E-03 0.  1.
         11   -1    0    0    0    0 -0.00000000000E+00 -0.00000000000E+00 -0.45593999997E+02  0.45594000000E+02  0.51100000000E-03 0. -1.
    9900012    2    1    2    0    0  0.84408007401E+01 -0.30742437217E+02 -0.61259711808E+00  0.59301955429E+02  0.50000020793E+02 0.  0.
         12    1    1    2    0    0 -0.84408007401E+01  0.30742437217E+02  0.61259711808E+00  0.31886044571E+02  0.00000000000E+00 0. -1.
         11    1    3    3    0    0  0.41834881954E+01 -0.14906770931E+02 -0.76265258140E+01  0.17259121917E+02  0.51100000000E-03 0. -1.
        -11    1    3    3    0    0  0.52681163708E+01 -0.28381565701E+02  0.47687793210E+01  0.29257607185E+02  0.51100000000E-03 0.  1.
         12    1    3    3    0    0 -0.10108038261E+01  0.12545899416E+02  0.22451493749E+01  0.12785226327E+02  0.00000000000E+00 0. -1.
</event>
<event>
 7    1  0.6230310E-012  0.5930195E+02  0.7816164E-02  0.1266605E+00
        -11   -1    0    0    0    0  0.00000000000E+00  0.00000000000E+00  0.45593999997E+02  0.45594000000E+02  0.51100000000E-03 0. -1.
         11   -1    0    0    0    0 -0.00000000000E+00 -0.00000000000E+00 -0.45593999997E+02  0.45594000000E+02  0.51100000000E-03 0.  1.
    9900012    2    1    2    0    0  0.28896740707E+02  0.13373675231E+02 -0.16862171133E+01  0.59301950686E+02  0.50000012143E+02 0.  0.
         12    1    1    2    0    0 -0.28896740707E+02 -0.13373675231E+02  0.16862171133E+01  0.31886049314E+02  0.00000000000E+00 0. -1.
         11    1    3    3    0    0 -0.63833456408E+01 -0.13062581528E+01  0.42786348416E+01  0.77948783378E+01  0.51100000000E-03 0. -1.
        -11    1    3    3    0    0  0.57301531921E+01  0.20237043468E+02 -0.12296005863E+01  0.21068566676E+02  0.51100000000E-03 0.  1.
        -12    1    3    3    0    0  0.29549933156E+02 -0.55571100840E+01 -0.47352513686E+01  0.30438505672E+02  0.00000000000E+00 0.  1.
</event>
<event>
 7    1  0.6230310E-012  0.5930194E+02  0.7816164E-02  0.1266605E+00
        -11   -1    0    0    0    0  0.00000000000E+00  0.00000000000E+00  0.45593999997E+02  0.45594000000E+02  0.51100000000E-03 0. -1.
         11   -1    0    0    0    0 -0.00000000000E+00 -0.00000000000E+00 -0.45593999997E+02  0.45594000000E+02  0.51100000000E-03 0.  1.
    9900012    2    1    2    0    0 -0.16360029913E+02  0.23123977855E+02 -0.14640769377E+02  0.59301936296E+02  0.49999985899E+02 0.  0.
         12    1    1    2    0    0  0.16360029913E+02 -0.23123977855E+02  0.14640769377E+02  0.31886063704E+02  0.00000000000E+00 0. -1.
         11    1    3    3    0    0 -0.25125920899E+02  0.33959959399E+02 -0.12374366030E+02  0.44019492027E+02  0.51100000000E-03 0.  1.
        -11    1    3    3    0    0  0.37419425833E+01 -0.73916329090E+01 -0.36222928452E+01  0.90420891986E+01  0.51100000000E-03 0. -1.
        -12    1    3    3    0    0  0.50239484029E+01 -0.34443486352E+01  0.13558894973E+01  0.62403550704E+01  0.00000000000E+00 0.  1.
</event>
<event>
 7    1  0.6230310E-012  0.5930194E+02  0.7816164E-02  0.1266605E+00
        -11   -1    0    0    0    0  0.00000000000E+00  0.00000000000E+00  0.45593999997E+02  0.45594000000E+02  0.51100000000E-03 0.  1.
         11   -1    0    0    0    0 -0.00000000000E+00 -0.00000000000E+00 -0.45593999997E+02  0.45594000000E+02  0.51100000000E-03 0. -1.
    9900012    2    1    2    0    0 -0.25476498128E+02  0.16648894391E+02  0.95122599508E+01  0.59301941436E+02  0.49999995274E+02 0.  0.
         12    1    1    2    0    0  0.25476498128E+02 -0.16648894391E+02 -0.95122599508E+01  0.31886058564E+02  0.00000000000E+00 0. -1.
         11    1    3    3    0    0 -0.21019852670E+02  0.91015613160E+01 -0.16197179071E+02  0.28053898745E+02  0.51100000000E-03 0. -1.
        -11    1    3    3    0    0  0.14364487193E+01  0.61085467414E+01  0.17244137889E+01  0.65077900543E+01  0.51100000000E-03 0.  1.
        -12    1    3    3    0    0 -0.58930941779E+01  0.14387863340E+01  0.23985025233E+02  0.24740252637E+02  0.00000000000E+00 0.  1.
</event>
<event>
 7    1  0.6230310E-012  0.5930195E+02  0.7816164E-02  0.1266605E+00
        -11   -1    0    0    0    0  0.00000000000E+00  0.00000000000E+00  0.45593999997E+02  0.45594000000E+02  0.51100000000E-03 0.  1.
         11   -1    0    0    0    0 -0.00000000000E+00 -0.00000000000E+00 -0.45593999997E+02  0.45594000000E+02  0.51100000000E-03 0. -1.
    9900012    2    1    2    0    0  0.41829423307E+01  0.10132555803E+02  0.29942515972E+02  0.59301953579E+02  0.50000017420E+02 0.  0.
         12    1    1    2    0    0 -0.41829423307E+01 -0.10132555803E+02 -0.29942515972E+02  0.31886046421E+02  0.00000000000E+00 0. -1.
         11    1    3    3    0    0 -0.14248999115E+01  0.12933491074E+01 -0.14423468763E+00  0.19297397694E+01  0.51100000000E-03 0. -1.
        -11    1    3    3    0    0 -0.15044521330E+02 -0.10211900793E+02  0.31601356245E+01  0.18455541099E+02  0.51100000000E-03 0.  1.
        -12    1    3    3    0    0  0.20652363572E+02  0.19051107488E+02  0.26926615035E+02  0.38916672711E+02  0.00000000000E+00 0.  1.
</event>
<event>
 7    1  0.6230310E-012  0.5930194E+02  0.7816164E-02  0.1266605E+00
        -11   -1    0    0    0    0  0.00000000000E+00  0.00000000000E+00  0.45593999997E+02  0.45594000000E+02  0.51100000000E-03 0.  1.
         11   -1    0    0    0    0 -0.00000000000E+00 -0.00000000000E+00 -0.45593999997E+02  0.45594000000E+02  0.51100000000E-03 0. -1.
    9900012    2    1    2    0    0  0.12142314519E+01 -0.45752556549E+01  0.31532738213E+02  0.59301938758E+02  0.49999990389E+02 0.  0.
         12    1    1    2    0    0 -0.12142314519E+01  0.45752556549E+01 -0.31532738213E+02  0.31886061242E+02  0.00000000000E+00 0. -1.
         11    1    3    3    0    0  0.76199522818E+01 -0.20579864605E+01 -0.45358407567E+00  0.79059926526E+01  0.51100000000E-03 0. -1.
        -11    1    3    3    0    0  0.12916538981E+02 -0.99309995117E+01  0.24428324759E+02  0.29363323745E+02  0.51100000000E-03 0.  1.
         12    1    3    3    0    0 -0.19322259811E+02  0.74137303172E+01  0.75579975294E+01  0.22032622360E+02  0.00000000000E+00 0. -1.
</event>
<event>
 7    1  0.6230310E-012  0.5930192E+02  0.7816164E-02  0.1266605E+00
        -11   -1    0    0    0    0  0.00000000000E+00  0.00000000000E+00  0.45593999997E+02  0.45594000000E+02  0.51100000000E-03 0.  1.
         11   -1    0    0    0    0 -0.00000000000E+00 -0.00000000000E+00 -0.45593999997E+02  0.45594000000E+02  0.51100000000E-03 0. -1.
    9900012    2    1    2    0    0 -0.13877819280E+02 -0.19332940349E+02 -0.21221814014E+02  0.59301924033E+02  0.49999963535E+02 0.  0.
         12    1    1    2    0    0  0.13877819280E+02  0.19332940349E+02  0.21221814014E+02  0.31886075967E+02  0.00000000000E+00 0. -1.
         11    1    3    3    0    0  0.13558603362E+01  0.10838795843E+02 -0.57736470494E+01  0.12355276326E+02  0.51100000000E-03 0. -1.
        -11    1    3    3    0    0  0.47805134500E+01  0.65052924696E+00  0.31465355015E+01  0.57599638080E+01  0.51100000000E-03 0.  1.
        -12    1    3    3    0    0 -0.20014193066E+02 -0.30822265439E+02 -0.18594702466E+02  0.41186683900E+02  0.00000000000E+00 0.  1.
</event>
<event>
 7    1  0.6230310E-012  0.5930193E+02  0.7816164E-02  0.1266605E+00
        -11   -1    0    0    0    0  0.00000000000E+00  0.00000000000E+00  0.45593999997E+02  0.45594000000E+02  0.51100000000E-03 0.  1.
         11   -1    0    0    0    0 -0.00000000000E+00 -0.00000000000E+00 -0.45593999997E+02  0.45594000000E+02  0.51100000000E-03 0. -1.
    9900012    2    1    2    0    0  0.10296608337E+02  0.18601951290E+02  0.23762756508E+02  0.59301932009E+02  0.49999978082E+02 0.  0.
         12    1    1    2    0    0 -0.10296608337E+02 -0.18601951290E+02 -0.23762756508E+02  0.31886067991E+02  0.00000000000E+00 0. -1.
         11    1    3    3    0    0  0.14043319715E+02  0.14402087573E+02  0.15956925899E+02  0.25676028499E+02  0.51100000000E-03 0. -1.
        -11    1    3    3    0    0  0.37583603429E+01  0.50046975391E-02  0.19080431872E+02  0.19447060914E+02  0.51100000000E-03 0.  1.
         12    1    3    3    0    0 -0.75050717208E+01  0.41948590192E+01 -0.11274601263E+02  0.14178842596E+02  0.00000000000E+00 0. -1.
</event>
<event>
 7    1  0.6230310E-012  0.5930195E+02  0.7816164E-02  0.1266605E+00
        -11   -1    0    0    0    0  0.00000000000E+00  0.00000000000E+00  0.45593999997E+02  0.45594000000E+02  0.51100000000E-03 0. -1.
         11   -1    0    0    0    0 -0.00000000000E+00 -0.00000000000E+00 -0.45593999997E+02  0.45594000000E+02  0.51100000000E-03 0.  1.
    9900012    2    1    2    0    0  0.22160121014E+01 -0.21941059217E+02 -0.23030403539E+02  0.59301948561E+02  0.50000008267E+02 0.  0.
         12    1    1    2    0    0 -0.22160121014E+01  0.21941059217E+02  0.23030403539E+02  0.31886051439E+02  0.00000000000E+00 0. -1.
         11    1    3    3    0    0  0.12102673523E+02 -0.46781023491E+01 -0.44581236088E+01  0.13719847462E+02  0.51100000000E-03 0. -1.
        -11    1    3    3    0    0  0.11064219548E+00 -0.20807643199E+02 -0.25500578669E+02  0.32912759987E+02  0.51100000000E-03 0.  1.
        -12    1    3    3    0    0 -0.99973036173E+01  0.35446863312E+01  0.69282987394E+01  0.12669341112E+02  0.00000000000E+00 0.  1.
</event>
<event>
 7    1  0.6230310E-012  0.5930195E+02  0.7816164E-02  0.1266605E+00
        -11   -1    0    0    0    0  0.00000000000E+00  0.00000000000E+00  0.45593999997E+02  0.45594000000E+02  0.51100000000E-03 0. -1.
         11   -1    0    0    0    0 -0.00000000000E+00 -0.00000000000E+00 -0.45593999997E+02  0.45594000000E+02  0.51100000000E-03 0.  1.
    9900012    2    1    2    0    0 -0.15881321013E+02 -0.94084073875E+01 -0.25999722931E+02  0.59301951653E+02  0.50000013906E+02 0.  0.
         12    1    1    2    0    0  0.15881321013E+02  0.94084073875E+01  0.25999722931E+02  0.31886048347E+02  0.00000000000E+00 0. -1.
         11    1    3    3    0    0  0.54992942401E+01  0.89573845086E+00  0.30012218296E+01  0.63286584079E+01  0.51100000000E-03 0. -1.
        -11    1    3    3    0    0 -0.18445043637E+02  0.10609477769E+02 -0.68157549820E+01  0.22343571101E+02  0.51100000000E-03 0.  1.
        -12    1    3    3    0    0 -0.29355716163E+01 -0.20913623607E+02 -0.22185189779E+02  0.30629722144E+02  0.00000000000E+00 0.  1.
</event>
<event>
 7    1  0.6230310E-012  0.5930193E+02  0.7816164E-02  0.1266605E+00
        -11   -1    0    0    0    0  0.00000000000E+00  0.00000000000E+00  0.45593999997E+02  0.45594000000E+02  0.51100000000E-03 0. -1.
         11   -1    0    0    0    0 -0.00000000000E+00 -0.00000000000E+00 -0.45593999997E+02  0.45594000000E+02  0.51100000000E-03 0.  1.
    9900012    2    1    2    0    0 -0.18839831504E+02  0.46500876962E+01 -0.25301359813E+02  0.59301931333E+02  0.49999976847E+02 0.  0.
         12    1    1    2    0    0  0.18839831504E+02 -0.46500876962E+01  0.25301359813E+02  0.31886068667E+02  0.00000000000E+00 0. -1.
         11    1    3    3    0    0 -0.11070832310E+02 -0.14406237057E+02 -0.10606024222E+02  0.21037840770E+02  0.51100000000E-03 0. -1.
        -11    1    3    3    0    0 -0.12958190698E+02  0.14857233894E+01 -0.15081390795E+02  0.19939168206E+02  0.51100000000E-03 0.  1.
         12    1    3    3    0    0  0.51891915050E+01  0.17570601364E+02  0.38605520466E+00  0.18324922357E+02  0.00000000000E+00 0. -1.
</event>
<event>
 7    1  0.6230310E-012  0.5930194E+02  0.7816164E-02  0.1266605E+00
        -11   -1    0    0    0    0  0.00000000000E+00  0.00000000000E+00  0.45593999997E+02  0.45594000000E+02  0.51100000000E-03 0. -1.
         11   -1    0    0    0    0 -0.00000000000E+00 -0.00000000000E+00 -0.45593999997E+02  0.45594000000E+02  0.51100000000E-03 0.  1.
    9900012    2    1    2    0    0  0.61267033681E+01  0.11150314507E+02 -0.29237897205E+02  0.59301942847E+02  0.49999997847E+02 0.  0.
         12    1    1    2    0    0 -0.61267033681E+01 -0.11150314507E+02  0.29237897205E+02  0.31886057153E+02  0.00000000000E+00 0. -1.
         11    1    3    3    0    0 -0.72746260908E+00 -0.68309973261E+01 -0.14633112008E+02  0.16165385662E+02  0.51100000000E-03 0. -1.
        -11    1    3    3    0    0 -0.55109807881E+01 -0.87674048898E+01 -0.25209181660E+00  0.10358660545E+02  0.51100000000E-03 0.  1.
        -12    1    3    3    0    0  0.12365146765E+02  0.26748716723E+02 -0.14352693381E+02  0.32777896640E+02  0.00000000000E+00 0.  1.
</event>
<event>
 7    1  0.6230310E-012  0.5930209E+02  0.7816164E-02  0.1266604E+00
        -11   -1    0    0    0    0  0.00000000000E+00  0.00000000000E+00  0.45593999997E+02  0.45594000000E+02  0.51100000000E-03 0.  1.
         11   -1    0    0    0    0 -0.00000000000E+00 -0.00000000000E+00 -0.45593999997E+02  0.45594000000E+02  0.51100000000E-03 0. -1.
    9900012    2    1    2    0    0 -0.76603391337E+01  0.12352844395E+02  0.28380239842E+02  0.59302085025E+02  0.50000257145E+02 0.  0.
         12    1    1    2    0    0  0.76603391337E+01 -0.12352844395E+02 -0.28380239842E+02  0.31885914975E+02  0.00000000000E+00 0. -1.
         11    1    3    3    0    0  0.74787301596E+01  0.32375777490E+01  0.28556922265E+02  0.29696988467E+02  0.51100000000E-03 0. -1.
        -11    1    3    3    0    0 -0.58187034575E+01 -0.55387418157E+01  0.71514774400E+01  0.10755398675E+02  0.51100000000E-03 0.  1.
         12    1    3    3    0    0 -0.93203658358E+01  0.14654008462E+02 -0.73281598630E+01  0.18849697883E+02  0.00000000000E+00 0. -1.
</event>
<event>
 7    1  0.6230310E-012  0.5930178E+02  0.7816164E-02  0.1266605E+00
        -11   -1    0    0    0    0  0.00000000000E+00  0.00000000000E+00  0.45593999997E+02  0.45594000000E+02  0.51100000000E-03 0. -1.
         11   -1    0    0    0    0 -0.00000000000E+00 -0.00000000000E+00 -0.45593999997E+02  0.45594000000E+02  0.51100000000E-03 0.  1.
    9900012    2    1    2    0    0  0.22951307280E+01 -0.20486711207E+02 -0.24326079248E+02  0.59301778952E+02  0.49999698941E+02 0.  0.
         12    1    1    2    0    0 -0.22951307280E+01  0.20486711207E+02  0.24326079248E+02  0.31886221048E+02  0.00000000000E+00 0. -1.
         11    1    3    3    0    0  0.56896063375E+01 -0.43302783881E+01  0.30211157274E+01  0.77620919663E+01  0.51100000000E-03 0. -1.
        -11    1    3    3    0    0  0.16773217861E+02 -0.49308957146E+01 -0.25589474064E+01  0.17669260937E+02  0.51100000000E-03 0.  1.
        -12    1    3    3    0    0 -0.20167693471E+02 -0.11225537104E+02 -0.24788247569E+02  0.33870426049E+02  0.00000000000E+00 0.  1.
</event>
<event>
 7    1  0.6230310E-012  0.5930180E+02  0.7816164E-02  0.1266605E+00
        -11   -1    0    0    0    0  0.00000000000E+00  0.00000000000E+00  0.45593999997E+02  0.45594000000E+02  0.51100000000E-03 0.  1.
         11   -1    0    0    0    0 -0.00000000000E+00 -0.00000000000E+00 -0.45593999997E+02  0.45594000000E+02  0.51100000000E-03 0. -1.
    9900012    2    1    2    0    0  0.11581098352E+02  0.22767010435E+02  0.19085883789E+02  0.59301802936E+02  0.49999742682E+02 0.  0.
         12    1    1    2    0    0 -0.11581098352E+02 -0.22767010435E+02 -0.19085883789E+02  0.31886197064E+02  0.00000000000E+00 0. -1.
         11    1    3    3    0    0  0.23911628521E+02 -0.17918586760E+01  0.17498320195E+02  0.29684473146E+02  0.51100000000E-03 0.  1.
        -11    1    3    3    0    0 -0.71758161059E+01  0.83374320010E+01 -0.39969041752E+01  0.11703860577E+02  0.51100000000E-03 0. -1.
        -12    1    3    3    0    0 -0.51547140629E+01  0.16221437110E+02  0.55844677697E+01  0.17913469213E+02  0.00000000000E+00 0.  1.
</event>
<event>
 7    1  0.6230310E-012  0.5930192E+02  0.7816164E-02  0.1266605E+00
        -11   -1    0    0    0    0  0.00000000000E+00  0.00000000000E+00  0.45593999997E+02  0.45594000000E+02  0.51100000000E-03 0. -1.
         11   -1    0    0    0    0 -0.00000000000E+00 -0.00000000000E+00 -0.45593999997E+02  0.45594000000E+02  0.51100000000E-03 0.  1.
    9900012    2    1    2    0    0 -0.30581276135E+01 -0.25666470089E+02 -0.18670890251E+02  0.59301921939E+02  0.49999959716E+02 0.  0.
         12    1    1    2    0    0  0.30581276135E+01  0.25666470089E+02  0.18670890251E+02  0.31886078061E+02  0.00000000000E+00 0. -1.
         11    1    3    3    0    0 -0.80026432965E+01 -0.35734254423E+02 -0.16209590720E+02  0.40046598738E+02  0.51100000000E-03 0. -1.
        -11    1    3    3    0    0  0.14872254184E+01 -0.41171420462E+01 -0.14850055567E+01  0.46225468995E+01  0.51100000000E-03 0.  1.
         12    1    3    3    0    0  0.34572902646E+01  0.14184926380E+02 -0.97629397463E+00  0.14632776302E+02  0.00000000000E+00 0. -1.
</event>
<event>
 7    1  0.6230310E-012  0.5930194E+02  0.7816164E-02  0.1266605E+00
        -11   -1    0    0    0    0  0.00000000000E+00  0.00000000000E+00  0.45593999997E+02  0.45594000000E+02  0.51100000000E-03 0.  1.
         11   -1    0    0    0    0 -0.00000000000E+00 -0.00000000000E+00 -0.45593999997E+02  0.45594000000E+02  0.51100000000E-03 0. -1.
    9900012    2    1    2    0    0  0.26764313143E+02  0.10030601659E+02  0.14134338242E+02  0.59301938074E+02  0.49999989141E+02 0.  0.
         12    1    1    2    0    0 -0.26764313143E+02 -0.10030601659E+02 -0.14134338242E+02  0.31886061926E+02  0.00000000000E+00 0. -1.
         11    1    3    3    0    0  0.17600037655E+02  0.91665862719E+00  0.57114615966E+01  0.18526261963E+02  0.51100000000E-03 0. -1.
        -11    1    3    3    0    0  0.16830713102E+02  0.16953736266E+02  0.14788841784E+02  0.28096475197E+02  0.51100000000E-03 0.  1.
         12    1    3    3    0    0 -0.76664376151E+01 -0.78397932344E+01 -0.63659651380E+01  0.12679200913E+02  0.00000000000E+00 0. -1.
</event>
<event>
 7    1  0.6308363E-012  0.5930193E+02  0.7816164E-02  0.1266605E+00
        -11   -1    0    0    0    0  0.00000000000E+00  0.00000000000E+00  0.45593999997E+02  0.45594000000E+02  0.51100000000E-03 0. -1.
         11   -1    0    0    0    0 -0.00000000000E+00 -0.00000000000E+00 -0.45593999997E+02  0.45594000000E+02  0.51100000000E-03 0.  1.
    9900012    2    1    2    0    0  0.30267562498E+02  0.58441134788E+01 -0.81512179744E+01  0.59301931625E+02  0.49999977380E+02 0.  0.
         12    1    1    2    0    0 -0.30267562498E+02 -0.58441134788E+01  0.81512179744E+01  0.31886068375E+02  0.00000000000E+00 0. -1.
         11    1    3    3    0    0  0.46821540040E+01  0.34171251266E+01  0.11746328862E+02  0.13098685134E+02  0.51100000000E-03 0. -1.
        -11    1    3    3    0    0  0.78297220927E+01  0.11109350306E+02 -0.22481222246E+02  0.26270279142E+02  0.51100000000E-03 0.  1.
         12    1    3    3    0    0  0.17755686402E+02 -0.86823619539E+01  0.25836754095E+01  0.19932967349E+02  0.00000000000E+00 0. -1.
</event>
<event>
 7    1  0.6230310E-012  0.5930197E+02  0.7816164E-02  0.1266605E+00
        -11   -1    0    0    0    0  0.00000000000E+00  0.00000000000E+00  0.45593999997E+02  0.45594000000E+02  0.51100000000E-03 0. -1.
         11   -1    0    0    0    0 -0.00000000000E+00 -0.00000000000E+00 -0.45593999997E+02  0.45594000000E+02  0.51100000000E-03 0.  1.
    9900012    2    1    2    0    0  0.93870138088E+01  0.89529421012E+01 -0.29128124954E+02  0.59301970711E+02  0.50000048663E+02 0.  0.
         12    1    1    2    0    0 -0.93870138088E+01 -0.89529421012E+01  0.29128124954E+02  0.31886029289E+02  0.00000000000E+00 0. -1.
         11    1    3    3    0    0 -0.52880585066E+01  0.40781749630E+01 -0.26653143848E+01  0.71901999158E+01  0.51100000000E-03 0. -1.
        -11    1    3    3    0    0  0.10902491102E+02 -0.17534295099E+02 -0.59224770722E+01  0.21480026811E+02  0.51100000000E-03 0.  1.
         12    1    3    3    0    0  0.37725812130E+01  0.22409062237E+02 -0.20540333497E+02  0.30631743984E+02  0.00000000000E+00 0. -1.
</event>
<event>
 7    1  0.6230310E-012  0.5930195E+02  0.7816164E-02  0.1266605E+00
        -11   -1    0    0    0    0  0.00000000000E+00  0.00000000000E+00  0.45593999997E+02  0.45594000000E+02  0.51100000000E-03 0.  1.
         11   -1    0    0    0    0 -0.00000000000E+00 -0.00000000000E+00 -0.45593999997E+02  0.45594000000E+02  0.51100000000E-03 0. -1.
    9900012    2    1    2    0    0  0.16610246075E+02 -0.19435507393E+02  0.19054687230E+02  0.59301947756E+02  0.50000006799E+02 0.  0.
         12    1    1    2    0    0 -0.16610246075E+02  0.19435507393E+02 -0.19054687230E+02  0.31886052244E+02  0.00000000000E+00 0. -1.
         11    1    3    3    0    0  0.32793143335E+01  0.29470354325E+01  0.14041351002E+02  0.14717284347E+02  0.51100000000E-03 0. -1.
        -11    1    3    3    0    0  0.56499780187E+01 -0.27082432040E+02  0.14725448419E+02  0.31340376644E+02  0.51100000000E-03 0.  1.
         12    1    3    3    0    0  0.76809537224E+01  0.46998892138E+01 -0.97121121908E+01  0.13244286765E+02  0.00000000000E+00 0. -1.
</event>
<event>
 7    1  0.6230310E-012  0.5930195E+02  0.7816164E-02  0.1266605E+00
        -11   -1    0    0    0    0  0.00000000000E+00  0.00000000000E+00  0.45593999997E+02  0.45594000000E+02  0.51100000000E-03 0.  1.
         11   -1    0    0    0    0 -0.00000000000E+00 -0.00000000000E+00 -0.45593999997E+02  0.45594000000E+02  0.51100000000E-03 0. -1.
    9900012    2    1    2    0    0  0.14669811302E+02 -0.20127073213E+02  0.19910235721E+02  0.59301954051E+02  0.50000018281E+02 0.  0.
         12    1    1    2    0    0 -0.14669811302E+02  0.20127073213E+02 -0.19910235721E+02  0.31886045949E+02  0.00000000000E+00 0. -1.
         11    1    3    3    0    0 -0.81695150873E+01  0.68255190726E+00 -0.40173455069E+01  0.91293986138E+01  0.51100000000E-03 0. -1.
        -11    1    3    3    0    0  0.24974632597E+00  0.50950910675E+01  0.13224012188E+02  0.14173807703E+02  0.51100000000E-03 0.  1.
        -12    1    3    3    0    0  0.22589580063E+02 -0.25904716188E+02  0.10703569040E+02  0.35998747734E+02  0.00000000000E+00 0.  1.
</event>
<event>
 7    1  0.6230310E-012  0.5930194E+02  0.7816164E-02  0.1266605E+00
        -11   -1    0    0    0    0  0.00000000000E+00  0.00000000000E+00  0.45593999997E+02  0.45594000000E+02  0.51100000000E-03 0.  1.
         11   -1    0    0    0    0 -0.00000000000E+00 -0.00000000000E+00 -0.45593999997E+02  0.45594000000E+02  0.51100000000E-03 0. -1.
    9900012    2    1    2    0    0 -0.20833683614E+02 -0.15769352715E+02  0.18275830795E+02  0.59301939578E+02  0.49999991885E+02 0.  0.
         12    1    1    2    0    0  0.20833683614E+02  0.15769352715E+02 -0.18275830795E+02  0.31886060422E+02  0.00000000000E+00 0. -1.
         11    1    3    3    0    0 -0.11220805657E+02 -0.16498939125E+02  0.36543236469E+01  0.20284860202E+02  0.51100000000E-03 0. -1.
        -11    1    3    3    0    0  0.11066829911E+02 -0.80669734047E+01  0.51918471402E+01  0.14646025440E+02  0.51100000000E-03 0.  1.
        -12    1    3    3    0    0 -0.20679707868E+02  0.87965598149E+01  0.94296600080E+01  0.24371053936E+02  0.00000000000E+00 0.  1.
</event>
<event>
 7    1  0.6230310E-012  0.5930195E+02  0.7816164E-02  0.1266605E+00
        -11   -1    0    0    0    0  0.00000000000E+00  0.00000000000E+00  0.45593999997E+02  0.45594000000E+02  0.51100000000E-03 0.  1.
         11   -1    0    0    0    0 -0.00000000000E+00 -0.00000000000E+00 -0.45593999997E+02  0.45594000000E+02  0.51100000000E-03 0. -1.
    9900012    2    1    2    0    0  0.58720324547E+01  0.31292862197E+02  0.17309453173E+01  0.59301950365E+02  0.50000011558E+02 0.  0.
         12    1    1    2    0    0 -0.58720324547E+01 -0.31292862197E+02 -0.17309453173E+01  0.31886049635E+02  0.00000000000E+00 0. -1.
         11    1    3    3    0    0  0.15764030592E+02  0.19573994986E+02  0.10917674928E+02  0.27401488396E+02  0.51100000000E-03 0. -1.
        -11    1    3    3    0    0  0.33394529773E+01  0.58524081566E+01  0.73185081777E+01  0.99480244083E+01  0.51100000000E-03 0.  1.
         12    1    3    3    0    0 -0.13231451115E+02  0.58664590543E+01 -0.16505237788E+02  0.21952437561E+02  0.00000000000E+00 0. -1.
</event>
<event>
 7    1  0.6230310E-012  0.5930199E+02  0.7816164E-02  0.1266605E+00
        -11   -1    0    0    0    0  0.00000000000E+00  0.00000000000E+00  0.45593999997E+02  0.45594000000E+02  0.51100000000E-03 0.  1.
         11   -1    0    0    0    0 -0.00000000000E+00 -0.00000000000E+00 -0.45593999997E+02  0.45594000000E+02  0.51100000000E-03 0. -1.
    9900012    2    1    2    0    0  0.15902677568E+02 -0.43436435846E+01  0.27293871978E+02  0.59301986750E+02  0.50000077915E+02 0.  0.
         12    1    1    2    0    0 -0.15902677568E+02  0.43436435846E+01 -0.27293871978E+02  0.31886013250E+02  0.00000000000E+00 0. -1.
         11    1    3    3    0    0  0.66167424555E+01 -0.78854793079E+01  0.13982295609E+02  0.17362795149E+02  0.51100000000E-03 0. -1.
        -11    1    3    3    0    0  0.24110275673E+02 -0.13693713633E+01  0.83997990948E+01  0.25568284965E+02  0.51100000000E-03 0.  1.
         12    1    3    3    0    0 -0.14824340560E+02  0.49112070867E+01  0.49117772740E+01  0.16370906636E+02  0.00000000000E+00 0. -1.
</event>
<event>
 7    1  0.6230310E-012  0.5930197E+02  0.7816164E-02  0.1266605E+00
        -11   -1    0    0    0    0  0.00000000000E+00  0.00000000000E+00  0.45593999997E+02  0.45594000000E+02  0.51100000000E-03 0. -1.
         11   -1    0    0    0    0 -0.00000000000E+00 -0.00000000000E+00 -0.45593999997E+02  0.45594000000E+02  0.51100000000E-03 0.  1.
    9900012    2    1    2    0    0 -0.61839841406E+01 -0.31145266216E+02  0.29068479464E+01  0.59301968066E+02  0.50000043840E+02 0.  0.
         12    1    1    2    0    0  0.61839841406E+01  0.31145266216E+02 -0.29068479464E+01  0.31886031934E+02  0.00000000000E+00 0. -1.
         11    1    3    3    0    0 -0.10328150723E+02 -0.35132712656E+01 -0.48078877008E+01  0.11921810129E+02  0.51100000000E-03 0. -1.
        -11    1    3    3    0    0  0.63155634381E+00 -0.20535873737E+02 -0.13602189918E+02  0.24640222085E+02  0.51100000000E-03 0.  1.
         12    1    3    3    0    0  0.35126102388E+01 -0.70961212131E+01  0.21316925566E+02  0.22739935851E+02  0.00000000000E+00 0. -1.
</event>
<event>
 7    1  0.6230310E-012  0.5930196E+02  0.7816164E-02  0.1266605E+00
        -11   -1    0    0    0    0  0.00000000000E+00  0.00000000000E+00  0.45593999997E+02  0.45594000000E+02  0.51100000000E-03 0.  1.
         11   -1    0    0    0    0 -0.00000000000E+00 -0.00000000000E+00 -0.45593999997E+02  0.45594000000E+02  0.51100000000E-03 0. -1.
    9900012    2    1    2    0    0 -0.16076241740E+02 -0.26041325912E+02 -0.89511632903E+01  0.59301960296E+02  0.50000029670E+02 0.  0.
         12    1    1    2    0    0  0.16076241740E+02  0.26041325912E+02  0.89511632903E+01  0.31886039704E+02  0.00000000000E+00 0. -1.
         11    1    3    3    0    0 -0.12243112310E+02 -0.87088549640E+01 -0.11115551513E+02  0.18689393770E+02  0.51100000000E-03 0. -1.
        -11    1    3    3    0    0 -0.34687466977E+01 -0.21642790674E+02 -0.12562323918E+02  0.25263700725E+02  0.51100000000E-03 0.  1.
         12    1    3    3    0    0 -0.36438273226E+00  0.43103197262E+01  0.14726712140E+02  0.15348865801E+02  0.00000000000E+00 0. -1.
</event>
<event>
 7    1  0.6230310E-012  0.5930190E+02  0.7816164E-02  0.1266605E+00
        -11   -1    0    0    0    0  0.00000000000E+00  0.00000000000E+00  0.45593999997E+02  0.45594000000E+02  0.51100000000E-03 0. -1.
         11   -1    0    0    0    0 -0.00000000000E+00 -0.00000000000E+00 -0.45593999997E+02  0.45594000000E+02  0.51100000000E-03 0.  1.
    9900012    2    1    2    0    0  0.21976554877E+02 -0.22819087354E+02  0.36115591543E+01  0.59301904732E+02  0.49999928333E+02 0.  0.
         12    1    1    2    0    0 -0.21976554877E+02  0.22819087354E+02 -0.36115591543E+01  0.31886095268E+02  0.00000000000E+00 0. -1.
         11    1    3    3    0    0  0.36008570552E+01  0.33365192399E+01 -0.35951481785E+01  0.60847040073E+01  0.51100000000E-03 0. -1.
        -11    1    3    3    0    0  0.11338539473E+02 -0.16740468092E+02 -0.16929642207E+02  0.26370789423E+02  0.51100000000E-03 0.  1.
        -12    1    3    3    0    0  0.70371583494E+01 -0.94151385021E+01  0.24136349539E+02  0.26846411301E+02  0.00000000000E+00 0.  1.
</event>
<event>
 7    1  0.6230310E-012  0.5930192E+02  0.7816164E-02  0.1266605E+00
        -11   -1    0    0    0    0  0.00000000000E+00  0.00000000000E+00  0.45593999997E+02  0.45594000000E+02  0.51100000000E-03 0.  1.
         11   -1    0    0    0    0 -0.00000000000E+00 -0.00000000000E+00 -0.45593999997E+02  0.45594000000E+02  0.51100000000E-03 0. -1.
    9900012    2    1    2    0    0  0.27370192169E+02  0.16298786132E+02  0.13944443002E+01  0.59301916458E+02  0.49999949719E+02 0.  0.
         12    1    1    2    0    0 -0.27370192169E+02 -0.16298786132E+02 -0.13944443002E+01  0.31886083542E+02  0.00000000000E+00 0. -1.
         11    1    3    3    0    0  0.43256716523E+01 -0.17546033647E+01  0.76105532332E+01  0.89280786840E+01  0.51100000000E-03 0.  1.
        -11    1    3    3    0    0 -0.83712215984E+01 -0.60449131885E+01 -0.23657287434E+01  0.10593158134E+02  0.51100000000E-03 0. -1.
        -12    1    3    3    0    0  0.31415742115E+02  0.24098302685E+02 -0.38503801896E+01  0.39780679639E+02  0.00000000000E+00 0.  1.
</event>
<event>
 7    1  0.6230310E-012  0.5930201E+02  0.7816164E-02  0.1266605E+00
        -11   -1    0    0    0    0  0.00000000000E+00  0.00000000000E+00  0.45593999997E+02  0.45594000000E+02  0.51100000000E-03 0.  1.
         11   -1    0    0    0    0 -0.00000000000E+00 -0.00000000000E+00 -0.45593999997E+02  0.45594000000E+02  0.51100000000E-03 0. -1.
    9900012    2    1    2    0    0  0.25469439204E+02 -0.19037263416E+02  0.23678745033E+01  0.59302006815E+02  0.50000114509E+02 0.  0.
         12    1    1    2    0    0 -0.25469439204E+02  0.19037263416E+02 -0.23678745033E+01  0.31885993185E+02  0.00000000000E+00 0. -1.
         11    1    3    3    0    0  0.21879603997E+02 -0.14923739814E+02  0.10000723860E+02  0.28309884477E+02  0.51100000000E-03 0. -1.
        -11    1    3    3    0    0 -0.19861191114E+01 -0.65848762659E+00  0.11021344363E+02  0.11218213178E+02  0.51100000000E-03 0.  1.
        -12    1    3    3    0    0  0.55759543184E+01 -0.34550359751E+01 -0.18654193720E+02  0.19773909161E+02  0.00000000000E+00 0.  1.
</event>
<event>
 7    1  0.6230310E-012  0.5930190E+02  0.7816164E-02  0.1266605E+00
        -11   -1    0    0    0    0  0.00000000000E+00  0.00000000000E+00  0.45593999997E+02  0.45594000000E+02  0.51100000000E-03 0. -1.
         11   -1    0    0    0    0 -0.00000000000E+00 -0.00000000000E+00 -0.45593999997E+02  0.45594000000E+02  0.51100000000E-03 0.  1.
    9900012    2    1    2    0    0 -0.25391581810E+02 -0.19128050647E+02 -0.24715190573E+01  0.59301903424E+02  0.49999925949E+02 0.  0.
         12    1    1    2    0    0  0.25391581810E+02  0.19128050647E+02  0.24715190573E+01  0.31886096576E+02  0.00000000000E+00 0. -1.
         11    1    3    3    0    0  0.44672066617E+01 -0.11946657587E+02  0.10176078767E+02  0.16316591010E+02  0.51100000000E-03 0. -1.
        -11    1    3    3    0    0 -0.38038677866E+01  0.26014356930E+01  0.73776673167E+01  0.86986696167E+01  0.51100000000E-03 0.  1.
         12    1    3    3    0    0 -0.26054920685E+02 -0.97828287532E+01 -0.20025265141E+02  0.34286642797E+02  0.00000000000E+00 0. -1.
</event>
<event>
 7    1  0.6230310E-012  0.5930198E+02  0.7816164E-02  0.1266605E+00
        -11   -1    0    0    0    0  0.00000000000E+00  0.00000000000E+00  0.45593999997E+02  0.45594000000E+02  0.51100000000E-03 0.  1.
         11   -1    0    0    0    0 -0.00000000000E+00 -0.00000000000E+00 -0.45593999997E+02  0.45594000000E+02  0.51100000000E-03 0. -1.
    9900012    2    1    2    0    0 -0.45171421598E+01  0.10112833317E+02  0.29900569951E+02  0.59301983403E+02  0.50000071812E+02 0.  0.
         12    1    1    2    0    0  0.45171421598E+01 -0.10112833317E+02 -0.29900569951E+02  0.31886016597E+02  0.00000000000E+00 0. -1.
         11    1    3    3    0    0 -0.94656074398E+01  0.74398782941E+01  0.12598576328E+02  0.17426234217E+02  0.51100000000E-03 0. -1.
        -11    1    3    3    0    0  0.89471760522E+00 -0.17293833850E+02  0.47931104458E+01  0.17968058238E+02  0.51100000000E-03 0.  1.
         12    1    3    3    0    0  0.40537476749E+01  0.19966788874E+02  0.12508883177E+02  0.23907690948E+02  0.00000000000E+00 0. -1.
</event>
<event>
 7    1  0.6230310E-012  0.5930194E+02  0.7816164E-02  0.1266605E+00
        -11   -1    0    0    0    0  0.00000000000E+00  0.00000000000E+00  0.45593999997E+02  0.45594000000E+02  0.51100000000E-03 0.  1.
         11   -1    0    0    0    0 -0.00000000000E+00 -0.00000000000E+00 -0.45593999997E+02  0.45594000000E+02  0.51100000000E-03 0. -1.
    9900012    2    1    2    0    0  0.12567201424E+02  0.28707012083E+02 -0.58901339478E+01  0.59301940784E+02  0.49999994085E+02 0.  0.
         12    1    1    2    0    0 -0.12567201424E+02 -0.28707012083E+02  0.58901339478E+01  0.31886059216E+02  0.00000000000E+00 0. -1.
         11    1    3    3    0    0  0.30089058951E+01  0.67304579606E+01 -0.15092602145E+02  0.16797000292E+02  0.51100000000E-03 0. -1.
        -11    1    3    3    0    0  0.13937182350E+02  0.13029409330E+02 -0.95013051767E+01  0.21313970997E+02  0.51100000000E-03 0.  1.
        -12    1    3    3    0    0 -0.43788868211E+01  0.89471447928E+01  0.18703773374E+02  0.21190969495E+02  0.00000000000E+00 0.  1.
</event>
<event>
 7    1  0.6230310E-012  0.5930196E+02  0.7816164E-02  0.1266605E+00
        -11   -1    0    0    0    0  0.00000000000E+00  0.00000000000E+00  0.45593999997E+02  0.45594000000E+02  0.51100000000E-03 0. -1.
         11   -1    0    0    0    0 -0.00000000000E+00 -0.00000000000E+00 -0.45593999997E+02  0.45594000000E+02  0.51100000000E-03 0.  1.
    9900012    2    1    2    0    0 -0.19205303697E+02  0.12504360939E+02 -0.22170184981E+02  0.59301955487E+02  0.50000020900E+02 0.  0.
         12    1    1    2    0    0  0.19205303697E+02 -0.12504360939E+02  0.22170184981E+02  0.31886044513E+02  0.00000000000E+00 0. -1.
         11    1    3    3    0    0  0.91214765500E+01 -0.23149855232E+01 -0.14480032938E+02  0.17269390452E+02  0.51100000000E-03 0. -1.
        -11    1    3    3    0    0 -0.49652263396E+01  0.41937115765E+01 -0.14146825504E+02  0.15568344854E+02  0.51100000000E-03 0.  1.
        -12    1    3    3    0    0 -0.23361553907E+02  0.10625634886E+02  0.64566734608E+01  0.26464220182E+02  0.00000000000E+00 0.  1.
</event>
<event>
 7    1  0.6230310E-012  0.5930196E+02  0.7816164E-02  0.1266605E+00
        -11   -1    0    0    0    0  0.00000000000E+00  0.00000000000E+00  0.45593999997E+02  0.45594000000E+02  0.51100000000E-03 0.  1.
         11   -1    0    0    0    0 -0.00000000000E+00 -0.00000000000E+00 -0.45593999997E+02  0.45594000000E+02  0.51100000000E-03 0. -1.
    9900012    2    1    2    0    0  0.23376284186E+01 -0.14924754309E+02  0.28080365501E+02  0.59301957215E+02  0.50000024050E+02 0.  0.
         12    1    1    2    0    0 -0.23376284186E+01  0.14924754309E+02 -0.28080365501E+02  0.31886042785E+02  0.00000000000E+00 0. -1.
         11    1    3    3    0    0  0.55284059038E+01 -0.58342346201E+01 -0.96439445072E+01  0.12554171871E+02  0.51100000000E-03 0. -1.
        -11    1    3    3    0    0  0.68207705119E+01 -0.67132785209E+01  0.22774185824E+01  0.98375634451E+01  0.51100000000E-03 0.  1.
        -12    1    3    3    0    0 -0.10011547997E+02 -0.23772411676E+01  0.35446891426E+02  0.36910221899E+02  0.00000000000E+00 0.  1.
</event>
<event>
 7    1  0.6230310E-012  0.5930195E+02  0.7816164E-02  0.1266605E+00
        -11   -1    0    0    0    0  0.00000000000E+00  0.00000000000E+00  0.45593999997E+02  0.45594000000E+02  0.51100000000E-03 0. -1.
         11   -1    0    0    0    0 -0.00000000000E+00 -0.00000000000E+00 -0.45593999997E+02  0.45594000000E+02  0.51100000000E-03 0.  1.
    9900012    2    1    2    0    0 -0.19858668327E+02 -0.88014582063E+01 -0.23342837203E+02  0.59301946262E+02  0.50000004075E+02 0.  0.
         12    1    1    2    0    0  0.19858668327E+02  0.88014582063E+01  0.23342837203E+02  0.31886053738E+02  0.00000000000E+00 0. -1.
         11    1    3    3    0    0 -0.14198420265E+02  0.27398067878E+01 -0.19897925747E+02  0.24597339867E+02  0.51100000000E-03 0. -1.
        -11    1    3    3    0    0  0.43659821774E+01 -0.84442611852E+01 -0.15834136572E+02  0.18468547008E+02  0.51100000000E-03 0.  1.
        -12    1    3    3    0    0 -0.10026230240E+02 -0.30970038089E+01  0.12389225117E+02  0.16236059387E+02  0.00000000000E+00 0.  1.
</event>
<event>
 7    1  0.6230310E-012  0.5930194E+02  0.7816164E-02  0.1266605E+00
        -11   -1    0    0    0    0  0.00000000000E+00  0.00000000000E+00  0.45593999997E+02  0.45594000000E+02  0.51100000000E-03 0. -1.
         11   -1    0    0    0    0 -0.00000000000E+00 -0.00000000000E+00 -0.45593999997E+02  0.45594000000E+02  0.51100000000E-03 0.  1.
    9900012    2    1    2    0    0 -0.29878476284E+02  0.79643100120E+01  0.77824906210E+01  0.59301941303E+02  0.49999995030E+02 0.  0.
         12    1    1    2    0    0  0.29878476284E+02 -0.79643100120E+01 -0.77824906210E+01  0.31886058697E+02  0.00000000000E+00 0. -1.
         11    1    3    3    0    0  0.22754879739E+01  0.28738288823E+01  0.12624045930E+02  0.13145465905E+02  0.51100000000E-03 0. -1.
        -11    1    3    3    0    0 -0.16940370661E+02 -0.13341790694E+02 -0.54774219063E+01  0.22248183927E+02  0.51100000000E-03 0.  1.
        -12    1    3    3    0    0 -0.15213593596E+02  0.18432271824E+02  0.63586659750E+00  0.23908291470E+02  0.00000000000E+00 0.  1.
</event>
<event>
 7    1  0.6230310E-012  0.5930197E+02  0.7816164E-02  0.1266605E+00
        -11   -1    0    0    0    0  0.00000000000E+00  0.00000000000E+00  0.45593999997E+02  0.45594000000E+02  0.51100000000E-03 0.  1.
         11   -1    0    0    0    0 -0.00000000000E+00 -0.00000000000E+00 -0.45593999997E+02  0.45594000000E+02  0.51100000000E-03 0. -1.
    9900012    2    1    2    0    0  0.81756737163E+01 -0.17921216152E+02  0.25074038763E+02  0.59301967807E+02  0.50000043368E+02 0.  0.
         12    1    1    2    0    0 -0.81756737163E+01  0.17921216152E+02 -0.25074038763E+02  0.31886032193E+02  0.00000000000E+00 0. -1.
         11    1    3    3    0    0  0.79662265323E+01  0.17628770735E+01 -0.45523935707E+01  0.93430609665E+01  0.51100000000E-03 0. -1.
        -11    1    3    3    0    0 -0.12492304752E+02  0.26248512005E+01  0.32931606508E+01  0.13183035659E+02  0.51100000000E-03 0.  1.
        -12    1    3    3    0    0  0.12701751936E+02 -0.22308944426E+02  0.26333271683E+02  0.36775871182E+02  0.00000000000E+00 0.  1.
</event>
<event>
 7    1  0.6230310E-012  0.5930198E+02  0.7816164E-02  0.1266605E+00
        -11   -1    0    0    0    0  0.00000000000E+00  0.00000000000E+00  0.45593999997E+02  0.45594000000E+02  0.51100000000E-03 0. -1.
         11   -1    0    0    0    0 -0.00000000000E+00 -0.00000000000E+00 -0.45593999997E+02  0.45594000000E+02  0.51100000000E-03 0.  1.
    9900012    2    1    2    0    0 -0.14633251911E+02  0.51308629309E+01 -0.27861448696E+02  0.59301982072E+02  0.50000069383E+02 0.  0.
         12    1    1    2    0    0  0.14633251911E+02 -0.51308629309E+01  0.27861448696E+02  0.31886017928E+02  0.00000000000E+00 0. -1.
         11    1    3    3    0    0 -0.10286011927E+02 -0.68695574479E+01 -0.30127079746E+02  0.32567373169E+02  0.51100000000E-03 0. -1.
        -11    1    3    3    0    0  0.45672233767E+01 -0.32507056268E+01 -0.51155889012E+01  0.75891940621E+01  0.51100000000E-03 0.  1.
         12    1    3    3    0    0 -0.89144633605E+01  0.15251126006E+02  0.73812199510E+01  0.19145414840E+02  0.00000000000E+00 0. -1.
</event>
<event>
 7    1  0.6230310E-012  0.5930193E+02  0.7816164E-02  0.1266605E+00
        -11   -1    0    0    0    0  0.00000000000E+00  0.00000000000E+00  0.45593999997E+02  0.45594000000E+02  0.51100000000E-03 0. -1.
         11   -1    0    0    0    0 -0.00000000000E+00 -0.00000000000E+00 -0.45593999997E+02  0.45594000000E+02  0.51100000000E-03 0.  1.
    9900012    2    1    2    0    0  0.20827768762E+02 -0.42520535490E+01 -0.23766482964E+02  0.59301927437E+02  0.49999969743E+02 0.  0.
         12    1    1    2    0    0 -0.20827768762E+02  0.42520535490E+01  0.23766482964E+02  0.31886072563E+02  0.00000000000E+00 0. -1.
         11    1    3    3    0    0  0.15622989014E+02  0.77978931126E+01 -0.70073307789E+01  0.18814558396E+02  0.51100000000E-03 0. -1.
        -11    1    3    3    0    0  0.19556086243E+02 -0.48795402948E+01 -0.55154403538E+01  0.20896662537E+02  0.51100000000E-03 0.  1.
         12    1    3    3    0    0 -0.14351306495E+02 -0.71704063668E+01 -0.11243711831E+02  0.19590706504E+02  0.00000000000E+00 0. -1.
</event>
<event>
 7    1  0.6230310E-012  0.5930193E+02  0.7816164E-02  0.1266605E+00
        -11   -1    0    0    0    0  0.00000000000E+00  0.00000000000E+00  0.45593999997E+02  0.45594000000E+02  0.51100000000E-03 0. -1.
         11   -1    0    0    0    0 -0.00000000000E+00 -0.00000000000E+00 -0.45593999997E+02  0.45594000000E+02  0.51100000000E-03 0.  1.
    9900012    2    1    2    0    0  0.16431318589E+01  0.14064831596E+01 -0.31812632196E+02  0.59301927109E+02  0.49999969144E+02 0.  0.
         12    1    1    2    0    0 -0.16431318589E+01 -0.14064831596E+01  0.31812632196E+02  0.31886072891E+02  0.00000000000E+00 0. -1.
         11    1    3    3    0    0  0.51054980290E+01  0.11414145240E+02 -0.28883288151E+01  0.12833209470E+02  0.51100000000E-03 0.  1.
        -11    1    3    3    0    0  0.93051854724E+01 -0.97654802497E+01  0.14038593603E+01  0.13561780950E+02  0.51100000000E-03 0. -1.
        -12    1    3    3    0    0 -0.12767551643E+02 -0.24218183083E+00 -0.30328162741E+02  0.32906936689E+02  0.00000000000E+00 0.  1.
</event>
<event>
 7    1  0.6230310E-012  0.5930194E+02  0.7816164E-02  0.1266605E+00
        -11   -1    0    0    0    0  0.00000000000E+00  0.00000000000E+00  0.45593999997E+02  0.45594000000E+02  0.51100000000E-03 0.  1.
         11   -1    0    0    0    0 -0.00000000000E+00 -0.00000000000E+00 -0.45593999997E+02  0.45594000000E+02  0.51100000000E-03 0. -1.
    9900012    2    1    2    0    0  0.66500632033E+01  0.62112341116E+01  0.30560069628E+02  0.59301943087E+02  0.49999998284E+02 0.  0.
         12    1    1    2    0    0 -0.66500632033E+01 -0.62112341116E+01 -0.30560069628E+02  0.31886056913E+02  0.00000000000E+00 0. -1.
         11    1    3    3    0    0  0.57197029435E+01  0.11320797401E+02 -0.43450995137E+01  0.13407287034E+02  0.51100000000E-03 0. -1.
        -11    1    3    3    0    0 -0.87364974256E+01  0.82537540346E+00 -0.42746773439E+00  0.87858045021E+01  0.51100000000E-03 0.  1.
        -12    1    3    3    0    0  0.96668576854E+01 -0.59349386932E+01  0.35332636876E+02  0.37108851551E+02  0.00000000000E+00 0.  1.
</event>
<event>
 7    1  0.6230310E-012  0.5930164E+02  0.7816164E-02  0.1266606E+00
        -11   -1    0    0    0    0  0.00000000000E+00  0.00000000000E+00  0.45593999997E+02  0.45594000000E+02  0.51100000000E-03 0. -1.
         11   -1    0    0    0    0 -0.00000000000E+00 -0.00000000000E+00 -0.45593999997E+02  0.45594000000E+02  0.51100000000E-03 0.  1.
    9900012    2    1    2    0    0 -0.15100747452E+02 -0.22825132831E+02 -0.16362179505E+02  0.59301636449E+02  0.49999439048E+02 0.  0.
         12    1    1    2    0    0  0.15100747452E+02  0.22825132831E+02  0.16362179505E+02  0.31886363551E+02  0.00000000000E+00 0. -1.
         11    1    3    3    0    0  0.47449878135E+01  0.47147936675E+01 -0.57246227202E+01  0.88042883998E+01  0.51100000000E-03 0. -1.
        -11    1    3    3    0    0 -0.18431000469E+02  0.25905108401E+01 -0.31013261510E+00  0.18614744349E+02  0.51100000000E-03 0.  1.
         12    1    3    3    0    0 -0.14147347968E+01 -0.30130437338E+02 -0.10327424169E+02  0.31882603700E+02  0.00000000000E+00 0. -1.
</event>
<event>
 7    1  0.6230310E-012  0.5930189E+02  0.7816164E-02  0.1266605E+00
        -11   -1    0    0    0    0  0.00000000000E+00  0.00000000000E+00  0.45593999997E+02  0.45594000000E+02  0.51100000000E-03 0. -1.
         11   -1    0    0    0    0 -0.00000000000E+00 -0.00000000000E+00 -0.45593999997E+02  0.45594000000E+02  0.51100000000E-03 0.  1.
    9900012    2    1    2    0    0 -0.16029264677E+02  0.27560510368E+02  0.45241894136E+00  0.59301894237E+02  0.49999909194E+02 0.  0.
         12    1    1    2    0    0  0.16029264677E+02 -0.27560510368E+02 -0.45241894136E+00  0.31886105763E+02  0.00000000000E+00 0. -1.
         11    1    3    3    0    0  0.19328110172E+01 -0.41705889289E+01  0.52025829126E+01  0.69423655670E+01  0.51100000000E-03 0. -1.
        -11    1    3    3    0    0  0.33293814061E+01 -0.16596034830E+01  0.95550293828E+01  0.10253665249E+02  0.51100000000E-03 0.  1.
        -12    1    3    3    0    0 -0.21291457101E+02  0.33390702779E+02 -0.14305193354E+02  0.42105863421E+02  0.00000000000E+00 0.  1.
</event>
<event>
 7    1  0.6230310E-012  0.5930161E+02  0.7816164E-02  0.1266606E+00
        -11   -1    0    0    0    0  0.00000000000E+00  0.00000000000E+00  0.45593999997E+02  0.45594000000E+02  0.51100000000E-03 0.  1.
         11   -1    0    0    0    0 -0.00000000000E+00 -0.00000000000E+00 -0.45593999997E+02  0.45594000000E+02  0.51100000000E-03 0. -1.
    9900012    2    1    2    0    0  0.12414989087E+02  0.24883997040E+02  0.15601164630E+02  0.59301614182E+02  0.49999398437E+02 0.  0.
         12    1    1    2    0    0 -0.12414989087E+02 -0.24883997040E+02 -0.15601164630E+02  0.31886385818E+02  0.00000000000E+00 0. -1.
         11    1    3    3    0    0 -0.62991213512E+01  0.67708944831E+00  0.78846984291E+01  0.10114635411E+02  0.51100000000E-03 0. -1.
        -11    1    3    3    0    0  0.12358296122E+02  0.31326114097E+02  0.15308527543E+02  0.36991944032E+02  0.51100000000E-03 0.  1.
         12    1    3    3    0    0  0.63558143155E+01 -0.71192065049E+01 -0.75920613416E+01  0.12195034739E+02  0.00000000000E+00 0. -1.
</event>
<event>
 7    1  0.6230310E-012  0.5930191E+02  0.7816164E-02  0.1266605E+00
        -11   -1    0    0    0    0  0.00000000000E+00  0.00000000000E+00  0.45593999997E+02  0.45594000000E+02  0.51100000000E-03 0. -1.
         11   -1    0    0    0    0 -0.00000000000E+00 -0.00000000000E+00 -0.45593999997E+02  0.45594000000E+02  0.51100000000E-03 0.  1.
    9900012    2    1    2    0    0  0.11974812310E+02 -0.11515347963E+02 -0.27216236935E+02  0.59301907084E+02  0.49999932623E+02 0.  0.
         12    1    1    2    0    0 -0.11974812310E+02  0.11515347963E+02  0.27216236935E+02  0.31886092916E+02  0.00000000000E+00 0. -1.
         11    1    3    3    0    0  0.14120255034E+01  0.23623423321E+01  0.42254911367E+01  0.50427425994E+01  0.51100000000E-03 0. -1.
        -11    1    3    3    0    0  0.16317170652E+02 -0.19721157956E+02 -0.43627326482E+01  0.25965507229E+02  0.51100000000E-03 0.  1.
        -12    1    3    3    0    0 -0.57543838452E+01  0.58434676616E+01 -0.27078995423E+02  0.28293657255E+02  0.00000000000E+00 0.  1.
</event>
<event>
 7    1  0.6230310E-012  0.5930194E+02  0.7816164E-02  0.1266605E+00
        -11   -1    0    0    0    0  0.00000000000E+00  0.00000000000E+00  0.45593999997E+02  0.45594000000E+02  0.51100000000E-03 0. -1.
         11   -1    0    0    0    0 -0.00000000000E+00 -0.00000000000E+00 -0.45593999997E+02  0.45594000000E+02  0.51100000000E-03 0.  1.
    9900012    2    1    2    0    0 -0.22148846151E+01 -0.23875175623E+02 -0.21018825514E+02  0.59301941121E+02  0.49999994698E+02 0.  0.
         12    1    1    2    0    0  0.22148846151E+01  0.23875175623E+02  0.21018825514E+02  0.31886058879E+02  0.00000000000E+00 0. -1.
         11    1    3    3    0    0  0.51677836152E+01  0.98798172895E+00 -0.19126258494E+02  0.19836730064E+02  0.51100000000E-03 0. -1.
        -11    1    3    3    0    0  0.74132854904E+01  0.18116413971E+01  0.36546358340E+01  0.84613952545E+01  0.51100000000E-03 0.  1.
        -12    1    3    3    0    0 -0.14795953721E+02 -0.26674798749E+02 -0.55472028537E+01  0.31003815802E+02  0.00000000000E+00 0.  1.
</event>
<event>
 7    1  0.6230310E-012  0.5930197E+02  0.7816164E-02  0.1266605E+00
        -11   -1    0    0    0    0  0.00000000000E+00  0.00000000000E+00  0.45593999997E+02  0.45594000000E+02  0.51100000000E-03 0.  1.
         11   -1    0    0    0    0 -0.00000000000E+00 -0.00000000000E+00 -0.45593999997E+02  0.45594000000E+02  0.51100000000E-03 0. -1.
    9900012    2    1    2    0    0  0.29830513515E+02  0.60184610914E+00 -0.11247086787E+02  0.59301973021E+02  0.50000052876E+02 0.  0.
         12    1    1    2    0    0 -0.29830513515E+02 -0.60184610914E+00  0.11247086787E+02  0.31886026979E+02  0.00000000000E+00 0. -1.
         11    1    3    3    0    0  0.55091304657E+01 -0.12483048972E+02 -0.52751807682E+01  0.14628894781E+02  0.51100000000E-03 0. -1.
        -11    1    3    3    0    0  0.16550946798E+02 -0.17053394253E+01  0.11710292879E+02  0.20346326008E+02  0.51100000000E-03 0.  1.
         12    1    3    3    0    0  0.77704362515E+01  0.14790234506E+02 -0.17682198897E+02  0.24326752231E+02  0.00000000000E+00 0. -1.
</event>
<event>
 7    1  0.6230310E-012  0.5930194E+02  0.7816164E-02  0.1266605E+00
        -11   -1    0    0    0    0  0.00000000000E+00  0.00000000000E+00  0.45593999997E+02  0.45594000000E+02  0.51100000000E-03 0.  1.
         11   -1    0    0    0    0 -0.00000000000E+00 -0.00000000000E+00 -0.45593999997E+02  0.45594000000E+02  0.51100000000E-03 0. -1.
    9900012    2    1    2    0    0 -0.53841161494E+01 -0.21060573643E+00  0.31427497690E+02  0.59301942349E+02  0.49999996938E+02 0.  0.
         12    1    1    2    0    0  0.53841161494E+01  0.21060573643E+00 -0.31427497690E+02  0.31886057651E+02  0.00000000000E+00 0. -1.
         11    1    3    3    0    0  0.58848684622E+01 -0.65975197082E+01  0.17297890309E+02  0.19426166697E+02  0.51100000000E-03 0. -1.
        -11    1    3    3    0    0  0.83032219361E+01 -0.83562498648E+01  0.39796126665E+00  0.11786805324E+02  0.51100000000E-03 0.  1.
         12    1    3    3    0    0 -0.19572206548E+02  0.14743163837E+02  0.13731646114E+02  0.28088970328E+02  0.00000000000E+00 0. -1.
</event>
<event>
 7    1  0.6230310E-012  0.5930192E+02  0.7816164E-02  0.1266605E+00
        -11   -1    0    0    0    0  0.00000000000E+00  0.00000000000E+00  0.45593999997E+02  0.45594000000E+02  0.51100000000E-03 0.  1.
         11   -1    0    0    0    0 -0.00000000000E+00 -0.00000000000E+00 -0.45593999997E+02  0.45594000000E+02  0.51100000000E-03 0. -1.
    9900012    2    1    2    0    0 -0.29952852549E+02  0.76540287194E+01 -0.78079653491E+01  0.59301923817E+02  0.49999963141E+02 0.  0.
         12    1    1    2    0    0  0.29952852549E+02 -0.76540287194E+01  0.78079653491E+01  0.31886076183E+02  0.00000000000E+00 0. -1.
         11    1    3    3    0    0  0.41670708971E+01  0.41064630164E+01 -0.57743059443E+01  0.82201050946E+01  0.51100000000E-03 0. -1.
        -11    1    3    3    0    0 -0.13065684891E+02 -0.12858762250E+02 -0.12738699357E+02  0.22323403635E+02  0.51100000000E-03 0.  1.
         12    1    3    3    0    0 -0.21054238554E+02  0.16406327953E+02  0.10705039952E+02  0.28758415088E+02  0.00000000000E+00 0. -1.
</event>
<event>
 7    1  0.6230310E-012  0.5930194E+02  0.7816164E-02  0.1266605E+00
        -11   -1    0    0    0    0  0.00000000000E+00  0.00000000000E+00  0.45593999997E+02  0.45594000000E+02  0.51100000000E-03 0.  1.
         11   -1    0    0    0    0 -0.00000000000E+00 -0.00000000000E+00 -0.45593999997E+02  0.45594000000E+02  0.51100000000E-03 0. -1.
    9900012    2    1    2    0    0 -0.50519632152E+01 -0.23421514445E+02  0.21038807347E+02  0.59301935868E+02  0.49999985119E+02 0.  0.
         12    1    1    2    0    0  0.50519632152E+01  0.23421514445E+02 -0.21038807347E+02  0.31886064132E+02  0.00000000000E+00 0. -1.
         11    1    3    3    0    0  0.85245516758E+01 -0.73039968140E+01  0.16362709537E+02  0.19843251104E+02  0.51100000000E-03 0. -1.
        -11    1    3    3    0    0 -0.32532746507E+01 -0.17663460219E+02  0.16002847119E+02  0.24055617620E+02  0.51100000000E-03 0.  1.
         12    1    3    3    0    0 -0.10323240240E+02  0.15459425882E+01 -0.11326749309E+02  0.15403067145E+02  0.00000000000E+00 0. -1.
</event>
<event>
 7    1  0.6230310E-012  0.5930181E+02  0.7816164E-02  0.1266605E+00
        -11   -1    0    0    0    0  0.00000000000E+00  0.00000000000E+00  0.45593999997E+02  0.45594000000E+02  0.51100000000E-03 0.  1.
         11   -1    0    0    0    0 -0.00000000000E+00 -0.00000000000E+00 -0.45593999997E+02  0.45594000000E+02  0.51100000000E-03 0. -1.
    9900012    2    1    2    0    0 -0.24834794043E+02 -0.18160289699E+02  0.83765173418E+01  0.59301809261E+02  0.49999754217E+02 0.  0.
         12    1    1    2    0    0  0.24834794043E+02  0.18160289699E+02 -0.83765173418E+01  0.31886190739E+02  0.00000000000E+00 0. -1.
         11    1    3    3    0    0  0.20907653427E+01 -0.10066961713E+02  0.20788929528E+00  0.10283882344E+02  0.51100000000E-03 0. -1.
        -11    1    3    3    0    0  0.20876364652E+01  0.11448162315E+02  0.78478934098E+01  0.14035956598E+02  0.51100000000E-03 0.  1.
        -12    1    3    3    0    0 -0.29013195851E+02 -0.19541490301E+02  0.32073463671E+00  0.34981970318E+02  0.00000000000E+00 0.  1.
</event>
<event>
 7    1  0.6230310E-012  0.5930192E+02  0.7816164E-02  0.1266605E+00
        -11   -1    0    0    0    0  0.00000000000E+00  0.00000000000E+00  0.45593999997E+02  0.45594000000E+02  0.51100000000E-03 0. -1.
         11   -1    0    0    0    0 -0.00000000000E+00 -0.00000000000E+00 -0.45593999997E+02  0.45594000000E+02  0.51100000000E-03 0.  1.
    9900012    2    1    2    0    0 -0.29466128749E+02  0.72560429733E+01 -0.97887318871E+01  0.59301918788E+02  0.49999953969E+02 0.  0.
         12    1    1    2    0    0  0.29466128749E+02 -0.72560429733E+01  0.97887318871E+01  0.31886081212E+02  0.00000000000E+00 0. -1.
         11    1    3    3    0    0 -0.15037054545E+02  0.18498364317E+02 -0.14228366026E+02  0.27762364666E+02  0.51100000000E-03 0. -1.
        -11    1    3    3    0    0  0.40352188042E+01  0.11513328825E+01 -0.57171014694E+01  0.70918127214E+01  0.51100000000E-03 0.  1.
         12    1    3    3    0    0 -0.18464293008E+02 -0.12393654227E+02  0.10156735608E+02  0.24447741401E+02  0.00000000000E+00 0. -1.
</event>
<event>
 7    1  0.6230310E-012  0.5930204E+02  0.7816164E-02  0.1266604E+00
        -11   -1    0    0    0    0  0.00000000000E+00  0.00000000000E+00  0.45593999997E+02  0.45594000000E+02  0.51100000000E-03 0.  1.
         11   -1    0    0    0    0 -0.00000000000E+00 -0.00000000000E+00 -0.45593999997E+02  0.45594000000E+02  0.51100000000E-03 0. -1.
    9900012    2    1    2    0    0  0.29813741531E+02  0.35454612147E+01  0.10737069923E+02  0.59302044630E+02  0.50000183475E+02 0.  0.
         12    1    1    2    0    0 -0.29813741531E+02 -0.35454612147E+01 -0.10737069923E+02  0.31885955370E+02  0.00000000000E+00 0. -1.
         11    1    3    3    0    0  0.14696899062E+02  0.85986623961E+01  0.35388322776E+00  0.17031179367E+02  0.51100000000E-03 0. -1.
        -11    1    3    3    0    0  0.14957203335E+02  0.10414516378E+02 -0.65211217514E+01  0.19357301262E+02  0.51100000000E-03 0.  1.
        -12    1    3    3    0    0  0.15963913392E+00 -0.15467717560E+02  0.16904308447E+02  0.22913564001E+02  0.00000000000E+00 0.  1.
</event>
<event>
 7    1  0.6230310E-012  0.5930196E+02  0.7816164E-02  0.1266605E+00
        -11   -1    0    0    0    0  0.00000000000E+00  0.00000000000E+00  0.45593999997E+02  0.45594000000E+02  0.51100000000E-03 0.  1.
         11   -1    0    0    0    0 -0.00000000000E+00 -0.00000000000E+00 -0.45593999997E+02  0.45594000000E+02  0.51100000000E-03 0. -1.
    9900012    2    1    2    0    0  0.29502770889E+02 -0.17890192086E+01 -0.11962680812E+02  0.59301955842E+02  0.50000021546E+02 0.  0.
         12    1    1    2    0    0 -0.29502770889E+02  0.17890192086E+01  0.11962680812E+02  0.31886044158E+02  0.00000000000E+00 0. -1.
         11    1    3    3    0    0  0.16871161455E+02 -0.12422227066E+02 -0.19319353889E+02  0.28498863996E+02  0.51100000000E-03 0. -1.
        -11    1    3    3    0    0 -0.32894351435E+01 -0.55703819949E+01 -0.11032071266E+01  0.65625151701E+01  0.51100000000E-03 0.  1.
        -12    1    3    3    0    0  0.15921044578E+02  0.16203589852E+02  0.84598802031E+01  0.24240576676E+02  0.00000000000E+00 0.  1.
</event>
<event>
 7    1  0.6230310E-012  0.5930194E+02  0.7816164E-02  0.1266605E+00
        -11   -1    0    0    0    0  0.00000000000E+00  0.00000000000E+00  0.45593999997E+02  0.45594000000E+02  0.51100000000E-03 0.  1.
         11   -1    0    0    0    0 -0.00000000000E+00 -0.00000000000E+00 -0.45593999997E+02  0.45594000000E+02  0.51100000000E-03 0. -1.
    9900012    2    1    2    0    0 -0.22169954704E+02  0.59982816135E+01  0.22118652534E+02  0.59301936214E+02  0.49999985749E+02 0.  0.
         12    1    1    2    0    0  0.22169954704E+02 -0.59982816135E+01 -0.22118652534E+02  0.31886063786E+02  0.00000000000E+00 0. -1.
         11    1    3    3    0    0 -0.31247459180E+02  0.99104178864E+01  0.13854692401E+02  0.35588939148E+02  0.51100000000E-03 0. -1.
        -11    1    3    3    0    0 -0.31983356440E+01 -0.45082639718E+01 -0.36275271994E+01  0.66115617501E+01  0.51100000000E-03 0.  1.
        -12    1    3    3    0    0  0.12275840120E+02  0.59612769891E+00  0.11891487332E+02  0.17101435316E+02  0.00000000000E+00 0.  1.
</event>
<event>
 7    1  0.6230310E-012  0.5930193E+02  0.7816164E-02  0.1266605E+00
        -11   -1    0    0    0    0  0.00000000000E+00  0.00000000000E+00  0.45593999997E+02  0.45594000000E+02  0.51100000000E-03 0.  1.
         11   -1    0    0    0    0 -0.00000000000E+00 -0.00000000000E+00 -0.45593999997E+02  0.45594000000E+02  0.51100000000E-03 0. -1.
    9900012    2    1    2    0    0 -0.16247388791E+02  0.80211097402E+01  0.26237487025E+02  0.59301928286E+02  0.49999971290E+02 0.  0.
         12    1    1    2    0    0  0.16247388791E+02 -0.80211097402E+01 -0.26237487025E+02  0.31886071714E+02  0.00000000000E+00 0. -1.
         11    1    3    3    0    0 -0.11189168361E+02  0.30556532327E+01 -0.32452184979E+01  0.12044332636E+02  0.51100000000E-03 0. -1.
        -11    1    3    3    0    0 -0.19087810682E+02  0.72314818795E+01  0.25169828587E+02  0.32406158646E+02  0.51100000000E-03 0.  1.
         12    1    3    3    0    0  0.14029590252E+02 -0.22660253720E+01  0.43128769356E+01  0.14851437004E+02  0.00000000000E+00 0. -1.
</event>
<event>
 7    1  0.6230310E-012  0.5930192E+02  0.7816164E-02  0.1266605E+00
        -11   -1    0    0    0    0  0.00000000000E+00  0.00000000000E+00  0.45593999997E+02  0.45594000000E+02  0.51100000000E-03 0.  1.
         11   -1    0    0    0    0 -0.00000000000E+00 -0.00000000000E+00 -0.45593999997E+02  0.45594000000E+02  0.51100000000E-03 0. -1.
    9900012    2    1    2    0    0 -0.10934821393E+02  0.21947937948E+02 -0.20382333911E+02  0.59301924125E+02  0.49999963701E+02 0.  0.
         12    1    1    2    0    0  0.10934821393E+02 -0.21947937948E+02  0.20382333911E+02  0.31886075875E+02  0.00000000000E+00 0. -1.
         11    1    3    3    0    0  0.54424546788E+01 -0.25096536669E+01 -0.61208488068E+01  0.85664149348E+01  0.51100000000E-03 0. -1.
        -11    1    3    3    0    0 -0.43194036996E+01 -0.53023448203E+01 -0.17182001228E+02  0.18493060195E+02  0.51100000000E-03 0.  1.
        -12    1    3    3    0    0 -0.12057872372E+02  0.29759936435E+02  0.29205161233E+01  0.32242448995E+02  0.00000000000E+00 0.  1.
</event>
<event>
 7    1  0.6230310E-012  0.5930185E+02  0.7816164E-02  0.1266605E+00
        -11   -1    0    0    0    0  0.00000000000E+00  0.00000000000E+00  0.45593999997E+02  0.45594000000E+02  0.51100000000E-03 0.  1.
         11   -1    0    0    0    0 -0.00000000000E+00 -0.00000000000E+00 -0.45593999997E+02  0.45594000000E+02  0.51100000000E-03 0. -1.
    9900012    2    1    2    0    0  0.10020541746E+02  0.28100434345E+01  0.30139989297E+02  0.59301850094E+02  0.49999828687E+02 0.  0.
         12    1    1    2    0    0 -0.10020541746E+02 -0.28100434345E+01 -0.30139989297E+02  0.31886149906E+02  0.00000000000E+00 0. -1.
         11    1    3    3    0    0  0.16664840438E+02 -0.10880805349E+02  0.93603932768E+01  0.21993767172E+02  0.51100000000E-03 0. -1.
        -11    1    3    3    0    0 -0.52475782060E+01 -0.77130965812E+01  0.83344036875E+01  0.12509645118E+02  0.51100000000E-03 0.  1.
         12    1    3    3    0    0 -0.13967204859E+01  0.21403945365E+02  0.12445192333E+02  0.24798437804E+02  0.00000000000E+00 0. -1.
</event>
<event>
 7    1  0.6230310E-012  0.5930195E+02  0.7816164E-02  0.1266605E+00
        -11   -1    0    0    0    0  0.00000000000E+00  0.00000000000E+00  0.45593999997E+02  0.45594000000E+02  0.51100000000E-03 0.  1.
         11   -1    0    0    0    0 -0.00000000000E+00 -0.00000000000E+00 -0.45593999997E+02  0.45594000000E+02  0.51100000000E-03 0. -1.
    9900012    2    1    2    0    0  0.91825272152E+01  0.26006197316E+02  0.16002473743E+02  0.59301948648E+02  0.50000008427E+02 0.  0.
         12    1    1    2    0    0 -0.91825272152E+01 -0.26006197316E+02 -0.16002473743E+02  0.31886051352E+02  0.00000000000E+00 0. -1.
         11    1    3    3    0    0 -0.37362799892E+01 -0.11182023604E+01 -0.83138706044E+01  0.91831698973E+01  0.51100000000E-03 0. -1.
        -11    1    3    3    0    0  0.10164884325E+02 -0.43099539917E+01  0.11834441908E+02  0.16185011346E+02  0.51100000000E-03 0.  1.
         12    1    3    3    0    0  0.27539228798E+01  0.31434353668E+02  0.12481902439E+02  0.33933767404E+02  0.00000000000E+00 0. -1.
</event>
<event>
 7    1  0.6230310E-012  0.5930176E+02  0.7816164E-02  0.1266605E+00
        -11   -1    0    0    0    0  0.00000000000E+00  0.00000000000E+00  0.45593999997E+02  0.45594000000E+02  0.51100000000E-03 0. -1.
         11   -1    0    0    0    0 -0.00000000000E+00 -0.00000000000E+00 -0.45593999997E+02  0.45594000000E+02  0.51100000000E-03 0.  1.
    9900012    2    1    2    0    0  0.12525308760E+02 -0.37809749090E+01 -0.29078396118E+02  0.59301760780E+02  0.49999665799E+02 0.  0.
         12    1    1    2    0    0 -0.12525308760E+02  0.37809749090E+01  0.29078396118E+02  0.31886239220E+02  0.00000000000E+00 0. -1.
         11    1    3    3    0    0 -0.30754550394E+00  0.45965999403E+01 -0.33733350655E+02  0.34046472092E+02  0.51100000000E-03 0.  1.
        -11    1    3    3    0    0 -0.40670825528E+01 -0.30469862500E+01  0.55333043321E+01  0.75128385309E+01  0.51100000000E-03 0. -1.
        -12    1    3    3    0    0  0.16899936816E+02 -0.53305885994E+01 -0.87834979542E+00  0.17742450157E+02  0.00000000000E+00 0.  1.
</event>
<event>
 7    1  0.6230310E-012  0.5930216E+02  0.7816164E-02  0.1266604E+00
        -11   -1    0    0    0    0  0.00000000000E+00  0.00000000000E+00  0.45593999997E+02  0.45594000000E+02  0.51100000000E-03 0.  1.
         11   -1    0    0    0    0 -0.00000000000E+00 -0.00000000000E+00 -0.45593999997E+02  0.45594000000E+02  0.51100000000E-03 0. -1.
    9900012    2    1    2    0    0 -0.10835710088E+02  0.28185609376E+02  0.10240379598E+02  0.59302163594E+02  0.50000400434E+02 0.  0.
         12    1    1    2    0    0  0.10835710088E+02 -0.28185609376E+02 -0.10240379598E+02  0.31885836406E+02  0.00000000000E+00 0. -1.
         11    1    3    3    0    0  0.15252619046E+01  0.78929033217E+01 -0.99662080432E+01  0.12804282477E+02  0.51100000000E-03 0. -1.
        -11    1    3    3    0    0 -0.25821022478E+01 -0.87584836548E+01 -0.10566055235E+01  0.91921000562E+01  0.51100000000E-03 0.  1.
        -12    1    3    3    0    0 -0.97788697448E+01  0.29051189709E+02  0.21263193165E+02  0.37305781061E+02  0.00000000000E+00 0.  1.
</event>
<event>
 7    1  0.6230310E-012  0.5930198E+02  0.7816164E-02  0.1266605E+00
        -11   -1    0    0    0    0  0.00000000000E+00  0.00000000000E+00  0.45593999997E+02  0.45594000000E+02  0.51100000000E-03 0.  1.
         11   -1    0    0    0    0 -0.00000000000E+00 -0.00000000000E+00 -0.45593999997E+02  0.45594000000E+02  0.51100000000E-03 0. -1.
    9900012    2    1    2    0    0  0.28242173540E+02  0.90348458584E+01 -0.11724744027E+02  0.59301977538E+02  0.50000061114E+02 0.  0.
         12    1    1    2    0    0 -0.28242173540E+02 -0.90348458584E+01  0.11724744027E+02  0.31886022462E+02  0.00000000000E+00 0. -1.
         11    1    3    3    0    0  0.36662405070E+01  0.52885509038E+01 -0.16394154587E+02  0.17611882210E+02  0.51100000000E-03 0. -1.
        -11    1    3    3    0    0  0.31476826096E+02  0.41465717927E+01 -0.23536053561E+01  0.31835893221E+02  0.51100000000E-03 0.  1.
         12    1    3    3    0    0 -0.69008930627E+01 -0.40027683821E+00  0.70230159157E+01  0.98542021068E+01  0.00000000000E+00 0. -1.
</event>
<event>
 7    1  0.6230310E-012  0.5930175E+02  0.7816164E-02  0.1266605E+00
        -11   -1    0    0    0    0  0.00000000000E+00  0.00000000000E+00  0.45593999997E+02  0.45594000000E+02  0.51100000000E-03 0.  1.
         11   -1    0    0    0    0 -0.00000000000E+00 -0.00000000000E+00 -0.45593999997E+02  0.45594000000E+02  0.51100000000E-03 0. -1.
    9900012    2    1    2    0    0 -0.27897333807E+01  0.81074518019E+01  0.30711877941E+02  0.59301751652E+02  0.49999649151E+02 0.  0.
         12    1    1    2    0    0  0.27897333807E+01 -0.81074518019E+01 -0.30711877941E+02  0.31886248348E+02  0.00000000000E+00 0. -1.
         11    1    3    3    0    0 -0.10591915260E+02 -0.14049347965E+01  0.61345986758E+01  0.12320544300E+02  0.51100000000E-03 0. -1.
        -11    1    3    3    0    0  0.53167474662E+01  0.62986214236E+01  0.34914509681E+02  0.35874272424E+02  0.51100000000E-03 0.  1.
        -12    1    3    3    0    0  0.24854344134E+01  0.32137651749E+01 -0.10337230416E+02  0.11106934928E+02  0.00000000000E+00 0.  1.
</event>
<event>
 7    1  0.6230310E-012  0.5930188E+02  0.7816164E-02  0.1266605E+00
        -11   -1    0    0    0    0  0.00000000000E+00  0.00000000000E+00  0.45593999997E+02  0.45594000000E+02  0.51100000000E-03 0. -1.
         11   -1    0    0    0    0 -0.00000000000E+00 -0.00000000000E+00 -0.45593999997E+02  0.45594000000E+02  0.51100000000E-03 0.  1.
    9900012    2    1    2    0    0  0.37221149805E+01  0.72155675880E+01 -0.30835145380E+02  0.59301878471E+02  0.49999880441E+02 0.  0.
         12    1    1    2    0    0 -0.37221149805E+01 -0.72155675880E+01  0.30835145380E+02  0.31886121529E+02  0.00000000000E+00 0. -1.
         11    1    3    3    0    0  0.51345752102E+01 -0.73186799406E+01 -0.15786378059E+02  0.18142124218E+02  0.51100000000E-03 0. -1.
        -11    1    3    3    0    0 -0.10638859587E+02 -0.60689055177E+01 -0.13942054122E+02  0.18557958425E+02  0.51100000000E-03 0.  1.
         12    1    3    3    0    0  0.92263993574E+01  0.20603153046E+02 -0.11067131987E+01  0.22601795828E+02  0.00000000000E+00 0. -1.
</event>
<event>
 7    1  0.6230310E-012  0.5930195E+02  0.7816164E-02  0.1266605E+00
        -11   -1    0    0    0    0  0.00000000000E+00  0.00000000000E+00  0.45593999997E+02  0.45594000000E+02  0.51100000000E-03 0. -1.
         11   -1    0    0    0    0 -0.00000000000E+00 -0.00000000000E+00 -0.45593999997E+02  0.45594000000E+02  0.51100000000E-03 0.  1.
    9900012    2    1    2    0    0  0.13692127616E+02 -0.18972673303E+02 -0.21662955499E+02  0.59301947691E+02  0.50000006680E+02 0.  0.
         12    1    1    2    0    0 -0.13692127616E+02  0.18972673303E+02  0.21662955499E+02  0.31886052309E+02  0.00000000000E+00 0. -1.
         11    1    3    3    0    0 -0.12309175726E+02 -0.11212178318E+02 -0.13409853074E+02  0.21378795789E+02  0.51100000000E-03 0. -1.
        -11    1    3    3    0    0  0.68762007207E+01 -0.68635008687E+01 -0.14786781645E+02  0.17692899485E+02  0.51100000000E-03 0.  1.
         12    1    3    3    0    0  0.19125102621E+02 -0.89699411667E+00  0.65336792189E+01  0.20230252416E+02  0.00000000000E+00 0. -1.
</event>
<event>
 7    1  0.6230310E-012  0.5930194E+02  0.7816164E-02  0.1266605E+00
        -11   -1    0    0    0    0  0.00000000000E+00  0.00000000000E+00  0.45593999997E+02  0.45594000000E+02  0.51100000000E-03 0. -1.
         11   -1    0    0    0    0 -0.00000000000E+00 -0.00000000000E+00 -0.45593999997E+02  0.45594000000E+02  0.51100000000E-03 0.  1.
    9900012    2    1    2    0    0  0.40942080666E+01 -0.31515428509E+02  0.25954208382E+01  0.59301937479E+02  0.49999988056E+02 0.  0.
         12    1    1    2    0    0 -0.40942080666E+01  0.31515428509E+02 -0.25954208382E+01  0.31886062521E+02  0.00000000000E+00 0. -1.
         11    1    3    3    0    0  0.38957210323E+00 -0.27455739966E+02  0.81893015999E+01  0.28653692336E+02  0.51100000000E-03 0. -1.
        -11    1    3    3    0    0  0.74670807070E+01 -0.15224357280E+02  0.12848505112E+01  0.17005563501E+02  0.51100000000E-03 0.  1.
        -12    1    3    3    0    0 -0.37624447436E+01  0.11164668738E+02 -0.68787312729E+01  0.13642681642E+02  0.00000000000E+00 0.  1.
</event>
<event>
 7    1  0.6230310E-012  0.5930192E+02  0.7816164E-02  0.1266605E+00
        -11   -1    0    0    0    0  0.00000000000E+00  0.00000000000E+00  0.45593999997E+02  0.45594000000E+02  0.51100000000E-03 0. -1.
         11   -1    0    0    0    0 -0.00000000000E+00 -0.00000000000E+00 -0.45593999997E+02  0.45594000000E+02  0.51100000000E-03 0.  1.
    9900012    2    1    2    0    0 -0.23909616276E+02  0.62909009870E+01 -0.20136461284E+02  0.59301917476E+02  0.49999951577E+02 0.  0.
         12    1    1    2    0    0  0.23909616276E+02 -0.62909009870E+01  0.20136461284E+02  0.31886082524E+02  0.00000000000E+00 0. -1.
         11    1    3    3    0    0 -0.87028166106E+00 -0.16808342926E+01 -0.10768183571E+02  0.10933269034E+02  0.51100000000E-03 0. -1.
        -11    1    3    3    0    0 -0.27799724010E+02  0.15876706635E+02 -0.17131670031E+02  0.36309621135E+02  0.51100000000E-03 0.  1.
         12    1    3    3    0    0  0.47603893957E+01 -0.79049713557E+01  0.77633923180E+01  0.12059027308E+02  0.00000000000E+00 0. -1.
</event>
<event>
 7    1  0.6230310E-012  0.5930193E+02  0.7816164E-02  0.1266605E+00
        -11   -1    0    0    0    0  0.00000000000E+00  0.00000000000E+00  0.45593999997E+02  0.45594000000E+02  0.51100000000E-03 0. -1.
         11   -1    0    0    0    0 -0.00000000000E+00 -0.00000000000E+00 -0.45593999997E+02  0.45594000000E+02  0.51100000000E-03 0.  1.
    9900012    2    1    2    0    0  0.49369129671E+01  0.21333805593E+02 -0.23177944975E+02  0.59301929311E+02  0.49999973160E+02 0.  0.
         12    1    1    2    0    0 -0.49369129671E+01 -0.21333805593E+02  0.23177944975E+02  0.31886070689E+02  0.00000000000E+00 0. -1.
         11    1    3    3    0    0  0.75400871693E+01  0.93976340267E+01  0.10104179882E+02  0.15724595104E+02  0.51100000000E-03 0. -1.
        -11    1    3    3    0    0  0.80248816367E+01 -0.35432151394E+01 -0.14961251985E+02  0.17343360690E+02  0.51100000000E-03 0.  1.
        -12    1    3    3    0    0 -0.10628055839E+02  0.15479386705E+02 -0.18320872873E+02  0.26233973517E+02  0.00000000000E+00 0.  1.
</event>
<event>
 7    1  0.6230310E-012  0.5930209E+02  0.7816164E-02  0.1266604E+00
        -11   -1    0    0    0    0  0.00000000000E+00  0.00000000000E+00  0.45593999997E+02  0.45594000000E+02  0.51100000000E-03 0.  1.
         11   -1    0    0    0    0 -0.00000000000E+00 -0.00000000000E+00 -0.45593999997E+02  0.45594000000E+02  0.51100000000E-03 0. -1.
    9900012    2    1    2    0    0 -0.15231828457E+02  0.52357617255E+01  0.27518889055E+02  0.59302093179E+02  0.50000272015E+02 0.  0.
         12    1    1    2    0    0  0.15231828457E+02 -0.52357617255E+01 -0.27518889055E+02  0.31885906821E+02  0.00000000000E+00 0. -1.
         11    1    3    3    0    0 -0.21717252802E+02  0.16428881113E+02  0.11922170173E+02  0.29726845540E+02  0.51100000000E-03 0. -1.
        -11    1    3    3    0    0  0.39559943190E+01 -0.17908688560E+01 -0.51026318742E+01  0.67002951141E+01  0.51100000000E-03 0.  1.
        -12    1    3    3    0    0  0.25294300260E+01 -0.94022505310E+01  0.20699350756E+02  0.22874952525E+02  0.00000000000E+00 0.  1.
</event>
<event>
 7    1  0.6230310E-012  0.5930197E+02  0.7816164E-02  0.1266605E+00
        -11   -1    0    0    0    0  0.00000000000E+00  0.00000000000E+00  0.45593999997E+02  0.45594000000E+02  0.51100000000E-03 0.  1.
         11   -1    0    0    0    0 -0.00000000000E+00 -0.00000000000E+00 -0.45593999997E+02  0.45594000000E+02  0.51100000000E-03 0. -1.
    9900012    2    1    2    0    0 -0.22267664526E+02  0.22439060306E+02  0.41663958581E+01  0.59301965983E+02  0.50000040042E+02 0.  0.
         12    1    1    2    0    0  0.22267664526E+02 -0.22439060306E+02 -0.41663958581E+01  0.31886034017E+02  0.00000000000E+00 0. -1.
         11    1    3    3    0    0 -0.20466303260E+02  0.22140347389E+02  0.10465186645E+01  0.30168854026E+02  0.51100000000E-03 0. -1.
        -11    1    3    3    0    0 -0.67216560140E+01  0.50813939122E+01  0.13958749242E+02  0.16304842971E+02  0.51100000000E-03 0.  1.
         12    1    3    3    0    0  0.49202947477E+01 -0.47826809956E+01 -0.10838872048E+02  0.12828268986E+02  0.00000000000E+00 0. -1.
</event>
<event>
 7    1  0.6230310E-012  0.5930193E+02  0.7816164E-02  0.1266605E+00
        -11   -1    0    0    0    0  0.00000000000E+00  0.00000000000E+00  0.45593999997E+02  0.45594000000E+02  0.51100000000E-03 0. -1.
         11   -1    0    0    0    0 -0.00000000000E+00 -0.00000000000E+00 -0.45593999997E+02  0.45594000000E+02  0.51100000000E-03 0.  1.
    9900012    2    1    2    0    0  0.19453751826E+02  0.19157470042E+02  0.16470095179E+02  0.59301934804E+02  0.49999983177E+02 0.  0.
         12    1    1    2    0    0 -0.19453751826E+02 -0.19157470042E+02 -0.16470095179E+02  0.31886065196E+02  0.00000000000E+00 0. -1.
         11    1    3    3    0    0  0.13149598594E+02  0.95000046899E+01  0.11080861910E+02  0.19645547415E+02  0.51100000000E-03 0. -1.
        -11    1    3    3    0    0  0.20565274337E+02  0.11437494612E+02 -0.17735568951E+01  0.23598565547E+02  0.51100000000E-03 0.  1.
         12    1    3    3    0    0 -0.14261121106E+02 -0.17800292597E+01  0.71627901646E+01  0.16057821842E+02  0.00000000000E+00 0. -1.
</event>
<event>
 7    1  0.6230310E-012  0.5930165E+02  0.7816164E-02  0.1266606E+00
        -11   -1    0    0    0    0  0.00000000000E+00  0.00000000000E+00  0.45593999997E+02  0.45594000000E+02  0.51100000000E-03 0. -1.
         11   -1    0    0    0    0 -0.00000000000E+00 -0.00000000000E+00 -0.45593999997E+02  0.45594000000E+02  0.51100000000E-03 0.  1.
    9900012    2    1    2    0    0  0.20086284329E+02  0.13763002979E+02 -0.20587874164E+02  0.59301645054E+02  0.49999454741E+02 0.  0.
         12    1    1    2    0    0 -0.20086284329E+02 -0.13763002979E+02  0.20587874164E+02  0.31886354946E+02  0.00000000000E+00 0. -1.
         11    1    3    3    0    0  0.24276999340E+02  0.53088617240E+01 -0.51028436369E+01  0.25369188461E+02  0.51100000000E-03 0. -1.
        -11    1    3    3    0    0  0.40756745304E+01  0.17292993646E+02 -0.67434327628E+01  0.19003490148E+02  0.51100000000E-03 0.  1.
        -12    1    3    3    0    0 -0.82663895410E+01 -0.88388523913E+01 -0.87415977641E+01  0.14928966445E+02  0.00000000000E+00 0.  1.
</event>
<event>
 7    1  0.6230310E-012  0.5930194E+02  0.7816164E-02  0.1266605E+00
        -11   -1    0    0    0    0  0.00000000000E+00  0.00000000000E+00  0.45593999997E+02  0.45594000000E+02  0.51100000000E-03 0. -1.
         11   -1    0    0    0    0 -0.00000000000E+00 -0.00000000000E+00 -0.45593999997E+02  0.45594000000E+02  0.51100000000E-03 0.  1.
    9900012    2    1    2    0    0  0.12778787026E+02 -0.28137652994E+02 -0.78546583757E+01  0.59301943924E+02  0.49999999811E+02 0.  0.
         12    1    1    2    0    0 -0.12778787026E+02  0.28137652994E+02  0.78546583757E+01  0.31886056076E+02  0.00000000000E+00 0. -1.
         11    1    3    3    0    0  0.76295706870E+01  0.23722507762E+01  0.13029807006E+02  0.15284429773E+02  0.51100000000E-03 0. -1.
        -11    1    3    3    0    0  0.14477187628E+02 -0.18076355378E+02 -0.11453162026E+02  0.25836379507E+02  0.51100000000E-03 0.  1.
        -12    1    3    3    0    0 -0.93279712885E+01 -0.12433548392E+02 -0.94313033555E+01  0.18181134644E+02  0.00000000000E+00 0.  1.
</event>
<event>
 7    1  0.6230310E-012  0.5930194E+02  0.7816164E-02  0.1266605E+00
        -11   -1    0    0    0    0  0.00000000000E+00  0.00000000000E+00  0.45593999997E+02  0.45594000000E+02  0.51100000000E-03 0. -1.
         11   -1    0    0    0    0 -0.00000000000E+00 -0.00000000000E+00 -0.45593999997E+02  0.45594000000E+02  0.51100000000E-03 0.  1.
    9900012    2    1    2    0    0  0.16459028435E+02  0.24381723859E+02 -0.12302561297E+02  0.59301935805E+02  0.49999985004E+02 0.  0.
         12    1    1    2    0    0 -0.16459028435E+02 -0.24381723859E+02  0.12302561297E+02  0.31886064195E+02  0.00000000000E+00 0. -1.
         11    1    3    3    0    0  0.71410967022E+01 -0.22627567237E+01  0.90715515811E+00  0.75457445519E+01  0.51100000000E-03 0. -1.
        -11    1    3    3    0    0 -0.73065838423E+01 -0.64896452226E+01 -0.10862000833E+02  0.14611116484E+02  0.51100000000E-03 0.  1.
        -12    1    3    3    0    0  0.16624515575E+02  0.33134125805E+02 -0.23477156226E+01  0.37145074770E+02  0.00000000000E+00 0.  1.
</event>
<event>
 7    1  0.6230310E-012  0.5930197E+02  0.7816164E-02  0.1266605E+00
        -11   -1    0    0    0    0  0.00000000000E+00  0.00000000000E+00  0.45593999997E+02  0.45594000000E+02  0.51100000000E-03 0.  1.
         11   -1    0    0    0    0 -0.00000000000E+00 -0.00000000000E+00 -0.45593999997E+02  0.45594000000E+02  0.51100000000E-03 0. -1.
    9900012    2    1    2    0    0 -0.12311356043E+02 -0.14379516970E+02  0.25658901597E+02  0.59301965015E+02  0.50000038276E+02 0.  0.
         12    1    1    2    0    0  0.12311356043E+02  0.14379516970E+02 -0.25658901597E+02  0.31886034985E+02  0.00000000000E+00 0. -1.
         11    1    3    3    0    0  0.20981000740E+01 -0.95761417170E+01 -0.84749788083E+01  0.12958772325E+02  0.51100000000E-03 0. -1.
        -11    1    3    3    0    0 -0.90973310563E+01 -0.74126605403E+01  0.35494109952E-01  0.11735000159E+02  0.51100000000E-03 0.  1.
        -12    1    3    3    0    0 -0.53121250604E+01  0.26092852877E+01  0.34098386295E+02  0.34608192532E+02  0.00000000000E+00 0.  1.
</event>
<event>
 7    1  0.6230310E-012  0.5930194E+02  0.7816164E-02  0.1266605E+00
        -11   -1    0    0    0    0  0.00000000000E+00  0.00000000000E+00  0.45593999997E+02  0.45594000000E+02  0.51100000000E-03 0.  1.
         11   -1    0    0    0    0 -0.00000000000E+00 -0.00000000000E+00 -0.45593999997E+02  0.45594000000E+02  0.51100000000E-03 0. -1.
    9900012    2    1    2    0    0  0.30654933212E+02 -0.53065148686E+01  0.69883449947E+01  0.59301937276E+02  0.49999987686E+02 0.  0.
         12    1    1    2    0    0 -0.30654933212E+02  0.53065148686E+01 -0.69883449947E+01  0.31886062724E+02  0.00000000000E+00 0. -1.
         11    1    3    3    0    0  0.96400316440E+01  0.12667917835E+02 -0.11724597051E+02  0.19770496419E+02  0.51100000000E-03 0. -1.
        -11    1    3    3    0    0  0.38104603216E+01  0.36907672008E+01  0.85429001602E+01  0.10055969063E+02  0.51100000000E-03 0.  1.
        -12    1    3    3    0    0  0.17204441246E+02 -0.21665199905E+02  0.10170041885E+02  0.29475471794E+02  0.00000000000E+00 0.  1.
</event>
<event>
 7    1  0.6230310E-012  0.5930177E+02  0.7816164E-02  0.1266605E+00
        -11   -1    0    0    0    0  0.00000000000E+00  0.00000000000E+00  0.45593999997E+02  0.45594000000E+02  0.51100000000E-03 0. -1.
         11   -1    0    0    0    0 -0.00000000000E+00 -0.00000000000E+00 -0.45593999997E+02  0.45594000000E+02  0.51100000000E-03 0.  1.
    9900012    2    1    2    0    0 -0.20914042667E+02  0.21994694792E+02 -0.97758949174E+01  0.59301766276E+02  0.49999675822E+02 0.  0.
         12    1    1    2    0    0  0.20914042667E+02 -0.21994694792E+02  0.97758949174E+01  0.31886233724E+02  0.00000000000E+00 0. -1.
         11    1    3    3    0    0  0.83459294510E+01  0.11090345195E+02 -0.11232708204E+02  0.17855644172E+02  0.51100000000E-03 0. -1.
        -11    1    3    3    0    0 -0.94274296471E+01  0.10699270717E+02 -0.11013440407E+02  0.18017954753E+02  0.51100000000E-03 0.  1.
         12    1    3    3    0    0 -0.19832542471E+02  0.20507888010E+00  0.12470253694E+02  0.23428167351E+02  0.00000000000E+00 0. -1.
</event>
<event>
 7    1  0.6230310E-012  0.5930196E+02  0.7816164E-02  0.1266605E+00
        -11   -1    0    0    0    0  0.00000000000E+00  0.00000000000E+00  0.45593999997E+02  0.45594000000E+02  0.51100000000E-03 0.  1.
         11   -1    0    0    0    0 -0.00000000000E+00 -0.00000000000E+00 -0.45593999997E+02  0.45594000000E+02  0.51100000000E-03 0. -1.
    9900012    2    1    2    0    0 -0.27757358737E+02 -0.12974352307E+02  0.88269379786E+01  0.59301958917E+02  0.50000027154E+02 0.  0.
         12    1    1    2    0    0  0.27757358737E+02  0.12974352307E+02 -0.88269379786E+01  0.31886041083E+02  0.00000000000E+00 0. -1.
         11    1    3    3    0    0 -0.66994078186E+01  0.96546284155E+01  0.74252575560E+01  0.13900660596E+02  0.51100000000E-03 0. -1.
        -11    1    3    3    0    0 -0.87988330403E+01 -0.60342965684E+00  0.14517029560E+02  0.16986104254E+02  0.51100000000E-03 0.  1.
         12    1    3    3    0    0 -0.12259117878E+02 -0.22025551066E+02 -0.13115349137E+02  0.28415194068E+02  0.00000000000E+00 0. -1.
</event>
<event>
 7    1  0.6230310E-012  0.5930187E+02  0.7816164E-02  0.1266605E+00
        -11   -1    0    0    0    0  0.00000000000E+00  0.00000000000E+00  0.45593999997E+02  0.45594000000E+02  0.51100000000E-03 0. -1.
         11   -1    0    0    0    0 -0.00000000000E+00 -0.00000000000E+00 -0.45593999997E+02  0.45594000000E+02  0.51100000000E-03 0.  1.
    9900012    2    1    2    0    0  0.33148666536E+01  0.31285555438E+02 -0.51914341248E+01  0.59301869656E+02  0.49999864364E+02 0.  0.
         12    1    1    2    0    0 -0.33148666536E+01 -0.31285555438E+02  0.51914341248E+01  0.31886130344E+02  0.00000000000E+00 0. -1.
         11    1    3    3    0    0  0.20805321281E+02  0.13588883065E+02  0.18764883105E+01  0.24920681074E+02  0.51100000000E-03 0. -1.
        -11    1    3    3    0    0  0.35319731142E-01  0.90168447754E+01  0.60260351643E+01  0.10845175759E+02  0.51100000000E-03 0.  1.
        -12    1    3    3    0    0 -0.17525774358E+02  0.86798275979E+01 -0.13093957599E+02  0.23536012823E+02  0.00000000000E+00 0.  1.
</event>
<event>
 7    1  0.6230310E-012  0.5930194E+02  0.7816164E-02  0.1266605E+00
        -11   -1    0    0    0    0  0.00000000000E+00  0.00000000000E+00  0.45593999997E+02  0.45594000000E+02  0.51100000000E-03 0.  1.
         11   -1    0    0    0    0 -0.00000000000E+00 -0.00000000000E+00 -0.45593999997E+02  0.45594000000E+02  0.51100000000E-03 0. -1.
    9900012    2    1    2    0    0  0.28726341079E+02 -0.55314506941E+01  0.12685470496E+02  0.59301940660E+02  0.49999993858E+02 0.  0.
         12    1    1    2    0    0 -0.28726341079E+02  0.55314506941E+01 -0.12685470496E+02  0.31886059340E+02  0.00000000000E+00 0. -1.
         11    1    3    3    0    0  0.20739275901E+01 -0.13211475056E+02  0.12218050346E+02  0.18114221025E+02  0.51100000000E-03 0. -1.
        -11    1    3    3    0    0  0.10627641638E+02  0.16579385509E+02  0.81496490377E+01  0.21312896808E+02  0.51100000000E-03 0.  1.
         12    1    3    3    0    0  0.16024771851E+02 -0.88993611472E+01 -0.76822288884E+01  0.19874822827E+02  0.00000000000E+00 0. -1.
</event>
<event>
 7    1  0.6230310E-012  0.5930194E+02  0.7816164E-02  0.1266605E+00
        -11   -1    0    0    0    0  0.00000000000E+00  0.00000000000E+00  0.45593999997E+02  0.45594000000E+02  0.51100000000E-03 0.  1.
         11   -1    0    0    0    0 -0.00000000000E+00 -0.00000000000E+00 -0.45593999997E+02  0.45594000000E+02  0.51100000000E-03 0. -1.
    9900012    2    1    2    0    0  0.28480102649E+01  0.10666377303E+02  0.29913848354E+02  0.59301935793E+02  0.49999984982E+02 0.  0.
         12    1    1    2    0    0 -0.28480102649E+01 -0.10666377303E+02 -0.29913848354E+02  0.31886064207E+02  0.00000000000E+00 0. -1.
         11    1    3    3    0    0  0.92626712810E+01  0.42035694619E+00 -0.64924515531E+00  0.92949071408E+01  0.51100000000E-03 0. -1.
        -11    1    3    3    0    0 -0.83554259861E+01 -0.56928707594E+01  0.32310668973E+02  0.33855594082E+02  0.51100000000E-03 0.  1.
         12    1    3    3    0    0  0.19407649700E+01  0.15938891116E+02 -0.17475754634E+01  0.16151434571E+02  0.00000000000E+00 0. -1.
</event>
<event>
 7    1  0.6230310E-012  0.5930201E+02  0.7816164E-02  0.1266605E+00
        -11   -1    0    0    0    0  0.00000000000E+00  0.00000000000E+00  0.45593999997E+02  0.45594000000E+02  0.51100000000E-03 0.  1.
         11   -1    0    0    0    0 -0.00000000000E+00 -0.00000000000E+00 -0.45593999997E+02  0.45594000000E+02  0.51100000000E-03 0. -1.
    9900012    2    1    2    0    0 -0.11334711847E+02  0.65183808988E+01  0.29081810304E+02  0.59302005069E+02  0.50000111324E+02 0.  0.
         12    1    1    2    0    0  0.11334711847E+02 -0.65183808988E+01 -0.29081810304E+02  0.31885994931E+02  0.00000000000E+00 0. -1.
         11    1    3    3    0    0  0.44945952386E+01 -0.71304248665E+01  0.26257196488E+02  0.27576887293E+02  0.51100000000E-03 0. -1.
        -11    1    3    3    0    0 -0.98906719124E+01 -0.20856862355E+01  0.92692028967E+01  0.13714722037E+02  0.51100000000E-03 0.  1.
         12    1    3    3    0    0 -0.59386351729E+01  0.15734492001E+02 -0.64445890803E+01  0.18010395738E+02  0.00000000000E+00 0. -1.
</event>
<event>
 7    1  0.6230310E-012  0.5930206E+02  0.7816164E-02  0.1266604E+00
        -11   -1    0    0    0    0  0.00000000000E+00  0.00000000000E+00  0.45593999997E+02  0.45594000000E+02  0.51100000000E-03 0. -1.
         11   -1    0    0    0    0 -0.00000000000E+00 -0.00000000000E+00 -0.45593999997E+02  0.45594000000E+02  0.51100000000E-03 0.  1.
    9900012    2    1    2    0    0  0.16079009187E+02  0.26953792833E+02  0.56277803436E+01  0.59302056450E+02  0.50000205030E+02 0.  0.
         12    1    1    2    0    0 -0.16079009187E+02 -0.26953792833E+02 -0.56277803436E+01  0.31885943550E+02  0.00000000000E+00 0. -1.
         11    1    3    3    0    0 -0.62790867796E+00  0.70639179493E+01  0.38169526781E+01  0.80537155469E+01  0.51100000000E-03 0. -1.
        -11    1    3    3    0    0  0.54798740306E+01  0.16869980632E+02 -0.19877172949E+02  0.26640707022E+02  0.51100000000E-03 0.  1.
         12    1    3    3    0    0  0.11227043834E+02  0.30198942514E+01  0.21688000615E+02  0.24607633881E+02  0.00000000000E+00 0. -1.
</event>
<event>
 7    1  0.6230310E-012  0.5930195E+02  0.7816164E-02  0.1266605E+00
        -11   -1    0    0    0    0  0.00000000000E+00  0.00000000000E+00  0.45593999997E+02  0.45594000000E+02  0.51100000000E-03 0.  1.
         11   -1    0    0    0    0 -0.00000000000E+00 -0.00000000000E+00 -0.45593999997E+02  0.45594000000E+02  0.51100000000E-03 0. -1.
    9900012    2    1    2    0    0  0.32797219401E+01  0.28314565884E+02  0.14291572676E+02  0.59301948712E+02  0.50000008543E+02 0.  0.
         12    1    1    2    0    0 -0.32797219401E+01 -0.28314565884E+02 -0.14291572676E+02  0.31886051288E+02  0.00000000000E+00 0. -1.
         11    1    3    3    0    0  0.17863395616E+02  0.72652503906E+01  0.30554541343E+01  0.19524870458E+02  0.51100000000E-03 0. -1.
        -11    1    3    3    0    0  0.48909566866E+01  0.15481719783E+02  0.10833067992E+02  0.19518208605E+02  0.51100000000E-03 0.  1.
         12    1    3    3    0    0 -0.19474630362E+02  0.55675957101E+01  0.40305054928E+00  0.20258869650E+02  0.00000000000E+00 0. -1.
</event>
<event>
 7    1  0.6230310E-012  0.5930201E+02  0.7816164E-02  0.1266605E+00
        -11   -1    0    0    0    0  0.00000000000E+00  0.00000000000E+00  0.45593999997E+02  0.45594000000E+02  0.51100000000E-03 0.  1.
         11   -1    0    0    0    0 -0.00000000000E+00 -0.00000000000E+00 -0.45593999997E+02  0.45594000000E+02  0.51100000000E-03 0. -1.
    9900012    2    1    2    0    0  0.26618427868E+02  0.11184803908E+02  0.13530554115E+02  0.59302008793E+02  0.50000118116E+02 0.  0.
         12    1    1    2    0    0 -0.26618427868E+02 -0.11184803908E+02 -0.13530554115E+02  0.31885991207E+02  0.00000000000E+00 0. -1.
         11    1    3    3    0    0  0.15938550477E+02  0.21146259320E+02 -0.60109277551E+01  0.27153874995E+02  0.51100000000E-03 0. -1.
        -11    1    3    3    0    0  0.40450907628E+01  0.41301711410E+01  0.14765508820E+02  0.15856901460E+02  0.51100000000E-03 0.  1.
        -12    1    3    3    0    0  0.66347866281E+01 -0.14091626553E+02  0.47759730503E+01  0.16291232338E+02  0.00000000000E+00 0.  1.
</event>
<event>
 7    1  0.6230310E-012  0.5930194E+02  0.7816164E-02  0.1266605E+00
        -11   -1    0    0    0    0  0.00000000000E+00  0.00000000000E+00  0.45593999997E+02  0.45594000000E+02  0.51100000000E-03 0.  1.
         11   -1    0    0    0    0 -0.00000000000E+00 -0.00000000000E+00 -0.45593999997E+02  0.45594000000E+02  0.51100000000E-03 0. -1.
    9900012    2    1    2    0    0  0.19929102654E+02  0.13781210715E+02  0.20727523640E+02  0.59301935056E+02  0.49999983638E+02 0.  0.
         12    1    1    2    0    0 -0.19929102654E+02 -0.13781210715E+02 -0.20727523640E+02  0.31886064944E+02  0.00000000000E+00 0. -1.
         11    1    3    3    0    0  0.29467778870E+02  0.18214097224E+01 -0.11140435753E+01  0.29545026963E+02  0.51100000000E-03 0. -1.
        -11    1    3    3    0    0  0.16429923810E+01  0.42894070025E+01  0.12428755561E+02  0.13250373634E+02  0.51100000000E-03 0.  1.
        -12    1    3    3    0    0 -0.11181668597E+02  0.76703939898E+01  0.94128116550E+01  0.16506534459E+02  0.00000000000E+00 0.  1.
</event>
<event>
 7    1  0.6230310E-012  0.5930194E+02  0.7816164E-02  0.1266605E+00
        -11   -1    0    0    0    0  0.00000000000E+00  0.00000000000E+00  0.45593999997E+02  0.45594000000E+02  0.51100000000E-03 0.  1.
         11   -1    0    0    0    0 -0.00000000000E+00 -0.00000000000E+00 -0.45593999997E+02  0.45594000000E+02  0.51100000000E-03 0. -1.
    9900012    2    1    2    0    0  0.12945564672E+02  0.28855428037E+02  0.40617006799E+01  0.59301940596E+02  0.49999993741E+02 0.  0.
         12    1    1    2    0    0 -0.12945564672E+02 -0.28855428037E+02 -0.40617006799E+01  0.31886059404E+02  0.00000000000E+00 0. -1.
         11    1    3    3    0    0 -0.61019970551E+01 -0.30124434282E+01  0.67375590504E-01  0.68054186645E+01  0.51100000000E-03 0. -1.
        -11    1    3    3    0    0  0.12220361101E+02 -0.38540372242E+01  0.91765346380E+01  0.15760698480E+02  0.51100000000E-03 0.  1.
         12    1    3    3    0    0  0.68272006265E+01  0.35721908690E+02 -0.51822095487E+01  0.36735823451E+02  0.00000000000E+00 0. -1.
</event>
<event>
 7    1  0.6230310E-012  0.5930193E+02  0.7816164E-02  0.1266605E+00
        -11   -1    0    0    0    0  0.00000000000E+00  0.00000000000E+00  0.45593999997E+02  0.45594000000E+02  0.51100000000E-03 0.  1.
         11   -1    0    0    0    0 -0.00000000000E+00 -0.00000000000E+00 -0.45593999997E+02  0.45594000000E+02  0.51100000000E-03 0. -1.
    9900012    2    1    2    0    0 -0.22599083107E+02  0.21126976456E+02 -0.77235753629E+01  0.59301932386E+02  0.49999978769E+02 0.  0.
         12    1    1    2    0    0  0.22599083107E+02 -0.21126976456E+02  0.77235753629E+01  0.31886067614E+02  0.00000000000E+00 0. -1.
         11    1    3    3    0    0 -0.87704918876E+01  0.77983828880E+01  0.48979850749E+01  0.12717175853E+02  0.51100000000E-03 0. -1.
        -11    1    3    3    0    0 -0.11768201034E+02 -0.65286747214E+01  0.97366012562E+01  0.16610705990E+02  0.51100000000E-03 0.  1.
         12    1    3    3    0    0 -0.20603901855E+01  0.19857268290E+02 -0.22358161694E+02  0.29974050543E+02  0.00000000000E+00 0. -1.
</event>
<event>
 7    1  0.6230310E-012  0.5930191E+02  0.7816164E-02  0.1266605E+00
        -11   -1    0    0    0    0  0.00000000000E+00  0.00000000000E+00  0.45593999997E+02  0.45594000000E+02  0.51100000000E-03 0.  1.
         11   -1    0    0    0    0 -0.00000000000E+00 -0.00000000000E+00 -0.45593999997E+02  0.45594000000E+02  0.51100000000E-03 0. -1.
    9900012    2    1    2    0    0  0.18053892328E+02  0.26237004814E+02  0.15488823323E+01  0.59301913908E+02  0.49999945068E+02 0.  0.
         12    1    1    2    0    0 -0.18053892328E+02 -0.26237004814E+02 -0.15488823323E+01  0.31886086092E+02  0.00000000000E+00 0. -1.
         11    1    3    3    0    0  0.24103000737E+02  0.14271336615E+02 -0.68532962818E+01  0.28837360550E+02  0.51100000000E-03 0. -1.
        -11    1    3    3    0    0  0.94906464265E+01  0.16665951258E-01  0.11352712780E+01  0.95583203798E+01  0.51100000000E-03 0.  1.
         12    1    3    3    0    0 -0.15539754836E+02  0.11949002248E+02  0.72669073361E+01  0.20906232978E+02  0.00000000000E+00 0. -1.
</event>
<event>
 7    1  0.6230310E-012  0.5930192E+02  0.7816164E-02  0.1266605E+00
        -11   -1    0    0    0    0  0.00000000000E+00  0.00000000000E+00  0.45593999997E+02  0.45594000000E+02  0.51100000000E-03 0.  1.
         11   -1    0    0    0    0 -0.00000000000E+00 -0.00000000000E+00 -0.45593999997E+02  0.45594000000E+02  0.51100000000E-03 0. -1.
    9900012    2    1    2    0    0 -0.29423120848E+02 -0.49718114774E+01  0.11237588720E+02  0.59301916044E+02  0.49999948964E+02 0.  0.
         12    1    1    2    0    0  0.29423120848E+02  0.49718114774E+01 -0.11237588720E+02  0.31886083956E+02  0.00000000000E+00 0. -1.
         11    1    3    3    0    0 -0.80880654110E+01  0.59339026457E+01 -0.91004766930E+01  0.13544248927E+02  0.51100000000E-03 0. -1.
        -11    1    3    3    0    0 -0.14913238060E+02  0.86411073747E+01  0.60023288481E+00  0.17246265853E+02  0.51100000000E-03 0.  1.
        -12    1    3    3    0    0 -0.64218173769E+01 -0.19546821498E+02  0.19737832528E+02  0.28511401263E+02  0.00000000000E+00 0.  1.
</event>
<event>
 7    1  0.6230310E-012  0.5930195E+02  0.7816164E-02  0.1266605E+00
        -11   -1    0    0    0    0  0.00000000000E+00  0.00000000000E+00  0.45593999997E+02  0.45594000000E+02  0.51100000000E-03 0.  1.
         11   -1    0    0    0    0 -0.00000000000E+00 -0.00000000000E+00 -0.45593999997E+02  0.45594000000E+02  0.51100000000E-03 0. -1.
    9900012    2    1    2    0    0 -0.19159336871E+01  0.10909206373E+02  0.29900479360E+02  0.59301948951E+02  0.50000008978E+02 0.  0.
         12    1    1    2    0    0  0.19159336871E+01 -0.10909206373E+02 -0.29900479360E+02  0.31886051049E+02  0.00000000000E+00 0. -1.
         11    1    3    3    0    0 -0.44710629321E+01 -0.54515931521E+00  0.17595214855E+01  0.48356507877E+01  0.51100000000E-03 0. -1.
        -11    1    3    3    0    0 -0.11559175136E+02  0.20649174349E+02  0.25123611803E+01  0.23797371495E+02  0.51100000000E-03 0.  1.
         12    1    3    3    0    0  0.14114304381E+02 -0.91948086604E+01  0.25628596694E+02  0.30668926668E+02  0.00000000000E+00 0. -1.
</event>
<event>
 7    1  0.6230310E-012  0.5930196E+02  0.7816164E-02  0.1266605E+00
        -11   -1    0    0    0    0  0.00000000000E+00  0.00000000000E+00  0.45593999997E+02  0.45594000000E+02  0.51100000000E-03 0.  1.
         11   -1    0    0    0    0 -0.00000000000E+00 -0.00000000000E+00 -0.45593999997E+02  0.45594000000E+02  0.51100000000E-03 0. -1.
    9900012    2    1    2    0    0  0.40840433399E+01 -0.29515082984E+02 -0.11353421988E+02  0.59301957217E+02  0.50000024054E+02 0.  0.
         12    1    1    2    0    0 -0.40840433399E+01  0.29515082984E+02  0.11353421988E+02  0.31886042783E+02  0.00000000000E+00 0. -1.
         11    1    3    3    0    0  0.32405531616E+01 -0.24581000359E+02 -0.11070855421E+02  0.27153095651E+02  0.51100000000E-03 0. -1.
        -11    1    3    3    0    0  0.86412514025E+01  0.10512552958E+01  0.12987229650E+02  0.15634720904E+02  0.51100000000E-03 0.  1.
         12    1    3    3    0    0 -0.77977612242E+01 -0.59853379207E+01 -0.13269796217E+02  0.16514140661E+02  0.00000000000E+00 0. -1.
</event>
<event>
 7    1  0.6230310E-012  0.5930193E+02  0.7816164E-02  0.1266605E+00
        -11   -1    0    0    0    0  0.00000000000E+00  0.00000000000E+00  0.45593999997E+02  0.45594000000E+02  0.51100000000E-03 0.  1.
         11   -1    0    0    0    0 -0.00000000000E+00 -0.00000000000E+00 -0.45593999997E+02  0.45594000000E+02  0.51100000000E-03 0. -1.
    9900012    2    1    2    0    0 -0.16177885758E+02 -0.27431562277E+02  0.15832380596E+01  0.59301933461E+02  0.49999980729E+02 0.  0.
         12    1    1    2    0    0  0.16177885758E+02  0.27431562277E+02 -0.15832380596E+01  0.31886066539E+02  0.00000000000E+00 0. -1.
         11    1    3    3    0    0 -0.10090397917E+02  0.67521027053E+01 -0.65717562802E+01  0.13805614870E+02  0.51100000000E-03 0. -1.
        -11    1    3    3    0    0 -0.11088248174E+02 -0.81955169985E+01  0.12579156570E+02  0.18664161560E+02  0.51100000000E-03 0.  1.
         12    1    3    3    0    0  0.50007603332E+01 -0.25988147984E+02 -0.44241622304E+01  0.26832157032E+02  0.00000000000E+00 0. -1.
</event>
<event>
 7    1  0.6230310E-012  0.5930194E+02  0.7816164E-02  0.1266605E+00
        -11   -1    0    0    0    0  0.00000000000E+00  0.00000000000E+00  0.45593999997E+02  0.45594000000E+02  0.51100000000E-03 0. -1.
         11   -1    0    0    0    0 -0.00000000000E+00 -0.00000000000E+00 -0.45593999997E+02  0.45594000000E+02  0.51100000000E-03 0.  1.
    9900012    2    1    2    0    0 -0.13576219912E+02  0.22540182273E+02  0.18009634980E+02  0.59301944802E+02  0.50000001412E+02 0.  0.
         12    1    1    2    0    0  0.13576219912E+02 -0.22540182273E+02 -0.18009634980E+02  0.31886055198E+02  0.00000000000E+00 0. -1.
         11    1    3    3    0    0 -0.90834903651E+01  0.21283748448E+01 -0.79680199004E+01  0.12269030854E+02  0.51100000000E-03 0. -1.
        -11    1    3    3    0    0 -0.56094707245E+01  0.18478521030E+02 -0.15885779737E+01  0.19376415600E+02  0.51100000000E-03 0.  1.
         12    1    3    3    0    0  0.11167411780E+01  0.19332863984E+01  0.27566232854E+02  0.27656498349E+02  0.00000000000E+00 0. -1.
</event>
<event>
 7    1  0.6230310E-012  0.5930191E+02  0.7816164E-02  0.1266605E+00
        -11   -1    0    0    0    0  0.00000000000E+00  0.00000000000E+00  0.45593999997E+02  0.45594000000E+02  0.51100000000E-03 0.  1.
         11   -1    0    0    0    0 -0.00000000000E+00 -0.00000000000E+00 -0.45593999997E+02  0.45594000000E+02  0.51100000000E-03 0. -1.
    9900012    2    1    2    0    0 -0.16673035280E+01 -0.53331007384E+00  0.31838002873E+02  0.59301909810E+02  0.49999937595E+02 0.  0.
         12    1    1    2    0    0  0.16673035280E+01  0.53331007384E+00 -0.31838002873E+02  0.31886090190E+02  0.00000000000E+00 0. -1.
         11    1    3    3    0    0 -0.14366471623E+02  0.20264286575E+01  0.10085764463E+02  0.17669877336E+02  0.51100000000E-03 0. -1.
        -11    1    3    3    0    0  0.54004750103E+01 -0.25810803684E+01 -0.85646517009E+01  0.10448940866E+02  0.51100000000E-03 0.  1.
        -12    1    3    3    0    0  0.72986930851E+01  0.21341637095E-01  0.30316890111E+02  0.31183091608E+02  0.00000000000E+00 0.  1.
</event>
<event>
 7    1  0.6230310E-012  0.5930194E+02  0.7816164E-02  0.1266605E+00
        -11   -1    0    0    0    0  0.00000000000E+00  0.00000000000E+00  0.45593999997E+02  0.45594000000E+02  0.51100000000E-03 0.  1.
         11   -1    0    0    0    0 -0.00000000000E+00 -0.00000000000E+00 -0.45593999997E+02  0.45594000000E+02  0.51100000000E-03 0. -1.
    9900012    2    1    2    0    0  0.40525895831E+01  0.24808391704E+02  0.19617359713E+02  0.59301943747E+02  0.49999999488E+02 0.  0.
         12    1    1    2    0    0 -0.40525895831E+01 -0.24808391704E+02 -0.19617359713E+02  0.31886056253E+02  0.00000000000E+00 0. -1.
         11    1    3    3    0    0  0.30418519368E+01  0.23302368916E+02  0.67098700911E+01  0.24439222926E+02  0.51100000000E-03 0. -1.
        -11    1    3    3    0    0 -0.23575603564E+01  0.13531756094E+02  0.16875561967E+02  0.21758931632E+02  0.51100000000E-03 0.  1.
         12    1    3    3    0    0  0.33682980028E+01 -0.12025733306E+02 -0.39680723449E+01  0.13103789189E+02  0.00000000000E+00 0. -1.
</event>
<event>
 7    1  0.6230310E-012  0.5930193E+02  0.7816164E-02  0.1266605E+00
        -11   -1    0    0    0    0  0.00000000000E+00  0.00000000000E+00  0.45593999997E+02  0.45594000000E+02  0.51100000000E-03 0. -1.
         11   -1    0    0    0    0 -0.00000000000E+00 -0.00000000000E+00 -0.45593999997E+02  0.45594000000E+02  0.51100000000E-03 0.  1.
    9900012    2    1    2    0    0  0.94483180462E+01 -0.13128876221E+01 -0.30425760640E+02  0.59301932536E+02  0.49999979042E+02 0.  0.
         12    1    1    2    0    0 -0.94483180462E+01  0.13128876221E+01  0.30425760640E+02  0.31886067464E+02  0.00000000000E+00 0. -1.
         11    1    3    3    0    0 -0.10257096138E+02  0.90776921572E+01 -0.31732939572E+01  0.14059954157E+02  0.51100000000E-03 0. -1.
        -11    1    3    3    0    0  0.78316487362E+01  0.16093131496E+01 -0.27210132417E+02  0.28360463980E+02  0.51100000000E-03 0.  1.
        -12    1    3    3    0    0  0.11873765448E+02 -0.11999892929E+02 -0.42334265469E-01  0.16881514399E+02  0.00000000000E+00 0.  1.
</event>
<event>
 7    1  0.6230310E-012  0.5930185E+02  0.7816164E-02  0.1266605E+00
        -11   -1    0    0    0    0  0.00000000000E+00  0.00000000000E+00  0.45593999997E+02  0.45594000000E+02  0.51100000000E-03 0.  1.
         11   -1    0    0    0    0 -0.00000000000E+00 -0.00000000000E+00 -0.45593999997E+02  0.45594000000E+02  0.51100000000E-03 0. -1.
    9900012    2    1    2    0    0  0.10783254394E+01  0.13343160781E+02  0.28940009160E+02  0.59301845395E+02  0.49999820116E+02 0.  0.
         12    1    1    2    0    0 -0.10783254394E+01 -0.13343160781E+02 -0.28940009160E+02  0.31886154605E+02  0.00000000000E+00 0. -1.
         11    1    3    3    0    0  0.87606765272E+01  0.22369835351E+02  0.85217944572E+01  0.25490782018E+02  0.51100000000E-03 0. -1.
        -11    1    3    3    0    0  0.66342638996E+01  0.36653701339E+01  0.78951141429E+01  0.10944460850E+02  0.51100000000E-03 0.  1.
         12    1    3    3    0    0 -0.14316614987E+02 -0.12692044705E+02  0.12523100559E+02  0.22866602526E+02  0.00000000000E+00 0. -1.
</event>
<event>
 7    1  0.6230310E-012  0.5930196E+02  0.7816164E-02  0.1266605E+00
        -11   -1    0    0    0    0  0.00000000000E+00  0.00000000000E+00  0.45593999997E+02  0.45594000000E+02  0.51100000000E-03 0. -1.
         11   -1    0    0    0    0 -0.00000000000E+00 -0.00000000000E+00 -0.45593999997E+02  0.45594000000E+02  0.51100000000E-03 0.  1.
    9900012    2    1    2    0    0  0.22062080471E+02  0.12782606828E+02 -0.19146520355E+02  0.59301958011E+02  0.50000025502E+02 0.  0.
         12    1    1    2    0    0 -0.22062080471E+02 -0.12782606828E+02  0.19146520355E+02  0.31886041989E+02  0.00000000000E+00 0. -1.
         11    1    3    3    0    0 -0.29275866544E+01 -0.84712586530E+01  0.13284171056E+01  0.90607769564E+01  0.51100000000E-03 0. -1.
        -11    1    3    3    0    0  0.85721962394E+01  0.93286068026E-01 -0.21800905359E+02  0.23425855916E+02  0.51100000000E-03 0.  1.
         12    1    3    3    0    0  0.16417470886E+02  0.21160579413E+02  0.13259678989E+01  0.26815325138E+02  0.00000000000E+00 0. -1.
</event>
<event>
 7    1  0.6230310E-012  0.5930194E+02  0.7816164E-02  0.1266605E+00
        -11   -1    0    0    0    0  0.00000000000E+00  0.00000000000E+00  0.45593999997E+02  0.45594000000E+02  0.51100000000E-03 0.  1.
         11   -1    0    0    0    0 -0.00000000000E+00 -0.00000000000E+00 -0.45593999997E+02  0.45594000000E+02  0.51100000000E-03 0. -1.
    9900012    2    1    2    0    0 -0.19550835565E+02 -0.64553572684E+01  0.24347774381E+02  0.59301938374E+02  0.49999989689E+02 0.  0.
         12    1    1    2    0    0  0.19550835565E+02  0.64553572684E+01 -0.24347774381E+02  0.31886061626E+02  0.00000000000E+00 0. -1.
         11    1    3    3    0    0 -0.92270111202E+01 -0.33787805996E+01  0.70202753787E+01  0.12076347097E+02  0.51100000000E-03 0. -1.
        -11    1    3    3    0    0 -0.14050104700E+02  0.91988284627E+01  0.26557468780E+02  0.31421696890E+02  0.51100000000E-03 0.  1.
         12    1    3    3    0    0  0.37262802556E+01 -0.12275405131E+02 -0.92299697784E+01  0.15803894387E+02  0.00000000000E+00 0. -1.
</event>
<event>
 7    1  0.6230310E-012  0.5930195E+02  0.7816164E-02  0.1266605E+00
        -11   -1    0    0    0    0  0.00000000000E+00  0.00000000000E+00  0.45593999997E+02  0.45594000000E+02  0.51100000000E-03 0. -1.
         11   -1    0    0    0    0 -0.00000000000E+00 -0.00000000000E+00 -0.45593999997E+02  0.45594000000E+02  0.51100000000E-03 0.  1.
    9900012    2    1    2    0    0 -0.29107658880E+02 -0.88074046143E+01 -0.95861423400E+01  0.59301948089E+02  0.50000007407E+02 0.  0.
         12    1    1    2    0    0  0.29107658880E+02  0.88074046143E+01  0.95861423400E+01  0.31886051911E+02  0.00000000000E+00 0. -1.
         11    1    3    3    0    0 -0.16991629803E+02 -0.11561592167E+02  0.98675922001E+01  0.22798141874E+02  0.51100000000E-03 0. -1.
        -11    1    3    3    0    0 -0.35104231509E+01 -0.78385690481E+01  0.39171193429E+01  0.94398124785E+01  0.51100000000E-03 0.  1.
        -12    1    3    3    0    0 -0.86056059257E+01  0.10592756601E+02 -0.23370853883E+02  0.27063993737E+02  0.00000000000E+00 0.  1.
</event>
<event>
 7    1  0.6230310E-012  0.5930195E+02  0.7816164E-02  0.1266605E+00
        -11   -1    0    0    0    0  0.00000000000E+00  0.00000000000E+00  0.45593999997E+02  0.45594000000E+02  0.51100000000E-03 0. -1.
         11   -1    0    0    0    0 -0.00000000000E+00 -0.00000000000E+00 -0.45593999997E+02  0.45594000000E+02  0.51100000000E-03 0.  1.
    9900012    2    1    2    0    0 -0.30542422318E+02  0.52985286566E+01 -0.74703592968E+01  0.59301949210E+02  0.50000009452E+02 0.  0.
         12    1    1    2    0    0  0.30542422318E+02 -0.52985286566E+01  0.74703592968E+01  0.31886050790E+02  0.00000000000E+00 0. -1.
         11    1    3    3    0    0 -0.40422232519E+01  0.81991536202E+01 -0.39256601918E+01  0.99486932363E+01  0.51100000000E-03 0. -1.
        -11    1    3    3    0    0 -0.47455892220E+01  0.17854798888E+01 -0.20663828143E+02  0.21276803079E+02  0.51100000000E-03 0.  1.
         12    1    3    3    0    0 -0.21754609844E+02 -0.46861048525E+01  0.17119129038E+02  0.28076452895E+02  0.00000000000E+00 0. -1.
</event>
<event>
 7    1  0.6230310E-012  0.5930192E+02  0.7816164E-02  0.1266605E+00
        -11   -1    0    0    0    0  0.00000000000E+00  0.00000000000E+00  0.45593999997E+02  0.45594000000E+02  0.51100000000E-03 0.  1.
         11   -1    0    0    0    0 -0.00000000000E+00 -0.00000000000E+00 -0.45593999997E+02  0.45594000000E+02  0.51100000000E-03 0. -1.
    9900012    2    1    2    0    0 -0.27417125932E+02 -0.24417975508E+01  0.16095364147E+02  0.59301922839E+02  0.49999961358E+02 0.  0.
         12    1    1    2    0    0  0.27417125932E+02  0.24417975508E+01 -0.16095364147E+02  0.31886077161E+02  0.00000000000E+00 0. -1.
         11    1    3    3    0    0 -0.10887822662E+02 -0.52725634148E+01  0.16681031375E+02  0.20605858761E+02  0.51100000000E-03 0. -1.
        -11    1    3    3    0    0 -0.96041340652E+01  0.13904511792E+02  0.11867545291E+02  0.20649781375E+02  0.51100000000E-03 0.  1.
         12    1    3    3    0    0 -0.69251692051E+01 -0.11073745928E+02 -0.12453212519E+02  0.18046282704E+02  0.00000000000E+00 0. -1.
</event>
<event>
 7    1  0.6230310E-012  0.5930192E+02  0.7816164E-02  0.1266605E+00
        -11   -1    0    0    0    0  0.00000000000E+00  0.00000000000E+00  0.45593999997E+02  0.45594000000E+02  0.51100000000E-03 0.  1.
         11   -1    0    0    0    0 -0.00000000000E+00 -0.00000000000E+00 -0.45593999997E+02  0.45594000000E+02  0.51100000000E-03 0. -1.
    9900012    2    1    2    0    0  0.17776239135E+02 -0.10027853810E+02  0.24498359904E+02  0.59301918902E+02  0.49999954176E+02 0.  0.
         12    1    1    2    0    0 -0.17776239135E+02  0.10027853810E+02 -0.24498359904E+02  0.31886081098E+02  0.00000000000E+00 0. -1.
         11    1    3    3    0    0  0.94672397843E+01  0.43614183098E+01 -0.35554228513E+01  0.11013247964E+02  0.51100000000E-03 0. -1.
        -11    1    3    3    0    0  0.25089120477E+01  0.10725311011E+02  0.12225144240E+01  0.11082485178E+02  0.51100000000E-03 0.  1.
        -12    1    3    3    0    0  0.58000873030E+01 -0.25114583130E+02  0.26831268331E+02  0.37206185760E+02  0.00000000000E+00 0.  1.
</event>
<event>
 7    1  0.6230310E-012  0.5930193E+02  0.7816164E-02  0.1266605E+00
        -11   -1    0    0    0    0  0.00000000000E+00  0.00000000000E+00  0.45593999997E+02  0.45594000000E+02  0.51100000000E-03 0. -1.
         11   -1    0    0    0    0 -0.00000000000E+00 -0.00000000000E+00 -0.45593999997E+02  0.45594000000E+02  0.51100000000E-03 0.  1.
    9900012    2    1    2    0    0  0.13241907619E+02 -0.28929086386E+02 -0.21168581142E+01  0.59301933375E+02  0.49999980572E+02 0.  0.
         12    1    1    2    0    0 -0.13241907619E+02  0.28929086386E+02  0.21168581142E+01  0.31886066625E+02  0.00000000000E+00 0. -1.
         11    1    3    3    0    0  0.78335960126E+01 -0.20008644484E+02 -0.10583457321E+02  0.23952466464E+02  0.51100000000E-03 0.  1.
        -11    1    3    3    0    0  0.16723637754E+02  0.25107717622E+01 -0.53107480643E+00  0.16919399377E+02  0.51100000000E-03 0. -1.
        -12    1    3    3    0    0 -0.11315326148E+02 -0.11431213664E+02  0.89976740132E+01  0.18430067534E+02  0.00000000000E+00 0.  1.
</event>
<event>
 7    1  0.6230310E-012  0.5930196E+02  0.7816164E-02  0.1266605E+00
        -11   -1    0    0    0    0  0.00000000000E+00  0.00000000000E+00  0.45593999997E+02  0.45594000000E+02  0.51100000000E-03 0.  1.
         11   -1    0    0    0    0 -0.00000000000E+00 -0.00000000000E+00 -0.45593999997E+02  0.45594000000E+02  0.51100000000E-03 0. -1.
    9900012    2    1    2    0    0 -0.30726052438E+01 -0.16964419698E+02  0.26823258591E+02  0.59301958538E+02  0.50000026464E+02 0.  0.
         12    1    1    2    0    0  0.30726052438E+01  0.16964419698E+02 -0.26823258591E+02  0.31886041462E+02  0.00000000000E+00 0. -1.
         11    1    3    3    0    0  0.52369060015E+00  0.34448975744E+01 -0.53599901548E+01  0.63930482450E+01  0.51100000000E-03 0. -1.
        -11    1    3    3    0    0 -0.33211856281E+01 -0.28074151070E+02  0.10921729879E+02  0.30306309839E+02  0.51100000000E-03 0.  1.
        -12    1    3    3    0    0 -0.27511021591E+00  0.76648337972E+01  0.21261518867E+02  0.22602600454E+02  0.00000000000E+00 0.  1.
</event>
<event>
 7    1  0.6230310E-012  0.5930193E+02  0.7816164E-02  0.1266605E+00
        -11   -1    0    0    0    0  0.00000000000E+00  0.00000000000E+00  0.45593999997E+02  0.45594000000E+02  0.51100000000E-03 0. -1.
         11   -1    0    0    0    0 -0.00000000000E+00 -0.00000000000E+00 -0.45593999997E+02  0.45594000000E+02  0.51100000000E-03 0.  1.
    9900012    2    1    2    0    0  0.71270381777E+01  0.30079650228E+02  0.78192847718E+01  0.59301933366E+02  0.49999980556E+02 0.  0.
         12    1    1    2    0    0 -0.71270381777E+01 -0.30079650228E+02 -0.78192847718E+01  0.31886066634E+02  0.00000000000E+00 0. -1.
         11    1    3    3    0    0 -0.82657562537E+00  0.13675562254E+02  0.33843743907E+01  0.14112342843E+02  0.51100000000E-03 0. -1.
        -11    1    3    3    0    0  0.24036441423E+02  0.10932339730E+02 -0.31348567084E+01  0.26591237186E+02  0.51100000000E-03 0.  1.
         12    1    3    3    0    0 -0.16082827620E+02  0.54717482441E+01  0.75697670895E+01  0.18598353338E+02  0.00000000000E+00 0. -1.
</event>
<event>
 7    1  0.6230310E-012  0.5930193E+02  0.7816164E-02  0.1266605E+00
        -11   -1    0    0    0    0  0.00000000000E+00  0.00000000000E+00  0.45593999997E+02  0.45594000000E+02  0.51100000000E-03 0.  1.
         11   -1    0    0    0    0 -0.00000000000E+00 -0.00000000000E+00 -0.45593999997E+02  0.45594000000E+02  0.51100000000E-03 0. -1.
    9900012    2    1    2    0    0  0.15167879471E+02  0.27873947108E+02 -0.31144660742E+01  0.59301931036E+02  0.49999976306E+02 0.  0.
         12    1    1    2    0    0 -0.15167879471E+02 -0.27873947108E+02  0.31144660742E+01  0.31886068964E+02  0.00000000000E+00 0. -1.
         11    1    3    3    0    0  0.16952737104E+02  0.21421340767E+02 -0.34148261253E+01  0.27530531656E+02  0.51100000000E-03 0. -1.
        -11    1    3    3    0    0  0.14171314310E+02  0.14036990743E+00  0.27551471277E+01  0.14437336629E+02  0.51100000000E-03 0.  1.
         12    1    3    3    0    0 -0.15956171942E+02  0.63122364339E+01 -0.24547870766E+01  0.17334062751E+02  0.00000000000E+00 0. -1.
</event>
<event>
 7    1  0.6230310E-012  0.5930196E+02  0.7816164E-02  0.1266605E+00
        -11   -1    0    0    0    0  0.00000000000E+00  0.00000000000E+00  0.45593999997E+02  0.45594000000E+02  0.51100000000E-03 0.  1.
         11   -1    0    0    0    0 -0.00000000000E+00 -0.00000000000E+00 -0.45593999997E+02  0.45594000000E+02  0.51100000000E-03 0. -1.
    9900012    2    1    2    0    0  0.20766666344E+02 -0.96319292020E+01  0.22196643079E+02  0.59301961438E+02  0.50000031751E+02 0.  0.
         12    1    1    2    0    0 -0.20766666344E+02  0.96319292020E+01 -0.22196643079E+02  0.31886038562E+02  0.00000000000E+00 0. -1.
         11    1    3    3    0    0  0.12454997695E+02  0.71957768293E+01  0.44393502365E+01  0.15053703947E+02  0.51100000000E-03 0. -1.
        -11    1    3    3    0    0  0.20314620371E+02 -0.95692841502E+01  0.11152422057E+01  0.22483299700E+02  0.51100000000E-03 0.  1.
         12    1    3    3    0    0 -0.12002951721E+02 -0.72584218811E+01  0.16642050637E+02  0.21764957791E+02  0.00000000000E+00 0. -1.
</event>
<event>
 7    1  0.6230310E-012  0.5930195E+02  0.7816164E-02  0.1266605E+00
        -11   -1    0    0    0    0  0.00000000000E+00  0.00000000000E+00  0.45593999997E+02  0.45594000000E+02  0.51100000000E-03 0.  1.
         11   -1    0    0    0    0 -0.00000000000E+00 -0.00000000000E+00 -0.45593999997E+02  0.45594000000E+02  0.51100000000E-03 0. -1.
    9900012    2    1    2    0    0  0.12438302661E+01 -0.26945326638E+02  0.17003592037E+02  0.59301954721E+02  0.50000019502E+02 0.  0.
         12    1    1    2    0    0 -0.12438302661E+01  0.26945326638E+02 -0.17003592037E+02  0.31886045279E+02  0.00000000000E+00 0. -1.
         11    1    3    3    0    0 -0.67124770510E+00 -0.71722832345E+01 -0.92909569130E+01  0.11756449332E+02  0.51100000000E-03 0. -1.
        -11    1    3    3    0    0  0.71118085823E+01  0.83525413772E+01  0.82702327657E+01  0.13738250217E+02  0.51100000000E-03 0.  1.
         12    1    3    3    0    0 -0.51967306111E+01 -0.28125584781E+02  0.18024316184E+02  0.33807255172E+02  0.00000000000E+00 0. -1.
</event>
<event>
 7    1  0.6230310E-012  0.5930194E+02  0.7816164E-02  0.1266605E+00
        -11   -1    0    0    0    0  0.00000000000E+00  0.00000000000E+00  0.45593999997E+02  0.45594000000E+02  0.51100000000E-03 0.  1.
         11   -1    0    0    0    0 -0.00000000000E+00 -0.00000000000E+00 -0.45593999997E+02  0.45594000000E+02  0.51100000000E-03 0. -1.
    9900012    2    1    2    0    0  0.22291457000E+02 -0.21578378629E+02 -0.73610530722E+01  0.59301943772E+02  0.49999999533E+02 0.  0.
         12    1    1    2    0    0 -0.22291457000E+02  0.21578378629E+02  0.73610530722E+01  0.31886056228E+02  0.00000000000E+00 0. -1.
         11    1    3    3    0    0  0.14987922181E+01 -0.10520828597E+02  0.83902823794E+01  0.13539979732E+02  0.51100000000E-03 0. -1.
        -11    1    3    3    0    0  0.61880363663E+01 -0.20537053732E+02  0.11721873859E+01  0.21481070588E+02  0.51100000000E-03 0.  1.
         12    1    3    3    0    0  0.14604628416E+02  0.94795037003E+01 -0.16923522838E+02  0.24280893452E+02  0.00000000000E+00 0. -1.
</event>
<event>
 7    1  0.6230310E-012  0.5930199E+02  0.7816164E-02  0.1266605E+00
        -11   -1    0    0    0    0  0.00000000000E+00  0.00000000000E+00  0.45593999997E+02  0.45594000000E+02  0.51100000000E-03 0.  1.
         11   -1    0    0    0    0 -0.00000000000E+00 -0.00000000000E+00 -0.45593999997E+02  0.45594000000E+02  0.51100000000E-03 0. -1.
    9900012    2    1    2    0    0 -0.10642052941E+02 -0.28318933199E+01  0.29923981342E+02  0.59301991000E+02  0.50000085666E+02 0.  0.
         12    1    1    2    0    0  0.10642052941E+02  0.28318933199E+01 -0.29923981342E+02  0.31886009000E+02  0.00000000000E+00 0. -1.
         11    1    3    3    0    0  0.44187448751E+01 -0.21744819891E+01  0.13334208764E+02  0.14214598194E+02  0.51100000000E-03 0. -1.
        -11    1    3    3    0    0 -0.26575603954E+02 -0.84282235192E+01  0.12864750409E+02  0.30705039986E+02  0.51100000000E-03 0.  1.
         12    1    3    3    0    0  0.11514806138E+02  0.77708121884E+01  0.37250221692E+01  0.14382352820E+02  0.00000000000E+00 0. -1.
</event>
<event>
 7    1  0.6230310E-012  0.5930195E+02  0.7816164E-02  0.1266605E+00
        -11   -1    0    0    0    0  0.00000000000E+00  0.00000000000E+00  0.45593999997E+02  0.45594000000E+02  0.51100000000E-03 0.  1.
         11   -1    0    0    0    0 -0.00000000000E+00 -0.00000000000E+00 -0.45593999997E+02  0.45594000000E+02  0.51100000000E-03 0. -1.
    9900012    2    1    2    0    0  0.25786118120E+02  0.18736606794E+02  0.85772551463E+00  0.59301952661E+02  0.50000015745E+02 0.  0.
         12    1    1    2    0    0 -0.25786118120E+02 -0.18736606794E+02 -0.85772551463E+00  0.31886047339E+02  0.00000000000E+00 0. -1.
         11    1    3    3    0    0  0.22134348767E+01 -0.79241665357E+01 -0.36600382643E+01  0.90048647739E+01  0.51100000000E-03 0. -1.
        -11    1    3    3    0    0  0.12871537068E+02 -0.20383820613E+01  0.13110192667E+02  0.18485362316E+02  0.51100000000E-03 0.  1.
        -12    1    3    3    0    0  0.10701146175E+02  0.28699155391E+02 -0.85924288878E+01  0.31811725571E+02  0.00000000000E+00 0.  1.
</event>
<event>
 7    1  0.6230310E-012  0.5930199E+02  0.7816164E-02  0.1266605E+00
        -11   -1    0    0    0    0  0.00000000000E+00  0.00000000000E+00  0.45593999997E+02  0.45594000000E+02  0.51100000000E-03 0.  1.
         11   -1    0    0    0    0 -0.00000000000E+00 -0.00000000000E+00 -0.45593999997E+02  0.45594000000E+02  0.51100000000E-03 0. -1.
    9900012    2    1    2    0    0 -0.12375366476E+02 -0.24050773030E+02  0.16885733768E+02  0.59301993922E+02  0.50000090995E+02 0.  0.
         12    1    1    2    0    0  0.12375366476E+02  0.24050773030E+02 -0.16885733768E+02  0.31886006078E+02  0.00000000000E+00 0. -1.
         11    1    3    3    0    0  0.51576832584E+01 -0.15379406479E+02 -0.13053528793E+02  0.20821202041E+02  0.51100000000E-03 0. -1.
        -11    1    3    3    0    0 -0.30136449073E+01 -0.88182800696E+01  0.86743318336E+01  0.12731384529E+02  0.51100000000E-03 0.  1.
        -12    1    3    3    0    0 -0.14519404827E+02  0.14691351881E+00  0.21264930727E+02  0.25749407351E+02  0.00000000000E+00 0.  1.
</event>
<event>
 7    1  0.6230310E-012  0.5930203E+02  0.7816164E-02  0.1266604E+00
        -11   -1    0    0    0    0  0.00000000000E+00  0.00000000000E+00  0.45593999997E+02  0.45594000000E+02  0.51100000000E-03 0.  1.
         11   -1    0    0    0    0 -0.00000000000E+00 -0.00000000000E+00 -0.45593999997E+02  0.45594000000E+02  0.51100000000E-03 0. -1.
    9900012    2    1    2    0    0  0.56691496307E+00 -0.18335050066E+02  0.26081021702E+02  0.59302029001E+02  0.50000154972E+02 0.  0.
         12    1    1    2    0    0 -0.56691496307E+00  0.18335050066E+02 -0.26081021702E+02  0.31885970999E+02  0.00000000000E+00 0. -1.
         11    1    3    3    0    0  0.31321242293E+01 -0.10693500895E+02  0.28849184860E+01  0.11510165877E+02  0.51100000000E-03 0. -1.
        -11    1    3    3    0    0 -0.87805683242E+01  0.20634542680E+01  0.32026959975E+02  0.33272847625E+02  0.51100000000E-03 0.  1.
         12    1    3    3    0    0  0.62153590580E+01 -0.97050034391E+01 -0.88308567589E+01  0.14519015499E+02  0.00000000000E+00 0. -1.
</event>
<event>
 7    1  0.6230310E-012  0.5930195E+02  0.7816164E-02  0.1266605E+00
        -11   -1    0    0    0    0  0.00000000000E+00  0.00000000000E+00  0.45593999997E+02  0.45594000000E+02  0.51100000000E-03 0. -1.
         11   -1    0    0    0    0 -0.00000000000E+00 -0.00000000000E+00 -0.45593999997E+02  0.45594000000E+02  0.51100000000E-03 0.  1.
    9900012    2    1    2    0    0  0.23302316332E+02  0.19114571101E+02 -0.10409391031E+02  0.59301949814E+02  0.50000010554E+02 0.  0.
         12    1    1    2    0    0 -0.23302316332E+02 -0.19114571101E+02  0.10409391031E+02  0.31886050186E+02  0.00000000000E+00 0. -1.
         11    1    3    3    0    0  0.26690378108E+02  0.74892202234E+01  0.42738267866E+01  0.28048712961E+02  0.51100000000E-03 0.  1.
        -11    1    3    3    0    0  0.50772894463E+01 -0.49291670308E+01  0.71384416322E+00  0.71123223696E+01  0.51100000000E-03 0. -1.
        -12    1    3    3    0    0 -0.84653512222E+01  0.16554517908E+02 -0.15397061981E+02  0.24140914484E+02  0.00000000000E+00 0.  1.
</event>
<event>
 7    1  0.6230310E-012  0.5930194E+02  0.7816164E-02  0.1266605E+00
        -11   -1    0    0    0    0  0.00000000000E+00  0.00000000000E+00  0.45593999997E+02  0.45594000000E+02  0.51100000000E-03 0. -1.
         11   -1    0    0    0    0 -0.00000000000E+00 -0.00000000000E+00 -0.45593999997E+02  0.45594000000E+02  0.51100000000E-03 0.  1.
    9900012    2    1    2    0    0  0.25617288509E+02  0.10780854495E+02 -0.15628451864E+02  0.59301940321E+02  0.49999993240E+02 0.  0.
         12    1    1    2    0    0 -0.25617288509E+02 -0.10780854495E+02  0.15628451864E+02  0.31886059679E+02  0.00000000000E+00 0. -1.
         11    1    3    3    0    0  0.15859354553E+02  0.56833065054E+01  0.32522893995E+01  0.17157986078E+02  0.51100000000E-03 0. -1.
        -11    1    3    3    0    0  0.50055486094E+01  0.11868294152E+02  0.72182929340E+01  0.14765353911E+02  0.51100000000E-03 0.  1.
        -12    1    3    3    0    0  0.47523853463E+01 -0.67707461625E+01 -0.26099034198E+02  0.27378600332E+02  0.00000000000E+00 0.  1.
</event>
<event>
 7    1  0.6230310E-012  0.5930195E+02  0.7816164E-02  0.1266605E+00
        -11   -1    0    0    0    0  0.00000000000E+00  0.00000000000E+00  0.45593999997E+02  0.45594000000E+02  0.51100000000E-03 0. -1.
         11   -1    0    0    0    0 -0.00000000000E+00 -0.00000000000E+00 -0.45593999997E+02  0.45594000000E+02  0.51100000000E-03 0.  1.
    9900012    2    1    2    0    0 -0.12240072850E+02 -0.17942127252E+02 -0.23344825669E+02  0.59301949771E+02  0.50000010473E+02 0.  0.
         12    1    1    2    0    0  0.12240072850E+02  0.17942127252E+02  0.23344825669E+02  0.31886050229E+02  0.00000000000E+00 0. -1.
         11    1    3    3    0    0 -0.12195834243E+02 -0.11377213890E+02  0.64865820646E+01  0.17895673106E+02  0.51100000000E-03 0. -1.
        -11    1    3    3    0    0 -0.10333156651E+02 -0.10721713458E+02 -0.79691406384E+01  0.16888945160E+02  0.51100000000E-03 0.  1.
        -12    1    3    3    0    0  0.10288918044E+02  0.41568000953E+01 -0.21862267096E+02  0.24517331505E+02  0.00000000000E+00 0.  1.
</event>
<event>
 7    1  0.6230310E-012  0.5930193E+02  0.7816164E-02  0.1266605E+00
        -11   -1    0    0    0    0  0.00000000000E+00  0.00000000000E+00  0.45593999997E+02  0.45594000000E+02  0.51100000000E-03 0. -1.
         11   -1    0    0    0    0 -0.00000000000E+00 -0.00000000000E+00 -0.45593999997E+02  0.45594000000E+02  0.51100000000E-03 0.  1.
    9900012    2    1    2    0    0  0.17145958461E+02 -0.11430545945E+02 -0.24332699233E+02  0.59301928995E+02  0.49999972584E+02 0.  0.
         12    1    1    2    0    0 -0.17145958461E+02  0.11430545945E+02  0.24332699233E+02  0.31886071005E+02  0.00000000000E+00 0. -1.
         11    1    3    3    0    0  0.22292697510E+02 -0.23320855831E+02 -0.28045864624E+02  0.42748066644E+02  0.51100000000E-03 0.  1.
        -11    1    3    3    0    0 -0.29931031485E+01  0.64005806037E+01 -0.29491244765E+01  0.76565941490E+01  0.51100000000E-03 0. -1.
        -12    1    3    3    0    0 -0.21536359010E+01  0.54897292824E+01  0.66622898676E+01  0.88972682026E+01  0.00000000000E+00 0.  1.
</event>
<event>
 7    1  0.6230310E-012  0.5930194E+02  0.7816164E-02  0.1266605E+00
        -11   -1    0    0    0    0  0.00000000000E+00  0.00000000000E+00  0.45593999997E+02  0.45594000000E+02  0.51100000000E-03 0.  1.
         11   -1    0    0    0    0 -0.00000000000E+00 -0.00000000000E+00 -0.45593999997E+02  0.45594000000E+02  0.51100000000E-03 0. -1.
    9900012    2    1    2    0    0 -0.16440938412E+02  0.26687879627E+02  0.58458143082E+01  0.59301938472E+02  0.49999989867E+02 0.  0.
         12    1    1    2    0    0  0.16440938412E+02 -0.26687879627E+02 -0.58458143082E+01  0.31886061528E+02  0.00000000000E+00 0. -1.
         11    1    3    3    0    0 -0.69282175190E+01 -0.61980516969E+01 -0.99968667777E+01  0.13651131399E+02  0.51100000000E-03 0. -1.
        -11    1    3    3    0    0 -0.29538607087E+01  0.40620503561E+01  0.15280515280E+02  0.16084765888E+02  0.51100000000E-03 0.  1.
        -12    1    3    3    0    0 -0.65588601840E+01  0.28823880968E+02  0.56216580605E+00  0.29566041185E+02  0.00000000000E+00 0.  1.
</event>
<event>
 7    1  0.6230310E-012  0.5930193E+02  0.7816164E-02  0.1266605E+00
        -11   -1    0    0    0    0  0.00000000000E+00  0.00000000000E+00  0.45593999997E+02  0.45594000000E+02  0.51100000000E-03 0.  1.
         11   -1    0    0    0    0 -0.00000000000E+00 -0.00000000000E+00 -0.45593999997E+02  0.45594000000E+02  0.51100000000E-03 0. -1.
    9900012    2    1    2    0    0  0.90877143788E+01 -0.17459170677E+02  0.25086094943E+02  0.59301931681E+02  0.49999977483E+02 0.  0.
         12    1    1    2    0    0 -0.90877143788E+01  0.17459170677E+02 -0.25086094943E+02  0.31886068319E+02  0.00000000000E+00 0. -1.
         11    1    3    3    0    0  0.39262500622E+01 -0.26193830012E+02  0.49668565341E+01  0.26948132298E+02  0.51100000000E-03 0. -1.
        -11    1    3    3    0    0 -0.32004838252E+01 -0.68492860465E+01  0.73141305843E+01  0.10519140769E+02  0.51100000000E-03 0.  1.
         12    1    3    3    0    0  0.83619481418E+01  0.15583945382E+02  0.12805107824E+02  0.21834658614E+02  0.00000000000E+00 0. -1.
</event>
<event>
 7    1  0.6230310E-012  0.5930197E+02  0.7816164E-02  0.1266605E+00
        -11   -1    0    0    0    0  0.00000000000E+00  0.00000000000E+00  0.45593999997E+02  0.45594000000E+02  0.51100000000E-03 0. -1.
         11   -1    0    0    0    0 -0.00000000000E+00 -0.00000000000E+00 -0.45593999997E+02  0.45594000000E+02  0.51100000000E-03 0.  1.
    9900012    2    1    2    0    0 -0.60888783217E+01  0.78277549718E+01 -0.30304633972E+02  0.59301968148E+02  0.50000043990E+02 0.  0.
         12    1    1    2    0    0  0.60888783217E+01 -0.78277549718E+01  0.30304633972E+02  0.31886031852E+02  0.00000000000E+00 0. -1.
         11    1    3    3    0    0 -0.18117129622E+02  0.50958180314E+01 -0.61765745280E+01  0.19807771715E+02  0.51100000000E-03 0. -1.
        -11    1    3    3    0    0 -0.18790145272E+01 -0.10619594145E+02 -0.36905990189E+01  0.11398552399E+02  0.51100000000E-03 0.  1.
        -12    1    3    3    0    0  0.13907265827E+02  0.13351531086E+02 -0.20437460425E+02  0.28095644035E+02  0.00000000000E+00 0.  1.
</event>
<event>
 7    1  0.6230310E-012  0.5930193E+02  0.7816164E-02  0.1266605E+00
        -11   -1    0    0    0    0  0.00000000000E+00  0.00000000000E+00  0.45593999997E+02  0.45594000000E+02  0.51100000000E-03 0.  1.
         11   -1    0    0    0    0 -0.00000000000E+00 -0.00000000000E+00 -0.45593999997E+02  0.45594000000E+02  0.51100000000E-03 0. -1.
    9900012    2    1    2    0    0  0.29447670840E+02  0.11465998727E+02 -0.42528481244E+01  0.59301934676E+02  0.49999982944E+02 0.  0.
         12    1    1    2    0    0 -0.29447670840E+02 -0.11465998727E+02  0.42528481244E+01  0.31886065324E+02  0.00000000000E+00 0. -1.
         11    1    3    3    0    0 -0.64848671377E+00  0.32266297508E+01 -0.18577107511E+02  0.18866388057E+02  0.51100000000E-03 0. -1.
        -11    1    3    3    0    0  0.90542267427E+01 -0.72766076255E+01  0.34217172230E+01  0.12109343065E+02  0.51100000000E-03 0.  1.
         12    1    3    3    0    0  0.21041930811E+02  0.15515976602E+02  0.10902542164E+02  0.28326203554E+02  0.00000000000E+00 0. -1.
</event>
<event>
 7    1  0.6230310E-012  0.5930194E+02  0.7816164E-02  0.1266605E+00
        -11   -1    0    0    0    0  0.00000000000E+00  0.00000000000E+00  0.45593999997E+02  0.45594000000E+02  0.51100000000E-03 0.  1.
         11   -1    0    0    0    0 -0.00000000000E+00 -0.00000000000E+00 -0.45593999997E+02  0.45594000000E+02  0.51100000000E-03 0. -1.
    9900012    2    1    2    0    0  0.16547024007E+02 -0.20231873050E+02  0.18264387218E+02  0.59301944568E+02  0.50000000985E+02 0.  0.
         12    1    1    2    0    0 -0.16547024007E+02  0.20231873050E+02 -0.18264387218E+02  0.31886055432E+02  0.00000000000E+00 0. -1.
         11    1    3    3    0    0  0.13265970737E+02  0.32817636250E+01 -0.42317140638E+01  0.14306060123E+02  0.51100000000E-03 0. -1.
        -11    1    3    3    0    0  0.52164539207E+01 -0.51233478902E+01 -0.70391498174E+01  0.10149370203E+02  0.51100000000E-03 0.  1.
        -12    1    3    3    0    0 -0.19354006504E+01 -0.18390288784E+02  0.29535251099E+02  0.34846514241E+02  0.00000000000E+00 0.  1.
</event>
<event>
 7    1  0.6230310E-012  0.5930198E+02  0.7816164E-02  0.1266605E+00
        -11   -1    0    0    0    0  0.00000000000E+00  0.00000000000E+00  0.45593999997E+02  0.45594000000E+02  0.51100000000E-03 0. -1.
         11   -1    0    0    0    0 -0.00000000000E+00 -0.00000000000E+00 -0.45593999997E+02  0.45594000000E+02  0.51100000000E-03 0.  1.
    9900012    2    1    2    0    0  0.16199932574E+02  0.15223884184E+02 -0.22858564252E+02  0.59301977596E+02  0.50000061221E+02 0.  0.
         12    1    1    2    0    0 -0.16199932574E+02 -0.15223884184E+02  0.22858564252E+02  0.31886022404E+02  0.00000000000E+00 0. -1.
         11    1    3    3    0    0 -0.25291281796E+01 -0.70708253676E+01  0.37522037214E+01  0.83947658547E+01  0.51100000000E-03 0.  1.
        -11    1    3    3    0    0  0.51577661451E+01  0.26875172213E+02 -0.10400340995E+02  0.29275322819E+02  0.51100000000E-03 0. -1.
         12    1    3    3    0    0  0.13571294609E+02 -0.45804626610E+01 -0.16210426979E+02  0.21631888923E+02  0.00000000000E+00 0. -1.
</event>
<event>
 7    1  0.6230310E-012  0.5930195E+02  0.7816164E-02  0.1266605E+00
        -11   -1    0    0    0    0  0.00000000000E+00  0.00000000000E+00  0.45593999997E+02  0.45594000000E+02  0.51100000000E-03 0. -1.
         11   -1    0    0    0    0 -0.00000000000E+00 -0.00000000000E+00 -0.45593999997E+02  0.45594000000E+02  0.51100000000E-03 0.  1.
    9900012    2    1    2    0    0  0.10409434243E+02  0.30083281684E+02  0.18331096005E+01  0.59301945855E+02  0.50000003332E+02 0.  0.
         12    1    1    2    0    0 -0.10409434243E+02 -0.30083281684E+02 -0.18331096005E+01  0.31886054145E+02  0.00000000000E+00 0. -1.
         11    1    3    3    0    0 -0.78357952364E+01  0.14896181438E+02  0.15869124044E+01  0.16906040331E+02  0.51100000000E-03 0. -1.
        -11    1    3    3    0    0 -0.38849183113E+01  0.11809725083E+02 -0.11656271944E+02  0.17042032529E+02  0.51100000000E-03 0.  1.
         12    1    3    3    0    0  0.22130147791E+02  0.33773751630E+01  0.11902469140E+02  0.25353872995E+02  0.00000000000E+00 0. -1.
</event>
<event>
 7    1  0.6230310E-012  0.5930194E+02  0.7816164E-02  0.1266605E+00
        -11   -1    0    0    0    0  0.00000000000E+00  0.00000000000E+00  0.45593999997E+02  0.45594000000E+02  0.51100000000E-03 0.  1.
         11   -1    0    0    0    0 -0.00000000000E+00 -0.00000000000E+00 -0.45593999997E+02  0.45594000000E+02  0.51100000000E-03 0. -1.
    9900012    2    1    2    0    0  0.31574587877E+01  0.85527129616E+01  0.30554910966E+02  0.59301936757E+02  0.49999986740E+02 0.  0.
         12    1    1    2    0    0 -0.31574587877E+01 -0.85527129616E+01 -0.30554910966E+02  0.31886063243E+02  0.00000000000E+00 0. -1.
         11    1    3    3    0    0 -0.66255625073E+01 -0.78826762006E+01  0.43221449879E+00  0.10306380172E+02  0.51100000000E-03 0. -1.
        -11    1    3    3    0    0  0.21107937660E+02  0.37362409634E+01  0.19188755860E+02  0.28769999662E+02  0.51100000000E-03 0.  1.
         12    1    3    3    0    0 -0.11324916365E+02  0.12699148199E+02  0.10933940606E+02  0.20225556923E+02  0.00000000000E+00 0. -1.
</event>
<event>
 7    1  0.6230310E-012  0.5930191E+02  0.7816164E-02  0.1266605E+00
        -11   -1    0    0    0    0  0.00000000000E+00  0.00000000000E+00  0.45593999997E+02  0.45594000000E+02  0.51100000000E-03 0. -1.
         11   -1    0    0    0    0 -0.00000000000E+00 -0.00000000000E+00 -0.45593999997E+02  0.45594000000E+02  0.51100000000E-03 0.  1.
    9900012    2    1    2    0    0 -0.28927784877E+02  0.13341576693E+02 -0.13813821681E+01  0.59301911760E+02  0.49999941152E+02 0.  0.
         12    1    1    2    0    0  0.28927784877E+02 -0.13341576693E+02  0.13813821681E+01  0.31886088240E+02  0.00000000000E+00 0. -1.
         11    1    3    3    0    0 -0.16576823894E+02  0.71110803958E+01  0.16172329996E+02  0.24226077119E+02  0.51100000000E-03 0. -1.
        -11    1    3    3    0    0 -0.85643685608E+01 -0.79102399062E+01  0.69726736341E+00  0.11679318741E+02  0.51100000000E-03 0.  1.
        -12    1    3    3    0    0 -0.37865924221E+01  0.14140736204E+02 -0.18250979528E+02  0.23396515901E+02  0.00000000000E+00 0.  1.
</event>
<event>
 7    1  0.6230310E-012  0.5930195E+02  0.7816164E-02  0.1266605E+00
        -11   -1    0    0    0    0  0.00000000000E+00  0.00000000000E+00  0.45593999997E+02  0.45594000000E+02  0.51100000000E-03 0. -1.
         11   -1    0    0    0    0 -0.00000000000E+00 -0.00000000000E+00 -0.45593999997E+02  0.45594000000E+02  0.51100000000E-03 0.  1.
    9900012    2    1    2    0    0  0.10263257903E+02 -0.15702026305E+02 -0.25784338227E+02  0.59301949905E+02  0.50000010719E+02 0.  0.
         12    1    1    2    0    0 -0.10263257903E+02  0.15702026305E+02  0.25784338227E+02  0.31886050095E+02  0.00000000000E+00 0. -1.
         11    1    3    3    0    0  0.26257990874E+01 -0.86084787451E+01 -0.12699319485E+02  0.15565135489E+02  0.51100000000E-03 0.  1.
        -11    1    3    3    0    0 -0.78246985310E+01 -0.10571626772E+02  0.94439465746E+01  0.16191767256E+02  0.51100000000E-03 0. -1.
         12    1    3    3    0    0  0.15462157347E+02  0.34780792121E+01 -0.22528965317E+02  0.27545047160E+02  0.00000000000E+00 0. -1.
</event>
<event>
 7    1  0.6230310E-012  0.5930195E+02  0.7816164E-02  0.1266605E+00
        -11   -1    0    0    0    0  0.00000000000E+00  0.00000000000E+00  0.45593999997E+02  0.45594000000E+02  0.51100000000E-03 0.  1.
         11   -1    0    0    0    0 -0.00000000000E+00 -0.00000000000E+00 -0.45593999997E+02  0.45594000000E+02  0.51100000000E-03 0. -1.
    9900012    2    1    2    0    0  0.40918415351E+01  0.31583144397E+02 -0.15753708592E+01  0.59301953358E+02  0.50000017015E+02 0.  0.
         12    1    1    2    0    0 -0.40918415351E+01 -0.31583144397E+02  0.15753708592E+01  0.31886046642E+02  0.00000000000E+00 0. -1.
         11    1    3    3    0    0  0.42167653156E+01  0.60672291069E+01  0.15816128136E+02  0.17456869371E+02  0.51100000000E-03 0.  1.
        -11    1    3    3    0    0  0.32847150284E+01 -0.33076616109E+01 -0.11250492303E+02  0.12177994723E+02  0.51100000000E-03 0. -1.
         12    1    3    3    0    0 -0.34096388089E+01  0.28823576901E+02 -0.61410066920E+01  0.29667089263E+02  0.00000000000E+00 0. -1.
</event>
<event>
 7    1  0.6230310E-012  0.5930195E+02  0.7816164E-02  0.1266605E+00
        -11   -1    0    0    0    0  0.00000000000E+00  0.00000000000E+00  0.45593999997E+02  0.45594000000E+02  0.51100000000E-03 0.  1.
         11   -1    0    0    0    0 -0.00000000000E+00 -0.00000000000E+00 -0.45593999997E+02  0.45594000000E+02  0.51100000000E-03 0. -1.
    9900012    2    1    2    0    0  0.19699978025E+02 -0.21300275921E+02  0.13226079419E+02  0.59301951871E+02  0.50000014304E+02 0.  0.
         12    1    1    2    0    0 -0.19699978025E+02  0.21300275921E+02 -0.13226079419E+02  0.31886048129E+02  0.00000000000E+00 0. -1.
         11    1    3    3    0    0  0.11782318740E+02  0.75014326378E+00  0.26067363733E+02  0.28616310071E+02  0.51100000000E-03 0. -1.
        -11    1    3    3    0    0  0.49154535518E+01 -0.28459735478E+01  0.22172832191E+01  0.60973432074E+01  0.51100000000E-03 0.  1.
        -12    1    3    3    0    0  0.30022057332E+01 -0.19204445637E+02 -0.15058567534E+02  0.24588298592E+02  0.00000000000E+00 0.  1.
</event>
<event>
 7    1  0.6230310E-012  0.5930194E+02  0.7816164E-02  0.1266605E+00
        -11   -1    0    0    0    0  0.00000000000E+00  0.00000000000E+00  0.45593999997E+02  0.45594000000E+02  0.51100000000E-03 0. -1.
         11   -1    0    0    0    0 -0.00000000000E+00 -0.00000000000E+00 -0.45593999997E+02  0.45594000000E+02  0.51100000000E-03 0.  1.
    9900012    2    1    2    0    0  0.13190983673E+02 -0.82093315471E+01 -0.27844671448E+02  0.59301938738E+02  0.49999990354E+02 0.  0.
         12    1    1    2    0    0 -0.13190983673E+02  0.82093315471E+01  0.27844671448E+02  0.31886061262E+02  0.00000000000E+00 0. -1.
         11    1    3    3    0    0 -0.66612888549E+01 -0.76448901056E+01 -0.28197729082E+01  0.10524648852E+02  0.51100000000E-03 0. -1.
        -11    1    3    3    0    0  0.92051782704E+01 -0.96890979842E+01  0.60612989065E+01  0.14674919810E+02  0.51100000000E-03 0.  1.
        -12    1    3    3    0    0  0.10647094257E+02  0.91246565427E+01 -0.31086197447E+02  0.34102370077E+02  0.00000000000E+00 0.  1.
</event>
<event>
 7    1  0.6230310E-012  0.5930192E+02  0.7816164E-02  0.1266605E+00
        -11   -1    0    0    0    0  0.00000000000E+00  0.00000000000E+00  0.45593999997E+02  0.45594000000E+02  0.51100000000E-03 0. -1.
         11   -1    0    0    0    0 -0.00000000000E+00 -0.00000000000E+00 -0.45593999997E+02  0.45594000000E+02  0.51100000000E-03 0.  1.
    9900012    2    1    2    0    0  0.24382259180E+02 -0.20466492487E+02  0.18303480275E+01  0.59301920727E+02  0.49999957506E+02 0.  0.
         12    1    1    2    0    0 -0.24382259180E+02  0.20466492487E+02 -0.18303480275E+01  0.31886079273E+02  0.00000000000E+00 0. -1.
         11    1    3    3    0    0 -0.70153069452E+01 -0.53148373000E+01  0.26179529251E+00  0.88051441838E+01  0.51100000000E-03 0. -1.
        -11    1    3    3    0    0  0.26313294226E+02 -0.12960239846E+02 -0.15059037995E+02  0.32971683237E+02  0.51100000000E-03 0.  1.
         12    1    3    3    0    0  0.50842718997E+01 -0.21914153416E+01  0.16627590730E+02  0.17525093307E+02  0.00000000000E+00 0. -1.
</event>
<event>
 7    1  0.6230310E-012  0.5930194E+02  0.7816164E-02  0.1266605E+00
        -11   -1    0    0    0    0  0.00000000000E+00  0.00000000000E+00  0.45593999997E+02  0.45594000000E+02  0.51100000000E-03 0.  1.
         11   -1    0    0    0    0 -0.00000000000E+00 -0.00000000000E+00 -0.45593999997E+02  0.45594000000E+02  0.51100000000E-03 0. -1.
    9900012    2    1    2    0    0 -0.24809211887E+01 -0.15197973603E+02  0.27921090569E+02  0.59301942386E+02  0.49999997007E+02 0.  0.
         12    1    1    2    0    0  0.24809211887E+01  0.15197973603E+02 -0.27921090569E+02  0.31886057614E+02  0.00000000000E+00 0. -1.
         11    1    3    3    0    0  0.86869349195E+00  0.42696196346E+01 -0.78793510631E+01  0.90038021771E+01  0.51100000000E-03 0. -1.
        -11    1    3    3    0    0 -0.83277486887E+01  0.51155777140E+00 -0.71880942194E+00  0.83743523226E+01  0.51100000000E-03 0.  1.
        -12    1    3    3    0    0  0.49781340081E+01 -0.19979151009E+02  0.36519251054E+02  0.41923787887E+02  0.00000000000E+00 0.  1.
</event>
<event>
 7    1  0.6230310E-012  0.5930196E+02  0.7816164E-02  0.1266605E+00
        -11   -1    0    0    0    0  0.00000000000E+00  0.00000000000E+00  0.45593999997E+02  0.45594000000E+02  0.51100000000E-03 0.  1.
         11   -1    0    0    0    0 -0.00000000000E+00 -0.00000000000E+00 -0.45593999997E+02  0.45594000000E+02  0.51100000000E-03 0. -1.
    9900012    2    1    2    0    0  0.25433015240E+02  0.32614843951E+01 -0.18953736884E+02  0.59301957810E+02  0.50000025136E+02 0.  0.
         12    1    1    2    0    0 -0.25433015240E+02 -0.32614843951E+01  0.18953736884E+02  0.31886042190E+02  0.00000000000E+00 0. -1.
         11    1    3    3    0    0  0.10083540775E+02 -0.15489805247E+02 -0.13248248129E+02  0.22740447223E+02  0.51100000000E-03 0. -1.
        -11    1    3    3    0    0 -0.68518953278E+01  0.84707401981E+01 -0.52432045497E+01  0.12091034004E+02  0.51100000000E-03 0.  1.
         12    1    3    3    0    0  0.22201369792E+02  0.10280549444E+02 -0.46228420574E+00  0.24470476583E+02  0.00000000000E+00 0. -1.
</event>
<event>
 7    1  0.6230310E-012  0.5930193E+02  0.7816164E-02  0.1266605E+00
        -11   -1    0    0    0    0  0.00000000000E+00  0.00000000000E+00  0.45593999997E+02  0.45594000000E+02  0.51100000000E-03 0.  1.
         11   -1    0    0    0    0 -0.00000000000E+00 -0.00000000000E+00 -0.45593999997E+02  0.45594000000E+02  0.51100000000E-03 0. -1.
    9900012    2    1    2    0    0  0.13366561813E+02 -0.12398549341E+02  0.26159745807E+02  0.59301932492E+02  0.49999978962E+02 0.  0.
         12    1    1    2    0    0 -0.13366561813E+02  0.12398549341E+02 -0.26159745807E+02  0.31886067508E+02  0.00000000000E+00 0. -1.
         11    1    3    3    0    0  0.71343794333E+01  0.23836708318E+01  0.52288957448E+01  0.91609283101E+01  0.51100000000E-03 0. -1.
        -11    1    3    3    0    0  0.23473529091E+01 -0.68601442180E+01  0.33782611423E+02  0.34551938863E+02  0.51100000000E-03 0.  1.
        -12    1    3    3    0    0  0.38848294702E+01 -0.79220759550E+01 -0.12851761361E+02  0.15589065319E+02  0.00000000000E+00 0.  1.
</event>
<event>
 7    1  0.6230310E-012  0.5930195E+02  0.7816164E-02  0.1266605E+00
        -11   -1    0    0    0    0  0.00000000000E+00  0.00000000000E+00  0.45593999997E+02  0.45594000000E+02  0.51100000000E-03 0.  1.
         11   -1    0    0    0    0 -0.00000000000E+00 -0.00000000000E+00 -0.45593999997E+02  0.45594000000E+02  0.51100000000E-03 0. -1.
    9900012    2    1    2    0    0 -0.10771350596E+02 -0.29969621860E+02 -0.15874770406E+01  0.59301948010E+02  0.50000007263E+02 0.  0.
         12    1    1    2    0    0  0.10771350596E+02  0.29969621860E+02  0.15874770406E+01  0.31886051990E+02  0.00000000000E+00 0. -1.
         11    1    3    3    0    0 -0.28546912362E+01 -0.44479747127E+01 -0.13641432684E+02  0.14629505359E+02  0.51100000000E-03 0. -1.
        -11    1    3    3    0    0 -0.48126512622E+01 -0.33717167173E+02  0.11264298863E+02  0.35873296524E+02  0.51100000000E-03 0.  1.
         12    1    3    3    0    0 -0.31040080980E+01  0.81955200251E+01  0.78965678039E+00  0.87991461281E+01  0.00000000000E+00 0. -1.
</event>
<event>
 7    1  0.6230310E-012  0.5930194E+02  0.7816164E-02  0.1266605E+00
        -11   -1    0    0    0    0  0.00000000000E+00  0.00000000000E+00  0.45593999997E+02  0.45594000000E+02  0.51100000000E-03 0.  1.
         11   -1    0    0    0    0 -0.00000000000E+00 -0.00000000000E+00 -0.45593999997E+02  0.45594000000E+02  0.51100000000E-03 0. -1.
    9900012    2    1    2    0    0  0.30014348849E+02 -0.81349285188E+01  0.70485884430E+01  0.59301940383E+02  0.49999993353E+02 0.  0.
         12    1    1    2    0    0 -0.30014348849E+02  0.81349285188E+01 -0.70485884430E+01  0.31886059617E+02  0.00000000000E+00 0. -1.
         11    1    3    3    0    0  0.11316806133E+02 -0.13331323832E+02 -0.44697817212E+01  0.18049189596E+02  0.51100000000E-03 0. -1.
        -11    1    3    3    0    0  0.42730258799E+01 -0.91784497263E+01  0.17334208401E+02  0.20074298759E+02  0.51100000000E-03 0.  1.
         12    1    3    3    0    0  0.14424516837E+02  0.14374845040E+02 -0.58158382364E+01  0.21178452028E+02  0.00000000000E+00 0. -1.
</event>
<event>
 7    1  0.6883184E-012  0.5930194E+02  0.7816164E-02  0.1266605E+00
        -11   -1    0    0    0    0  0.00000000000E+00  0.00000000000E+00  0.45593999997E+02  0.45594000000E+02  0.51100000000E-03 0. -1.
         11   -1    0    0    0    0 -0.00000000000E+00 -0.00000000000E+00 -0.45593999997E+02  0.45594000000E+02  0.51100000000E-03 0.  1.
    9900012    2    1    2    0    0 -0.22452867827E+02  0.10388148416E+02 -0.20116550766E+02  0.59301944805E+02  0.50000001418E+02 0.  0.
         12    1    1    2    0    0  0.22452867827E+02 -0.10388148416E+02  0.20116550766E+02  0.31886055195E+02  0.00000000000E+00 0. -1.
         11    1    3    3    0    0 -0.15970930852E+02  0.10151396638E+02 -0.11055777622E+01  0.18956365380E+02  0.51100000000E-03 0.  1.
        -11    1    3    3    0    0  0.25797849579E+01  0.10987075025E+02 -0.23094456568E+02  0.25704572209E+02  0.51100000000E-03 0. -1.
         12    1    3    3    0    0 -0.90617219325E+01 -0.10750323247E+02  0.40834835637E+01  0.14641007216E+02  0.00000000000E+00 0. -1.
</event>
<event>
 7    1  0.6230310E-012  0.5930195E+02  0.7816164E-02  0.1266605E+00
        -11   -1    0    0    0    0  0.00000000000E+00  0.00000000000E+00  0.45593999997E+02  0.45594000000E+02  0.51100000000E-03 0.  1.
         11   -1    0    0    0    0 -0.00000000000E+00 -0.00000000000E+00 -0.45593999997E+02  0.45594000000E+02  0.51100000000E-03 0. -1.
    9900012    2    1    2    0    0 -0.31193156256E+02 -0.62236548538E+01  0.22300613393E+01  0.59301952102E+02  0.50000014726E+02 0.  0.
         12    1    1    2    0    0  0.31193156256E+02  0.62236548538E+01 -0.22300613393E+01  0.31886047898E+02  0.00000000000E+00 0. -1.
         11    1    3    3    0    0 -0.35102848699E+01 -0.40203960228E+01  0.62245633996E+01  0.81994435070E+01  0.51100000000E-03 0.  1.
        -11    1    3    3    0    0  0.10690120901E+02 -0.53747624015E+01  0.20113111643E+01  0.12133100536E+02  0.51100000000E-03 0. -1.
        -12    1    3    3    0    0 -0.38372992288E+02  0.31715035705E+01 -0.60058132245E+01  0.38969408059E+02  0.00000000000E+00 0.  1.
</event>
<event>
 7    1  0.6230310E-012  0.5930195E+02  0.7816164E-02  0.1266605E+00
        -11   -1    0    0    0    0  0.00000000000E+00  0.00000000000E+00  0.45593999997E+02  0.45594000000E+02  0.51100000000E-03 0.  1.
         11   -1    0    0    0    0 -0.00000000000E+00 -0.00000000000E+00 -0.45593999997E+02  0.45594000000E+02  0.51100000000E-03 0. -1.
    9900012    2    1    2    0    0  0.19708992776E+02 -0.18493811795E+02  0.16919062425E+02  0.59301950632E+02  0.50000012044E+02 0.  0.
         12    1    1    2    0    0 -0.19708992776E+02  0.18493811795E+02 -0.16919062425E+02  0.31886049368E+02  0.00000000000E+00 0. -1.
         11    1    3    3    0    0  0.13063630286E+02 -0.63479456889E+01 -0.17320429145E+01  0.14627194661E+02  0.51100000000E-03 0. -1.
        -11    1    3    3    0    0  0.10907827381E+02 -0.24622555134E+02  0.92233144259E+01  0.28466128096E+02  0.51100000000E-03 0.  1.
         12    1    3    3    0    0 -0.42624648915E+01  0.12476689028E+02  0.94277909140E+01  0.16208627875E+02  0.00000000000E+00 0. -1.
</event>
<event>
 7    1  0.6230310E-012  0.5930194E+02  0.7816164E-02  0.1266605E+00
        -11   -1    0    0    0    0  0.00000000000E+00  0.00000000000E+00  0.45593999997E+02  0.45594000000E+02  0.51100000000E-03 0.  1.
         11   -1    0    0    0    0 -0.00000000000E+00 -0.00000000000E+00 -0.45593999997E+02  0.45594000000E+02  0.51100000000E-03 0. -1.
    9900012    2    1    2    0    0 -0.77310184086E+01 -0.24748790735E+02  0.18559355563E+02  0.59301937725E+02  0.49999988505E+02 0.  0.
         12    1    1    2    0    0  0.77310184086E+01  0.24748790735E+02 -0.18559355563E+02  0.31886062275E+02  0.00000000000E+00 0. -1.
         11    1    3    3    0    0 -0.63708202620E+00  0.83771539751E+01 -0.53448670476E+01  0.99574186539E+01  0.51100000000E-03 0. -1.
        -11    1    3    3    0    0  0.11798631542E+01  0.84040767281E+00  0.12482797187E+02  0.12566566277E+02  0.51100000000E-03 0.  1.
         12    1    3    3    0    0 -0.82737995366E+01 -0.33966352383E+02  0.11421425423E+02  0.36777952794E+02  0.00000000000E+00 0. -1.
</event>
<event>
 7    1  0.6230310E-012  0.5930193E+02  0.7816164E-02  0.1266605E+00
        -11   -1    0    0    0    0  0.00000000000E+00  0.00000000000E+00  0.45593999997E+02  0.45594000000E+02  0.51100000000E-03 0.  1.
         11   -1    0    0    0    0 -0.00000000000E+00 -0.00000000000E+00 -0.45593999997E+02  0.45594000000E+02  0.51100000000E-03 0. -1.
    9900012    2    1    2    0    0  0.10501827686E+02 -0.19871542637E+02  0.22617578723E+02  0.59301930019E+02  0.49999974452E+02 0.  0.
         12    1    1    2    0    0 -0.10501827686E+02  0.19871542637E+02 -0.22617578723E+02  0.31886069981E+02  0.00000000000E+00 0. -1.
         11    1    3    3    0    0 -0.12530118744E+02 -0.69306429941E+01  0.90041816896E+01  0.16914874408E+02  0.51100000000E-03 0. -1.
        -11    1    3    3    0    0 -0.37523479532E+01 -0.12670313558E+02  0.28400558387E+01  0.13516023019E+02  0.51100000000E-03 0.  1.
         12    1    3    3    0    0  0.26784294384E+02 -0.27058608450E+00  0.10773341195E+02  0.28871032593E+02  0.00000000000E+00 0. -1.
</event>
<event>
 7    1  0.6230310E-012  0.5930161E+02  0.7816164E-02  0.1266606E+00
        -11   -1    0    0    0    0  0.00000000000E+00  0.00000000000E+00  0.45593999997E+02  0.45594000000E+02  0.51100000000E-03 0. -1.
         11   -1    0    0    0    0 -0.00000000000E+00 -0.00000000000E+00 -0.45593999997E+02  0.45594000000E+02  0.51100000000E-03 0.  1.
    9900012    2    1    2    0    0  0.71362239260E+01  0.16850337880E+02 -0.26112874304E+02  0.59301611321E+02  0.49999393218E+02 0.  0.
         12    1    1    2    0    0 -0.71362239260E+01 -0.16850337880E+02  0.26112874304E+02  0.31886388679E+02  0.00000000000E+00 0. -1.
         11    1    3    3    0    0 -0.18718565686E+01  0.22644941768E+02 -0.11768516074E+02  0.25588966480E+02  0.51100000000E-03 0. -1.
        -11    1    3    3    0    0 -0.76071272340E+01 -0.10459934044E+02 -0.37658143752E+01  0.13470707595E+02  0.51100000000E-03 0.  1.
        -12    1    3    3    0    0  0.16615207729E+02  0.46653301555E+01 -0.10578543855E+02  0.20241937245E+02  0.00000000000E+00 0.  1.
</event>
<event>
 7    1  0.6230310E-012  0.5930199E+02  0.7816164E-02  0.1266605E+00
        -11   -1    0    0    0    0  0.00000000000E+00  0.00000000000E+00  0.45593999997E+02  0.45594000000E+02  0.51100000000E-03 0.  1.
         11   -1    0    0    0    0 -0.00000000000E+00 -0.00000000000E+00 -0.45593999997E+02  0.45594000000E+02  0.51100000000E-03 0. -1.
    9900012    2    1    2    0    0 -0.30815200811E+02  0.16571735143E+01 -0.80246445130E+01  0.59301988260E+02  0.50000080670E+02 0.  0.
         12    1    1    2    0    0  0.30815200811E+02 -0.16571735143E+01  0.80246445130E+01  0.31886011740E+02  0.00000000000E+00 0. -1.
         11    1    3    3    0    0  0.71937566587E+01 -0.25811693030E+01 -0.79828154376E+01  0.11051602255E+02  0.51100000000E-03 0. -1.
        -11    1    3    3    0    0 -0.39228823950E+02  0.89152910402E+01 -0.58958186758E+01  0.40658870139E+02  0.51100000000E-03 0.  1.
         12    1    3    3    0    0  0.12198664799E+01 -0.46769482228E+01  0.58539896005E+01  0.75915158665E+01  0.00000000000E+00 0. -1.
</event>
<event>
 7    1  0.6230310E-012  0.5930195E+02  0.7816164E-02  0.1266605E+00
        -11   -1    0    0    0    0  0.00000000000E+00  0.00000000000E+00  0.45593999997E+02  0.45594000000E+02  0.51100000000E-03 0. -1.
         11   -1    0    0    0    0 -0.00000000000E+00 -0.00000000000E+00 -0.45593999997E+02  0.45594000000E+02  0.51100000000E-03 0.  1.
    9900012    2    1    2    0    0 -0.17771011202E+01 -0.29528291676E+02 -0.11901355142E+02  0.59301947376E+02  0.50000006107E+02 0.  0.
         12    1    1    2    0    0  0.17771011202E+01  0.29528291676E+02  0.11901355142E+02  0.31886052624E+02  0.00000000000E+00 0. -1.
         11    1    3    3    0    0 -0.32241575529E+01 -0.10830807759E+02 -0.19955853421E+02  0.22933331085E+02  0.51100000000E-03 0. -1.
        -11    1    3    3    0    0 -0.98174473707E+01 -0.60124881856E+00 -0.53417711347E+01  0.11192778571E+02  0.51100000000E-03 0.  1.
         12    1    3    3    0    0  0.11264503803E+02 -0.18096235099E+02  0.13396269414E+02  0.25175837720E+02  0.00000000000E+00 0. -1.
</event>
<event>
 7    1  0.6230310E-012  0.5930195E+02  0.7816164E-02  0.1266605E+00
        -11   -1    0    0    0    0  0.00000000000E+00  0.00000000000E+00  0.45593999997E+02  0.45594000000E+02  0.51100000000E-03 0.  1.
         11   -1    0    0    0    0 -0.00000000000E+00 -0.00000000000E+00 -0.45593999997E+02  0.45594000000E+02  0.51100000000E-03 0. -1.
    9900012    2    1    2    0    0 -0.48262789951E+01 -0.18242082487E+02  0.25703184291E+02  0.59301949365E+02  0.50000009734E+02 0.  0.
         12    1    1    2    0    0  0.48262789951E+01  0.18242082487E+02 -0.25703184291E+02  0.31886050635E+02  0.00000000000E+00 0. -1.
         11    1    3    3    0    0 -0.11753909338E+02 -0.95583329735E+01 -0.34029354105E+01  0.15527269033E+02  0.51100000000E-03 0. -1.
        -11    1    3    3    0    0  0.12917219497E+02 -0.14893938930E+01 -0.20556037314E+00  0.13004426517E+02  0.51100000000E-03 0.  1.
        -12    1    3    3    0    0 -0.59895891546E+01 -0.71943556208E+01  0.29311680075E+02  0.30770253815E+02  0.00000000000E+00 0.  1.
</event>
<event>
 7    1  0.6230310E-012  0.5930195E+02  0.7816164E-02  0.1266605E+00
        -11   -1    0    0    0    0  0.00000000000E+00  0.00000000000E+00  0.45593999997E+02  0.45594000000E+02  0.51100000000E-03 0.  1.
         11   -1    0    0    0    0 -0.00000000000E+00 -0.00000000000E+00 -0.45593999997E+02  0.45594000000E+02  0.51100000000E-03 0. -1.
    9900012    2    1    2    0    0 -0.48120323843E+00 -0.12202688535E+02  0.29454762952E+02  0.59301949373E+02  0.50000009748E+02 0.  0.
         12    1    1    2    0    0  0.48120323843E+00  0.12202688535E+02 -0.29454762952E+02  0.31886050627E+02  0.00000000000E+00 0. -1.
         11    1    3    3    0    0  0.36882960612E+01  0.27037245188E+01 -0.21860204229E+01  0.50687611562E+01  0.51100000000E-03 0. -1.
        -11    1    3    3    0    0 -0.88536055722E+00 -0.72216053650E+01 -0.96610851087E+01  0.12094296718E+02  0.51100000000E-03 0.  1.
        -12    1    3    3    0    0 -0.32841387424E+01 -0.76848076890E+01  0.41301868484E+02  0.42138891499E+02  0.00000000000E+00 0.  1.
</event>
<event>
 7    1  0.6230310E-012  0.5930198E+02  0.7816164E-02  0.1266605E+00
        -11   -1    0    0    0    0  0.00000000000E+00  0.00000000000E+00  0.45593999997E+02  0.45594000000E+02  0.51100000000E-03 0.  1.
         11   -1    0    0    0    0 -0.00000000000E+00 -0.00000000000E+00 -0.45593999997E+02  0.45594000000E+02  0.51100000000E-03 0. -1.
    9900012    2    1    2    0    0  0.28573824604E+01  0.93438880129E+01  0.30352023976E+02  0.59301980537E+02  0.50000066584E+02 0.  0.
         12    1    1    2    0    0 -0.28573824604E+01 -0.93438880129E+01 -0.30352023976E+02  0.31886019463E+02  0.00000000000E+00 0. -1.
         11    1    3    3    0    0 -0.13673476772E+02 -0.20683805034E+01  0.96435930158E+01  0.16859449916E+02  0.51100000000E-03 0. -1.
        -11    1    3    3    0    0 -0.67623801229E+01  0.11505531502E+02  0.10632146334E+02  0.17063105696E+02  0.51100000000E-03 0.  1.
        -12    1    3    3    0    0  0.23293239355E+02 -0.93262986035E-01  0.10076284627E+02  0.25379424925E+02  0.00000000000E+00 0.  1.
</event>
<event>
 7    1  0.6230310E-012  0.5930195E+02  0.7816164E-02  0.1266605E+00
        -11   -1    0    0    0    0  0.00000000000E+00  0.00000000000E+00  0.45593999997E+02  0.45594000000E+02  0.51100000000E-03 0. -1.
         11   -1    0    0    0    0 -0.00000000000E+00 -0.00000000000E+00 -0.45593999997E+02  0.45594000000E+02  0.51100000000E-03 0.  1.
    9900012    2    1    2    0    0 -0.30328613186E+02  0.51815352490E+01 -0.83694131144E+01  0.59301950367E+02  0.50000011561E+02 0.  0.
         12    1    1    2    0    0  0.30328613186E+02 -0.51815352490E+01  0.83694131144E+01  0.31886049633E+02  0.00000000000E+00 0. -1.
         11    1    3    3    0    0 -0.24195628492E+02  0.83637380687E+01 -0.13299459283E+01  0.25634923620E+02  0.51100000000E-03 0. -1.
        -11    1    3    3    0    0 -0.70705914768E+01  0.12730130651E+02  0.29470452497E+01  0.14857138560E+02  0.51100000000E-03 0.  1.
        -12    1    3    3    0    0  0.93760678199E+00 -0.15912333471E+02 -0.99865124358E+01  0.18809888186E+02  0.00000000000E+00 0.  1.
</event>
<event>
 7    1  0.6230310E-012  0.5930191E+02  0.7816164E-02  0.1266605E+00
        -11   -1    0    0    0    0  0.00000000000E+00  0.00000000000E+00  0.45593999997E+02  0.45594000000E+02  0.51100000000E-03 0. -1.
         11   -1    0    0    0    0 -0.00000000000E+00 -0.00000000000E+00 -0.45593999997E+02  0.45594000000E+02  0.51100000000E-03 0.  1.
    9900012    2    1    2    0    0  0.24147268390E+02 -0.19738990685E+02  0.66335964845E+01  0.59301907008E+02  0.49999932485E+02 0.  0.
         12    1    1    2    0    0 -0.24147268390E+02  0.19738990685E+02 -0.66335964845E+01  0.31886092992E+02  0.00000000000E+00 0. -1.
         11    1    3    3    0    0  0.28982035482E+02 -0.43863680077E+01 -0.49605873676E+01  0.29728875395E+02  0.51100000000E-03 0. -1.
        -11    1    3    3    0    0 -0.40799734605E+00 -0.58952930687E+00 -0.60802814569E+01  0.61224038983E+01  0.51100000000E-03 0.  1.
         12    1    3    3    0    0 -0.44267697454E+01 -0.14763093371E+02  0.17674465309E+02  0.23450627715E+02  0.00000000000E+00 0. -1.
</event>
<event>
 7    1  0.6230310E-012  0.5930214E+02  0.7816164E-02  0.1266604E+00
        -11   -1    0    0    0    0  0.00000000000E+00  0.00000000000E+00  0.45593999997E+02  0.45594000000E+02  0.51100000000E-03 0.  1.
         11   -1    0    0    0    0 -0.00000000000E+00 -0.00000000000E+00 -0.45593999997E+02  0.45594000000E+02  0.51100000000E-03 0. -1.
    9900012    2    1    2    0    0  0.21281586411E+02  0.88581744418E+01  0.22030318242E+02  0.59302139553E+02  0.50000356590E+02 0.  0.
         12    1    1    2    0    0 -0.21281586411E+02 -0.88581744418E+01 -0.22030318242E+02  0.31885860447E+02  0.00000000000E+00 0. -1.
         11    1    3    3    0    0  0.12751310503E+02  0.60353925026E+01  0.12382127568E+02  0.18770694329E+02  0.51100000000E-03 0. -1.
        -11    1    3    3    0    0  0.18187110717E+02 -0.62590231953E+01 -0.58815521664E+01  0.20113155489E+02  0.51100000000E-03 0.  1.
         12    1    3    3    0    0 -0.96568348088E+01  0.90818051344E+01  0.15529742840E+02  0.20418289735E+02  0.00000000000E+00 0. -1.
</event>
<event>
 7    1  0.6230310E-012  0.5930186E+02  0.7816164E-02  0.1266605E+00
        -11   -1    0    0    0    0  0.00000000000E+00  0.00000000000E+00  0.45593999997E+02  0.45594000000E+02  0.51100000000E-03 0.  1.
         11   -1    0    0    0    0 -0.00000000000E+00 -0.00000000000E+00 -0.45593999997E+02  0.45594000000E+02  0.51100000000E-03 0. -1.
    9900012    2    1    2    0    0  0.17410341627E+02 -0.97263588304E+01  0.24879786584E+02  0.59301861442E+02  0.49999849384E+02 0.  0.
         12    1    1    2    0    0 -0.17410341627E+02  0.97263588304E+01 -0.24879786584E+02  0.31886138558E+02  0.00000000000E+00 0. -1.
         11    1    3    3    0    0  0.87221648580E+01  0.73603179184E+01  0.19835235104E+02  0.22884208345E+02  0.51100000000E-03 0. -1.
        -11    1    3    3    0    0 -0.10204639888E+01 -0.34096049084E+01  0.15995454626E+02  0.16386620193E+02  0.51100000000E-03 0.  1.
         12    1    3    3    0    0  0.97086407578E+01 -0.13677071840E+02 -0.10950903147E+02  0.20031032905E+02  0.00000000000E+00 0. -1.
</event>
<event>
 7    1  0.6230310E-012  0.5930194E+02  0.7816164E-02  0.1266605E+00
        -11   -1    0    0    0    0  0.00000000000E+00  0.00000000000E+00  0.45593999997E+02  0.45594000000E+02  0.51100000000E-03 0. -1.
         11   -1    0    0    0    0 -0.00000000000E+00 -0.00000000000E+00 -0.45593999997E+02  0.45594000000E+02  0.51100000000E-03 0.  1.
    9900012    2    1    2    0    0 -0.29816817751E+02 -0.11058186307E+02  0.23226517551E+01  0.59301940093E+02  0.49999992824E+02 0.  0.
         12    1    1    2    0    0  0.29816817751E+02  0.11058186307E+02 -0.23226517551E+01  0.31886059907E+02  0.00000000000E+00 0. -1.
         11    1    3    3    0    0 -0.31495148666E+02 -0.13359797394E+02 -0.99777502465E+01  0.35636835945E+02  0.51100000000E-03 0.  1.
        -11    1    3    3    0    0 -0.20933003940E+01  0.10041124183E+02  0.10856048054E+02  0.14935188683E+02  0.51100000000E-03 0. -1.
        -12    1    3    3    0    0  0.37716313088E+01 -0.77395130966E+01  0.14443539477E+01  0.87299154651E+01  0.00000000000E+00 0.  1.
</event>
<event>
 7    1  0.6230310E-012  0.5930180E+02  0.7816164E-02  0.1266605E+00
        -11   -1    0    0    0    0  0.00000000000E+00  0.00000000000E+00  0.45593999997E+02  0.45594000000E+02  0.51100000000E-03 0. -1.
         11   -1    0    0    0    0 -0.00000000000E+00 -0.00000000000E+00 -0.45593999997E+02  0.45594000000E+02  0.51100000000E-03 0.  1.
    9900012    2    1    2    0    0  0.29626667446E+02 -0.99172550559E+01  0.63748289676E+01  0.59301798970E+02  0.49999735448E+02 0.  0.
         12    1    1    2    0    0 -0.29626667446E+02  0.99172550559E+01 -0.63748289676E+01  0.31886201030E+02  0.00000000000E+00 0. -1.
         11    1    3    3    0    0 -0.55198469457E+01 -0.52021947585E+01  0.52980705366E+01  0.92520858341E+01  0.51100000000E-03 0. -1.
        -11    1    3    3    0    0  0.52281251956E+01  0.13684877131E+02  0.26660723375E+01  0.14890167801E+02  0.51100000000E-03 0.  1.
        -12    1    3    3    0    0  0.29918389196E+02 -0.18399937429E+02 -0.15893139064E+01  0.35159545335E+02  0.00000000000E+00 0.  1.
</event>
<event>
 7    1  0.6230310E-012  0.5930194E+02  0.7816164E-02  0.1266605E+00
        -11   -1    0    0    0    0  0.00000000000E+00  0.00000000000E+00  0.45593999997E+02  0.45594000000E+02  0.51100000000E-03 0.  1.
         11   -1    0    0    0    0 -0.00000000000E+00 -0.00000000000E+00 -0.45593999997E+02  0.45594000000E+02  0.51100000000E-03 0. -1.
    9900012    2    1    2    0    0  0.30284843331E+02 -0.90731202910E+01  0.41506420947E+01  0.59301936003E+02  0.49999985366E+02 0.  0.
         12    1    1    2    0    0 -0.30284843331E+02  0.90731202910E+01 -0.41506420947E+01  0.31886063997E+02  0.00000000000E+00 0. -1.
         11    1    3    3    0    0 -0.19926825738E+01 -0.10952484226E+02 -0.28147663124E+01  0.11482621836E+02  0.51100000000E-03 0. -1.
        -11    1    3    3    0    0 -0.47741248668E+01  0.82820237275E+01 -0.10226895627E+00  0.95600546268E+01  0.51100000000E-03 0.  1.
        -12    1    3    3    0    0  0.37051650771E+02 -0.64026597921E+01  0.70676773635E+01  0.38259259541E+02  0.00000000000E+00 0.  1.
</event>
<event>
 7    1  0.6230310E-012  0.5930192E+02  0.7816164E-02  0.1266605E+00
        -11   -1    0    0    0    0  0.00000000000E+00  0.00000000000E+00  0.45593999997E+02  0.45594000000E+02  0.51100000000E-03 0.  1.
         11   -1    0    0    0    0 -0.00000000000E+00 -0.00000000000E+00 -0.45593999997E+02  0.45594000000E+02  0.51100000000E-03 0. -1.
    9900012    2    1    2    0    0  0.49127208181E+01 -0.31297349808E+02  0.36142871877E+01  0.59301921490E+02  0.49999958897E+02 0.  0.
         12    1    1    2    0    0 -0.49127208181E+01  0.31297349808E+02 -0.36142871877E+01  0.31886078510E+02  0.00000000000E+00 0. -1.
         11    1    3    3    0    0 -0.47326142533E+01  0.42581000037E+01  0.39724033620E+01  0.75039351039E+01  0.51100000000E-03 0. -1.
        -11    1    3    3    0    0  0.16232040969E+02 -0.66968196200E+00 -0.11555909393E+01  0.16286897145E+02  0.51100000000E-03 0.  1.
         12    1    3    3    0    0 -0.65867058974E+01 -0.34885767850E+02  0.79747476496E+00  0.35511089241E+02  0.00000000000E+00 0. -1.
</event>
<event>
 7    1  0.6230310E-012  0.5930194E+02  0.7816164E-02  0.1266605E+00
        -11   -1    0    0    0    0  0.00000000000E+00  0.00000000000E+00  0.45593999997E+02  0.45594000000E+02  0.51100000000E-03 0. -1.
         11   -1    0    0    0    0 -0.00000000000E+00 -0.00000000000E+00 -0.45593999997E+02  0.45594000000E+02  0.51100000000E-03 0.  1.
    9900012    2    1    2    0    0 -0.26342180096E+02  0.14191930518E+02 -0.11018138770E+02  0.59301941510E+02  0.49999995409E+02 0.  0.
         12    1    1    2    0    0  0.26342180096E+02 -0.14191930518E+02  0.11018138770E+02  0.31886058490E+02  0.00000000000E+00 0. -1.
         11    1    3    3    0    0 -0.91153865990E+01 -0.26773019550E+01  0.31425351914E+01  0.10006685080E+02  0.51100000000E-03 0. -1.
        -11    1    3    3    0    0 -0.10496971438E+02  0.21098120784E+02 -0.25965151413E+02  0.35064315168E+02  0.51100000000E-03 0.  1.
         12    1    3    3    0    0 -0.67298220593E+01 -0.42288883113E+01  0.11804477452E+02  0.14230941262E+02  0.00000000000E+00 0. -1.
</event>
<event>
 7    1  0.6230310E-012  0.5930195E+02  0.7816164E-02  0.1266605E+00
        -11   -1    0    0    0    0  0.00000000000E+00  0.00000000000E+00  0.45593999997E+02  0.45594000000E+02  0.51100000000E-03 0.  1.
         11   -1    0    0    0    0 -0.00000000000E+00 -0.00000000000E+00 -0.45593999997E+02  0.45594000000E+02  0.51100000000E-03 0. -1.
    9900012    2    1    2    0    0  0.10534483009E+02  0.29885516139E+02  0.35497729915E+01  0.59301948262E+02  0.50000007723E+02 0.  0.
         12    1    1    2    0    0 -0.10534483009E+02 -0.29885516139E+02 -0.35497729915E+01  0.31886051738E+02  0.00000000000E+00 0. -1.
         11    1    3    3    0    0  0.19921511193E+02  0.12748328426E+02  0.18039255487E+02  0.29745608493E+02  0.51100000000E-03 0. -1.
        -11    1    3    3    0    0 -0.24367364513E+01 -0.23370790961E+00  0.30500367494E+01  0.39108858784E+01  0.51100000000E-03 0.  1.
         12    1    3    3    0    0 -0.69502917321E+01  0.17370895623E+02 -0.17539519245E+02  0.25645453890E+02  0.00000000000E+00 0. -1.
</event>
<event>
 7    1  0.6230310E-012  0.5930193E+02  0.7816164E-02  0.1266605E+00
        -11   -1    0    0    0    0  0.00000000000E+00  0.00000000000E+00  0.45593999997E+02  0.45594000000E+02  0.51100000000E-03 0. -1.
         11   -1    0    0    0    0 -0.00000000000E+00 -0.00000000000E+00 -0.45593999997E+02  0.45594000000E+02  0.51100000000E-03 0.  1.
    9900012    2    1    2    0    0 -0.23556902045E+02  0.22760845136E+01 -0.21368504642E+02  0.59301934308E+02  0.49999982274E+02 0.  0.
         12    1    1    2    0    0  0.23556902045E+02 -0.22760845136E+01  0.21368504642E+02  0.31886065692E+02  0.00000000000E+00 0. -1.
         11    1    3    3    0    0  0.17602115561E+01 -0.12129377403E+02 -0.24209507187E+00  0.12258823402E+02  0.51100000000E-03 0.  1.
        -11    1    3    3    0    0  0.50079608022E+01  0.43715403269E+00 -0.11095776983E+02  0.12181422009E+02  0.51100000000E-03 0. -1.
        -12    1    3    3    0    0 -0.30325074403E+02  0.13968307884E+02 -0.10030632587E+02  0.34861688898E+02  0.00000000000E+00 0.  1.
</event>
<event>
 7    1  0.6230310E-012  0.5930201E+02  0.7816164E-02  0.1266605E+00
        -11   -1    0    0    0    0  0.00000000000E+00  0.00000000000E+00  0.45593999997E+02  0.45594000000E+02  0.51100000000E-03 0. -1.
         11   -1    0    0    0    0 -0.00000000000E+00 -0.00000000000E+00 -0.45593999997E+02  0.45594000000E+02  0.51100000000E-03 0.  1.
    9900012    2    1    2    0    0  0.31627000701E+02  0.19909413478E+01 -0.35334617695E+01  0.59302009771E+02  0.50000119899E+02 0.  0.
         12    1    1    2    0    0 -0.31627000701E+02 -0.19909413478E+01  0.35334617695E+01  0.31885990229E+02  0.00000000000E+00 0. -1.
         11    1    3    3    0    0  0.83642331310E+00  0.21734449872E+02 -0.19101072293E+01  0.21834248901E+02  0.51100000000E-03 0. -1.
        -11    1    3    3    0    0  0.27955266593E+01 -0.51555115869E+01 -0.26476282423E+00  0.58706361359E+01  0.51100000000E-03 0.  1.
        -12    1    3    3    0    0  0.27995050729E+02 -0.14587996937E+02 -0.13585917160E+01  0.31597124733E+02  0.00000000000E+00 0.  1.
</event>
<event>
 7    1  0.6230310E-012  0.5930195E+02  0.7816164E-02  0.1266605E+00
        -11   -1    0    0    0    0  0.00000000000E+00  0.00000000000E+00  0.45593999997E+02  0.45594000000E+02  0.51100000000E-03 0. -1.
         11   -1    0    0    0    0 -0.00000000000E+00 -0.00000000000E+00 -0.45593999997E+02  0.45594000000E+02  0.51100000000E-03 0.  1.
    9900012    2    1    2    0    0  0.21992555141E+02  0.42353621408E+01 -0.22696020071E+02  0.59301951309E+02  0.50000013279E+02 0.  0.
         12    1    1    2    0    0 -0.21992555141E+02 -0.42353621408E+01  0.22696020071E+02  0.31886048691E+02  0.00000000000E+00 0. -1.
         11    1    3    3    0    0  0.80057376355E+01 -0.22587177484E+01  0.81189653442E+01  0.11623736038E+02  0.51100000000E-03 0. -1.
        -11    1    3    3    0    0  0.73122219675E+01  0.11416080501E+01  0.62202139970E+01  0.96676223277E+01  0.51100000000E-03 0.  1.
        -12    1    3    3    0    0  0.66745955378E+01  0.53524718391E+01 -0.37035199412E+02  0.38010592943E+02  0.00000000000E+00 0.  1.
</event>
<event>
 7    1  0.6230310E-012  0.5930192E+02  0.7816164E-02  0.1266605E+00
        -11   -1    0    0    0    0  0.00000000000E+00  0.00000000000E+00  0.45593999997E+02  0.45594000000E+02  0.51100000000E-03 0. -1.
         11   -1    0    0    0    0 -0.00000000000E+00 -0.00000000000E+00 -0.45593999997E+02  0.45594000000E+02  0.51100000000E-03 0.  1.
    9900012    2    1    2    0    0  0.30216313785E+02 -0.97871736772E+01 -0.28120244593E+01  0.59301923589E+02  0.49999962724E+02 0.  0.
         12    1    1    2    0    0 -0.30216313785E+02  0.97871736772E+01  0.28120244593E+01  0.31886076411E+02  0.00000000000E+00 0. -1.
         11    1    3    3    0    0  0.15032269741E+02  0.67781719342E+00 -0.83627943190E+01  0.17215251924E+02  0.51100000000E-03 0.  1.
        -11    1    3    3    0    0 -0.57881192720E+01  0.10403138343E+02  0.35974703571E+01  0.12436615510E+02  0.51100000000E-03 0. -1.
         12    1    3    3    0    0  0.20972163316E+02 -0.20868129214E+02  0.19532995025E+01  0.29650056155E+02  0.00000000000E+00 0. -1.
</event>
<event>
 7    1  0.6230310E-012  0.5930195E+02  0.7816164E-02  0.1266605E+00
        -11   -1    0    0    0    0  0.00000000000E+00  0.00000000000E+00  0.45593999997E+02  0.45594000000E+02  0.51100000000E-03 0.  1.
         11   -1    0    0    0    0 -0.00000000000E+00 -0.00000000000E+00 -0.45593999997E+02  0.45594000000E+02  0.51100000000E-03 0. -1.
    9900012    2    1    2    0    0 -0.79625949980E+01  0.11054972849E+02  0.28828887196E+02  0.59301951628E+02  0.50000013862E+02 0.  0.
         12    1    1    2    0    0  0.79625949980E+01 -0.11054972849E+02 -0.28828887196E+02  0.31886048372E+02  0.00000000000E+00 0. -1.
         11    1    3    3    0    0 -0.79938286874E+00  0.61647789824E+01  0.96933349627E+01  0.11515392127E+02  0.51100000000E-03 0. -1.
        -11    1    3    3    0    0 -0.20043076277E+02  0.11537951519E+02  0.23174591671E+02  0.32740050875E+02  0.51100000000E-03 0.  1.
        -12    1    3    3    0    0  0.12879864148E+02 -0.66477576530E+01 -0.40390394372E+01  0.15046508627E+02  0.00000000000E+00 0.  1.
</event>
<event>
 7    1  0.6230310E-012  0.5930194E+02  0.7816164E-02  0.1266605E+00
        -11   -1    0    0    0    0  0.00000000000E+00  0.00000000000E+00  0.45593999997E+02  0.45594000000E+02  0.51100000000E-03 0.  1.
         11   -1    0    0    0    0 -0.00000000000E+00 -0.00000000000E+00 -0.45593999997E+02  0.45594000000E+02  0.51100000000E-03 0. -1.
    9900012    2    1    2    0    0  0.94629686862E+01  0.82691199774E+01  0.29305197684E+02  0.59301941403E+02  0.49999995213E+02 0.  0.
         12    1    1    2    0    0 -0.94629686862E+01 -0.82691199774E+01 -0.29305197684E+02  0.31886058597E+02  0.00000000000E+00 0. -1.
         11    1    3    3    0    0 -0.13162020873E+02  0.23639269697E+01  0.10377388758E+02  0.16926817240E+02  0.51100000000E-03 0. -1.
        -11    1    3    3    0    0  0.13455496355E+02 -0.11083660043E+02  0.37837944433E+01  0.17838581859E+02  0.51100000000E-03 0.  1.
         12    1    3    3    0    0  0.91694932036E+01  0.16988853050E+02  0.15144014482E+02  0.24536542304E+02  0.00000000000E+00 0. -1.
</event>
<event>
 7    1  0.6230310E-012  0.5930202E+02  0.7816164E-02  0.1266605E+00
        -11   -1    0    0    0    0  0.00000000000E+00  0.00000000000E+00  0.45593999997E+02  0.45594000000E+02  0.51100000000E-03 0.  1.
         11   -1    0    0    0    0 -0.00000000000E+00 -0.00000000000E+00 -0.45593999997E+02  0.45594000000E+02  0.51100000000E-03 0. -1.
    9900012    2    1    2    0    0 -0.90620742935E+00 -0.22355691003E+02  0.22718227312E+02  0.59302015864E+02  0.50000131012E+02 0.  0.
         12    1    1    2    0    0  0.90620742935E+00  0.22355691003E+02 -0.22718227312E+02  0.31885984136E+02  0.00000000000E+00 0. -1.
         11    1    3    3    0    0 -0.19773113608E+02 -0.25552136665E+02  0.16814908225E+02  0.36422916533E+02  0.51100000000E-03 0. -1.
        -11    1    3    3    0    0  0.11355145542E+02 -0.14706198479E+01  0.77742413360E+01  0.13839829538E+02  0.51100000000E-03 0.  1.
        -12    1    3    3    0    0  0.75117606363E+01  0.46670655103E+01 -0.18709222485E+01  0.90392697932E+01  0.00000000000E+00 0.  1.
</event>
<event>
 7    1  0.6230310E-012  0.5930194E+02  0.7816164E-02  0.1266605E+00
        -11   -1    0    0    0    0  0.00000000000E+00  0.00000000000E+00  0.45593999997E+02  0.45594000000E+02  0.51100000000E-03 0. -1.
         11   -1    0    0    0    0 -0.00000000000E+00 -0.00000000000E+00 -0.45593999997E+02  0.45594000000E+02  0.51100000000E-03 0.  1.
    9900012    2    1    2    0    0  0.14190865236E+02  0.28477200868E+02 -0.20951111588E+01  0.59301935392E+02  0.49999984251E+02 0.  0.
         12    1    1    2    0    0 -0.14190865236E+02 -0.28477200868E+02  0.20951111588E+01  0.31886064608E+02  0.00000000000E+00 0. -1.
         11    1    3    3    0    0 -0.57662564872E+01  0.24134750541E+02  0.11825570957E+02  0.27487815961E+02  0.51100000000E-03 0. -1.
        -11    1    3    3    0    0 -0.21605502236E+01 -0.96624370862E+00 -0.79540602814E+01  0.82987155268E+01  0.51100000000E-03 0.  1.
        -12    1    3    3    0    0  0.22117671947E+02  0.53086940350E+01 -0.59666218348E+01  0.23515403905E+02  0.00000000000E+00 0.  1.
</event>
<event>
 7    1  0.6230310E-012  0.5930194E+02  0.7816164E-02  0.1266605E+00
        -11   -1    0    0    0    0  0.00000000000E+00  0.00000000000E+00  0.45593999997E+02  0.45594000000E+02  0.51100000000E-03 0. -1.
         11   -1    0    0    0    0 -0.00000000000E+00 -0.00000000000E+00 -0.45593999997E+02  0.45594000000E+02  0.51100000000E-03 0.  1.
    9900012    2    1    2    0    0  0.17769978777E+02  0.20174649429E+02 -0.17144458497E+02  0.59301935921E+02  0.49999985215E+02 0.  0.
         12    1    1    2    0    0 -0.17769978777E+02 -0.20174649429E+02  0.17144458497E+02  0.31886064079E+02  0.00000000000E+00 0. -1.
         11    1    3    3    0    0  0.11094988085E+02 -0.88894646993E+01  0.82428359991E+00  0.14240814126E+02  0.51100000000E-03 0. -1.
        -11    1    3    3    0    0 -0.10452980454E+02  0.67617643899E+01 -0.96026904571E+01  0.15722529132E+02  0.51100000000E-03 0.  1.
        -12    1    3    3    0    0  0.17127971146E+02  0.22302349738E+02 -0.83660516399E+01  0.29338592663E+02  0.00000000000E+00 0.  1.
</event>
<event>
 7    1  0.6230310E-012  0.5930203E+02  0.7816164E-02  0.1266604E+00
        -11   -1    0    0    0    0  0.00000000000E+00  0.00000000000E+00  0.45593999997E+02  0.45594000000E+02  0.51100000000E-03 0.  1.
         11   -1    0    0    0    0 -0.00000000000E+00 -0.00000000000E+00 -0.45593999997E+02  0.45594000000E+02  0.51100000000E-03 0. -1.
    9900012    2    1    2    0    0 -0.21596769122E+02  0.25088546910E+01  0.23323820488E+02  0.59302025175E+02  0.50000147993E+02 0.  0.
         12    1    1    2    0    0  0.21596769122E+02 -0.25088546910E+01 -0.23323820488E+02  0.31885974825E+02  0.00000000000E+00 0. -1.
         11    1    3    3    0    0 -0.11706124945E+02  0.20943658088E+01 -0.34497178936E+01  0.12382256789E+02  0.51100000000E-03 0. -1.
        -11    1    3    3    0    0 -0.12952187766E+02 -0.96648221573E+01 -0.19949207087E+01  0.16283355433E+02  0.51100000000E-03 0.  1.
        -12    1    3    3    0    0  0.30615435895E+01  0.10079311039E+02  0.28768459091E+02  0.30636412953E+02  0.00000000000E+00 0.  1.
</event>
<event>
 7    1  0.6230310E-012  0.5930195E+02  0.7816164E-02  0.1266605E+00
        -11   -1    0    0    0    0  0.00000000000E+00  0.00000000000E+00  0.45593999997E+02  0.45594000000E+02  0.51100000000E-03 0. -1.
         11   -1    0    0    0    0 -0.00000000000E+00 -0.00000000000E+00 -0.45593999997E+02  0.45594000000E+02  0.51100000000E-03 0.  1.
    9900012    2    1    2    0    0 -0.61591435512E+01 -0.12783488343E+02 -0.28554646687E+02  0.59301945510E+02  0.50000002703E+02 0.  0.
         12    1    1    2    0    0  0.61591435512E+01  0.12783488343E+02  0.28554646687E+02  0.31886054490E+02  0.00000000000E+00 0. -1.
         11    1    3    3    0    0  0.70114013947E+01 -0.57394318123E+01 -0.36767635885E+01  0.97785181798E+01  0.51100000000E-03 0. -1.
        -11    1    3    3    0    0  0.26653375745E+01 -0.15427871310E+02 -0.27271400612E+02  0.31446025649E+02  0.51100000000E-03 0.  1.
         12    1    3    3    0    0 -0.15835882520E+02  0.83838147790E+01  0.23935175131E+01  0.18077401681E+02  0.00000000000E+00 0. -1.
</event>
<event>
 7    1  0.6230310E-012  0.5930200E+02  0.7816164E-02  0.1266605E+00
        -11   -1    0    0    0    0  0.00000000000E+00  0.00000000000E+00  0.45593999997E+02  0.45594000000E+02  0.51100000000E-03 0.  1.
         11   -1    0    0    0    0 -0.00000000000E+00 -0.00000000000E+00 -0.45593999997E+02  0.45594000000E+02  0.51100000000E-03 0. -1.
    9900012    2    1    2    0    0 -0.25244762722E+02 -0.25090230944E+01  0.19316415061E+02  0.59301997858E+02  0.50000098173E+02 0.  0.
         12    1    1    2    0    0  0.25244762722E+02  0.25090230944E+01 -0.19316415061E+02  0.31886002142E+02  0.00000000000E+00 0. -1.
         11    1    3    3    0    0 -0.21448600210E+02 -0.13442055979E+02  0.12527971801E+01  0.25343654452E+02  0.51100000000E-03 0.  1.
        -11    1    3    3    0    0 -0.14628909739E+02  0.10270952740E+02  0.10508918160E+02  0.20734869942E+02  0.51100000000E-03 0. -1.
         12    1    3    3    0    0  0.10832747227E+02  0.66208014498E+00  0.75546997208E+01  0.13223473464E+02  0.00000000000E+00 0. -1.
</event>
<event>
 7    1  0.6230310E-012  0.5930197E+02  0.7816164E-02  0.1266605E+00
        -11   -1    0    0    0    0  0.00000000000E+00  0.00000000000E+00  0.45593999997E+02  0.45594000000E+02  0.51100000000E-03 0.  1.
         11   -1    0    0    0    0 -0.00000000000E+00 -0.00000000000E+00 -0.45593999997E+02  0.45594000000E+02  0.51100000000E-03 0. -1.
    9900012    2    1    2    0    0 -0.54437115940E+01  0.31039291563E+02  0.48628610330E+01  0.59301968041E+02  0.50000043795E+02 0.  0.
         12    1    1    2    0    0  0.54437115940E+01 -0.31039291563E+02 -0.48628610330E+01  0.31886031959E+02  0.00000000000E+00 0. -1.
         11    1    3    3    0    0 -0.33686407769E+01  0.54869209663E+01 -0.95781366114E+01  0.11541002711E+02  0.51100000000E-03 0. -1.
        -11    1    3    3    0    0  0.15402853613E+02  0.11863853754E+02 -0.28123881343E+01  0.19644552746E+02  0.51100000000E-03 0.  1.
         12    1    3    3    0    0 -0.17477924431E+02  0.13688516843E+02  0.17253385779E+02  0.28116412584E+02  0.00000000000E+00 0. -1.
</event>
<event>
 7    1  0.6230310E-012  0.5930196E+02  0.7816164E-02  0.1266605E+00
        -11   -1    0    0    0    0  0.00000000000E+00  0.00000000000E+00  0.45593999997E+02  0.45594000000E+02  0.51100000000E-03 0.  1.
         11   -1    0    0    0    0 -0.00000000000E+00 -0.00000000000E+00 -0.45593999997E+02  0.45594000000E+02  0.51100000000E-03 0. -1.
    9900012    2    1    2    0    0 -0.15408175700E+02 -0.16396329961E+02  0.22593545833E+02  0.59301955593E+02  0.50000021093E+02 0.  0.
         12    1    1    2    0    0  0.15408175700E+02  0.16396329961E+02 -0.22593545833E+02  0.31886044407E+02  0.00000000000E+00 0. -1.
         11    1    3    3    0    0 -0.81433748767E+00  0.56685677325E+01 -0.11570578495E+01  0.58424813915E+01  0.51100000000E-03 0. -1.
        -11    1    3    3    0    0  0.55447913817E+01  0.69965041363E+01  0.14305518110E+02  0.16862491817E+02  0.51100000000E-03 0.  1.
         12    1    3    3    0    0 -0.20138629594E+02 -0.29061401830E+02  0.94450855722E+01  0.36596982385E+02  0.00000000000E+00 0. -1.
</event>
<event>
 7    1  0.6230310E-012  0.5930215E+02  0.7816164E-02  0.1266604E+00
        -11   -1    0    0    0    0  0.00000000000E+00  0.00000000000E+00  0.45593999997E+02  0.45594000000E+02  0.51100000000E-03 0. -1.
         11   -1    0    0    0    0 -0.00000000000E+00 -0.00000000000E+00 -0.45593999997E+02  0.45594000000E+02  0.51100000000E-03 0.  1.
    9900012    2    1    2    0    0  0.22643941835E+02  0.19761526335E+02 -0.10650900763E+02  0.59302145582E+02  0.50000367585E+02 0.  0.
         12    1    1    2    0    0 -0.22643941835E+02 -0.19761526335E+02  0.10650900763E+02  0.31885854418E+02  0.00000000000E+00 0. -1.
         11    1    3    3    0    0 -0.75825401472E+01  0.10808185746E+01 -0.14861835148E+02  0.16719366857E+02  0.51100000000E-03 0. -1.
        -11    1    3    3    0    0 -0.18903867241E+00  0.81093762013E+01 -0.44311325895E+01  0.92429786476E+01  0.51100000000E-03 0.  1.
         12    1    3    3    0    0  0.30415520654E+02  0.10571331559E+02  0.86420669746E+01  0.33339800078E+02  0.00000000000E+00 0. -1.
</event>
<event>
 7    1  0.6230310E-012  0.5930195E+02  0.7816164E-02  0.1266605E+00
        -11   -1    0    0    0    0  0.00000000000E+00  0.00000000000E+00  0.45593999997E+02  0.45594000000E+02  0.51100000000E-03 0. -1.
         11   -1    0    0    0    0 -0.00000000000E+00 -0.00000000000E+00 -0.45593999997E+02  0.45594000000E+02  0.51100000000E-03 0.  1.
    9900012    2    1    2    0    0  0.11772359987E+02 -0.21357525372E+02 -0.20542335076E+02  0.59301954776E+02  0.50000019602E+02 0.  0.
         12    1    1    2    0    0 -0.11772359987E+02  0.21357525372E+02  0.20542335076E+02  0.31886045224E+02  0.00000000000E+00 0. -1.
         11    1    3    3    0    0 -0.44889189603E+01 -0.83521459422E+00 -0.43000540907E+01  0.62720365349E+01  0.51100000000E-03 0. -1.
        -11    1    3    3    0    0  0.33172210829E+01  0.11855846852E+02 -0.13165367566E+02  0.18024759740E+02  0.51100000000E-03 0.  1.
        -12    1    3    3    0    0  0.12944057864E+02 -0.32378157629E+02 -0.30769134188E+01  0.35005158501E+02  0.00000000000E+00 0.  1.
</event>
<event>
 7    1  0.6230310E-012  0.5930195E+02  0.7816164E-02  0.1266605E+00
        -11   -1    0    0    0    0  0.00000000000E+00  0.00000000000E+00  0.45593999997E+02  0.45594000000E+02  0.51100000000E-03 0.  1.
         11   -1    0    0    0    0 -0.00000000000E+00 -0.00000000000E+00 -0.45593999997E+02  0.45594000000E+02  0.51100000000E-03 0. -1.
    9900012    2    1    2    0    0 -0.42821522583E+01 -0.20908575717E+02  0.23689969737E+02  0.59301952383E+02  0.50000015239E+02 0.  0.
         12    1    1    2    0    0  0.42821522583E+01  0.20908575717E+02 -0.23689969737E+02  0.31886047617E+02  0.00000000000E+00 0. -1.
         11    1    3    3    0    0  0.28951351939E+01 -0.24005444565E+02 -0.34160232416E+00  0.24181808638E+02  0.51100000000E-03 0. -1.
        -11    1    3    3    0    0 -0.71355927701E+01 -0.82524458715E+01  0.20520136569E+02  0.23239955941E+02  0.51100000000E-03 0.  1.
        -12    1    3    3    0    0 -0.41694682103E-01  0.11349314720E+02  0.35114354919E+01  0.11880187805E+02  0.00000000000E+00 0.  1.
</event>
<event>
 7    1  0.6230310E-012  0.5930195E+02  0.7816164E-02  0.1266605E+00
        -11   -1    0    0    0    0  0.00000000000E+00  0.00000000000E+00  0.45593999997E+02  0.45594000000E+02  0.51100000000E-03 0. -1.
         11   -1    0    0    0    0 -0.00000000000E+00 -0.00000000000E+00 -0.45593999997E+02  0.45594000000E+02  0.51100000000E-03 0.  1.
    9900012    2    1    2    0    0  0.45191409891E+01 -0.31494303789E+02  0.20991822278E+01  0.59301947054E+02  0.50000005520E+02 0.  0.
         12    1    1    2    0    0 -0.45191409891E+01  0.31494303789E+02 -0.20991822278E+01  0.31886052946E+02  0.00000000000E+00 0. -1.
         11    1    3    3    0    0 -0.84353187421E+01  0.62196410487E+01  0.25648597981E+01  0.10789672984E+02  0.51100000000E-03 0. -1.
        -11    1    3    3    0    0 -0.87586572017E+01 -0.11650658757E+02  0.34511759200E+00  0.14579815907E+02  0.51100000000E-03 0.  1.
         12    1    3    3    0    0  0.21713116933E+02 -0.26063286080E+02 -0.81079516228E+00  0.33932458164E+02  0.00000000000E+00 0. -1.
</event>
<event>
 7    1  0.6230310E-012  0.5930194E+02  0.7816164E-02  0.1266605E+00
        -11   -1    0    0    0    0  0.00000000000E+00  0.00000000000E+00  0.45593999997E+02  0.45594000000E+02  0.51100000000E-03 0.  1.
         11   -1    0    0    0    0 -0.00000000000E+00 -0.00000000000E+00 -0.45593999997E+02  0.45594000000E+02  0.51100000000E-03 0. -1.
    9900012    2    1    2    0    0 -0.65725059882E+01  0.57274156102E+00  0.31196075676E+02  0.59301937129E+02  0.49999987418E+02 0.  0.
         12    1    1    2    0    0  0.65725059882E+01 -0.57274156102E+00 -0.31196075676E+02  0.31886062871E+02  0.00000000000E+00 0. -1.
         11    1    3    3    0    0 -0.14213026311E+02  0.53729135740E+01  0.19679811642E+02  0.24863091194E+02  0.51100000000E-03 0.  1.
        -11    1    3    3    0    0 -0.63881337818E+01  0.55365909938E+00 -0.77202380778E+01  0.10035779384E+02  0.51100000000E-03 0. -1.
        -12    1    3    3    0    0  0.14028654105E+02 -0.53538311124E+01  0.19236502111E+02  0.24403066550E+02  0.00000000000E+00 0.  1.
</event>
<event>
 7    1  0.6230310E-012  0.5930195E+02  0.7816164E-02  0.1266605E+00
        -11   -1    0    0    0    0  0.00000000000E+00  0.00000000000E+00  0.45593999997E+02  0.45594000000E+02  0.51100000000E-03 0.  1.
         11   -1    0    0    0    0 -0.00000000000E+00 -0.00000000000E+00 -0.45593999997E+02  0.45594000000E+02  0.51100000000E-03 0. -1.
    9900012    2    1    2    0    0  0.13371686402E+02  0.14285871575E+01  0.28911539805E+02  0.59301953014E+02  0.50000016389E+02 0.  0.
         12    1    1    2    0    0 -0.13371686402E+02 -0.14285871575E+01 -0.28911539805E+02  0.31886046986E+02  0.00000000000E+00 0. -1.
         11    1    3    3    0    0  0.74378639943E+01  0.52263884451E+01 -0.10521452026E+01  0.91511729721E+01  0.51100000000E-03 0. -1.
        -11    1    3    3    0    0 -0.14202208408E+02  0.65457124185E+01  0.20076973644E+02  0.25448653121E+02  0.51100000000E-03 0.  1.
         12    1    3    3    0    0  0.20136030816E+02 -0.10343513706E+02  0.98867113637E+01  0.24702126921E+02  0.00000000000E+00 0. -1.
</event>
<event>
 7    1  0.6230310E-012  0.5930195E+02  0.7816164E-02  0.1266605E+00
        -11   -1    0    0    0    0  0.00000000000E+00  0.00000000000E+00  0.45593999997E+02  0.45594000000E+02  0.51100000000E-03 0.  1.
         11   -1    0    0    0    0 -0.00000000000E+00 -0.00000000000E+00 -0.45593999997E+02  0.45594000000E+02  0.51100000000E-03 0. -1.
    9900012    2    1    2    0    0  0.76892924474E+01 -0.14254428325E+02  0.27466459620E+02  0.59301947418E+02  0.50000006183E+02 0.  0.
         12    1    1    2    0    0 -0.76892924474E+01  0.14254428325E+02 -0.27466459620E+02  0.31886052582E+02  0.00000000000E+00 0. -1.
         11    1    3    3    0    0  0.18234612019E+01 -0.13866702003E+02 -0.29183062384E+01  0.14287300192E+02  0.51100000000E-03 0. -1.
        -11    1    3    3    0    0  0.43240252073E+00 -0.16323497782E+02  0.13765125687E+02  0.21357018453E+02  0.51100000000E-03 0.  1.
         12    1    3    3    0    0  0.54334287247E+01  0.15935771460E+02  0.16619640172E+02  0.23657628773E+02  0.00000000000E+00 0. -1.
</event>
<event>
 7    1  0.6230310E-012  0.5930194E+02  0.7816164E-02  0.1266605E+00
        -11   -1    0    0    0    0  0.00000000000E+00  0.00000000000E+00  0.45593999997E+02  0.45594000000E+02  0.51100000000E-03 0.  1.
         11   -1    0    0    0    0 -0.00000000000E+00 -0.00000000000E+00 -0.45593999997E+02  0.45594000000E+02  0.51100000000E-03 0. -1.
    9900012    2    1    2    0    0 -0.26064280046E+02  0.18317039295E+02  0.13638128273E+01  0.59301943357E+02  0.49999998776E+02 0.  0.
         12    1    1    2    0    0  0.26064280046E+02 -0.18317039295E+02 -0.13638128273E+01  0.31886056643E+02  0.00000000000E+00 0. -1.
         11    1    3    3    0    0  0.34863027652E+01  0.12129007588E+02 -0.16766157611E+02  0.20985022595E+02  0.51100000000E-03 0. -1.
        -11    1    3    3    0    0 -0.22544076409E+01  0.59982605931E+01  0.42956859090E+01  0.77145577737E+01  0.51100000000E-03 0.  1.
         12    1    3    3    0    0 -0.27296175170E+02  0.18977111456E+00  0.13834284529E+02  0.30602362987E+02  0.00000000000E+00 0. -1.
</event>
<event>
 7    1  0.6230310E-012  0.5930194E+02  0.7816164E-02  0.1266605E+00
        -11   -1    0    0    0    0  0.00000000000E+00  0.00000000000E+00  0.45593999997E+02  0.45594000000E+02  0.51100000000E-03 0.  1.
         11   -1    0    0    0    0 -0.00000000000E+00 -0.00000000000E+00 -0.45593999997E+02  0.45594000000E+02  0.51100000000E-03 0. -1.
    9900012    2    1    2    0    0 -0.17797031780E+02 -0.25940398246E+02  0.52040824573E+01  0.59301936029E+02  0.49999985412E+02 0.  0.
         12    1    1    2    0    0  0.17797031780E+02  0.25940398246E+02 -0.52040824573E+01  0.31886063971E+02  0.00000000000E+00 0. -1.
         11    1    3    3    0    0 -0.43571137213E+01 -0.54280289716E+01 -0.67061297971E+01  0.96654081970E+01  0.51100000000E-03 0. -1.
        -11    1    3    3    0    0  0.33062941536E+01 -0.22761905235E+02 -0.72251879870E+01  0.24108904012E+02  0.51100000000E-03 0.  1.
         12    1    3    3    0    0 -0.16746212212E+02  0.22495359608E+01  0.19135400241E+02  0.25527623820E+02  0.00000000000E+00 0. -1.
</event>
<event>
 7    1  0.6230310E-012  0.5930189E+02  0.7816164E-02  0.1266605E+00
        -11   -1    0    0    0    0  0.00000000000E+00  0.00000000000E+00  0.45593999997E+02  0.45594000000E+02  0.51100000000E-03 0. -1.
         11   -1    0    0    0    0 -0.00000000000E+00 -0.00000000000E+00 -0.45593999997E+02  0.45594000000E+02  0.51100000000E-03 0.  1.
    9900012    2    1    2    0    0 -0.30364493535E+01  0.28912488241E+02 -0.13098560293E+02  0.59301885738E+02  0.49999893693E+02 0.  0.
         12    1    1    2    0    0  0.30364493535E+01 -0.28912488241E+02  0.13098560293E+02  0.31886114262E+02  0.00000000000E+00 0. -1.
         11    1    3    3    0    0  0.12681995901E+02  0.31601847412E+02  0.18721883736E+00  0.34052089966E+02  0.51100000000E-03 0.  1.
        -11    1    3    3    0    0 -0.34724506185E+01 -0.38224820282E+01  0.20809265286E+01  0.55677228409E+01  0.51100000000E-03 0. -1.
        -12    1    3    3    0    0 -0.12245994636E+02  0.11331228578E+01 -0.15366705659E+02  0.19682072931E+02  0.00000000000E+00 0.  1.
</event>
<event>
 7    1  0.6230310E-012  0.5930196E+02  0.7816164E-02  0.1266605E+00
        -11   -1    0    0    0    0  0.00000000000E+00  0.00000000000E+00  0.45593999997E+02  0.45594000000E+02  0.51100000000E-03 0. -1.
         11   -1    0    0    0    0 -0.00000000000E+00 -0.00000000000E+00 -0.45593999997E+02  0.45594000000E+02  0.51100000000E-03 0.  1.
    9900012    2    1    2    0    0  0.18521595154E+02  0.33679427378E+01 -0.25735712201E+02  0.59301962180E+02  0.50000033106E+02 0.  0.
         12    1    1    2    0    0 -0.18521595154E+02 -0.33679427378E+01  0.25735712201E+02  0.31886037820E+02  0.00000000000E+00 0. -1.
         11    1    3    3    0    0  0.14184908815E+01  0.13934483650E+01 -0.91985600548E+01  0.94110213085E+01  0.51100000000E-03 0. -1.
        -11    1    3    3    0    0 -0.97172745746E+01  0.13670161028E+02 -0.11148796749E+02  0.20139374293E+02  0.51100000000E-03 0.  1.
         12    1    3    3    0    0  0.26820378847E+02 -0.11695666656E+02 -0.53883553975E+01  0.29751566579E+02  0.00000000000E+00 0. -1.
</event>
<event>
 7    1  0.6230310E-012  0.5930193E+02  0.7816164E-02  0.1266605E+00
        -11   -1    0    0    0    0  0.00000000000E+00  0.00000000000E+00  0.45593999997E+02  0.45594000000E+02  0.51100000000E-03 0.  1.
         11   -1    0    0    0    0 -0.00000000000E+00 -0.00000000000E+00 -0.45593999997E+02  0.45594000000E+02  0.51100000000E-03 0. -1.
    9900012    2    1    2    0    0  0.10461341877E+02 -0.30113843074E+02  0.66198685325E+00  0.59301930234E+02  0.49999974843E+02 0.  0.
         12    1    1    2    0    0 -0.10461341877E+02  0.30113843074E+02 -0.66198685325E+00  0.31886069766E+02  0.00000000000E+00 0. -1.
         11    1    3    3    0    0 -0.25714120590E+01 -0.25013096133E+02  0.21586327786E+02  0.33139654279E+02  0.51100000000E-03 0. -1.
        -11    1    3    3    0    0  0.63174598783E+00  0.95148215229E+00 -0.55038843317E-01  0.11434381552E+01  0.51100000000E-03 0.  1.
        -12    1    3    3    0    0  0.12401007948E+02 -0.60522290929E+01 -0.20869302090E+02  0.25018837800E+02  0.00000000000E+00 0.  1.
</event>
<event>
 7    1  0.6230310E-012  0.5930192E+02  0.7816164E-02  0.1266605E+00
        -11   -1    0    0    0    0  0.00000000000E+00  0.00000000000E+00  0.45593999997E+02  0.45594000000E+02  0.51100000000E-03 0.  1.
         11   -1    0    0    0    0 -0.00000000000E+00 -0.00000000000E+00 -0.45593999997E+02  0.45594000000E+02  0.51100000000E-03 0. -1.
    9900012    2    1    2    0    0 -0.14465234281E+02 -0.19178896421E+01  0.28351378823E+02  0.59301921774E+02  0.49999959414E+02 0.  0.
         12    1    1    2    0    0  0.14465234281E+02  0.19178896421E+01 -0.28351378823E+02  0.31886078226E+02  0.00000000000E+00 0. -1.
         11    1    3    3    0    0  0.74079440395E+01  0.12521581378E+02  0.94518593645E+01  0.17349503762E+02  0.51100000000E-03 0. -1.
        -11    1    3    3    0    0 -0.66061992998E+01  0.73766253055E+01  0.11901648024E+01  0.99736133174E+01  0.51100000000E-03 0.  1.
        -12    1    3    3    0    0 -0.15266979021E+02 -0.21816096326E+02  0.17709354656E+02  0.31978804694E+02  0.00000000000E+00 0.  1.
</event>
<event>
 7    1  0.6230310E-012  0.5930169E+02  0.7816164E-02  0.1266606E+00
        -11   -1    0    0    0    0  0.00000000000E+00  0.00000000000E+00  0.45593999997E+02  0.45594000000E+02  0.51100000000E-03 0.  1.
         11   -1    0    0    0    0 -0.00000000000E+00 -0.00000000000E+00 -0.45593999997E+02  0.45594000000E+02  0.51100000000E-03 0. -1.
    9900012    2    1    2    0    0 -0.76490936577E+01 -0.53861378886E+01  0.30483069662E+02  0.59301691792E+02  0.49999539980E+02 0.  0.
         12    1    1    2    0    0  0.76490936577E+01  0.53861378886E+01 -0.30483069662E+02  0.31886308208E+02  0.00000000000E+00 0. -1.
         11    1    3    3    0    0 -0.36331923796E+01  0.12741737056E+02  0.13878070160E+01  0.13322085371E+02  0.51100000000E-03 0. -1.
        -11    1    3    3    0    0 -0.80571317491E+01  0.66610413731E+01  0.94643188473E+01  0.14101779168E+02  0.51100000000E-03 0.  1.
        -12    1    3    3    0    0  0.40412304709E+01 -0.24788916318E+02  0.19630943799E+02  0.31877827252E+02  0.00000000000E+00 0.  1.
</event>
<event>
 7    1  0.6230310E-012  0.5930193E+02  0.7816164E-02  0.1266605E+00
        -11   -1    0    0    0    0  0.00000000000E+00  0.00000000000E+00  0.45593999997E+02  0.45594000000E+02  0.51100000000E-03 0.  1.
         11   -1    0    0    0    0 -0.00000000000E+00 -0.00000000000E+00 -0.45593999997E+02  0.45594000000E+02  0.51100000000E-03 0. -1.
    9900012    2    1    2    0    0  0.17436703189E+02 -0.24927597283E+02  0.95549699876E+01  0.59301934456E+02  0.49999982543E+02 0.  0.
         12    1    1    2    0    0 -0.17436703189E+02  0.24927597283E+02 -0.95549699876E+01  0.31886065544E+02  0.00000000000E+00 0. -1.
         11    1    3    3    0    0  0.10341663378E+02 -0.14471521229E+02 -0.10854424268E+02  0.20837309196E+02  0.51100000000E-03 0. -1.
        -11    1    3    3    0    0  0.35998688182E+01 -0.16696749645E+02  0.25900131129E+00  0.17082376479E+02  0.51100000000E-03 0.  1.
         12    1    3    3    0    0  0.34951709935E+01  0.62406735909E+01  0.20150392944E+02  0.21382248781E+02  0.00000000000E+00 0. -1.
</event>
<event>
 7    1  0.6230310E-012  0.5930196E+02  0.7816164E-02  0.1266605E+00
        -11   -1    0    0    0    0  0.00000000000E+00  0.00000000000E+00  0.45593999997E+02  0.45594000000E+02  0.51100000000E-03 0.  1.
         11   -1    0    0    0    0 -0.00000000000E+00 -0.00000000000E+00 -0.45593999997E+02  0.45594000000E+02  0.51100000000E-03 0. -1.
    9900012    2    1    2    0    0  0.24641148384E+02 -0.18325728600E+02 -0.85849295559E+01  0.59301960141E+02  0.50000029388E+02 0.  0.
         12    1    1    2    0    0 -0.24641148384E+02  0.18325728600E+02  0.85849295559E+01  0.31886039859E+02  0.00000000000E+00 0. -1.
         11    1    3    3    0    0  0.22700636989E+01 -0.60346502595E+00  0.47574166436E+01  0.53056924729E+01  0.51100000000E-03 0. -1.
        -11    1    3    3    0    0  0.28210759417E+02 -0.27902427055E+02 -0.59402573990E+01  0.40120805583E+02  0.51100000000E-03 0.  1.
         12    1    3    3    0    0 -0.58396747321E+01  0.10180163481E+02 -0.74020888005E+01  0.13875462085E+02  0.00000000000E+00 0. -1.
</event>
<event>
 7    1  0.6230310E-012  0.5930197E+02  0.7816164E-02  0.1266605E+00
        -11   -1    0    0    0    0  0.00000000000E+00  0.00000000000E+00  0.45593999997E+02  0.45594000000E+02  0.51100000000E-03 0.  1.
         11   -1    0    0    0    0 -0.00000000000E+00 -0.00000000000E+00 -0.45593999997E+02  0.45594000000E+02  0.51100000000E-03 0. -1.
    9900012    2    1    2    0    0  0.19088143389E+02  0.15099441088E+02  0.20600213500E+02  0.59301966452E+02  0.50000040896E+02 0.  0.
         12    1    1    2    0    0 -0.19088143389E+02 -0.15099441088E+02 -0.20600213500E+02  0.31886033548E+02  0.00000000000E+00 0. -1.
         11    1    3    3    0    0  0.11784934902E+02  0.86541813093E+01 -0.16128255126E+01  0.14709886171E+02  0.51100000000E-03 0. -1.
        -11    1    3    3    0    0  0.22581351159E+01  0.19649673020E+02  0.19348958274E+01  0.19873415563E+02  0.51100000000E-03 0.  1.
        -12    1    3    3    0    0  0.50450733709E+01 -0.13204413242E+02  0.20278143185E+02  0.24718664718E+02  0.00000000000E+00 0.  1.
</event>
<event>
 7    1  0.6230310E-012  0.5930200E+02  0.7816164E-02  0.1266605E+00
        -11   -1    0    0    0    0  0.00000000000E+00  0.00000000000E+00  0.45593999997E+02  0.45594000000E+02  0.51100000000E-03 0.  1.
         11   -1    0    0    0    0 -0.00000000000E+00 -0.00000000000E+00 -0.45593999997E+02  0.45594000000E+02  0.51100000000E-03 0. -1.
    9900012    2    1    2    0    0  0.20777188619E+01 -0.28490425157E+02  0.14166704317E+02  0.59302003819E+02  0.50000109044E+02 0.  0.
         12    1    1    2    0    0 -0.20777188619E+01  0.28490425157E+02 -0.14166704317E+02  0.31885996181E+02  0.00000000000E+00 0. -1.
         11    1    3    3    0    0  0.88277802734E+01  0.60776408523E+01  0.94220899139E+01  0.14270360945E+02  0.51100000000E-03 0. -1.
        -11    1    3    3    0    0  0.10297835598E+02 -0.19388593826E+02  0.24673327681E+01  0.22091869993E+02  0.51100000000E-03 0.  1.
        -12    1    3    3    0    0 -0.17047897009E+02 -0.15179472183E+02  0.22772816347E+01  0.22939772881E+02  0.00000000000E+00 0.  1.
</event>
<event>
 7    1  0.6230310E-012  0.5930200E+02  0.7816164E-02  0.1266605E+00
        -11   -1    0    0    0    0  0.00000000000E+00  0.00000000000E+00  0.45593999997E+02  0.45594000000E+02  0.51100000000E-03 0.  1.
         11   -1    0    0    0    0 -0.00000000000E+00 -0.00000000000E+00 -0.45593999997E+02  0.45594000000E+02  0.51100000000E-03 0. -1.
    9900012    2    1    2    0    0  0.84411809935E+01 -0.30470036320E+02 -0.41279887451E+01  0.59302000863E+02  0.50000103653E+02 0.  0.
         12    1    1    2    0    0 -0.84411809935E+01  0.30470036320E+02  0.41279887451E+01  0.31885999137E+02  0.00000000000E+00 0. -1.
         11    1    3    3    0    0  0.13294947234E+02 -0.18463214719E+02  0.98095874700E+01  0.24776479297E+02  0.51100000000E-03 0. -1.
        -11    1    3    3    0    0 -0.11249760860E+02 -0.16530679272E+02 -0.17961596009E+01  0.20076022170E+02  0.51100000000E-03 0.  1.
         12    1    3    3    0    0  0.63959946196E+01  0.45238576711E+01 -0.12141416614E+02  0.14449499396E+02  0.00000000000E+00 0. -1.
</event>
<event>
 7    1  0.6230310E-012  0.5930196E+02  0.7816164E-02  0.1266605E+00
        -11   -1    0    0    0    0  0.00000000000E+00  0.00000000000E+00  0.45593999997E+02  0.45594000000E+02  0.51100000000E-03 0. -1.
         11   -1    0    0    0    0 -0.00000000000E+00 -0.00000000000E+00 -0.45593999997E+02  0.45594000000E+02  0.51100000000E-03 0.  1.
    9900012    2    1    2    0    0  0.24269924512E+02 -0.50726033276E+01 -0.20048921912E+02  0.59301955871E+02  0.50000021600E+02 0.  0.
         12    1    1    2    0    0 -0.24269924512E+02  0.50726033276E+01  0.20048921912E+02  0.31886044129E+02  0.00000000000E+00 0. -1.
         11    1    3    3    0    0  0.14217095926E+02  0.12603435807E+02 -0.37205349414E+01  0.19360134070E+02  0.51100000000E-03 0. -1.
        -11    1    3    3    0    0 -0.57876297439E+01  0.51396287917E+01 -0.35532536428E-01  0.77403943692E+01  0.51100000000E-03 0.  1.
        -12    1    3    3    0    0  0.15840458330E+02 -0.22815667927E+02 -0.16292854434E+02  0.32201427432E+02  0.00000000000E+00 0.  1.
</event>
<event>
 7    1  0.6230310E-012  0.5930192E+02  0.7816164E-02  0.1266605E+00
        -11   -1    0    0    0    0  0.00000000000E+00  0.00000000000E+00  0.45593999997E+02  0.45594000000E+02  0.51100000000E-03 0.  1.
         11   -1    0    0    0    0 -0.00000000000E+00 -0.00000000000E+00 -0.45593999997E+02  0.45594000000E+02  0.51100000000E-03 0. -1.
    9900012    2    1    2    0    0  0.21330470175E+02  0.10822949684E+02  0.21085460935E+02  0.59301923719E+02  0.49999962961E+02 0.  0.
         12    1    1    2    0    0 -0.21330470175E+02 -0.10822949684E+02 -0.21085460935E+02  0.31886076281E+02  0.00000000000E+00 0. -1.
         11    1    3    3    0    0  0.69840588661E+01  0.19191916794E+02  0.78842640014E+01  0.21892198784E+02  0.51100000000E-03 0. -1.
        -11    1    3    3    0    0 -0.87227882531E+00  0.82755800291E+01  0.12284781488E+02  0.14837855359E+02  0.51100000000E-03 0.  1.
         12    1    3    3    0    0  0.15218690134E+02 -0.16644547140E+02  0.91641544587E+00  0.22571869576E+02  0.00000000000E+00 0. -1.
</event>
<event>
 7    1  0.6230310E-012  0.5930192E+02  0.7816164E-02  0.1266605E+00
        -11   -1    0    0    0    0  0.00000000000E+00  0.00000000000E+00  0.45593999997E+02  0.45594000000E+02  0.51100000000E-03 0. -1.
         11   -1    0    0    0    0 -0.00000000000E+00 -0.00000000000E+00 -0.45593999997E+02  0.45594000000E+02  0.51100000000E-03 0.  1.
    9900012    2    1    2    0    0  0.98975864942E+01  0.28113589603E+02 -0.11330755466E+02  0.59301919052E+02  0.49999954450E+02 0.  0.
         12    1    1    2    0    0 -0.98975864942E+01 -0.28113589603E+02  0.11330755466E+02  0.31886080948E+02  0.00000000000E+00 0. -1.
         11    1    3    3    0    0  0.60486976587E+01  0.10604066457E+02  0.73968518759E+01  0.14273975856E+02  0.51100000000E-03 0. -1.
        -11    1    3    3    0    0  0.17498053010E+02  0.19137269513E+00 -0.25597085039E+01  0.17685321330E+02  0.51100000000E-03 0.  1.
         12    1    3    3    0    0 -0.13649164174E+02  0.17318150451E+02 -0.16167898838E+02  0.27342621867E+02  0.00000000000E+00 0. -1.
</event>
<event>
 7    1  0.6230310E-012  0.5930194E+02  0.7816164E-02  0.1266605E+00
        -11   -1    0    0    0    0  0.00000000000E+00  0.00000000000E+00  0.45593999997E+02  0.45594000000E+02  0.51100000000E-03 0. -1.
         11   -1    0    0    0    0 -0.00000000000E+00 -0.00000000000E+00 -0.45593999997E+02  0.45594000000E+02  0.51100000000E-03 0.  1.
    9900012    2    1    2    0    0 -0.10569612597E+02 -0.30083251160E+02  0.48587820521E-01  0.59301936091E+02  0.49999985526E+02 0.  0.
         12    1    1    2    0    0  0.10569612597E+02  0.30083251160E+02 -0.48587820521E-01  0.31886063909E+02  0.00000000000E+00 0. -1.
         11    1    3    3    0    0 -0.98722969769E+01 -0.24512538004E+01 -0.31540459997E+01  0.10649830948E+02  0.51100000000E-03 0. -1.
        -11    1    3    3    0    0 -0.19667959630E+02 -0.19043010150E+02  0.46877496301E+01  0.27774806362E+02  0.51100000000E-03 0.  1.
        -12    1    3    3    0    0  0.18970644010E+02 -0.85889872092E+01 -0.14851158099E+01  0.20877298781E+02  0.00000000000E+00 0.  1.
</event>
<event>
 7    1  0.6230310E-012  0.5930202E+02  0.7816164E-02  0.1266605E+00
        -11   -1    0    0    0    0  0.00000000000E+00  0.00000000000E+00  0.45593999997E+02  0.45594000000E+02  0.51100000000E-03 0. -1.
         11   -1    0    0    0    0 -0.00000000000E+00 -0.00000000000E+00 -0.45593999997E+02  0.45594000000E+02  0.51100000000E-03 0.  1.
    9900012    2    1    2    0    0 -0.30349177922E+02 -0.94577504301E+01  0.24888421419E+01  0.59302015948E+02  0.50000131166E+02 0.  0.
         12    1    1    2    0    0  0.30349177922E+02  0.94577504301E+01 -0.24888421419E+01  0.31885984052E+02  0.00000000000E+00 0. -1.
         11    1    3    3    0    0 -0.97469055685E+01  0.14932168087E+02 -0.19364906224E+01  0.17936605257E+02  0.51100000000E-03 0. -1.
        -11    1    3    3    0    0 -0.11339668583E+02 -0.18705329807E+01 -0.80247181255E+01  0.14017242185E+02  0.51100000000E-03 0.  1.
        -12    1    3    3    0    0 -0.92626037702E+01 -0.22519385536E+02  0.12450050890E+02  0.27348168507E+02  0.00000000000E+00 0.  1.
</event>
<event>
 7    1  0.6230310E-012  0.5930195E+02  0.7816164E-02  0.1266605E+00
        -11   -1    0    0    0    0  0.00000000000E+00  0.00000000000E+00  0.45593999997E+02  0.45594000000E+02  0.51100000000E-03 0.  1.
         11   -1    0    0    0    0 -0.00000000000E+00 -0.00000000000E+00 -0.45593999997E+02  0.45594000000E+02  0.51100000000E-03 0. -1.
    9900012    2    1    2    0    0  0.18174898251E+02 -0.16764486943E+02  0.20133186172E+02  0.59301950788E+02  0.50000012329E+02 0.  0.
         12    1    1    2    0    0 -0.18174898251E+02  0.16764486943E+02 -0.20133186172E+02  0.31886049212E+02  0.00000000000E+00 0. -1.
         11    1    3    3    0    0 -0.35971312251E+01 -0.51332882106E+01  0.19333101697E+01  0.65595494797E+01  0.51100000000E-03 0.  1.
        -11    1    3    3    0    0  0.23097617460E+02  0.10762982526E+02  0.16254127724E+02  0.30224797659E+02  0.51100000000E-03 0. -1.
         12    1    3    3    0    0 -0.13255879836E+01 -0.22394181259E+02  0.19457482781E+01  0.22517603649E+02  0.00000000000E+00 0. -1.
</event>
<event>
 7    1  0.6230310E-012  0.5930193E+02  0.7816164E-02  0.1266605E+00
        -11   -1    0    0    0    0  0.00000000000E+00  0.00000000000E+00  0.45593999997E+02  0.45594000000E+02  0.51100000000E-03 0. -1.
         11   -1    0    0    0    0 -0.00000000000E+00 -0.00000000000E+00 -0.45593999997E+02  0.45594000000E+02  0.51100000000E-03 0.  1.
    9900012    2    1    2    0    0  0.35955841176E+01 -0.16992202776E+02 -0.26740578103E+02  0.59301926275E+02  0.49999967624E+02 0.  0.
         12    1    1    2    0    0 -0.35955841176E+01  0.16992202776E+02  0.26740578103E+02  0.31886073725E+02  0.00000000000E+00 0. -1.
         11    1    3    3    0    0  0.16685465073E+02 -0.93922690434E+01 -0.12895371337E+02  0.23084844913E+02  0.51100000000E-03 0. -1.
        -11    1    3    3    0    0 -0.44890351036E+01 -0.64989046889E+01 -0.22572504932E+02  0.23914539039E+02  0.51100000000E-03 0.  1.
        -12    1    3    3    0    0 -0.86008458516E+01 -0.11010290433E+01  0.87272981664E+01  0.12302542323E+02  0.00000000000E+00 0.  1.
</event>
<event>
 7    1  0.6230310E-012  0.5930194E+02  0.7816164E-02  0.1266605E+00
        -11   -1    0    0    0    0  0.00000000000E+00  0.00000000000E+00  0.45593999997E+02  0.45594000000E+02  0.51100000000E-03 0. -1.
         11   -1    0    0    0    0 -0.00000000000E+00 -0.00000000000E+00 -0.45593999997E+02  0.45594000000E+02  0.51100000000E-03 0.  1.
    9900012    2    1    2    0    0  0.14762646750E+02 -0.24352076371E+02 -0.14344385069E+02  0.59301941202E+02  0.49999994847E+02 0.  0.
         12    1    1    2    0    0 -0.14762646750E+02  0.24352076371E+02  0.14344385069E+02  0.31886058798E+02  0.00000000000E+00 0. -1.
         11    1    3    3    0    0  0.21473217737E+01  0.69348421279E+00 -0.13514661196E+02  0.13701750934E+02  0.51100000000E-03 0. -1.
        -11    1    3    3    0    0  0.19011272665E+02 -0.45097911452E+01 -0.10313096130E+02  0.22093588585E+02  0.51100000000E-03 0.  1.
         12    1    3    3    0    0 -0.63959476887E+01 -0.20535769439E+02  0.94833722578E+01  0.23506601682E+02  0.00000000000E+00 0. -1.
</event>
<event>
 7    1  0.6230310E-012  0.5930196E+02  0.7816164E-02  0.1266605E+00
        -11   -1    0    0    0    0  0.00000000000E+00  0.00000000000E+00  0.45593999997E+02  0.45594000000E+02  0.51100000000E-03 0.  1.
         11   -1    0    0    0    0 -0.00000000000E+00 -0.00000000000E+00 -0.45593999997E+02  0.45594000000E+02  0.51100000000E-03 0. -1.
    9900012    2    1    2    0    0  0.23163840305E+02 -0.13209112677E+02  0.17483582510E+02  0.59301955830E+02  0.50000021525E+02 0.  0.
         12    1    1    2    0    0 -0.23163840305E+02  0.13209112677E+02 -0.17483582510E+02  0.31886044170E+02  0.00000000000E+00 0. -1.
         11    1    3    3    0    0 -0.64011497134E+01 -0.67004542667E+01  0.10155018394E+02  0.13747552650E+02  0.51100000000E-03 0.  1.
        -11    1    3    3    0    0  0.28101874234E+02 -0.17938091576E+02  0.41152835873E+01  0.33592052991E+02  0.51100000000E-03 0. -1.
         12    1    3    3    0    0  0.14631157842E+01  0.11429433166E+02  0.32132805289E+01  0.11962350189E+02  0.00000000000E+00 0. -1.
</event>
<event>
 7    1  0.6230310E-012  0.5930194E+02  0.7816164E-02  0.1266605E+00
        -11   -1    0    0    0    0  0.00000000000E+00  0.00000000000E+00  0.45593999997E+02  0.45594000000E+02  0.51100000000E-03 0.  1.
         11   -1    0    0    0    0 -0.00000000000E+00 -0.00000000000E+00 -0.45593999997E+02  0.45594000000E+02  0.51100000000E-03 0. -1.
    9900012    2    1    2    0    0  0.12669969799E+02 -0.25284187380E+02 -0.14727621664E+02  0.59301935551E+02  0.49999984541E+02 0.  0.
         12    1    1    2    0    0 -0.12669969799E+02  0.25284187380E+02  0.14727621664E+02  0.31886064449E+02  0.00000000000E+00 0. -1.
         11    1    3    3    0    0  0.75265229961E+01  0.23215368666E+01 -0.19932541067E+02  0.21432318481E+02  0.51100000000E-03 0. -1.
        -11    1    3    3    0    0  0.13893337145E+02 -0.10972236235E+02 -0.18383441616E+01  0.17798716092E+02  0.51100000000E-03 0.  1.
         12    1    3    3    0    0 -0.87498903420E+01 -0.16633488011E+02  0.70432635645E+01  0.20070900978E+02  0.00000000000E+00 0. -1.
</event>
<event>
 7    1  0.6230310E-012  0.5930196E+02  0.7816164E-02  0.1266605E+00
        -11   -1    0    0    0    0  0.00000000000E+00  0.00000000000E+00  0.45593999997E+02  0.45594000000E+02  0.51100000000E-03 0. -1.
         11   -1    0    0    0    0 -0.00000000000E+00 -0.00000000000E+00 -0.45593999997E+02  0.45594000000E+02  0.51100000000E-03 0.  1.
    9900012    2    1    2    0    0 -0.17489201271E+01  0.18610491046E+02 -0.25832356610E+02  0.59301956868E+02  0.50000023417E+02 0.  0.
         12    1    1    2    0    0  0.17489201271E+01 -0.18610491046E+02  0.25832356610E+02  0.31886043132E+02  0.00000000000E+00 0. -1.
         11    1    3    3    0    0 -0.11846740693E+02  0.12741298060E+02  0.23705670731E+01  0.17558631206E+02  0.51100000000E-03 0. -1.
        -11    1    3    3    0    0 -0.94857532859E+01  0.44537690443E+01 -0.58885619392E+01  0.12020429945E+02  0.51100000000E-03 0.  1.
         12    1    3    3    0    0  0.19583573852E+02  0.14154239418E+01 -0.22314361744E+02  0.29722895717E+02  0.00000000000E+00 0. -1.
</event>
<event>
 7    1  0.6230310E-012  0.5930197E+02  0.7816164E-02  0.1266605E+00
        -11   -1    0    0    0    0  0.00000000000E+00  0.00000000000E+00  0.45593999997E+02  0.45594000000E+02  0.51100000000E-03 0.  1.
         11   -1    0    0    0    0 -0.00000000000E+00 -0.00000000000E+00 -0.45593999997E+02  0.45594000000E+02  0.51100000000E-03 0. -1.
    9900012    2    1    2    0    0 -0.63481038193E+01 -0.44930910762E+01  0.30923008469E+02  0.59301972616E+02  0.50000052139E+02 0.  0.
         12    1    1    2    0    0  0.63481038193E+01  0.44930910762E+01 -0.30923008469E+02  0.31886027384E+02  0.00000000000E+00 0. -1.
         11    1    3    3    0    0 -0.63759515619E+00  0.13950877455E+02 -0.66101562842E+01  0.15450814726E+02  0.51100000000E-03 0. -1.
        -11    1    3    3    0    0 -0.25659811490E+01 -0.12556298425E+01  0.15344791338E+02  0.15608442812E+02  0.51100000000E-03 0.  1.
        -12    1    3    3    0    0 -0.31445275141E+01 -0.17188338688E+02  0.22188373416E+02  0.28242715078E+02  0.00000000000E+00 0.  1.
</event>
<event>
 7    1  0.6230310E-012  0.5930194E+02  0.7816164E-02  0.1266605E+00
        -11   -1    0    0    0    0  0.00000000000E+00  0.00000000000E+00  0.45593999997E+02  0.45594000000E+02  0.51100000000E-03 0. -1.
         11   -1    0    0    0    0 -0.00000000000E+00 -0.00000000000E+00 -0.45593999997E+02  0.45594000000E+02  0.51100000000E-03 0.  1.
    9900012    2    1    2    0    0  0.15954629461E+02 -0.25482362242E+02  0.10621655791E+02  0.59301944138E+02  0.50000000201E+02 0.  0.
         12    1    1    2    0    0 -0.15954629461E+02  0.25482362242E+02 -0.10621655791E+02  0.31886055862E+02  0.00000000000E+00 0. -1.
         11    1    3    3    0    0  0.67850151453E+01  0.45874252843E+00  0.13257690959E+02  0.14900108895E+02  0.51100000000E-03 0. -1.
        -11    1    3    3    0    0  0.52695681122E+01 -0.19986876824E+02  0.14897253488E+02  0.25478849170E+02  0.51100000000E-03 0.  1.
        -12    1    3    3    0    0  0.39000462036E+01 -0.59542279470E+01 -0.17533288656E+02  0.18922986074E+02  0.00000000000E+00 0.  1.
</event>
<event>
 7    1  0.6230310E-012  0.5930194E+02  0.7816164E-02  0.1266605E+00
        -11   -1    0    0    0    0  0.00000000000E+00  0.00000000000E+00  0.45593999997E+02  0.45594000000E+02  0.51100000000E-03 0.  1.
         11   -1    0    0    0    0 -0.00000000000E+00 -0.00000000000E+00 -0.45593999997E+02  0.45594000000E+02  0.51100000000E-03 0. -1.
    9900012    2    1    2    0    0  0.20112827453E+02 -0.14316745731E+02  0.20179834400E+02  0.59301941089E+02  0.49999994640E+02 0.  0.
         12    1    1    2    0    0 -0.20112827453E+02  0.14316745731E+02 -0.20179834400E+02  0.31886058911E+02  0.00000000000E+00 0. -1.
         11    1    3    3    0    0  0.16574446796E+02 -0.21113410672E+02 -0.62617496188E+01  0.27562617898E+02  0.51100000000E-03 0. -1.
        -11    1    3    3    0    0  0.45205765375E+01  0.89420648755E+00 -0.21467811394E-01  0.46082185931E+01  0.51100000000E-03 0.  1.
        -12    1    3    3    0    0 -0.98219588091E+00  0.59024584542E+01  0.26463051830E+02  0.27131104598E+02  0.00000000000E+00 0.  1.
</event>
<event>
 7    1  0.6230310E-012  0.5930196E+02  0.7816164E-02  0.1266605E+00
        -11   -1    0    0    0    0  0.00000000000E+00  0.00000000000E+00  0.45593999997E+02  0.45594000000E+02  0.51100000000E-03 0. -1.
         11   -1    0    0    0    0 -0.00000000000E+00 -0.00000000000E+00 -0.45593999997E+02  0.45594000000E+02  0.51100000000E-03 0.  1.
    9900012    2    1    2    0    0  0.10908110164E+02  0.23778690045E+02 -0.18229283434E+02  0.59301956938E+02  0.50000023545E+02 0.  0.
         12    1    1    2    0    0 -0.10908110164E+02 -0.23778690045E+02  0.18229283434E+02  0.31886043062E+02  0.00000000000E+00 0. -1.
         11    1    3    3    0    0  0.32488889992E+01 -0.95287954781E+01 -0.79288417954E+01  0.12814825612E+02  0.51100000000E-03 0. -1.
        -11    1    3    3    0    0 -0.26831759102E+01 -0.96647814318E+00  0.63822929745E+01  0.69905061934E+01  0.51100000000E-03 0.  1.
        -12    1    3    3    0    0  0.10342397075E+02  0.34273963667E+02 -0.16682734613E+02  0.39496625133E+02  0.00000000000E+00 0.  1.
</event>
<event>
 7    1  0.6230310E-012  0.5930191E+02  0.7816164E-02  0.1266605E+00
        -11   -1    0    0    0    0  0.00000000000E+00  0.00000000000E+00  0.45593999997E+02  0.45594000000E+02  0.51100000000E-03 0.  1.
         11   -1    0    0    0    0 -0.00000000000E+00 -0.00000000000E+00 -0.45593999997E+02  0.45594000000E+02  0.51100000000E-03 0. -1.
    9900012    2    1    2    0    0 -0.17469083966E+02 -0.90568542393E+01  0.25090387582E+02  0.59301905032E+02  0.49999928881E+02 0.  0.
         12    1    1    2    0    0  0.17469083966E+02  0.90568542393E+01 -0.25090387582E+02  0.31886094968E+02  0.00000000000E+00 0. -1.
         11    1    3    3    0    0 -0.85140927742E+01 -0.37519987060E+00 -0.26759084598E+01  0.89325828883E+01  0.51100000000E-03 0. -1.
        -11    1    3    3    0    0 -0.15785530436E+02  0.10770166018E+02  0.52020924060E+01  0.19805080481E+02  0.51100000000E-03 0.  1.
        -12    1    3    3    0    0  0.68305392439E+01 -0.19451820387E+02  0.22564203635E+02  0.30564241663E+02  0.00000000000E+00 0.  1.
</event>
<event>
 7    1  0.6230310E-012  0.5930192E+02  0.7816164E-02  0.1266605E+00
        -11   -1    0    0    0    0  0.00000000000E+00  0.00000000000E+00  0.45593999997E+02  0.45594000000E+02  0.51100000000E-03 0. -1.
         11   -1    0    0    0    0 -0.00000000000E+00 -0.00000000000E+00 -0.45593999997E+02  0.45594000000E+02  0.51100000000E-03 0.  1.
    9900012    2    1    2    0    0 -0.18285724040E+02 -0.12658900702E+02  0.22849655530E+02  0.59301917951E+02  0.49999952442E+02 0.  0.
         12    1    1    2    0    0  0.18285724040E+02  0.12658900702E+02 -0.22849655530E+02  0.31886082049E+02  0.00000000000E+00 0. -1.
         11    1    3    3    0    0 -0.17783543897E+02 -0.95458196325E+01 -0.87988503806E+01  0.22018103330E+02  0.51100000000E-03 0. -1.
        -11    1    3    3    0    0 -0.44247831448E+01  0.50803562627E+01  0.32737088824E+01  0.74903868887E+01  0.51100000000E-03 0.  1.
         12    1    3    3    0    0  0.39226030017E+01 -0.81934373318E+01  0.28374797028E+02  0.29793427731E+02  0.00000000000E+00 0. -1.
</event>
<event>
 7    1  0.6230310E-012  0.5930195E+02  0.7816164E-02  0.1266605E+00
        -11   -1    0    0    0    0  0.00000000000E+00  0.00000000000E+00  0.45593999997E+02  0.45594000000E+02  0.51100000000E-03 0.  1.
         11   -1    0    0    0    0 -0.00000000000E+00 -0.00000000000E+00 -0.45593999997E+02  0.45594000000E+02  0.51100000000E-03 0. -1.
    9900012    2    1    2    0    0 -0.21740787890E+01  0.23343707865E+02  0.21611682935E+02  0.59301950468E+02  0.50000011746E+02 0.  0.
         12    1    1    2    0    0  0.21740787890E+01 -0.23343707865E+02 -0.21611682935E+02  0.31886049532E+02  0.00000000000E+00 0. -1.
         11    1    3    3    0    0 -0.21904882458E+01  0.64228647964E+01 -0.74755057470E+01  0.10096267498E+02  0.51100000000E-03 0. -1.
        -11    1    3    3    0    0 -0.46206008733E+01  0.10141534879E+02 -0.63516665771E+01  0.12827484192E+02  0.51100000000E-03 0.  1.
        -12    1    3    3    0    0  0.46370103300E+01  0.67793081903E+01  0.35438855259E+02  0.36378198779E+02  0.00000000000E+00 0.  1.
</event>
<event>
 7    1  0.6230310E-012  0.5930195E+02  0.7816164E-02  0.1266605E+00
        -11   -1    0    0    0    0  0.00000000000E+00  0.00000000000E+00  0.45593999997E+02  0.45594000000E+02  0.51100000000E-03 0. -1.
         11   -1    0    0    0    0 -0.00000000000E+00 -0.00000000000E+00 -0.45593999997E+02  0.45594000000E+02  0.51100000000E-03 0.  1.
    9900012    2    1    2    0    0 -0.28766298201E+02 -0.45947376501E+01  0.12965661233E+02  0.59301954502E+02  0.50000019103E+02 0.  0.
         12    1    1    2    0    0  0.28766298201E+02  0.45947376501E+01 -0.12965661233E+02  0.31886045498E+02  0.00000000000E+00 0. -1.
         11    1    3    3    0    0 -0.12812142101E+02  0.55857169004E+01  0.15886017390E+02  0.21159318686E+02  0.51100000000E-03 0. -1.
        -11    1    3    3    0    0 -0.10849171140E+02  0.83682359437E+01  0.81542561264E+01  0.15944396523E+02  0.51100000000E-03 0.  1.
        -12    1    3    3    0    0 -0.51049849602E+01 -0.18548690494E+02 -0.11074612283E+02  0.22198239293E+02  0.00000000000E+00 0.  1.
</event>
<event>
 7    1  0.6230310E-012  0.5930194E+02  0.7816164E-02  0.1266605E+00
        -11   -1    0    0    0    0  0.00000000000E+00  0.00000000000E+00  0.45593999997E+02  0.45594000000E+02  0.51100000000E-03 0. -1.
         11   -1    0    0    0    0 -0.00000000000E+00 -0.00000000000E+00 -0.45593999997E+02  0.45594000000E+02  0.51100000000E-03 0.  1.
    9900012    2    1    2    0    0  0.18334047187E+01 -0.27188390469E+02 -0.16557509885E+02  0.59301935916E+02  0.49999985206E+02 0.  0.
         12    1    1    2    0    0 -0.18334047187E+01  0.27188390469E+02  0.16557509885E+02  0.31886064084E+02  0.00000000000E+00 0. -1.
         11    1    3    3    0    0 -0.50305286131E+01 -0.16249449479E+02  0.27517088808E+01  0.17231445921E+02  0.51100000000E-03 0. -1.
        -11    1    3    3    0    0 -0.79400122066E+01 -0.15606222428E+02 -0.19938269709E+02  0.26535496445E+02  0.51100000000E-03 0.  1.
        -12    1    3    3    0    0  0.14803945538E+02  0.46672814380E+01  0.62905094340E+00  0.15534993550E+02  0.00000000000E+00 0.  1.
</event>
<event>
 7    1  0.6230310E-012  0.5930194E+02  0.7816164E-02  0.1266605E+00
        -11   -1    0    0    0    0  0.00000000000E+00  0.00000000000E+00  0.45593999997E+02  0.45594000000E+02  0.51100000000E-03 0.  1.
         11   -1    0    0    0    0 -0.00000000000E+00 -0.00000000000E+00 -0.45593999997E+02  0.45594000000E+02  0.51100000000E-03 0. -1.
    9900012    2    1    2    0    0  0.62244269397E+01 -0.27516230355E+02  0.14860490841E+02  0.59301943302E+02  0.49999998677E+02 0.  0.
         12    1    1    2    0    0 -0.62244269397E+01  0.27516230355E+02 -0.14860490841E+02  0.31886056698E+02  0.00000000000E+00 0. -1.
         11    1    3    3    0    0 -0.18702473795E+02 -0.20720029687E+02  0.22980537612E+01  0.28006842158E+02  0.51100000000E-03 0. -1.
        -11    1    3    3    0    0  0.19311171272E+01 -0.46750166667E+01  0.46866954998E+01  0.68956587185E+01  0.51100000000E-03 0.  1.
        -12    1    3    3    0    0  0.22995783607E+02 -0.21211840014E+01  0.78757415797E+01  0.24399442426E+02  0.00000000000E+00 0.  1.
</event>
<event>
 7    1  0.6230310E-012  0.5930196E+02  0.7816164E-02  0.1266605E+00
        -11   -1    0    0    0    0  0.00000000000E+00  0.00000000000E+00  0.45593999997E+02  0.45594000000E+02  0.51100000000E-03 0. -1.
         11   -1    0    0    0    0 -0.00000000000E+00 -0.00000000000E+00 -0.45593999997E+02  0.45594000000E+02  0.51100000000E-03 0.  1.
    9900012    2    1    2    0    0  0.21976436459E+02 -0.23085017872E+02 -0.91511048460E+00  0.59301964863E+02  0.50000037998E+02 0.  0.
         12    1    1    2    0    0 -0.21976436459E+02  0.23085017872E+02  0.91511048460E+00  0.31886035137E+02  0.00000000000E+00 0. -1.
         11    1    3    3    0    0  0.62956690845E+01 -0.26945735350E+02  0.11412078153E+02  0.29932317498E+02  0.51100000000E-03 0. -1.
        -11    1    3    3    0    0  0.11477355328E+02  0.83393063242E+00  0.40448302126E+01  0.12197777557E+02  0.51100000000E-03 0.  1.
         12    1    3    3    0    0  0.42034120463E+01  0.30267868458E+01 -0.16372018850E+02  0.17171869807E+02  0.00000000000E+00 0. -1.
</event>
<event>
 7    1  0.6230310E-012  0.5930198E+02  0.7816164E-02  0.1266605E+00
        -11   -1    0    0    0    0  0.00000000000E+00  0.00000000000E+00  0.45593999997E+02  0.45594000000E+02  0.51100000000E-03 0.  1.
         11   -1    0    0    0    0 -0.00000000000E+00 -0.00000000000E+00 -0.45593999997E+02  0.45594000000E+02  0.51100000000E-03 0. -1.
    9900012    2    1    2    0    0 -0.12182265455E+02 -0.71983286439E+00  0.29458319709E+02  0.59301978752E+02  0.50000063329E+02 0.  0.
         12    1    1    2    0    0  0.12182265455E+02  0.71983286439E+00 -0.29458319709E+02  0.31886021248E+02  0.00000000000E+00 0. -1.
         11    1    3    3    0    0 -0.38108779638E+01 -0.13119971163E+02  0.26055802324E+01  0.13908468024E+02  0.51100000000E-03 0. -1.
        -11    1    3    3    0    0  0.83882956351E+01 -0.34074201515E+01 -0.11555668398E+01  0.91273956161E+01  0.51100000000E-03 0.  1.
        -12    1    3    3    0    0 -0.16759683126E+02  0.15807558450E+02  0.28008306316E+02  0.36266115112E+02  0.00000000000E+00 0.  1.
</event>
<event>
 7    1  0.6230310E-012  0.5930193E+02  0.7816164E-02  0.1266605E+00
        -11   -1    0    0    0    0  0.00000000000E+00  0.00000000000E+00  0.45593999997E+02  0.45594000000E+02  0.51100000000E-03 0.  1.
         11   -1    0    0    0    0 -0.00000000000E+00 -0.00000000000E+00 -0.45593999997E+02  0.45594000000E+02  0.51100000000E-03 0. -1.
    9900012    2    1    2    0    0  0.17423347570E+02 -0.15810187335E+02  0.21521761324E+02  0.59301932908E+02  0.49999979720E+02 0.  0.
         12    1    1    2    0    0 -0.17423347570E+02  0.15810187335E+02 -0.21521761324E+02  0.31886067092E+02  0.00000000000E+00 0. -1.
         11    1    3    3    0    0 -0.97810749514E+00 -0.10571542193E+02  0.15243164024E+02  0.18576012714E+02  0.51100000000E-03 0. -1.
        -11    1    3    3    0    0  0.60852971785E+01  0.61240685574E+01  0.18211507261E+02  0.20154256484E+02  0.51100000000E-03 0.  1.
         12    1    3    3    0    0  0.12316157886E+02 -0.11362713699E+02 -0.11932909961E+02  0.20571663710E+02  0.00000000000E+00 0. -1.
</event>
<event>
 7    1  0.6230310E-012  0.5930194E+02  0.7816164E-02  0.1266605E+00
        -11   -1    0    0    0    0  0.00000000000E+00  0.00000000000E+00  0.45593999997E+02  0.45594000000E+02  0.51100000000E-03 0. -1.
         11   -1    0    0    0    0 -0.00000000000E+00 -0.00000000000E+00 -0.45593999997E+02  0.45594000000E+02  0.51100000000E-03 0.  1.
    9900012    2    1    2    0    0  0.21903007171E+02  0.22942343056E+02 -0.32600612864E+01  0.59301939917E+02  0.49999992503E+02 0.  0.
         12    1    1    2    0    0 -0.21903007171E+02 -0.22942343056E+02  0.32600612864E+01  0.31886060083E+02  0.00000000000E+00 0. -1.
         11    1    3    3    0    0 -0.11022216018E+02  0.10259052764E+02  0.34496377960E+00  0.15061753213E+02  0.51100000000E-03 0.  1.
        -11    1    3    3    0    0  0.63034010911E+01 -0.53489933481E+01 -0.83356230732E+01  0.11739983281E+02  0.51100000000E-03 0. -1.
        -12    1    3    3    0    0  0.26621822098E+02  0.18032283640E+02  0.47305980071E+01  0.32500203424E+02  0.00000000000E+00 0.  1.
</event>
<event>
 7    1  0.6230310E-012  0.5930194E+02  0.7816164E-02  0.1266605E+00
        -11   -1    0    0    0    0  0.00000000000E+00  0.00000000000E+00  0.45593999997E+02  0.45594000000E+02  0.51100000000E-03 0. -1.
         11   -1    0    0    0    0 -0.00000000000E+00 -0.00000000000E+00 -0.45593999997E+02  0.45594000000E+02  0.51100000000E-03 0.  1.
    9900012    2    1    2    0    0 -0.11968799019E+02 -0.24059261052E+02  0.17164518693E+02  0.59301938871E+02  0.49999990596E+02 0.  0.
         12    1    1    2    0    0  0.11968799019E+02  0.24059261052E+02 -0.17164518693E+02  0.31886061129E+02  0.00000000000E+00 0. -1.
         11    1    3    3    0    0 -0.84215694974E+01 -0.21100549539E+02  0.12430944058E+02  0.25897575062E+02  0.51100000000E-03 0.  1.
        -11    1    3    3    0    0  0.44152671967E+01 -0.16649483624E+02  0.27386855757E+01  0.17441338489E+02  0.51100000000E-03 0. -1.
         12    1    3    3    0    0 -0.79624967188E+01  0.13690772111E+02  0.19948890591E+01  0.15963025320E+02  0.00000000000E+00 0. -1.
</event>
<event>
 7    1  0.6230310E-012  0.5930195E+02  0.7816164E-02  0.1266605E+00
        -11   -1    0    0    0    0  0.00000000000E+00  0.00000000000E+00  0.45593999997E+02  0.45594000000E+02  0.51100000000E-03 0. -1.
         11   -1    0    0    0    0 -0.00000000000E+00 -0.00000000000E+00 -0.45593999997E+02  0.45594000000E+02  0.51100000000E-03 0.  1.
    9900012    2    1    2    0    0  0.28398221491E+02  0.12894599059E+02 -0.66325494373E+01  0.59301946924E+02  0.50000005281E+02 0.  0.
         12    1    1    2    0    0 -0.28398221491E+02 -0.12894599059E+02  0.66325494373E+01  0.31886053076E+02  0.00000000000E+00 0. -1.
         11    1    3    3    0    0  0.27738772534E+02  0.46812784737E+01  0.38064764901E+01  0.28387376303E+02  0.51100000000E-03 0. -1.
        -11    1    3    3    0    0  0.96848058855E+01 -0.61184180101E+01 -0.75846758121E+01  0.13738915948E+02  0.51100000000E-03 0.  1.
        -12    1    3    3    0    0 -0.90253569283E+01  0.14331738596E+02 -0.28543501153E+01  0.17175654673E+02  0.00000000000E+00 0.  1.
</event>
<event>
 7    1  0.6230310E-012  0.5930196E+02  0.7816164E-02  0.1266605E+00
        -11   -1    0    0    0    0  0.00000000000E+00  0.00000000000E+00  0.45593999997E+02  0.45594000000E+02  0.51100000000E-03 0. -1.
         11   -1    0    0    0    0 -0.00000000000E+00 -0.00000000000E+00 -0.45593999997E+02  0.45594000000E+02  0.51100000000E-03 0.  1.
    9900012    2    1    2    0    0 -0.20173268129E+02  0.24325048323E+02 -0.42486423647E+01  0.59301957837E+02  0.50000025184E+02 0.  0.
         12    1    1    2    0    0  0.20173268129E+02 -0.24325048323E+02  0.42486423647E+01  0.31886042163E+02  0.00000000000E+00 0. -1.
         11    1    3    3    0    0 -0.11739300627E+02  0.99026318765E+01  0.10825559834E+02  0.18790051710E+02  0.51100000000E-03 0. -1.
        -11    1    3    3    0    0 -0.14118217165E+02  0.20826564906E+02 -0.24805513403E+01  0.25282859745E+02  0.51100000000E-03 0.  1.
        -12    1    3    3    0    0  0.56842496632E+01 -0.64041484595E+01 -0.12593650859E+02  0.15229046381E+02  0.00000000000E+00 0.  1.
</event>
<event>
 7    1  0.6230310E-012  0.5930194E+02  0.7816164E-02  0.1266605E+00
        -11   -1    0    0    0    0  0.00000000000E+00  0.00000000000E+00  0.45593999997E+02  0.45594000000E+02  0.51100000000E-03 0.  1.
         11   -1    0    0    0    0 -0.00000000000E+00 -0.00000000000E+00 -0.45593999997E+02  0.45594000000E+02  0.51100000000E-03 0. -1.
    9900012    2    1    2    0    0 -0.19929557653E+02 -0.21829908945E+02  0.11957785692E+02  0.59301939858E+02  0.49999992395E+02 0.  0.
         12    1    1    2    0    0  0.19929557653E+02  0.21829908945E+02 -0.11957785692E+02  0.31886060142E+02  0.00000000000E+00 0. -1.
         11    1    3    3    0    0  0.38821498839E+01 -0.83507788863E+01  0.62641832033E+01  0.11137620356E+02  0.51100000000E-03 0.  1.
        -11    1    3    3    0    0 -0.77260221656E+00 -0.29207226731E+01 -0.15089552251E+02  0.15389026042E+02  0.51100000000E-03 0. -1.
        -12    1    3    3    0    0 -0.23039105320E+02 -0.10558407385E+02  0.20783154739E+02  0.32775293460E+02  0.00000000000E+00 0.  1.
</event>
<event>
 7    1  0.6230310E-012  0.5930194E+02  0.7816164E-02  0.1266605E+00
        -11   -1    0    0    0    0  0.00000000000E+00  0.00000000000E+00  0.45593999997E+02  0.45594000000E+02  0.51100000000E-03 0. -1.
         11   -1    0    0    0    0 -0.00000000000E+00 -0.00000000000E+00 -0.45593999997E+02  0.45594000000E+02  0.51100000000E-03 0.  1.
    9900012    2    1    2    0    0  0.22279857271E+02  0.61855382984E+00 -0.22802326633E+02  0.59301941154E+02  0.49999994759E+02 0.  0.
         12    1    1    2    0    0 -0.22279857271E+02 -0.61855382984E+00  0.22802326633E+02  0.31886058846E+02  0.00000000000E+00 0. -1.
         11    1    3    3    0    0 -0.12419822221E+01 -0.61214942830E+00  0.37705241762E+00  0.14350663919E+01  0.51100000000E-03 0. -1.
        -11    1    3    3    0    0  0.66458499547E+01 -0.16874144069E+02 -0.27300862634E+02  0.32775618385E+02  0.51100000000E-03 0.  1.
         12    1    3    3    0    0  0.16875989538E+02  0.18104847328E+02  0.41214835833E+01  0.25091256377E+02  0.00000000000E+00 0. -1.
</event>
<event>
 7    1  0.6230310E-012  0.5930195E+02  0.7816164E-02  0.1266605E+00
        -11   -1    0    0    0    0  0.00000000000E+00  0.00000000000E+00  0.45593999997E+02  0.45594000000E+02  0.51100000000E-03 0.  1.
         11   -1    0    0    0    0 -0.00000000000E+00 -0.00000000000E+00 -0.45593999997E+02  0.45594000000E+02  0.51100000000E-03 0. -1.
    9900012    2    1    2    0    0  0.19007619896E+02  0.18214572823E+02 -0.17990556716E+02  0.59301946493E+02  0.50000004497E+02 0.  0.
         12    1    1    2    0    0 -0.19007619896E+02 -0.18214572823E+02  0.17990556716E+02  0.31886053507E+02  0.00000000000E+00 0. -1.
         11    1    3    3    0    0  0.34701851184E+01 -0.49111877716E+01  0.11364362468E+02  0.12857320275E+02  0.51100000000E-03 0.  1.
        -11    1    3    3    0    0 -0.22155049512E+01  0.11757341159E+02 -0.23620345108E+01  0.12195193340E+02  0.51100000000E-03 0. -1.
         12    1    3    3    0    0  0.17752939729E+02  0.11368419436E+02 -0.26992884673E+02  0.34249432878E+02  0.00000000000E+00 0. -1.
</event>
<event>
 7    1  0.6230310E-012  0.5930194E+02  0.7816164E-02  0.1266605E+00
        -11   -1    0    0    0    0  0.00000000000E+00  0.00000000000E+00  0.45593999997E+02  0.45594000000E+02  0.51100000000E-03 0.  1.
         11   -1    0    0    0    0 -0.00000000000E+00 -0.00000000000E+00 -0.45593999997E+02  0.45594000000E+02  0.51100000000E-03 0. -1.
    9900012    2    1    2    0    0 -0.58765900647E+01 -0.30461344402E+02  0.73683922441E+01  0.59301936935E+02  0.49999987064E+02 0.  0.
         12    1    1    2    0    0  0.58765900647E+01  0.30461344402E+02 -0.73683922441E+01  0.31886063065E+02  0.00000000000E+00 0. -1.
         11    1    3    3    0    0 -0.21775313830E+02 -0.53848038801E+01  0.70053770820E+01  0.23499696031E+02  0.51100000000E-03 0. -1.
        -11    1    3    3    0    0  0.63686332604E+01 -0.20574853460E+02  0.77955339301E+01  0.22905336365E+02  0.51100000000E-03 0.  1.
        -12    1    3    3    0    0  0.95300905049E+01 -0.45016870618E+01 -0.74325187681E+01  0.12896904538E+02  0.00000000000E+00 0.  1.
</event>
<event>
 7    1  0.6230310E-012  0.5930195E+02  0.7816164E-02  0.1266605E+00
        -11   -1    0    0    0    0  0.00000000000E+00  0.00000000000E+00  0.45593999997E+02  0.45594000000E+02  0.51100000000E-03 0.  1.
         11   -1    0    0    0    0 -0.00000000000E+00 -0.00000000000E+00 -0.45593999997E+02  0.45594000000E+02  0.51100000000E-03 0. -1.
    9900012    2    1    2    0    0 -0.27572356494E+02 -0.16560079389E+01  0.15929319941E+02  0.59301946016E+02  0.50000003626E+02 0.  0.
         12    1    1    2    0    0  0.27572356494E+02  0.16560079389E+01 -0.15929319941E+02  0.31886053984E+02  0.00000000000E+00 0. -1.
         11    1    3    3    0    0  0.74109919342E+01  0.56010106633E+01 -0.12494568860E+00  0.92903032021E+01  0.51100000000E-03 0. -1.
        -11    1    3    3    0    0 -0.13553976026E+02  0.11894216377E+02  0.10074331454E+02  0.20656108148E+02  0.51100000000E-03 0.  1.
         12    1    3    3    0    0 -0.21429372401E+02 -0.19151234979E+02  0.59799341759E+01  0.29355534665E+02  0.00000000000E+00 0. -1.
</event>
<event>
 7    1  0.6230310E-012  0.5930196E+02  0.7816164E-02  0.1266605E+00
        -11   -1    0    0    0    0  0.00000000000E+00  0.00000000000E+00  0.45593999997E+02  0.45594000000E+02  0.51100000000E-03 0.  1.
         11   -1    0    0    0    0 -0.00000000000E+00 -0.00000000000E+00 -0.45593999997E+02  0.45594000000E+02  0.51100000000E-03 0. -1.
    9900012    2    1    2    0    0  0.28013154228E+01 -0.28222316886E+02  0.14573028557E+02  0.59301957602E+02  0.50000024756E+02 0.  0.
         12    1    1    2    0    0 -0.28013154228E+01  0.28222316886E+02 -0.14573028557E+02  0.31886042398E+02  0.00000000000E+00 0. -1.
         11    1    3    3    0    0 -0.14054772827E+02 -0.16193889359E+02  0.21171687204E+01  0.21546718902E+02  0.51100000000E-03 0. -1.
        -11    1    3    3    0    0 -0.43254510529E+01 -0.10319647430E+02  0.12129461718E+02  0.16502378366E+02  0.51100000000E-03 0.  1.
         12    1    3    3    0    0  0.21181539303E+02 -0.17087800961E+01  0.32639811836E+00  0.21252860334E+02  0.00000000000E+00 0. -1.
</event>
<event>
 7    1  0.6230310E-012  0.5930195E+02  0.7816164E-02  0.1266605E+00
        -11   -1    0    0    0    0  0.00000000000E+00  0.00000000000E+00  0.45593999997E+02  0.45594000000E+02  0.51100000000E-03 0. -1.
         11   -1    0    0    0    0 -0.00000000000E+00 -0.00000000000E+00 -0.45593999997E+02  0.45594000000E+02  0.51100000000E-03 0.  1.
    9900012    2    1    2    0    0 -0.12935897569E+02  0.11598572882E+02 -0.26736791365E+02  0.59301947385E+02  0.50000006124E+02 0.  0.
         12    1    1    2    0    0  0.12935897569E+02 -0.11598572882E+02  0.26736791365E+02  0.31886052615E+02  0.00000000000E+00 0. -1.
         11    1    3    3    0    0 -0.12936573501E+02 -0.88163960744E+01 -0.80836170771E+01  0.17618985187E+02  0.51100000000E-03 0. -1.
        -11    1    3    3    0    0  0.11508173813E+02 -0.48208378349E-03  0.34655959117E+00  0.11513390837E+02  0.51100000000E-03 0.  1.
        -12    1    3    3    0    0 -0.11507497881E+02  0.20415451041E+02 -0.18999733879E+02  0.30169571362E+02  0.00000000000E+00 0.  1.
</event>
<event>
 7    1  0.6230310E-012  0.5930195E+02  0.7816164E-02  0.1266605E+00
        -11   -1    0    0    0    0  0.00000000000E+00  0.00000000000E+00  0.45593999997E+02  0.45594000000E+02  0.51100000000E-03 0. -1.
         11   -1    0    0    0    0 -0.00000000000E+00 -0.00000000000E+00 -0.45593999997E+02  0.45594000000E+02  0.51100000000E-03 0.  1.
    9900012    2    1    2    0    0  0.50453134721E+01  0.39351675054E+01 -0.31237467563E+02  0.59301951153E+02  0.50000012995E+02 0.  0.
         12    1    1    2    0    0 -0.50453134721E+01 -0.39351675054E+01  0.31237467563E+02  0.31886048847E+02  0.00000000000E+00 0. -1.
         11    1    3    3    0    0 -0.28440208313E+00  0.13360052245E+02 -0.74921915950E+01  0.15320078841E+02  0.51100000000E-03 0. -1.
        -11    1    3    3    0    0 -0.10652119334E+02  0.70613449292E+01 -0.32090246251E+01  0.13176800743E+02  0.51100000000E-03 0.  1.
        -12    1    3    3    0    0  0.15981834890E+02 -0.16486229669E+02 -0.20536251343E+02  0.30805071569E+02  0.00000000000E+00 0.  1.
</event>
<event>
 7    1  0.6230310E-012  0.5930207E+02  0.7816164E-02  0.1266604E+00
        -11   -1    0    0    0    0  0.00000000000E+00  0.00000000000E+00  0.45593999997E+02  0.45594000000E+02  0.51100000000E-03 0.  1.
         11   -1    0    0    0    0 -0.00000000000E+00 -0.00000000000E+00 -0.45593999997E+02  0.45594000000E+02  0.51100000000E-03 0. -1.
    9900012    2    1    2    0    0  0.66297488882E+01 -0.14249509211E+02  0.27743660850E+02  0.59302065790E+02  0.50000222066E+02 0.  0.
         12    1    1    2    0    0 -0.66297488882E+01  0.14249509211E+02 -0.27743660850E+02  0.31885934210E+02  0.00000000000E+00 0. -1.
         11    1    3    3    0    0 -0.71628664571E+01  0.61709958003E+01  0.23679127833E+01  0.97465304729E+01  0.51100000000E-03 0. -1.
        -11    1    3    3    0    0 -0.99481736092E+01 -0.11052392144E+02  0.21077434053E+01  0.15018791989E+02  0.51100000000E-03 0.  1.
         12    1    3    3    0    0  0.23740788954E+02 -0.93681128668E+01  0.23268004661E+02  0.34536743329E+02  0.00000000000E+00 0. -1.
</event>
<event>
 7    1  0.6230310E-012  0.5930195E+02  0.7816164E-02  0.1266605E+00
        -11   -1    0    0    0    0  0.00000000000E+00  0.00000000000E+00  0.45593999997E+02  0.45594000000E+02  0.51100000000E-03 0. -1.
         11   -1    0    0    0    0 -0.00000000000E+00 -0.00000000000E+00 -0.45593999997E+02  0.45594000000E+02  0.51100000000E-03 0.  1.
    9900012    2    1    2    0    0 -0.98633433049E+00 -0.10673440824E+02 -0.30030401379E+02  0.59301949736E+02  0.50000010411E+02 0.  0.
         12    1    1    2    0    0  0.98633433049E+00  0.10673440824E+02  0.30030401379E+02  0.31886050264E+02  0.00000000000E+00 0. -1.
         11    1    3    3    0    0 -0.68000970360E+01  0.18360514787E+00  0.26258142612E+01  0.72917714819E+01  0.51100000000E-03 0. -1.
        -11    1    3    3    0    0 -0.14825680879E+02  0.69951536752E+00 -0.20794744851E+02  0.25548220074E+02  0.51100000000E-03 0.  1.
        -12    1    3    3    0    0  0.20639443584E+02 -0.11556561340E+02 -0.11861470790E+02  0.26461958181E+02  0.00000000000E+00 0.  1.
</event>
<event>
 7    1  0.6230310E-012  0.5930196E+02  0.7816164E-02  0.1266605E+00
        -11   -1    0    0    0    0  0.00000000000E+00  0.00000000000E+00  0.45593999997E+02  0.45594000000E+02  0.51100000000E-03 0. -1.
         11   -1    0    0    0    0 -0.00000000000E+00 -0.00000000000E+00 -0.45593999997E+02  0.45594000000E+02  0.51100000000E-03 0.  1.
    9900012    2    1    2    0    0  0.67001619235E+01  0.23539045467E+02 -0.20438711059E+02  0.59301956955E+02  0.50000023577E+02 0.  0.
         12    1    1    2    0    0 -0.67001619235E+01 -0.23539045467E+02  0.20438711059E+02  0.31886043045E+02  0.00000000000E+00 0. -1.
         11    1    3    3    0    0  0.17765296398E+02 -0.17197454931E+00  0.24445248520E+01  0.17933517039E+02  0.51100000000E-03 0. -1.
        -11    1    3    3    0    0  0.34450268700E+00 -0.41620331065E+01 -0.15246459356E+01  0.44458685509E+01  0.51100000000E-03 0.  1.
        -12    1    3    3    0    0 -0.11409637162E+02  0.27873053123E+02 -0.21358589975E+02  0.36922571366E+02  0.00000000000E+00 0.  1.
</event>
<event>
 7    1  0.6230310E-012  0.5930193E+02  0.7816164E-02  0.1266605E+00
        -11   -1    0    0    0    0  0.00000000000E+00  0.00000000000E+00  0.45593999997E+02  0.45594000000E+02  0.51100000000E-03 0. -1.
         11   -1    0    0    0    0 -0.00000000000E+00 -0.00000000000E+00 -0.45593999997E+02  0.45594000000E+02  0.51100000000E-03 0.  1.
    9900012    2    1    2    0    0  0.12538028077E+02 -0.29108074120E+02 -0.34984456660E+01  0.59301933307E+02  0.49999980449E+02 0.  0.
         12    1    1    2    0    0 -0.12538028077E+02  0.29108074120E+02  0.34984456660E+01  0.31886066693E+02  0.00000000000E+00 0. -1.
         11    1    3    3    0    0 -0.38096038757E+01 -0.12275597403E+02  0.80251678546E+01  0.15152778380E+02  0.51100000000E-03 0. -1.
        -11    1    3    3    0    0 -0.62916565183E+01  0.21992362197E+01  0.66667456317E+01  0.94269337154E+01  0.51100000000E-03 0.  1.
        -12    1    3    3    0    0  0.22639288471E+02 -0.19031712937E+02 -0.18190359152E+02  0.34722221212E+02  0.00000000000E+00 0.  1.
</event>
<event>
 7    1  0.6230310E-012  0.5930200E+02  0.7816164E-02  0.1266605E+00
        -11   -1    0    0    0    0  0.00000000000E+00  0.00000000000E+00  0.45593999997E+02  0.45594000000E+02  0.51100000000E-03 0.  1.
         11   -1    0    0    0    0 -0.00000000000E+00 -0.00000000000E+00 -0.45593999997E+02  0.45594000000E+02  0.51100000000E-03 0. -1.
    9900012    2    1    2    0    0 -0.25261341434E+02 -0.43770527635E+01  0.18958447322E+02  0.59302004848E+02  0.50000110922E+02 0.  0.
         12    1    1    2    0    0  0.25261341434E+02  0.43770527635E+01 -0.18958447322E+02  0.31885995152E+02  0.00000000000E+00 0. -1.
         11    1    3    3    0    0 -0.27578311091E+02 -0.16494675385E+02  0.71503146911E+01  0.32920579568E+02  0.51100000000E-03 0. -1.
        -11    1    3    3    0    0 -0.23594672248E+01  0.19499241989E+01  0.14542106152E+02  0.14860758445E+02  0.51100000000E-03 0.  1.
        -12    1    3    3    0    0  0.46764368812E+01  0.10167698422E+02 -0.27339735210E+01  0.11520666835E+02  0.00000000000E+00 0.  1.
</event>
<event>
 7    1  0.6230310E-012  0.5930196E+02  0.7816164E-02  0.1266605E+00
        -11   -1    0    0    0    0  0.00000000000E+00  0.00000000000E+00  0.45593999997E+02  0.45594000000E+02  0.51100000000E-03 0. -1.
         11   -1    0    0    0    0 -0.00000000000E+00 -0.00000000000E+00 -0.45593999997E+02  0.45594000000E+02  0.51100000000E-03 0.  1.
    9900012    2    1    2    0    0 -0.16699742162E+02  0.37680782249E+01 -0.26900550541E+02  0.59301961971E+02  0.50000032724E+02 0.  0.
         12    1    1    2    0    0  0.16699742162E+02 -0.37680782249E+01  0.26900550541E+02  0.31886038029E+02  0.00000000000E+00 0. -1.
         11    1    3    3    0    0 -0.11136839445E+00  0.33725282700E+01 -0.55762452239E+01  0.65177343386E+01  0.51100000000E-03 0. -1.
        -11    1    3    3    0    0 -0.28005632088E+02  0.97370058911E+01 -0.23551098137E+02  0.37865273485E+02  0.51100000000E-03 0.  1.
         12    1    3    3    0    0  0.11417258321E+02 -0.93414559362E+01  0.22267928201E+01  0.14918954147E+02  0.00000000000E+00 0. -1.
</event>
<event>
 7    1  0.6230310E-012  0.5930196E+02  0.7816164E-02  0.1266605E+00
        -11   -1    0    0    0    0  0.00000000000E+00  0.00000000000E+00  0.45593999997E+02  0.45594000000E+02  0.51100000000E-03 0.  1.
         11   -1    0    0    0    0 -0.00000000000E+00 -0.00000000000E+00 -0.45593999997E+02  0.45594000000E+02  0.51100000000E-03 0. -1.
    9900012    2    1    2    0    0  0.12602546985E+02  0.28960794747E+02 -0.43781040351E+01  0.59301958887E+02  0.50000027100E+02 0.  0.
         12    1    1    2    0    0 -0.12602546985E+02 -0.28960794747E+02  0.43781040351E+01  0.31886041113E+02  0.00000000000E+00 0. -1.
         11    1    3    3    0    0  0.13487722620E+02 -0.72882033059E+01  0.89709786810E+00  0.15357127132E+02  0.51100000000E-03 0. -1.
        -11    1    3    3    0    0  0.11472829650E+02  0.15908192152E+02 -0.45431530662E+01  0.20132973893E+02  0.51100000000E-03 0.  1.
        -12    1    3    3    0    0 -0.12358005285E+02  0.20340805901E+02 -0.73204883698E+00  0.23811857862E+02  0.00000000000E+00 0.  1.
</event>
<event>
 7    1  0.6230310E-012  0.5930193E+02  0.7816164E-02  0.1266605E+00
        -11   -1    0    0    0    0  0.00000000000E+00  0.00000000000E+00  0.45593999997E+02  0.45594000000E+02  0.51100000000E-03 0.  1.
         11   -1    0    0    0    0 -0.00000000000E+00 -0.00000000000E+00 -0.45593999997E+02  0.45594000000E+02  0.51100000000E-03 0. -1.
    9900012    2    1    2    0    0 -0.28629186172E+02  0.35710575699E+01  0.13577141352E+02  0.59301929055E+02  0.49999972693E+02 0.  0.
         12    1    1    2    0    0  0.28629186172E+02 -0.35710575699E+01 -0.13577141352E+02  0.31886070945E+02  0.00000000000E+00 0. -1.
         11    1    3    3    0    0 -0.63345745609E+01 -0.10936349798E+02 -0.10362448348E+02  0.16343528315E+02  0.51100000000E-03 0. -1.
        -11    1    3    3    0    0 -0.70878113628E+01 -0.26936471596E+01  0.17563487725E+02  0.19130313804E+02  0.51100000000E-03 0.  1.
         12    1    3    3    0    0 -0.15206800248E+02  0.17201054527E+02  0.63761019750E+01  0.23828086936E+02  0.00000000000E+00 0. -1.
</event>
<event>
 7    1  0.6230310E-012  0.5930222E+02  0.7816164E-02  0.1266604E+00
        -11   -1    0    0    0    0  0.00000000000E+00  0.00000000000E+00  0.45593999997E+02  0.45594000000E+02  0.51100000000E-03 0.  1.
         11   -1    0    0    0    0 -0.00000000000E+00 -0.00000000000E+00 -0.45593999997E+02  0.45594000000E+02  0.51100000000E-03 0. -1.
    9900012    2    1    2    0    0 -0.14579761388E+01  0.30891990845E+02 -0.77628887398E+01  0.59302215795E+02  0.50000495636E+02 0.  0.
         12    1    1    2    0    0  0.14579761388E+01 -0.30891990845E+02  0.77628887398E+01  0.31885784205E+02  0.00000000000E+00 0. -1.
         11    1    3    3    0    0  0.79858074348E+01 -0.25837451284E+01 -0.39805402417E+01  0.92894327142E+01  0.51100000000E-03 0. -1.
        -11    1    3    3    0    0 -0.11177382250E+02  0.57307232745E+01  0.12562259431E+02  0.17764724188E+02  0.51100000000E-03 0.  1.
        -12    1    3    3    0    0  0.17335986760E+01  0.27745012699E+02 -0.16344607929E+02  0.32248058893E+02  0.00000000000E+00 0.  1.
</event>
<event>
 7    1  0.6230310E-012  0.5930191E+02  0.7816164E-02  0.1266605E+00
        -11   -1    0    0    0    0  0.00000000000E+00  0.00000000000E+00  0.45593999997E+02  0.45594000000E+02  0.51100000000E-03 0.  1.
         11   -1    0    0    0    0 -0.00000000000E+00 -0.00000000000E+00 -0.45593999997E+02  0.45594000000E+02  0.51100000000E-03 0. -1.
    9900012    2    1    2    0    0 -0.67623916043E+01  0.17139451731E+02  0.26023681898E+02  0.59301909531E+02  0.49999937087E+02 0.  0.
         12    1    1    2    0    0  0.67623916043E+01 -0.17139451731E+02 -0.26023681898E+02  0.31886090469E+02  0.00000000000E+00 0. -1.
         11    1    3    3    0    0 -0.64963466380E+01 -0.60787218133E+01 -0.58106307232E+01  0.10626232079E+02  0.51100000000E-03 0. -1.
        -11    1    3    3    0    0  0.11304941149E+02  0.57081139449E+01  0.30050285392E+01  0.13015930853E+02  0.51100000000E-03 0.  1.
        -12    1    3    3    0    0 -0.11570986116E+02  0.17510059600E+02  0.28829284082E+02  0.35659746599E+02  0.00000000000E+00 0.  1.
</event>
<event>
 7    1  0.6230310E-012  0.5930193E+02  0.7816164E-02  0.1266605E+00
        -11   -1    0    0    0    0  0.00000000000E+00  0.00000000000E+00  0.45593999997E+02  0.45594000000E+02  0.51100000000E-03 0. -1.
         11   -1    0    0    0    0 -0.00000000000E+00 -0.00000000000E+00 -0.45593999997E+02  0.45594000000E+02  0.51100000000E-03 0.  1.
    9900012    2    1    2    0    0  0.10225465821E+02 -0.30201601350E+02  0.15744690692E+00  0.59301926788E+02  0.49999968559E+02 0.  0.
         12    1    1    2    0    0 -0.10225465821E+02  0.30201601350E+02 -0.15744690692E+00  0.31886073212E+02  0.00000000000E+00 0. -1.
         11    1    3    3    0    0 -0.56382205004E+01 -0.17838246168E+01  0.10899316564E+02  0.12400268646E+02  0.51100000000E-03 0. -1.
        -11    1    3    3    0    0 -0.92943479297E+01 -0.27655777180E+01 -0.29582153394E+01  0.10138262268E+02  0.51100000000E-03 0.  1.
        -12    1    3    3    0    0  0.25158034251E+02 -0.25652199015E+02 -0.77836543176E+01  0.36763395874E+02  0.00000000000E+00 0.  1.
</event>
<event>
 7    1  0.6230310E-012  0.5930192E+02  0.7816164E-02  0.1266605E+00
        -11   -1    0    0    0    0  0.00000000000E+00  0.00000000000E+00  0.45593999997E+02  0.45594000000E+02  0.51100000000E-03 0. -1.
         11   -1    0    0    0    0 -0.00000000000E+00 -0.00000000000E+00 -0.45593999997E+02  0.45594000000E+02  0.51100000000E-03 0.  1.
    9900012    2    1    2    0    0 -0.26424114679E+02  0.47283561358E+00 -0.17839981470E+02  0.59301916061E+02  0.49999948996E+02 0.  0.
         12    1    1    2    0    0  0.26424114679E+02 -0.47283561358E+00  0.17839981470E+02  0.31886083939E+02  0.00000000000E+00 0. -1.
         11    1    3    3    0    0  0.74947407415E+01 -0.21860422984E+01 -0.12387257832E+02  0.14642201903E+02  0.51100000000E-03 0.  1.
        -11    1    3    3    0    0  0.47194254280E+01  0.12631323521E+01  0.20095492782E+01  0.52826857064E+01  0.51100000000E-03 0. -1.
         12    1    3    3    0    0 -0.38638280849E+02  0.13957455599E+01 -0.74622729162E+01  0.39377028452E+02  0.00000000000E+00 0. -1.
</event>
<event>
 7    1  0.6230310E-012  0.5930197E+02  0.7816164E-02  0.1266605E+00
        -11   -1    0    0    0    0  0.00000000000E+00  0.00000000000E+00  0.45593999997E+02  0.45594000000E+02  0.51100000000E-03 0.  1.
         11   -1    0    0    0    0 -0.00000000000E+00 -0.00000000000E+00 -0.45593999997E+02  0.45594000000E+02  0.51100000000E-03 0. -1.
    9900012    2    1    2    0    0  0.17862053072E+02  0.21657762483E+01  0.26324426810E+02  0.59301968989E+02  0.50000045524E+02 0.  0.
         12    1    1    2    0    0 -0.17862053072E+02 -0.21657762483E+01 -0.26324426810E+02  0.31886031011E+02  0.00000000000E+00 0. -1.
         11    1    3    3    0    0 -0.23507488632E+01 -0.39137772013E+01 -0.10625825028E+02  0.11565112623E+02  0.51100000000E-03 0. -1.
        -11    1    3    3    0    0  0.57348532397E+01  0.12946188547E+02  0.16102389893E+02  0.21442464879E+02  0.51100000000E-03 0.  1.
        -12    1    3    3    0    0  0.14477948696E+02 -0.68666350972E+01  0.20847861946E+02  0.26294391487E+02  0.00000000000E+00 0.  1.
</event>
<event>
 7    1  0.6230310E-012  0.5930194E+02  0.7816164E-02  0.1266605E+00
        -11   -1    0    0    0    0  0.00000000000E+00  0.00000000000E+00  0.45593999997E+02  0.45594000000E+02  0.51100000000E-03 0.  1.
         11   -1    0    0    0    0 -0.00000000000E+00 -0.00000000000E+00 -0.45593999997E+02  0.45594000000E+02  0.51100000000E-03 0. -1.
    9900012    2    1    2    0    0 -0.15521279562E+01 -0.22037407167E+02  0.22992702279E+02  0.59301940759E+02  0.49999994039E+02 0.  0.
         12    1    1    2    0    0  0.15521279562E+01  0.22037407167E+02 -0.22992702279E+02  0.31886059241E+02  0.00000000000E+00 0. -1.
         11    1    3    3    0    0 -0.31573125918E+01 -0.45427340625E+00 -0.30755059025E+01  0.44309958190E+01  0.51100000000E-03 0. -1.
        -11    1    3    3    0    0  0.61030319197E+01  0.11641952175E+02  0.13453394380E+01  0.13213326134E+02  0.51100000000E-03 0.  1.
        -12    1    3    3    0    0 -0.44978472841E+01 -0.33225085936E+02  0.24722868744E+02  0.41657618806E+02  0.00000000000E+00 0.  1.
</event>
<event>
 7    1  0.6230310E-012  0.5930199E+02  0.7816164E-02  0.1266605E+00
        -11   -1    0    0    0    0  0.00000000000E+00  0.00000000000E+00  0.45593999997E+02  0.45594000000E+02  0.51100000000E-03 0.  1.
         11   -1    0    0    0    0 -0.00000000000E+00 -0.00000000000E+00 -0.45593999997E+02  0.45594000000E+02  0.51100000000E-03 0. -1.
    9900012    2    1    2    0    0  0.47369386078E+01 -0.29255067250E+01  0.31396180771E+02  0.59301994544E+02  0.50000092129E+02 0.  0.
         12    1    1    2    0    0 -0.47369386078E+01  0.29255067250E+01 -0.31396180771E+02  0.31886005456E+02  0.00000000000E+00 0. -1.
         11    1    3    3    0    0 -0.51197294638E+01  0.10397588827E+02  0.13376286586E+02  0.17698771886E+02  0.51100000000E-03 0. -1.
        -11    1    3    3    0    0  0.18887886041E+02  0.15836616971E+01  0.14395941872E+02  0.23801331183E+02  0.51100000000E-03 0.  1.
        -12    1    3    3    0    0 -0.90312179694E+01 -0.14906757249E+02  0.36239523129E+01  0.17801891474E+02  0.00000000000E+00 0.  1.
</event>
<event>
 7    1  0.6230310E-012  0.5930204E+02  0.7816164E-02  0.1266604E+00
        -11   -1    0    0    0    0  0.00000000000E+00  0.00000000000E+00  0.45593999997E+02  0.45594000000E+02  0.51100000000E-03 0.  1.
         11   -1    0    0    0    0 -0.00000000000E+00 -0.00000000000E+00 -0.45593999997E+02  0.45594000000E+02  0.51100000000E-03 0. -1.
    9900012    2    1    2    0    0 -0.31063858552E+02  0.71914511337E+01  0.18526725082E+00  0.59302037548E+02  0.50000170558E+02 0.  0.
         12    1    1    2    0    0  0.31063858552E+02 -0.71914511337E+01 -0.18526725082E+00  0.31885962452E+02  0.00000000000E+00 0. -1.
         11    1    3    3    0    0 -0.19909389617E+02  0.68332571054E+00  0.15353823977E+01  0.19980193400E+02  0.51100000000E-03 0. -1.
        -11    1    3    3    0    0 -0.20318193717E+02 -0.62584177853E+01 -0.73582524490E+01  0.22497570279E+02  0.51100000000E-03 0.  1.
         12    1    3    3    0    0  0.91637247818E+01  0.12766543208E+02  0.60081373022E+01  0.16824273869E+02  0.00000000000E+00 0. -1.
</event>
<event>
 7    1  0.6230310E-012  0.5930195E+02  0.7816164E-02  0.1266605E+00
        -11   -1    0    0    0    0  0.00000000000E+00  0.00000000000E+00  0.45593999997E+02  0.45594000000E+02  0.51100000000E-03 0.  1.
         11   -1    0    0    0    0 -0.00000000000E+00 -0.00000000000E+00 -0.45593999997E+02  0.45594000000E+02  0.51100000000E-03 0. -1.
    9900012    2    1    2    0    0 -0.11378260723E+02 -0.29109150289E+02 -0.63176675426E+01  0.59301947080E+02  0.50000005567E+02 0.  0.
         12    1    1    2    0    0  0.11378260723E+02  0.29109150289E+02  0.63176675426E+01  0.31886052920E+02  0.00000000000E+00 0. -1.
         11    1    3    3    0    0 -0.62730166958E+01  0.78511538934E+01 -0.16640185166E+01  0.10186280666E+02  0.51100000000E-03 0. -1.
        -11    1    3    3    0    0 -0.17647887779E+02 -0.19275497927E+02 -0.76445263876E+01  0.27229240668E+02  0.51100000000E-03 0.  1.
        -12    1    3    3    0    0  0.12542643752E+02 -0.17684806255E+02  0.29908773615E+01  0.21886425746E+02  0.00000000000E+00 0.  1.
</event>
<event>
 7    1  0.6230310E-012  0.5930196E+02  0.7816164E-02  0.1266605E+00
        -11   -1    0    0    0    0  0.00000000000E+00  0.00000000000E+00  0.45593999997E+02  0.45594000000E+02  0.51100000000E-03 0.  1.
         11   -1    0    0    0    0 -0.00000000000E+00 -0.00000000000E+00 -0.45593999997E+02  0.45594000000E+02  0.51100000000E-03 0. -1.
    9900012    2    1    2    0    0 -0.81812184767E+00 -0.94914561208E+01  0.30429633130E+02  0.59301958617E+02  0.50000026607E+02 0.  0.
         12    1    1    2    0    0  0.81812184767E+00  0.94914561208E+01 -0.30429633130E+02  0.31886041383E+02  0.00000000000E+00 0. -1.
         11    1    3    3    0    0  0.12959395807E+02 -0.90197159903E+01  0.49444860934E+01  0.16545366699E+02  0.51100000000E-03 0. -1.
        -11    1    3    3    0    0  0.84307757741E+01  0.52896418132E+01  0.13783841681E+02  0.17001546472E+02  0.51100000000E-03 0.  1.
        -12    1    3    3    0    0 -0.22208293428E+02 -0.57613819438E+01  0.11701305355E+02  0.25755045446E+02  0.00000000000E+00 0.  1.
</event>
<event>
 7    1  0.6230310E-012  0.5930195E+02  0.7816164E-02  0.1266605E+00
        -11   -1    0    0    0    0  0.00000000000E+00  0.00000000000E+00  0.45593999997E+02  0.45594000000E+02  0.51100000000E-03 0. -1.
         11   -1    0    0    0    0 -0.00000000000E+00 -0.00000000000E+00 -0.45593999997E+02  0.45594000000E+02  0.51100000000E-03 0.  1.
    9900012    2    1    2    0    0  0.26825770361E+02  0.11362947569E+02  0.12960767214E+02  0.59301952586E+02  0.50000015608E+02 0.  0.
         12    1    1    2    0    0 -0.26825770361E+02 -0.11362947569E+02 -0.12960767214E+02  0.31886047414E+02  0.00000000000E+00 0. -1.
         11    1    3    3    0    0  0.30439316643E+01  0.13617744067E+02  0.11031603608E+02  0.17787769728E+02  0.51100000000E-03 0. -1.
        -11    1    3    3    0    0 -0.38485970468E+01  0.46931157371E+01 -0.91209156312E+01  0.10955735336E+02  0.51100000000E-03 0.  1.
         12    1    3    3    0    0  0.27630435744E+02 -0.69479122353E+01  0.11050079237E+02  0.30558447522E+02  0.00000000000E+00 0. -1.
</event>
<event>
 7    1  0.6230310E-012  0.5930194E+02  0.7816164E-02  0.1266605E+00
        -11   -1    0    0    0    0  0.00000000000E+00  0.00000000000E+00  0.45593999997E+02  0.45594000000E+02  0.51100000000E-03 0.  1.
         11   -1    0    0    0    0 -0.00000000000E+00 -0.00000000000E+00 -0.45593999997E+02  0.45594000000E+02  0.51100000000E-03 0. -1.
    9900012    2    1    2    0    0 -0.65083128177E+01  0.15566154122E+02  0.27056559904E+02  0.59301941546E+02  0.49999995474E+02 0.  0.
         12    1    1    2    0    0  0.65083128177E+01 -0.15566154122E+02 -0.27056559904E+02  0.31886058454E+02  0.00000000000E+00 0. -1.
         11    1    3    3    0    0  0.95456046583E+01  0.20285085579E+01  0.61221788516E+01  0.11520177491E+02  0.51100000000E-03 0.  1.
        -11    1    3    3    0    0  0.79149759604E+01 -0.56231665297E+01 -0.14255536897E+01  0.98132079290E+01  0.51100000000E-03 0. -1.
        -12    1    3    3    0    0 -0.23968893436E+02  0.19160812094E+02  0.22359934742E+02  0.37968556127E+02  0.00000000000E+00 0.  1.
</event>
<event>
 7    1  0.6230310E-012  0.5930208E+02  0.7816164E-02  0.1266604E+00
        -11   -1    0    0    0    0  0.00000000000E+00  0.00000000000E+00  0.45593999997E+02  0.45594000000E+02  0.51100000000E-03 0.  1.
         11   -1    0    0    0    0 -0.00000000000E+00 -0.00000000000E+00 -0.45593999997E+02  0.45594000000E+02  0.51100000000E-03 0. -1.
    9900012    2    1    2    0    0 -0.15081350746E+02  0.92395394981E+01  0.26531028732E+02  0.59302082794E+02  0.50000253077E+02 0.  0.
         12    1    1    2    0    0  0.15081350746E+02 -0.92395394981E+01 -0.26531028732E+02  0.31885917206E+02  0.00000000000E+00 0. -1.
         11    1    3    3    0    0  0.96049448598E+00 -0.23413477560E+01  0.64837845051E+01  0.69601667180E+01  0.51100000000E-03 0. -1.
        -11    1    3    3    0    0 -0.18713531635E+02 -0.12859959274E+02  0.42018034141E+01  0.23091772798E+02  0.51100000000E-03 0.  1.
        -12    1    3    3    0    0  0.26716864034E+01  0.24440846528E+02  0.15845440813E+02  0.29250143278E+02  0.00000000000E+00 0.  1.
</event>
<event>
 7    1  0.6230310E-012  0.5930197E+02  0.7816164E-02  0.1266605E+00
        -11   -1    0    0    0    0  0.00000000000E+00  0.00000000000E+00  0.45593999997E+02  0.45594000000E+02  0.51100000000E-03 0.  1.
         11   -1    0    0    0    0 -0.00000000000E+00 -0.00000000000E+00 -0.45593999997E+02  0.45594000000E+02  0.51100000000E-03 0. -1.
    9900012    2    1    2    0    0  0.25209737276E+02 -0.10052959286E+02  0.16736958186E+02  0.59301974641E+02  0.50000055831E+02 0.  0.
         12    1    1    2    0    0 -0.25209737276E+02  0.10052959286E+02 -0.16736958186E+02  0.31886025359E+02  0.00000000000E+00 0. -1.
         11    1    3    3    0    0  0.15399091958E+02 -0.12150880485E+02  0.24233308564E+02  0.31177382409E+02  0.51100000000E-03 0. -1.
        -11    1    3    3    0    0  0.32529158483E+01 -0.24379111151E+01  0.89595892279E+01  0.98386539483E+01  0.51100000000E-03 0.  1.
        -12    1    3    3    0    0  0.65577294691E+01  0.45358323136E+01 -0.16455939606E+02  0.18285938283E+02  0.00000000000E+00 0.  1.
</event>
<event>
 7    1  0.6230310E-012  0.5930195E+02  0.7816164E-02  0.1266605E+00
        -11   -1    0    0    0    0  0.00000000000E+00  0.00000000000E+00  0.45593999997E+02  0.45594000000E+02  0.51100000000E-03 0.  1.
         11   -1    0    0    0    0 -0.00000000000E+00 -0.00000000000E+00 -0.45593999997E+02  0.45594000000E+02  0.51100000000E-03 0. -1.
    9900012    2    1    2    0    0 -0.28008497218E+02  0.78855894101E+01  0.13040778484E+02  0.59301947560E+02  0.50000006441E+02 0.  0.
         12    1    1    2    0    0  0.28008497218E+02 -0.78855894101E+01 -0.13040778484E+02  0.31886052440E+02  0.00000000000E+00 0. -1.
         11    1    3    3    0    0 -0.27734930149E+01 -0.87619962488E+01  0.10686136763E+01  0.92523930535E+01  0.51100000000E-03 0. -1.
        -11    1    3    3    0    0 -0.20459960754E+02 -0.86102432760E+01  0.97616358190E+01  0.24249449838E+02  0.51100000000E-03 0.  1.
         12    1    3    3    0    0 -0.47750434488E+01  0.25257828935E+02  0.22105289891E+01  0.25800104668E+02  0.00000000000E+00 0. -1.
</event>
<event>
 7    1  0.6230310E-012  0.5930196E+02  0.7816164E-02  0.1266605E+00
        -11   -1    0    0    0    0  0.00000000000E+00  0.00000000000E+00  0.45593999997E+02  0.45594000000E+02  0.51100000000E-03 0.  1.
         11   -1    0    0    0    0 -0.00000000000E+00 -0.00000000000E+00 -0.45593999997E+02  0.45594000000E+02  0.51100000000E-03 0. -1.
    9900012    2    1    2    0    0 -0.60229590288E+01 -0.30035849708E+02  0.88482463258E+01  0.59301956561E+02  0.50000022857E+02 0.  0.
         12    1    1    2    0    0  0.60229590288E+01  0.30035849708E+02 -0.88482463258E+01  0.31886043439E+02  0.00000000000E+00 0. -1.
         11    1    3    3    0    0  0.44284182410E+01  0.28024656152E+01 -0.81815617976E+00  0.53041569959E+01  0.51100000000E-03 0. -1.
        -11    1    3    3    0    0  0.21139837812E+01 -0.23221715820E+02  0.23408425175E+02  0.33040450701E+02  0.51100000000E-03 0.  1.
         12    1    3    3    0    0 -0.12565361051E+02 -0.96165995039E+01 -0.13742022670E+02  0.20957348864E+02  0.00000000000E+00 0. -1.
</event>
<event>
 7    1  0.6230310E-012  0.5930193E+02  0.7816164E-02  0.1266605E+00
        -11   -1    0    0    0    0  0.00000000000E+00  0.00000000000E+00  0.45593999997E+02  0.45594000000E+02  0.51100000000E-03 0. -1.
         11   -1    0    0    0    0 -0.00000000000E+00 -0.00000000000E+00 -0.45593999997E+02  0.45594000000E+02  0.51100000000E-03 0.  1.
    9900012    2    1    2    0    0  0.21792797377E+02 -0.17656418648E+02 -0.15167269646E+02  0.59301933991E+02  0.49999981696E+02 0.  0.
         12    1    1    2    0    0 -0.21792797377E+02  0.17656418648E+02  0.15167269646E+02  0.31886066009E+02  0.00000000000E+00 0. -1.
         11    1    3    3    0    0 -0.40623082451E+01 -0.40747482312E+01  0.94061221903E+01  0.11026380020E+02  0.51100000000E-03 0. -1.
        -11    1    3    3    0    0  0.18397290519E+02 -0.95835779586E+01  0.15638578114E+01  0.20802666089E+02  0.51100000000E-03 0.  1.
        -12    1    3    3    0    0  0.74578151034E+01 -0.39980924587E+01 -0.26137249648E+02  0.27472887882E+02  0.00000000000E+00 0.  1.
</event>
<event>
 7    1  0.6230310E-012  0.5930195E+02  0.7816164E-02  0.1266605E+00
        -11   -1    0    0    0    0  0.00000000000E+00  0.00000000000E+00  0.45593999997E+02  0.45594000000E+02  0.51100000000E-03 0.  1.
         11   -1    0    0    0    0 -0.00000000000E+00 -0.00000000000E+00 -0.45593999997E+02  0.45594000000E+02  0.51100000000E-03 0. -1.
    9900012    2    1    2    0    0  0.56039430074E+01  0.14733127049E+02  0.27717342731E+02  0.59301948223E+02  0.50000007650E+02 0.  0.
         12    1    1    2    0    0 -0.56039430074E+01 -0.14733127049E+02 -0.27717342731E+02  0.31886051777E+02  0.00000000000E+00 0. -1.
         11    1    3    3    0    0 -0.85447657553E+01  0.34423751907E+01  0.52392509355E+00  0.92269966149E+01  0.51100000000E-03 0. -1.
        -11    1    3    3    0    0  0.14184490784E+01  0.21189342590E+02  0.26465638560E+02  0.33932731423E+02  0.51100000000E-03 0.  1.
        -12    1    3    3    0    0  0.12730259684E+02 -0.98985907314E+01  0.72777907730E+00  0.16142220184E+02  0.00000000000E+00 0.  1.
</event>
<event>
 7    1  0.6230310E-012  0.5930195E+02  0.7816164E-02  0.1266605E+00
        -11   -1    0    0    0    0  0.00000000000E+00  0.00000000000E+00  0.45593999997E+02  0.45594000000E+02  0.51100000000E-03 0. -1.
         11   -1    0    0    0    0 -0.00000000000E+00 -0.00000000000E+00 -0.45593999997E+02  0.45594000000E+02  0.51100000000E-03 0.  1.
    9900012    2    1    2    0    0 -0.55554440981E+01  0.24539487866E+02  0.19587519427E+02  0.59301947545E+02  0.50000006415E+02 0.  0.
         12    1    1    2    0    0  0.55554440981E+01 -0.24539487866E+02 -0.19587519427E+02  0.31886052455E+02  0.00000000000E+00 0. -1.
         11    1    3    3    0    0 -0.25960589564E+01 -0.10876767415E+02  0.92625014162E+00  0.11220585149E+02  0.51100000000E-03 0. -1.
        -11    1    3    3    0    0  0.64740449378E+01  0.34219333622E+01  0.12013428628E+02  0.14069305365E+02  0.51100000000E-03 0.  1.
        -12    1    3    3    0    0 -0.94334300795E+01  0.31994321919E+02  0.66478406573E+01  0.34012057031E+02  0.00000000000E+00 0.  1.
</event>
<event>
 7    1  0.6230310E-012  0.5930195E+02  0.7816164E-02  0.1266605E+00
        -11   -1    0    0    0    0  0.00000000000E+00  0.00000000000E+00  0.45593999997E+02  0.45594000000E+02  0.51100000000E-03 0.  1.
         11   -1    0    0    0    0 -0.00000000000E+00 -0.00000000000E+00 -0.45593999997E+02  0.45594000000E+02  0.51100000000E-03 0. -1.
    9900012    2    1    2    0    0  0.23173686353E+01  0.94919736063E+00  0.31787559154E+02  0.59301951483E+02  0.50000013597E+02 0.  0.
         12    1    1    2    0    0 -0.23173686353E+01 -0.94919736063E+00 -0.31787559154E+02  0.31886048517E+02  0.00000000000E+00 0. -1.
         11    1    3    3    0    0 -0.55703663046E+01 -0.11718430545E+02  0.67655804395E+01  0.14632965323E+02  0.51100000000E-03 0. -1.
        -11    1    3    3    0    0  0.96610933727E+01 -0.84154571467E+01  0.18548317666E+02  0.22543219216E+02  0.51100000000E-03 0.  1.
        -12    1    3    3    0    0 -0.17733584327E+01  0.21083085053E+02  0.64736610491E+01  0.22125766944E+02  0.00000000000E+00 0.  1.
</event>
<event>
 7    1  0.6230310E-012  0.5930180E+02  0.7816164E-02  0.1266605E+00
        -11   -1    0    0    0    0  0.00000000000E+00  0.00000000000E+00  0.45593999997E+02  0.45594000000E+02  0.51100000000E-03 0.  1.
         11   -1    0    0    0    0 -0.00000000000E+00 -0.00000000000E+00 -0.45593999997E+02  0.45594000000E+02  0.51100000000E-03 0. -1.
    9900012    2    1    2    0    0  0.30460396465E+02 -0.55806425796E+01  0.75993703659E+01  0.59301799938E+02  0.49999737214E+02 0.  0.
         12    1    1    2    0    0 -0.30460396465E+02  0.55806425796E+01 -0.75993703659E+01  0.31886200062E+02  0.00000000000E+00 0. -1.
         11    1    3    3    0    0  0.17811422593E+02 -0.16182333251E+02  0.82753694983E+01  0.25447915923E+02  0.51100000000E-03 0.  1.
        -11    1    3    3    0    0  0.24384095188E+01 -0.10298780060E+02 -0.39762257252E+00  0.10590978033E+02  0.51100000000E-03 0. -1.
         12    1    3    3    0    0  0.10210564353E+02  0.20900470732E+02 -0.27837655982E+00  0.23262905982E+02  0.00000000000E+00 0. -1.
</event>
<event>
 7    1  0.6230310E-012  0.5930193E+02  0.7816164E-02  0.1266605E+00
        -11   -1    0    0    0    0  0.00000000000E+00  0.00000000000E+00  0.45593999997E+02  0.45594000000E+02  0.51100000000E-03 0. -1.
         11   -1    0    0    0    0 -0.00000000000E+00 -0.00000000000E+00 -0.45593999997E+02  0.45594000000E+02  0.51100000000E-03 0.  1.
    9900012    2    1    2    0    0  0.17306948382E+02 -0.24775497471E+02  0.10166879909E+02  0.59301934324E+02  0.49999982303E+02 0.  0.
         12    1    1    2    0    0 -0.17306948382E+02  0.24775497471E+02 -0.10166879909E+02  0.31886065676E+02  0.00000000000E+00 0. -1.
         11    1    3    3    0    0 -0.28970143982E+01  0.22041658616E+01  0.12024087576E+02  0.12563029963E+02  0.51100000000E-03 0. -1.
        -11    1    3    3    0    0 -0.52055202326E+00  0.69360236383E+01 -0.26013751076E+00  0.69603929562E+01  0.51100000000E-03 0.  1.
         12    1    3    3    0    0  0.20724514803E+02 -0.33915686970E+02 -0.15970701560E+01  0.39778511405E+02  0.00000000000E+00 0. -1.
</event>
<event>
 7    1  0.6230310E-012  0.5930194E+02  0.7816164E-02  0.1266605E+00
        -11   -1    0    0    0    0  0.00000000000E+00  0.00000000000E+00  0.45593999997E+02  0.45594000000E+02  0.51100000000E-03 0. -1.
         11   -1    0    0    0    0 -0.00000000000E+00 -0.00000000000E+00 -0.45593999997E+02  0.45594000000E+02  0.51100000000E-03 0.  1.
    9900012    2    1    2    0    0  0.10441167693E+02  0.16511245311E+02 -0.25200829450E+02  0.59301937065E+02  0.49999987302E+02 0.  0.
         12    1    1    2    0    0 -0.10441167693E+02 -0.16511245311E+02  0.25200829450E+02  0.31886062935E+02  0.00000000000E+00 0. -1.
         11    1    3    3    0    0  0.11094771279E+02  0.20980861493E+02 -0.16272245959E+02  0.28776318173E+02  0.51100000000E-03 0. -1.
        -11    1    3    3    0    0  0.12867706344E+02 -0.80779567306E+01 -0.48668437945E+01  0.15953602110E+02  0.51100000000E-03 0.  1.
         12    1    3    3    0    0 -0.13521309931E+02  0.36083405485E+01 -0.40617396959E+01  0.14572016783E+02  0.00000000000E+00 0. -1.
</event>
<event>
 7    1  0.6230310E-012  0.5930193E+02  0.7816164E-02  0.1266605E+00
        -11   -1    0    0    0    0  0.00000000000E+00  0.00000000000E+00  0.45593999997E+02  0.45594000000E+02  0.51100000000E-03 0.  1.
         11   -1    0    0    0    0 -0.00000000000E+00 -0.00000000000E+00 -0.45593999997E+02  0.45594000000E+02  0.51100000000E-03 0. -1.
    9900012    2    1    2    0    0  0.16196877895E+02 -0.10987466995E+02  0.25172562475E+02  0.59301934296E+02  0.49999982252E+02 0.  0.
         12    1    1    2    0    0 -0.16196877895E+02  0.10987466995E+02 -0.25172562475E+02  0.31886065704E+02  0.00000000000E+00 0. -1.
         11    1    3    3    0    0 -0.25779024745E+01  0.95055751252E+01  0.86515752869E+01  0.13109206491E+02  0.51100000000E-03 0. -1.
        -11    1    3    3    0    0 -0.33849718552E+00 -0.33248476595E+01 -0.92304852189E+01  0.98168757729E+01  0.51100000000E-03 0.  1.
        -12    1    3    3    0    0  0.19113277555E+02 -0.17168194460E+02  0.25751472407E+02  0.36375852032E+02  0.00000000000E+00 0.  1.
</event>
<event>
 7    1  0.6230310E-012  0.5930189E+02  0.7816164E-02  0.1266605E+00
        -11   -1    0    0    0    0  0.00000000000E+00  0.00000000000E+00  0.45593999997E+02  0.45594000000E+02  0.51100000000E-03 0.  1.
         11   -1    0    0    0    0 -0.00000000000E+00 -0.00000000000E+00 -0.45593999997E+02  0.45594000000E+02  0.51100000000E-03 0. -1.
    9900012    2    1    2    0    0  0.50645737897E+01  0.84855961649E+01  0.30316143618E+02  0.59301893091E+02  0.49999907103E+02 0.  0.
         12    1    1    2    0    0 -0.50645737897E+01 -0.84855961649E+01 -0.30316143618E+02  0.31886106909E+02  0.00000000000E+00 0. -1.
         11    1    3    3    0    0  0.41966062918E+01  0.18913769708E+02 -0.52310464020E+00  0.19380810810E+02  0.51100000000E-03 0. -1.
        -11    1    3    3    0    0 -0.62285318430E+01  0.51051520670E+01  0.12425768410E+02  0.14807326139E+02  0.51100000000E-03 0.  1.
        -12    1    3    3    0    0  0.70964993409E+01 -0.15533325610E+02  0.18413479848E+02  0.25113756141E+02  0.00000000000E+00 0.  1.
</event>
<event>
 7    1  0.6230310E-012  0.5930196E+02  0.7816164E-02  0.1266605E+00
        -11   -1    0    0    0    0  0.00000000000E+00  0.00000000000E+00  0.45593999997E+02  0.45594000000E+02  0.51100000000E-03 0.  1.
         11   -1    0    0    0    0 -0.00000000000E+00 -0.00000000000E+00 -0.45593999997E+02  0.45594000000E+02  0.51100000000E-03 0. -1.
    9900012    2    1    2    0    0  0.49133981302E+01 -0.30315607690E+02  0.85756618974E+01  0.59301960299E+02  0.50000029676E+02 0.  0.
         12    1    1    2    0    0 -0.49133981302E+01  0.30315607690E+02 -0.85756618974E+01  0.31886039701E+02  0.00000000000E+00 0. -1.
         11    1    3    3    0    0  0.44399171525E+01  0.10102963268E+02 -0.65953236744E+01  0.12856166837E+02  0.51100000000E-03 0. -1.
        -11    1    3    3    0    0  0.16914874128E+01 -0.50291259051E+01 -0.35569956783E+01  0.63879148048E+01  0.51100000000E-03 0.  1.
        -12    1    3    3    0    0 -0.12180064351E+01 -0.35389445053E+02  0.18727981250E+02  0.40057878657E+02  0.00000000000E+00 0.  1.
</event>
<event>
 7    1  0.6230310E-012  0.5930195E+02  0.7816164E-02  0.1266605E+00
        -11   -1    0    0    0    0  0.00000000000E+00  0.00000000000E+00  0.45593999997E+02  0.45594000000E+02  0.51100000000E-03 0.  1.
         11   -1    0    0    0    0 -0.00000000000E+00 -0.00000000000E+00 -0.45593999997E+02  0.45594000000E+02  0.51100000000E-03 0. -1.
    9900012    2    1    2    0    0  0.18290764408E+01 -0.31817485248E+02 -0.10112265429E+01  0.59301945568E+02  0.50000002808E+02 0.  0.
         12    1    1    2    0    0 -0.18290764408E+01  0.31817485248E+02  0.10112265429E+01  0.31886054432E+02  0.00000000000E+00 0. -1.
         11    1    3    3    0    0  0.98307552655E+01  0.35844844038E+01 -0.28927806239E+01  0.10856355628E+02  0.51100000000E-03 0. -1.
        -11    1    3    3    0    0 -0.29892302127E+01 -0.10995323065E+02 -0.14638494945E+02  0.18550422127E+02  0.51100000000E-03 0.  1.
        -12    1    3    3    0    0 -0.50124486119E+01 -0.24406646587E+02  0.16520049026E+02  0.29895167813E+02  0.00000000000E+00 0.  1.
</event>
<event>
 7    1  0.6230310E-012  0.5930191E+02  0.7816164E-02  0.1266605E+00
        -11   -1    0    0    0    0  0.00000000000E+00  0.00000000000E+00  0.45593999997E+02  0.45594000000E+02  0.51100000000E-03 0. -1.
         11   -1    0    0    0    0 -0.00000000000E+00 -0.00000000000E+00 -0.45593999997E+02  0.45594000000E+02  0.51100000000E-03 0.  1.
    9900012    2    1    2    0    0 -0.55777222500E+01  0.23224165688E+02 -0.21124619835E+02  0.59301914938E+02  0.49999946947E+02 0.  0.
         12    1    1    2    0    0  0.55777222500E+01 -0.23224165688E+02  0.21124619835E+02  0.31886085062E+02  0.00000000000E+00 0. -1.
         11    1    3    3    0    0  0.75728723674E+01  0.24002545446E+01  0.59261699112E+01  0.99110598752E+01  0.51100000000E-03 0. -1.
        -11    1    3    3    0    0  0.67523008286E+01  0.19858721051E+02 -0.17388050403E+02  0.27245305382E+02  0.51100000000E-03 0.  1.
         12    1    3    3    0    0 -0.19902895446E+02  0.96519009279E+00 -0.96627393434E+01  0.22145549681E+02  0.00000000000E+00 0. -1.
</event>
<event>
 7    1  0.6230310E-012  0.5930192E+02  0.7816164E-02  0.1266605E+00
        -11   -1    0    0    0    0  0.00000000000E+00  0.00000000000E+00  0.45593999997E+02  0.45594000000E+02  0.51100000000E-03 0. -1.
         11   -1    0    0    0    0 -0.00000000000E+00 -0.00000000000E+00 -0.45593999997E+02  0.45594000000E+02  0.51100000000E-03 0.  1.
    9900012    2    1    2    0    0 -0.13964800665E+02  0.91391676305E+01 -0.27169507063E+02  0.59301919076E+02  0.49999954495E+02 0.  0.
         12    1    1    2    0    0  0.13964800665E+02 -0.91391676305E+01  0.27169507063E+02  0.31886080924E+02  0.00000000000E+00 0. -1.
         11    1    3    3    0    0 -0.12620732786E+02  0.16880472935E+02 -0.16945215141E+02  0.27043919446E+02  0.51100000000E-03 0. -1.
        -11    1    3    3    0    0  0.46175093901E+01  0.44368826182E+01 -0.16215579138E+02  0.17434228614E+02  0.51100000000E-03 0.  1.
        -12    1    3    3    0    0 -0.59615772694E+01 -0.12178187923E+02  0.59912872159E+01  0.14823771016E+02  0.00000000000E+00 0.  1.
</event>
<event>
 7    1  0.6230310E-012  0.5930195E+02  0.7816164E-02  0.1266605E+00
        -11   -1    0    0    0    0  0.00000000000E+00  0.00000000000E+00  0.45593999997E+02  0.45594000000E+02  0.51100000000E-03 0. -1.
         11   -1    0    0    0    0 -0.00000000000E+00 -0.00000000000E+00 -0.45593999997E+02  0.45594000000E+02  0.51100000000E-03 0.  1.
    9900012    2    1    2    0    0 -0.74378506203E+01  0.30505187777E+02 -0.55526537024E+01  0.59301951856E+02  0.50000014276E+02 0.  0.
         12    1    1    2    0    0  0.74378506203E+01 -0.30505187777E+02  0.55526537024E+01  0.31886048144E+02  0.00000000000E+00 0. -1.
         11    1    3    3    0    0 -0.22941149618E+01 -0.39579639904E+01 -0.11034540248E+01  0.47059593553E+01  0.51100000000E-03 0. -1.
        -11    1    3    3    0    0  0.10529337990E+02 -0.44125444683E+01 -0.54876658658E+01  0.12666964281E+02  0.51100000000E-03 0.  1.
        -12    1    3    3    0    0 -0.15673073648E+02  0.38875696235E+02  0.10384661882E+01  0.41929028219E+02  0.00000000000E+00 0.  1.
</event>
<event>
 7    1  0.6230310E-012  0.5930190E+02  0.7816164E-02  0.1266605E+00
        -11   -1    0    0    0    0  0.00000000000E+00  0.00000000000E+00  0.45593999997E+02  0.45594000000E+02  0.51100000000E-03 0.  1.
         11   -1    0    0    0    0 -0.00000000000E+00 -0.00000000000E+00 -0.45593999997E+02  0.45594000000E+02  0.51100000000E-03 0. -1.
    9900012    2    1    2    0    0 -0.29314858103E+01  0.13980082231E+02  0.28507662875E+02  0.59301903487E+02  0.49999926064E+02 0.  0.
         12    1    1    2    0    0  0.29314858103E+01 -0.13980082231E+02 -0.28507662875E+02  0.31886096513E+02  0.00000000000E+00 0. -1.
         11    1    3    3    0    0  0.10019584120E+02 -0.11273614549E+01  0.34244248422E-01  0.10082865799E+02  0.51100000000E-03 0. -1.
        -11    1    3    3    0    0 -0.16577626362E+02 -0.57971031869E+01  0.19328233047E+02  0.26115219588E+02  0.51100000000E-03 0.  1.
         12    1    3    3    0    0  0.36265564309E+01  0.20904546873E+02  0.91451855793E+01  0.23103818100E+02  0.00000000000E+00 0. -1.
</event>
<event>
 7    1  0.6230310E-012  0.5930194E+02  0.7816164E-02  0.1266605E+00
        -11   -1    0    0    0    0  0.00000000000E+00  0.00000000000E+00  0.45593999997E+02  0.45594000000E+02  0.51100000000E-03 0.  1.
         11   -1    0    0    0    0 -0.00000000000E+00 -0.00000000000E+00 -0.45593999997E+02  0.45594000000E+02  0.51100000000E-03 0. -1.
    9900012    2    1    2    0    0 -0.17442294958E+02 -0.25692335771E+02  0.72381529255E+01  0.59301943039E+02  0.49999998196E+02 0.  0.
         12    1    1    2    0    0  0.17442294958E+02  0.25692335771E+02 -0.72381529255E+01  0.31886056961E+02  0.00000000000E+00 0. -1.
         11    1    3    3    0    0  0.75046540746E+01 -0.89662203954E+01 -0.14038480338E+02  0.18269971850E+02  0.51100000000E-03 0. -1.
        -11    1    3    3    0    0 -0.42541276245E+01 -0.11497501125E+01  0.13177868007E+02  0.13895169400E+02  0.51100000000E-03 0.  1.
        -12    1    3    3    0    0 -0.20692821408E+02 -0.15576365263E+02  0.80987652561E+01  0.27136801789E+02  0.00000000000E+00 0.  1.
</event>
<event>
 7    1  0.6230310E-012  0.5930194E+02  0.7816164E-02  0.1266605E+00
        -11   -1    0    0    0    0  0.00000000000E+00  0.00000000000E+00  0.45593999997E+02  0.45594000000E+02  0.51100000000E-03 0.  1.
         11   -1    0    0    0    0 -0.00000000000E+00 -0.00000000000E+00 -0.45593999997E+02  0.45594000000E+02  0.51100000000E-03 0. -1.
    9900012    2    1    2    0    0 -0.80011118476E+01 -0.30857972762E+02  0.69916775648E+00  0.59301935499E+02  0.49999984446E+02 0.  0.
         12    1    1    2    0    0  0.80011118476E+01  0.30857972762E+02 -0.69916775648E+00  0.31886064501E+02  0.00000000000E+00 0. -1.
         11    1    3    3    0    0 -0.68223610097E+01 -0.21520329786E+02 -0.27870919286E+01  0.22747243471E+02  0.51100000000E-03 0. -1.
        -11    1    3    3    0    0 -0.91223015800E+01  0.10819881579E+02  0.45406063390E+01  0.14862817017E+02  0.51100000000E-03 0.  1.
         12    1    3    3    0    0  0.79435507421E+01 -0.20157524556E+02 -0.10543466539E+01  0.21691875011E+02  0.00000000000E+00 0. -1.
</event>
<event>
 7    1  0.6230310E-012  0.5930193E+02  0.7816164E-02  0.1266605E+00
        -11   -1    0    0    0    0  0.00000000000E+00  0.00000000000E+00  0.45593999997E+02  0.45594000000E+02  0.51100000000E-03 0. -1.
         11   -1    0    0    0    0 -0.00000000000E+00 -0.00000000000E+00 -0.45593999997E+02  0.45594000000E+02  0.51100000000E-03 0.  1.
    9900012    2    1    2    0    0  0.27623111858E+02  0.78603303350E+01 -0.13852818009E+02  0.59301926731E+02  0.49999968456E+02 0.  0.
         12    1    1    2    0    0 -0.27623111858E+02 -0.78603303350E+01  0.13852818009E+02  0.31886073269E+02  0.00000000000E+00 0. -1.
         11    1    3    3    0    0  0.20574641313E+02 -0.36115364736E+01  0.38008059984E+01  0.21232173401E+02  0.51100000000E-03 0. -1.
        -11    1    3    3    0    0  0.59765087336E+01 -0.77876875139E+01 -0.15919146994E+02  0.18702565994E+02  0.51100000000E-03 0.  1.
         12    1    3    3    0    0  0.10719618117E+01  0.19259554322E+02 -0.17344770136E+01  0.19367187337E+02  0.00000000000E+00 0. -1.
</event>
<event>
 7    1  0.6230310E-012  0.5930196E+02  0.7816164E-02  0.1266605E+00
        -11   -1    0    0    0    0  0.00000000000E+00  0.00000000000E+00  0.45593999997E+02  0.45594000000E+02  0.51100000000E-03 0.  1.
         11   -1    0    0    0    0 -0.00000000000E+00 -0.00000000000E+00 -0.45593999997E+02  0.45594000000E+02  0.51100000000E-03 0. -1.
    9900012    2    1    2    0    0 -0.30257794466E+02 -0.43518925808E+01 -0.90689793966E+01  0.59301961013E+02  0.50000030977E+02 0.  0.
         12    1    1    2    0    0  0.30257794466E+02  0.43518925808E+01  0.90689793966E+01  0.31886038987E+02  0.00000000000E+00 0. -1.
         11    1    3    3    0    0 -0.27653073531E+02 -0.13277096849E+02  0.14120874823E+01  0.30707780248E+02  0.51100000000E-03 0. -1.
        -11    1    3    3    0    0 -0.12467167975E+02  0.10872129582E+02 -0.68864738508E+01  0.17918063548E+02  0.51100000000E-03 0.  1.
        -12    1    3    3    0    0  0.98624470399E+01 -0.19469253139E+01 -0.35945930282E+01  0.10676117217E+02  0.00000000000E+00 0.  1.
</event>
<event>
 7    1  0.6230310E-012  0.5930194E+02  0.7816164E-02  0.1266605E+00
        -11   -1    0    0    0    0  0.00000000000E+00  0.00000000000E+00  0.45593999997E+02  0.45594000000E+02  0.51100000000E-03 0. -1.
         11   -1    0    0    0    0 -0.00000000000E+00 -0.00000000000E+00 -0.45593999997E+02  0.45594000000E+02  0.51100000000E-03 0.  1.
    9900012    2    1    2    0    0 -0.32342889641E+01  0.18866863329E+02 -0.25501014281E+02  0.59301938996E+02  0.49999990823E+02 0.  0.
         12    1    1    2    0    0  0.32342889641E+01 -0.18866863329E+02  0.25501014281E+02  0.31886061004E+02  0.00000000000E+00 0. -1.
         11    1    3    3    0    0 -0.76440532624E+01  0.98065351137E+00 -0.12179735402E+02  0.14413160178E+02  0.51100000000E-03 0. -1.
        -11    1    3    3    0    0 -0.70993742580E+01  0.24135235210E+02 -0.18052074449E+02  0.30964303410E+02  0.51100000000E-03 0.  1.
         12    1    3    3    0    0  0.11509138556E+02 -0.62490253924E+01  0.47307955701E+01  0.13924475408E+02  0.00000000000E+00 0. -1.
</event>
<event>
 7    1  0.6230310E-012  0.5930195E+02  0.7816164E-02  0.1266605E+00
        -11   -1    0    0    0    0  0.00000000000E+00  0.00000000000E+00  0.45593999997E+02  0.45594000000E+02  0.51100000000E-03 0. -1.
         11   -1    0    0    0    0 -0.00000000000E+00 -0.00000000000E+00 -0.45593999997E+02  0.45594000000E+02  0.51100000000E-03 0.  1.
    9900012    2    1    2    0    0 -0.31118278641E+02  0.52966504701E+00  0.69348773506E+01  0.59301947650E+02  0.50000006606E+02 0.  0.
         12    1    1    2    0    0  0.31118278641E+02 -0.52966504701E+00 -0.69348773506E+01  0.31886052350E+02  0.00000000000E+00 0. -1.
         11    1    3    3    0    0  0.31348197113E+01  0.88100907006E+01  0.10115637309E+02  0.13775736321E+02  0.51100000000E-03 0. -1.
        -11    1    3    3    0    0 -0.75665320738E+01  0.10085523178E+02  0.18462837577E+01  0.12742799903E+02  0.51100000000E-03 0.  1.
        -12    1    3    3    0    0 -0.26686566278E+02 -0.18365948831E+02 -0.50270437157E+01  0.32783411426E+02  0.00000000000E+00 0.  1.
</event>
<event>
 7    1  0.6230310E-012  0.5930195E+02  0.7816164E-02  0.1266605E+00
        -11   -1    0    0    0    0  0.00000000000E+00  0.00000000000E+00  0.45593999997E+02  0.45594000000E+02  0.51100000000E-03 0.  1.
         11   -1    0    0    0    0 -0.00000000000E+00 -0.00000000000E+00 -0.45593999997E+02  0.45594000000E+02  0.51100000000E-03 0. -1.
    9900012    2    1    2    0    0 -0.31311543406E+02 -0.57545336390E+01 -0.17869159087E+01  0.59301945425E+02  0.50000002549E+02 0.  0.
         12    1    1    2    0    0  0.31311543406E+02  0.57545336390E+01  0.17869159087E+01  0.31886054575E+02  0.00000000000E+00 0. -1.
         11    1    3    3    0    0 -0.32644315665E+02  0.74751347925E+01  0.12052559670E+02  0.35592038158E+02  0.51100000000E-03 0. -1.
        -11    1    3    3    0    0  0.31876083639E+00  0.13552910574E+01  0.18166497603E+01  0.22888073169E+01  0.51100000000E-03 0.  1.
         12    1    3    3    0    0  0.10140114221E+01 -0.14584959489E+02 -0.15656125339E+02  0.21421099950E+02  0.00000000000E+00 0. -1.
</event>
<event>
 7    1  0.6230310E-012  0.5930189E+02  0.7816164E-02  0.1266605E+00
        -11   -1    0    0    0    0  0.00000000000E+00  0.00000000000E+00  0.45593999997E+02  0.45594000000E+02  0.51100000000E-03 0. -1.
         11   -1    0    0    0    0 -0.00000000000E+00 -0.00000000000E+00 -0.45593999997E+02  0.45594000000E+02  0.51100000000E-03 0.  1.
    9900012    2    1    2    0    0  0.10193449672E+02  0.13062713587E+02 -0.27243041474E+02  0.59301886859E+02  0.49999895738E+02 0.  0.
         12    1    1    2    0    0 -0.10193449672E+02 -0.13062713587E+02  0.27243041474E+02  0.31886113141E+02  0.00000000000E+00 0. -1.
         11    1    3    3    0    0  0.20080764898E+02  0.26859037823E+01 -0.20810908104E+02  0.29043847789E+02  0.51100000000E-03 0. -1.
        -11    1    3    3    0    0 -0.73316106567E+00 -0.45193850951E+01 -0.11230075064E+02  0.12127528725E+02  0.51100000000E-03 0.  1.
         12    1    3    3    0    0 -0.91541541600E+01  0.14896194900E+02  0.47979416936E+01  0.18130510345E+02  0.00000000000E+00 0. -1.
</event>
<event>
 7    1  0.6230310E-012  0.5930195E+02  0.7816164E-02  0.1266605E+00
        -11   -1    0    0    0    0  0.00000000000E+00  0.00000000000E+00  0.45593999997E+02  0.45594000000E+02  0.51100000000E-03 0.  1.
         11   -1    0    0    0    0 -0.00000000000E+00 -0.00000000000E+00 -0.45593999997E+02  0.45594000000E+02  0.51100000000E-03 0. -1.
    9900012    2    1    2    0    0  0.29441811800E+02 -0.88432353938E+01 -0.84674101055E+01  0.59301950885E+02  0.50000012506E+02 0.  0.
         12    1    1    2    0    0 -0.29441811800E+02  0.88432353938E+01  0.84674101055E+01  0.31886049115E+02  0.00000000000E+00 0. -1.
         11    1    3    3    0    0  0.14463932178E+02 -0.82948845096E+01 -0.12602480928E+02  0.20900549488E+02  0.51100000000E-03 0. -1.
        -11    1    3    3    0    0  0.82904029387E+01 -0.16430783959E+02  0.90116906048E+01  0.20491754688E+02  0.51100000000E-03 0.  1.
         12    1    3    3    0    0  0.66874766832E+01  0.15882433074E+02 -0.48766197818E+01  0.17909646709E+02  0.00000000000E+00 0. -1.
</event>
<event>
 7    1  0.6230310E-012  0.5930198E+02  0.7816164E-02  0.1266605E+00
        -11   -1    0    0    0    0  0.00000000000E+00  0.00000000000E+00  0.45593999997E+02  0.45594000000E+02  0.51100000000E-03 0.  1.
         11   -1    0    0    0    0 -0.00000000000E+00 -0.00000000000E+00 -0.45593999997E+02  0.45594000000E+02  0.51100000000E-03 0. -1.
    9900012    2    1    2    0    0 -0.70107577909E+01  0.19778152453E+01  0.31042801587E+02  0.59301984126E+02  0.50000073129E+02 0.  0.
         12    1    1    2    0    0  0.70107577909E+01 -0.19778152453E+01 -0.31042801587E+02  0.31886015874E+02  0.00000000000E+00 0. -1.
         11    1    3    3    0    0 -0.72353564983E+01 -0.19257974391E+02  0.24518491913E+02  0.32005880822E+02  0.51100000000E-03 0. -1.
        -11    1    3    3    0    0  0.67472706279E+01  0.63935460898E+01  0.60230176885E+01  0.11076092942E+02  0.51100000000E-03 0.  1.
        -12    1    3    3    0    0 -0.65226719205E+01  0.14842243546E+02  0.50129198588E+00  0.16220010361E+02  0.00000000000E+00 0.  1.
</event>
<event>
 7    1  0.6230310E-012  0.5930196E+02  0.7816164E-02  0.1266605E+00
        -11   -1    0    0    0    0  0.00000000000E+00  0.00000000000E+00  0.45593999997E+02  0.45594000000E+02  0.51100000000E-03 0. -1.
         11   -1    0    0    0    0 -0.00000000000E+00 -0.00000000000E+00 -0.45593999997E+02  0.45594000000E+02  0.51100000000E-03 0.  1.
    9900012    2    1    2    0    0  0.32469393699E+01 -0.22576404055E+02 -0.22281901737E+02  0.59301956339E+02  0.50000022453E+02 0.  0.
         12    1    1    2    0    0 -0.32469393699E+01  0.22576404055E+02  0.22281901737E+02  0.31886043661E+02  0.00000000000E+00 0. -1.
         11    1    3    3    0    0 -0.14303898350E+01 -0.22895552484E+02 -0.23396146466E+01  0.23059187661E+02  0.51100000000E-03 0. -1.
        -11    1    3    3    0    0 -0.10470186664E+02  0.27690333231E+01 -0.17678756847E+02  0.20732361135E+02  0.51100000000E-03 0.  1.
         12    1    3    3    0    0  0.15147515869E+02 -0.24498848935E+01 -0.22635302433E+01  0.15510407543E+02  0.00000000000E+00 0. -1.
</event>
<event>
 7    1  0.6230310E-012  0.5930194E+02  0.7816164E-02  0.1266605E+00
        -11   -1    0    0    0    0  0.00000000000E+00  0.00000000000E+00  0.45593999997E+02  0.45594000000E+02  0.51100000000E-03 0.  1.
         11   -1    0    0    0    0 -0.00000000000E+00 -0.00000000000E+00 -0.45593999997E+02  0.45594000000E+02  0.51100000000E-03 0. -1.
    9900012    2    1    2    0    0  0.17631682806E+02  0.22195873685E+02  0.14600954816E+02  0.59301938331E+02  0.49999989611E+02 0.  0.
         12    1    1    2    0    0 -0.17631682806E+02 -0.22195873685E+02 -0.14600954816E+02  0.31886061669E+02  0.00000000000E+00 0. -1.
         11    1    3    3    0    0  0.41375698740E+01 -0.19284648722E+01 -0.70155955032E+01  0.83700084678E+01  0.51100000000E-03 0. -1.
        -11    1    3    3    0    0  0.48512070980E+01 -0.98444708742E+01  0.38120971735E+01  0.11618085136E+02  0.51100000000E-03 0.  1.
         12    1    3    3    0    0  0.86429058335E+01  0.33968809432E+02  0.17804453146E+02  0.39313844728E+02  0.00000000000E+00 0. -1.
</event>
<event>
 7    1  0.6230310E-012  0.5930194E+02  0.7816164E-02  0.1266605E+00
        -11   -1    0    0    0    0  0.00000000000E+00  0.00000000000E+00  0.45593999997E+02  0.45594000000E+02  0.51100000000E-03 0. -1.
         11   -1    0    0    0    0 -0.00000000000E+00 -0.00000000000E+00 -0.45593999997E+02  0.45594000000E+02  0.51100000000E-03 0.  1.
    9900012    2    1    2    0    0  0.27574149998E+02 -0.37115825532E+01 -0.15575976078E+02  0.59301943111E+02  0.49999998328E+02 0.  0.
         12    1    1    2    0    0 -0.27574149998E+02  0.37115825532E+01  0.15575976078E+02  0.31886056889E+02  0.00000000000E+00 0. -1.
         11    1    3    3    0    0 -0.47725892730E+01  0.33195069190E+01  0.36250556262E+01  0.68511140049E+01  0.51100000000E-03 0. -1.
        -11    1    3    3    0    0 -0.73265045438E+01 -0.27366148748E+01  0.71211806835E+00  0.78532695234E+01  0.51100000000E-03 0.  1.
         12    1    3    3    0    0  0.39673243815E+02 -0.42944745973E+01 -0.19913149773E+02  0.44597559582E+02  0.00000000000E+00 0. -1.
</event>
<event>
 7    1  0.6230310E-012  0.5930195E+02  0.7816164E-02  0.1266605E+00
        -11   -1    0    0    0    0  0.00000000000E+00  0.00000000000E+00  0.45593999997E+02  0.45594000000E+02  0.51100000000E-03 0. -1.
         11   -1    0    0    0    0 -0.00000000000E+00 -0.00000000000E+00 -0.45593999997E+02  0.45594000000E+02  0.51100000000E-03 0.  1.
    9900012    2    1    2    0    0  0.15187338080E+02 -0.23919038192E+02 -0.14626835840E+02  0.59301953637E+02  0.50000017525E+02 0.  0.
         12    1    1    2    0    0 -0.15187338080E+02  0.23919038192E+02  0.14626835840E+02  0.31886046363E+02  0.00000000000E+00 0. -1.
         11    1    3    3    0    0  0.43578594856E+01 -0.12602893051E-01 -0.11236865730E+02  0.12052313049E+02  0.51100000000E-03 0.  1.
        -11    1    3    3    0    0  0.83261060829E+01  0.93525491066E+01 -0.58199221755E+01  0.13808175538E+02  0.51100000000E-03 0. -1.
        -12    1    3    3    0    0  0.25033725113E+01 -0.33258984406E+02  0.24299520662E+01  0.33441465050E+02  0.00000000000E+00 0.  1.
</event>
<event>
 7    1  0.6230310E-012  0.5930192E+02  0.7816164E-02  0.1266605E+00
        -11   -1    0    0    0    0  0.00000000000E+00  0.00000000000E+00  0.45593999997E+02  0.45594000000E+02  0.51100000000E-03 0.  1.
         11   -1    0    0    0    0 -0.00000000000E+00 -0.00000000000E+00 -0.45593999997E+02  0.45594000000E+02  0.51100000000E-03 0. -1.
    9900012    2    1    2    0    0  0.61902846765E+01 -0.65790628176E+00  0.31272505352E+02  0.59301920655E+02  0.49999957373E+02 0.  0.
         12    1    1    2    0    0 -0.61902846765E+01  0.65790628176E+00 -0.31272505352E+02  0.31886079345E+02  0.00000000000E+00 0. -1.
         11    1    3    3    0    0 -0.14659277393E+02 -0.26542359604E+01  0.99728515017E+01  0.17927552804E+02  0.51100000000E-03 0. -1.
        -11    1    3    3    0    0 -0.40834677148E+01 -0.43359933896E+01  0.13073782819E+02  0.14366605191E+02  0.51100000000E-03 0.  1.
         12    1    3    3    0    0  0.24933029784E+02  0.63323230682E+01  0.82258710307E+01  0.27007762659E+02  0.00000000000E+00 0. -1.
</event>
<event>
 7    1  0.6230310E-012  0.5930194E+02  0.7816164E-02  0.1266605E+00
        -11   -1    0    0    0    0  0.00000000000E+00  0.00000000000E+00  0.45593999997E+02  0.45594000000E+02  0.51100000000E-03 0. -1.
         11   -1    0    0    0    0 -0.00000000000E+00 -0.00000000000E+00 -0.45593999997E+02  0.45594000000E+02  0.51100000000E-03 0.  1.
    9900012    2    1    2    0    0 -0.10325855394E+02 -0.10637531523E+02 -0.28230130922E+02  0.59301942570E+02  0.49999997342E+02 0.  0.
         12    1    1    2    0    0  0.10325855394E+02  0.10637531523E+02  0.28230130922E+02  0.31886057430E+02  0.00000000000E+00 0. -1.
         11    1    3    3    0    0  0.34924839552E+00 -0.48418175905E+01  0.37318874621E+01  0.61230838891E+01  0.51100000000E-03 0. -1.
        -11    1    3    3    0    0 -0.37083511473E+01 -0.21914003908E+02 -0.83256362198E+01  0.23733766120E+02  0.51100000000E-03 0.  1.
        -12    1    3    3    0    0 -0.69667526421E+01  0.16118289975E+02 -0.23636382164E+02  0.29445092561E+02  0.00000000000E+00 0.  1.
</event>
<event>
 7    1  0.6230310E-012  0.5930198E+02  0.7816164E-02  0.1266605E+00
        -11   -1    0    0    0    0  0.00000000000E+00  0.00000000000E+00  0.45593999997E+02  0.45594000000E+02  0.51100000000E-03 0.  1.
         11   -1    0    0    0    0 -0.00000000000E+00 -0.00000000000E+00 -0.45593999997E+02  0.45594000000E+02  0.51100000000E-03 0. -1.
    9900012    2    1    2    0    0  0.30264774161E+02 -0.84677416334E+01 -0.53906525555E+01  0.59301978951E+02  0.50000063691E+02 0.  0.
         12    1    1    2    0    0 -0.30264774161E+02  0.84677416334E+01  0.53906525555E+01  0.31886021049E+02  0.00000000000E+00 0. -1.
         11    1    3    3    0    0  0.13028416564E+02 -0.23553159566E+02 -0.12024111501E+02  0.29479996971E+02  0.51100000000E-03 0.  1.
        -11    1    3    3    0    0  0.57532333084E+01  0.10049955804E+02 -0.50963635318E+01  0.12652044367E+02  0.51100000000E-03 0. -1.
        -12    1    3    3    0    0  0.11483124288E+02  0.50354621290E+01  0.11729822478E+02  0.17169937613E+02  0.00000000000E+00 0.  1.
</event>
<event>
 7    1  0.6230310E-012  0.5930194E+02  0.7816164E-02  0.1266605E+00
        -11   -1    0    0    0    0  0.00000000000E+00  0.00000000000E+00  0.45593999997E+02  0.45594000000E+02  0.51100000000E-03 0.  1.
         11   -1    0    0    0    0 -0.00000000000E+00 -0.00000000000E+00 -0.45593999997E+02  0.45594000000E+02  0.51100000000E-03 0. -1.
    9900012    2    1    2    0    0  0.21411140455E+02  0.21867335017E+02  0.89500499513E+01  0.59301942381E+02  0.49999996997E+02 0.  0.
         12    1    1    2    0    0 -0.21411140455E+02 -0.21867335017E+02 -0.89500499513E+01  0.31886057619E+02  0.00000000000E+00 0. -1.
         11    1    3    3    0    0  0.17617609680E+02  0.20938043737E+02  0.82414147314E+01  0.28578011887E+02  0.51100000000E-03 0.  1.
        -11    1    3    3    0    0  0.33263480457E+01  0.89595173895E+01  0.12938753280E+02  0.16085673124E+02  0.51100000000E-03 0. -1.
         12    1    3    3    0    0  0.46718272931E+00 -0.80302261097E+01 -0.12230118060E+02  0.14638257370E+02  0.00000000000E+00 0. -1.
</event>
<event>
 7    1  0.6230310E-012  0.5930195E+02  0.7816164E-02  0.1266605E+00
        -11   -1    0    0    0    0  0.00000000000E+00  0.00000000000E+00  0.45593999997E+02  0.45594000000E+02  0.51100000000E-03 0.  1.
         11   -1    0    0    0    0 -0.00000000000E+00 -0.00000000000E+00 -0.45593999997E+02  0.45594000000E+02  0.51100000000E-03 0. -1.
    9900012    2    1    2    0    0 -0.22798258597E+01  0.21133957794E+02  0.23767172521E+02  0.59301948698E+02  0.50000008518E+02 0.  0.
         12    1    1    2    0    0  0.22798258597E+01 -0.21133957794E+02 -0.23767172521E+02  0.31886051302E+02  0.00000000000E+00 0. -1.
         11    1    3    3    0    0  0.77952339644E+01  0.13968851058E+02 -0.74422847648E+01  0.17643187785E+02  0.51100000000E-03 0. -1.
        -11    1    3    3    0    0 -0.76545838105E+01  0.16338500865E+02  0.19085658533E+02  0.26264074812E+02  0.51100000000E-03 0.  1.
        -12    1    3    3    0    0 -0.24204760136E+01 -0.91733941284E+01  0.12123798753E+02  0.15394686101E+02  0.00000000000E+00 0.  1.
</event>
<event>
 7    1  0.6230310E-012  0.5930193E+02  0.7816164E-02  0.1266605E+00
        -11   -1    0    0    0    0  0.00000000000E+00  0.00000000000E+00  0.45593999997E+02  0.45594000000E+02  0.51100000000E-03 0.  1.
         11   -1    0    0    0    0 -0.00000000000E+00 -0.00000000000E+00 -0.45593999997E+02  0.45594000000E+02  0.51100000000E-03 0. -1.
    9900012    2    1    2    0    0 -0.22519056238E+02  0.58359548128E+01 -0.21807232650E+02  0.59301926892E+02  0.49999968748E+02 0.  0.
         12    1    1    2    0    0  0.22519056238E+02 -0.58359548128E+01  0.21807232650E+02  0.31886073108E+02  0.00000000000E+00 0. -1.
         11    1    3    3    0    0 -0.30005901039E+01  0.91099726388E+01 -0.93383315477E+01  0.13386544693E+02  0.51100000000E-03 0. -1.
        -11    1    3    3    0    0  0.47777865078E+01  0.51358337460E+01 -0.18259746737E+02  0.19560735757E+02  0.51100000000E-03 0.  1.
        -12    1    3    3    0    0 -0.24296252642E+02 -0.84098515720E+01  0.57908456353E+01  0.26354646442E+02  0.00000000000E+00 0.  1.
</event>
<event>
 7    1  0.6230310E-012  0.5930191E+02  0.7816164E-02  0.1266605E+00
        -11   -1    0    0    0    0  0.00000000000E+00  0.00000000000E+00  0.45593999997E+02  0.45594000000E+02  0.51100000000E-03 0.  1.
         11   -1    0    0    0    0 -0.00000000000E+00 -0.00000000000E+00 -0.45593999997E+02  0.45594000000E+02  0.51100000000E-03 0. -1.
    9900012    2    1    2    0    0 -0.18876438730E+02  0.25677725917E+02 -0.10281830440E+01  0.59301910435E+02  0.49999938735E+02 0.  0.
         12    1    1    2    0    0  0.18876438730E+02 -0.25677725917E+02  0.10281830440E+01  0.31886089565E+02  0.00000000000E+00 0. -1.
         11    1    3    3    0    0  0.28393246667E+01 -0.47259528399E+01 -0.39098804761E+01  0.67589614887E+01  0.51100000000E-03 0. -1.
        -11    1    3    3    0    0 -0.18058101110E+02  0.32645137057E+02  0.14601661066E+02  0.40062557274E+02  0.51100000000E-03 0.  1.
         12    1    3    3    0    0 -0.36576622867E+01 -0.22414583005E+01 -0.11719963634E+02  0.12480391672E+02  0.00000000000E+00 0. -1.
</event>
<event>
 7    1  0.6230310E-012  0.5930191E+02  0.7816164E-02  0.1266605E+00
        -11   -1    0    0    0    0  0.00000000000E+00  0.00000000000E+00  0.45593999997E+02  0.45594000000E+02  0.51100000000E-03 0.  1.
         11   -1    0    0    0    0 -0.00000000000E+00 -0.00000000000E+00 -0.45593999997E+02  0.45594000000E+02  0.51100000000E-03 0. -1.
    9900012    2    1    2    0    0  0.97986367787E+01  0.27714443423E+02  0.12353902233E+02  0.59301912793E+02  0.49999943036E+02 0.  0.
         12    1    1    2    0    0 -0.97986367787E+01 -0.27714443423E+02 -0.12353902233E+02  0.31886087207E+02  0.00000000000E+00 0. -1.
         11    1    3    3    0    0 -0.63740440569E+01  0.64073017117E+01 -0.86986049151E+00  0.90795710472E+01  0.51100000000E-03 0.  1.
        -11    1    3    3    0    0  0.29497392903E+02  0.15501822334E+02  0.12754780872E+02  0.35680346398E+02  0.51100000000E-03 0. -1.
         12    1    3    3    0    0 -0.13324712067E+02  0.58053193770E+01  0.46898185288E+00  0.14541995348E+02  0.00000000000E+00 0. -1.
</event>
<event>
 7    1  0.6230310E-012  0.5930193E+02  0.7816164E-02  0.1266605E+00
        -11   -1    0    0    0    0  0.00000000000E+00  0.00000000000E+00  0.45593999997E+02  0.45594000000E+02  0.51100000000E-03 0.  1.
         11   -1    0    0    0    0 -0.00000000000E+00 -0.00000000000E+00 -0.45593999997E+02  0.45594000000E+02  0.51100000000E-03 0. -1.
    9900012    2    1    2    0    0 -0.10208037424E+02 -0.27989253371E+02  0.11363072887E+02  0.59301925332E+02  0.49999965903E+02 0.  0.
         12    1    1    2    0    0  0.10208037424E+02  0.27989253371E+02 -0.11363072887E+02  0.31886074668E+02  0.00000000000E+00 0. -1.
         11    1    3    3    0    0 -0.18097179262E+02 -0.13680690888E+02  0.10180690470E+02  0.24865953814E+02  0.51100000000E-03 0. -1.
        -11    1    3    3    0    0 -0.78299608050E+01  0.45884064791E-01 -0.80527044254E+01  0.11231938407E+02  0.51100000000E-03 0.  1.
         12    1    3    3    0    0  0.15719102643E+02 -0.14354446548E+02  0.92350868428E+01  0.23204033110E+02  0.00000000000E+00 0. -1.
</event>
<event>
 7    1  0.6230310E-012  0.5930189E+02  0.7816164E-02  0.1266605E+00
        -11   -1    0    0    0    0  0.00000000000E+00  0.00000000000E+00  0.45593999997E+02  0.45594000000E+02  0.51100000000E-03 0.  1.
         11   -1    0    0    0    0 -0.00000000000E+00 -0.00000000000E+00 -0.45593999997E+02  0.45594000000E+02  0.51100000000E-03 0. -1.
    9900012    2    1    2    0    0 -0.23571924100E+02 -0.83358421651E+01  0.19788932995E+02  0.59301894257E+02  0.49999909230E+02 0.  0.
         12    1    1    2    0    0  0.23571924100E+02  0.83358421651E+01 -0.19788932995E+02  0.31886105743E+02  0.00000000000E+00 0. -1.
         11    1    3    3    0    0 -0.19990575903E+02 -0.80543959920E+01  0.10708388572E+01  0.21578765392E+02  0.51100000000E-03 0. -1.
        -11    1    3    3    0    0 -0.15887751018E+02 -0.11349884947E+01  0.19716783299E+02  0.25346802071E+02  0.51100000000E-03 0.  1.
         12    1    3    3    0    0  0.12306402821E+02  0.85354232155E+00 -0.99868916117E+00  0.12376326794E+02  0.00000000000E+00 0. -1.
</event>
<event>
 7    1  0.6230310E-012  0.5930193E+02  0.7816164E-02  0.1266605E+00
        -11   -1    0    0    0    0  0.00000000000E+00  0.00000000000E+00  0.45593999997E+02  0.45594000000E+02  0.51100000000E-03 0. -1.
         11   -1    0    0    0    0 -0.00000000000E+00 -0.00000000000E+00 -0.45593999997E+02  0.45594000000E+02  0.51100000000E-03 0.  1.
    9900012    2    1    2    0    0  0.31184283587E+01  0.17033796478E+02 -0.26773987611E+02  0.59301933600E+02  0.49999980982E+02 0.  0.
         12    1    1    2    0    0 -0.31184283587E+01 -0.17033796478E+02  0.26773987611E+02  0.31886066400E+02  0.00000000000E+00 0. -1.
         11    1    3    3    0    0  0.96364258522E+01  0.77741204785E+01  0.61512258800E+01  0.13825166636E+02  0.51100000000E-03 0. -1.
        -11    1    3    3    0    0 -0.41155351575E+01  0.27945911257E+01  0.49268277525E+01  0.70014999219E+01  0.51100000000E-03 0.  1.
        -12    1    3    3    0    0 -0.24024623360E+01  0.64650848740E+01 -0.37852041243E+02  0.38475267042E+02  0.00000000000E+00 0.  1.
</event>
<event>
 7    1  0.6230310E-012  0.5930197E+02  0.7816164E-02  0.1266605E+00
        -11   -1    0    0    0    0  0.00000000000E+00  0.00000000000E+00  0.45593999997E+02  0.45594000000E+02  0.51100000000E-03 0.  1.
         11   -1    0    0    0    0 -0.00000000000E+00 -0.00000000000E+00 -0.45593999997E+02  0.45594000000E+02  0.51100000000E-03 0. -1.
    9900012    2    1    2    0    0  0.19940781232E+02 -0.21783872234E+02  0.12022768994E+02  0.59301971399E+02  0.50000049918E+02 0.  0.
         12    1    1    2    0    0 -0.19940781232E+02  0.21783872234E+02 -0.12022768994E+02  0.31886028601E+02  0.00000000000E+00 0. -1.
         11    1    3    3    0    0  0.92314645268E+01  0.82917855617E+01 -0.12852334527E+01  0.12474993804E+02  0.51100000000E-03 0. -1.
        -11    1    3    3    0    0  0.11278679220E+02 -0.44883483948E+01  0.17082732719E+02  0.20956469972E+02  0.51100000000E-03 0.  1.
        -12    1    3    3    0    0 -0.56936251516E+00 -0.25587309401E+02 -0.37747302721E+01  0.25870507623E+02  0.00000000000E+00 0.  1.
</event>
<event>
 7    1  0.6230310E-012  0.5930193E+02  0.7816164E-02  0.1266605E+00
        -11   -1    0    0    0    0  0.00000000000E+00  0.00000000000E+00  0.45593999997E+02  0.45594000000E+02  0.51100000000E-03 0.  1.
         11   -1    0    0    0    0 -0.00000000000E+00 -0.00000000000E+00 -0.45593999997E+02  0.45594000000E+02  0.51100000000E-03 0. -1.
    9900012    2    1    2    0    0  0.21636547435E+02  0.16978539677E+02  0.16134141807E+02  0.59301928960E+02  0.49999972520E+02 0.  0.
         12    1    1    2    0    0 -0.21636547435E+02 -0.16978539677E+02 -0.16134141807E+02  0.31886071040E+02  0.00000000000E+00 0. -1.
         11    1    3    3    0    0  0.12864609879E+02 -0.20915969774E+01 -0.11285495642E+02  0.17240515578E+02  0.51100000000E-03 0. -1.
        -11    1    3    3    0    0 -0.13893984546E+01  0.16958376528E+01 -0.41081930755E+01  0.46565592466E+01  0.51100000000E-03 0.  1.
        -12    1    3    3    0    0  0.10161336011E+02  0.17374299002E+02  0.31527830524E+02  0.37404854136E+02  0.00000000000E+00 0.  1.
</event>
<event>
 7    1  0.6230310E-012  0.5930194E+02  0.7816164E-02  0.1266605E+00
        -11   -1    0    0    0    0  0.00000000000E+00  0.00000000000E+00  0.45593999997E+02  0.45594000000E+02  0.51100000000E-03 0. -1.
         11   -1    0    0    0    0 -0.00000000000E+00 -0.00000000000E+00 -0.45593999997E+02  0.45594000000E+02  0.51100000000E-03 0.  1.
    9900012    2    1    2    0    0 -0.24662432122E+02  0.35048714279E+01 -0.19904796024E+02  0.59301943695E+02  0.49999999394E+02 0.  0.
         12    1    1    2    0    0  0.24662432122E+02 -0.35048714279E+01  0.19904796024E+02  0.31886056305E+02  0.00000000000E+00 0. -1.
         11    1    3    3    0    0 -0.42494232340E+01  0.65867587961E+01  0.79872292952E+01  0.11191015206E+02  0.51100000000E-03 0. -1.
        -11    1    3    3    0    0 -0.22744243300E+02  0.10333058242E+02 -0.13903732061E+02  0.28589971343E+02  0.51100000000E-03 0.  1.
         12    1    3    3    0    0  0.23312344120E+01 -0.13414945611E+02 -0.13988293258E+02  0.19520957146E+02  0.00000000000E+00 0. -1.
</event>
<event>
 7    1  0.6230310E-012  0.5930197E+02  0.7816164E-02  0.1266605E+00
        -11   -1    0    0    0    0  0.00000000000E+00  0.00000000000E+00  0.45593999997E+02  0.45594000000E+02  0.51100000000E-03 0.  1.
         11   -1    0    0    0    0 -0.00000000000E+00 -0.00000000000E+00 -0.45593999997E+02  0.45594000000E+02  0.51100000000E-03 0. -1.
    9900012    2    1    2    0    0 -0.30826731315E+02 -0.80969846820E+01 -0.93305749334E+00  0.59301966682E+02  0.50000041316E+02 0.  0.
         12    1    1    2    0    0  0.30826731315E+02  0.80969846820E+01  0.93305749334E+00  0.31886033318E+02  0.00000000000E+00 0. -1.
         11    1    3    3    0    0 -0.14542505485E+02  0.13880942312E+02 -0.67839115469E+01  0.21217598389E+02  0.51100000000E-03 0. -1.
        -11    1    3    3    0    0 -0.17596871236E+02 -0.22157856305E+01  0.40844723085E+01  0.18200068614E+02  0.51100000000E-03 0.  1.
         12    1    3    3    0    0  0.13126454066E+01 -0.19762141364E+02  0.17663817450E+01  0.19884299679E+02  0.00000000000E+00 0. -1.
</event>
<event>
 7    1  0.6230310E-012  0.5930194E+02  0.7816164E-02  0.1266605E+00
        -11   -1    0    0    0    0  0.00000000000E+00  0.00000000000E+00  0.45593999997E+02  0.45594000000E+02  0.51100000000E-03 0.  1.
         11   -1    0    0    0    0 -0.00000000000E+00 -0.00000000000E+00 -0.45593999997E+02  0.45594000000E+02  0.51100000000E-03 0. -1.
    9900012    2    1    2    0    0  0.59823970336E+01  0.18845150567E+02  0.25015838490E+02  0.59301938006E+02  0.49999989017E+02 0.  0.
         12    1    1    2    0    0 -0.59823970336E+01 -0.18845150567E+02 -0.25015838490E+02  0.31886061994E+02  0.00000000000E+00 0. -1.
         11    1    3    3    0    0  0.18880465066E+02 -0.13224002245E+01  0.29836129471E+01  0.19160444930E+02  0.51100000000E-03 0. -1.
        -11    1    3    3    0    0  0.27279420477E+01  0.73672673054E+01  0.17865793635E+02  0.19516784516E+02  0.51100000000E-03 0.  1.
         12    1    3    3    0    0 -0.15626010080E+02  0.12800283486E+02  0.41664319079E+01  0.20624708560E+02  0.00000000000E+00 0. -1.
</event>
<event>
 7    1  0.6230310E-012  0.5930194E+02  0.7816164E-02  0.1266605E+00
        -11   -1    0    0    0    0  0.00000000000E+00  0.00000000000E+00  0.45593999997E+02  0.45594000000E+02  0.51100000000E-03 0. -1.
         11   -1    0    0    0    0 -0.00000000000E+00 -0.00000000000E+00 -0.45593999997E+02  0.45594000000E+02  0.51100000000E-03 0.  1.
    9900012    2    1    2    0    0  0.21137349750E+02 -0.21343206984E+02 -0.10695817274E+02  0.59301944334E+02  0.50000000558E+02 0.  0.
         12    1    1    2    0    0 -0.21137349750E+02  0.21343206984E+02  0.10695817274E+02  0.31886055666E+02  0.00000000000E+00 0. -1.
         11    1    3    3    0    0 -0.36943519789E+01  0.72926621676E+01 -0.99871176605E+01  0.12906342528E+02  0.51100000000E-03 0. -1.
        -11    1    3    3    0    0  0.11373808422E+02 -0.17891746944E+01 -0.96918861898E+01  0.15049827982E+02  0.51100000000E-03 0.  1.
         12    1    3    3    0    0  0.13457893307E+02 -0.26846694457E+02  0.89831865768E+01  0.31345773824E+02  0.00000000000E+00 0. -1.
</event>
<event>
 7    1  0.6230310E-012  0.5930191E+02  0.7816164E-02  0.1266605E+00
        -11   -1    0    0    0    0  0.00000000000E+00  0.00000000000E+00  0.45593999997E+02  0.45594000000E+02  0.51100000000E-03 0. -1.
         11   -1    0    0    0    0 -0.00000000000E+00 -0.00000000000E+00 -0.45593999997E+02  0.45594000000E+02  0.51100000000E-03 0.  1.
    9900012    2    1    2    0    0  0.11938702905E+00 -0.31839233711E+02 -0.17238847995E+01  0.59301908434E+02  0.49999935085E+02 0.  0.
         12    1    1    2    0    0 -0.11938702905E+00  0.31839233711E+02  0.17238847995E+01  0.31886091566E+02  0.00000000000E+00 0. -1.
         11    1    3    3    0    0  0.53573582641E+01 -0.12833566852E+01 -0.36992607036E+01  0.66357231683E+01  0.51100000000E-03 0. -1.
        -11    1    3    3    0    0  0.75169321874E+01 -0.25397287344E+02 -0.15294980417E+02  0.30585337993E+02  0.51100000000E-03 0.  1.
         12    1    3    3    0    0 -0.12754903422E+02 -0.51585896818E+01  0.17270356321E+02  0.22080847273E+02  0.00000000000E+00 0. -1.
</event>
<event>
 7    1  0.6230310E-012  0.5930193E+02  0.7816164E-02  0.1266605E+00
        -11   -1    0    0    0    0  0.00000000000E+00  0.00000000000E+00  0.45593999997E+02  0.45594000000E+02  0.51100000000E-03 0.  1.
         11   -1    0    0    0    0 -0.00000000000E+00 -0.00000000000E+00 -0.45593999997E+02  0.45594000000E+02  0.51100000000E-03 0. -1.
    9900012    2    1    2    0    0  0.14317712649E+02 -0.42570357887E+01  0.28170946273E+02  0.59301929952E+02  0.49999974330E+02 0.  0.
         12    1    1    2    0    0 -0.14317712649E+02  0.42570357887E+01 -0.28170946273E+02  0.31886070048E+02  0.00000000000E+00 0. -1.
         11    1    3    3    0    0  0.23155515497E+02 -0.89637362333E+01  0.19317635524E+02  0.31459458160E+02  0.51100000000E-03 0. -1.
        -11    1    3    3    0    0  0.31034867084E+01 -0.25626306354E+00 -0.68353196724E+01  0.75112512800E+01  0.51100000000E-03 0.  1.
        -12    1    3    3    0    0 -0.11941289557E+02  0.49629635082E+01  0.15688630420E+02  0.20331220513E+02  0.00000000000E+00 0.  1.
</event>
<event>
 7    1  0.6230310E-012  0.5930194E+02  0.7816164E-02  0.1266605E+00
        -11   -1    0    0    0    0  0.00000000000E+00  0.00000000000E+00  0.45593999997E+02  0.45594000000E+02  0.51100000000E-03 0. -1.
         11   -1    0    0    0    0 -0.00000000000E+00 -0.00000000000E+00 -0.45593999997E+02  0.45594000000E+02  0.51100000000E-03 0.  1.
    9900012    2    1    2    0    0 -0.22013046914E+02 -0.17893280715E+02 -0.14559442994E+02  0.59301935497E+02  0.49999984443E+02 0.  0.
         12    1    1    2    0    0  0.22013046914E+02  0.17893280715E+02  0.14559442994E+02  0.31886064503E+02  0.00000000000E+00 0. -1.
         11    1    3    3    0    0  0.40627010451E+01  0.56058551987E+01 -0.32639975535E+00  0.69309226912E+01  0.51100000000E-03 0. -1.
        -11    1    3    3    0    0 -0.27920938285E+02 -0.27085399417E+02 -0.14064176510E+01  0.38925257445E+02  0.51100000000E-03 0.  1.
         12    1    3    3    0    0  0.18451903259E+01  0.35862635037E+01 -0.12826625588E+02  0.13445755361E+02  0.00000000000E+00 0. -1.
</event>
<event>
 7    1  0.6230310E-012  0.5930195E+02  0.7816164E-02  0.1266605E+00
        -11   -1    0    0    0    0  0.00000000000E+00  0.00000000000E+00  0.45593999997E+02  0.45594000000E+02  0.51100000000E-03 0.  1.
         11   -1    0    0    0    0 -0.00000000000E+00 -0.00000000000E+00 -0.45593999997E+02  0.45594000000E+02  0.51100000000E-03 0. -1.
    9900012    2    1    2    0    0 -0.21751087283E+01 -0.27260130843E+01  0.31694763567E+02  0.59301948459E+02  0.50000008081E+02 0.  0.
         12    1    1    2    0    0  0.21751087283E+01  0.27260130843E+01 -0.31694763567E+02  0.31886051541E+02  0.00000000000E+00 0. -1.
         11    1    3    3    0    0 -0.82361571961E+01  0.17129080362E+02  0.17474350919E+02  0.25818455021E+02  0.51100000000E-03 0. -1.
        -11    1    3    3    0    0  0.70586287861E+01  0.27515274110E+01  0.48245278064E+01  0.89817154403E+01  0.51100000000E-03 0.  1.
         12    1    3    3    0    0 -0.99758031826E+00 -0.22606620857E+02  0.93958848418E+01  0.24501777997E+02  0.00000000000E+00 0. -1.
</event>
<event>
 7    1  0.6230310E-012  0.5930191E+02  0.7816164E-02  0.1266605E+00
        -11   -1    0    0    0    0  0.00000000000E+00  0.00000000000E+00  0.45593999997E+02  0.45594000000E+02  0.51100000000E-03 0.  1.
         11   -1    0    0    0    0 -0.00000000000E+00 -0.00000000000E+00 -0.45593999997E+02  0.45594000000E+02  0.51100000000E-03 0. -1.
    9900012    2    1    2    0    0  0.13121409388E+02  0.24912088550E+02  0.14964590229E+02  0.59301913677E+02  0.49999944648E+02 0.  0.
         12    1    1    2    0    0 -0.13121409388E+02 -0.24912088550E+02 -0.14964590229E+02  0.31886086323E+02  0.00000000000E+00 0. -1.
         11    1    3    3    0    0  0.16330345375E+02  0.21313441355E+02 -0.24208312262E+01  0.26959291284E+02  0.51100000000E-03 0. -1.
        -11    1    3    3    0    0 -0.51130212642E+01  0.14051590298E+02  0.15526961157E+02  0.21556360996E+02  0.51100000000E-03 0.  1.
         12    1    3    3    0    0  0.19040852772E+01 -0.10452943103E+02  0.18584602979E+01  0.10786261397E+02  0.00000000000E+00 0. -1.
</event>
<event>
 7    1  0.6230310E-012  0.5930196E+02  0.7816164E-02  0.1266605E+00
        -11   -1    0    0    0    0  0.00000000000E+00  0.00000000000E+00  0.45593999997E+02  0.45594000000E+02  0.51100000000E-03 0. -1.
         11   -1    0    0    0    0 -0.00000000000E+00 -0.00000000000E+00 -0.45593999997E+02  0.45594000000E+02  0.51100000000E-03 0.  1.
    9900012    2    1    2    0    0 -0.16656730201E+02 -0.98396326548E+01 -0.25346690515E+02  0.59301956786E+02  0.50000023267E+02 0.  0.
         12    1    1    2    0    0  0.16656730201E+02  0.98396326548E+01  0.25346690515E+02  0.31886043214E+02  0.00000000000E+00 0. -1.
         11    1    3    3    0    0  0.29984697305E+01  0.27259290099E+01 -0.13321926245E+01  0.42657059371E+01  0.51100000000E-03 0. -1.
        -11    1    3    3    0    0  0.54053309223E+01 -0.20323725959E+02 -0.18969535903E+02  0.28321630107E+02  0.51100000000E-03 0.  1.
         12    1    3    3    0    0 -0.25060530854E+02  0.77581642948E+01 -0.50449619876E+01  0.26714620742E+02  0.00000000000E+00 0. -1.
</event>
<event>
 7    1  0.6230310E-012  0.5930192E+02  0.7816164E-02  0.1266605E+00
        -11   -1    0    0    0    0  0.00000000000E+00  0.00000000000E+00  0.45593999997E+02  0.45594000000E+02  0.51100000000E-03 0. -1.
         11   -1    0    0    0    0 -0.00000000000E+00 -0.00000000000E+00 -0.45593999997E+02  0.45594000000E+02  0.51100000000E-03 0.  1.
    9900012    2    1    2    0    0  0.25833664088E+02  0.17019051364E+02 -0.77263024968E+01  0.59301920595E+02  0.49999957264E+02 0.  0.
         12    1    1    2    0    0 -0.25833664088E+02 -0.17019051364E+02  0.77263024968E+01  0.31886079405E+02  0.00000000000E+00 0. -1.
         11    1    3    3    0    0 -0.90391606829E+00 -0.81403546404E+01 -0.17996892574E+01  0.83857807994E+01  0.51100000000E-03 0. -1.
        -11    1    3    3    0    0  0.17864841120E+02 -0.78775044846E+00  0.86455607261E+01  0.19862497817E+02  0.51100000000E-03 0.  1.
        -12    1    3    3    0    0  0.88727390370E+01  0.25947156453E+02 -0.14572173965E+02  0.31053641978E+02  0.00000000000E+00 0.  1.
</event>
<event>
 7    1  0.6230310E-012  0.5930194E+02  0.7816164E-02  0.1266605E+00
        -11   -1    0    0    0    0  0.00000000000E+00  0.00000000000E+00  0.45593999997E+02  0.45594000000E+02  0.51100000000E-03 0. -1.
         11   -1    0    0    0    0 -0.00000000000E+00 -0.00000000000E+00 -0.45593999997E+02  0.45594000000E+02  0.51100000000E-03 0.  1.
    9900012    2    1    2    0    0  0.93457222065E+01 -0.12004199525E+02 -0.28022799552E+02  0.59301943102E+02  0.49999998311E+02 0.  0.
         12    1    1    2    0    0 -0.93457222065E+01  0.12004199525E+02  0.28022799552E+02  0.31886056898E+02  0.00000000000E+00 0. -1.
         11    1    3    3    0    0 -0.14679376819E+02 -0.20864273209E+01 -0.11134300221E+02  0.18542112189E+02  0.51100000000E-03 0. -1.
        -11    1    3    3    0    0 -0.16466532744E+01  0.16332440901E+01 -0.11957662625E+02  0.12180502821E+02  0.51100000000E-03 0.  1.
        -12    1    3    3    0    0  0.25671752299E+02 -0.11551016294E+02 -0.49308367055E+01  0.28579328092E+02  0.00000000000E+00 0.  1.
</event>
<event>
 7    1  0.6230310E-012  0.5930195E+02  0.7816164E-02  0.1266605E+00
        -11   -1    0    0    0    0  0.00000000000E+00  0.00000000000E+00  0.45593999997E+02  0.45594000000E+02  0.51100000000E-03 0.  1.
         11   -1    0    0    0    0 -0.00000000000E+00 -0.00000000000E+00 -0.45593999997E+02  0.45594000000E+02  0.51100000000E-03 0. -1.
    9900012    2    1    2    0    0 -0.30524446541E+02  0.20960477280E+01 -0.89769006258E+01  0.59301952933E+02  0.50000016241E+02 0.  0.
         12    1    1    2    0    0  0.30524446541E+02 -0.20960477280E+01  0.89769006258E+01  0.31886047067E+02  0.00000000000E+00 0. -1.
         11    1    3    3    0    0 -0.54876936368E+01 -0.15587095411E+02 -0.19991605137E+01  0.16645388786E+02  0.51100000000E-03 0. -1.
        -11    1    3    3    0    0 -0.12949200074E+02  0.16627769655E+02  0.87269854992E+01  0.22810628716E+02  0.51100000000E-03 0.  1.
        -12    1    3    3    0    0 -0.12087552831E+02  0.10553734847E+01 -0.15704725611E+02  0.19845935431E+02  0.00000000000E+00 0.  1.
</event>
<event>
 7    1  0.6230310E-012  0.5930194E+02  0.7816164E-02  0.1266605E+00
        -11   -1    0    0    0    0  0.00000000000E+00  0.00000000000E+00  0.45593999997E+02  0.45594000000E+02  0.51100000000E-03 0.  1.
         11   -1    0    0    0    0 -0.00000000000E+00 -0.00000000000E+00 -0.45593999997E+02  0.45594000000E+02  0.51100000000E-03 0. -1.
    9900012    2    1    2    0    0 -0.29062983317E+02  0.64942065857E+01  0.11396888326E+02  0.59301940633E+02  0.49999993809E+02 0.  0.
         12    1    1    2    0    0  0.29062983317E+02 -0.64942065857E+01 -0.11396888326E+02  0.31886059367E+02  0.00000000000E+00 0. -1.
         11    1    3    3    0    0  0.32676247232E+01  0.15953781195E+02  0.61059553717E+01  0.17392044072E+02  0.51100000000E-03 0. -1.
        -11    1    3    3    0    0 -0.55871802400E+01  0.72920251886E+01 -0.22642730056E+01  0.94613501622E+01  0.51100000000E-03 0.  1.
        -12    1    3    3    0    0 -0.26743427800E+02 -0.16751599798E+02  0.75552059602E+01  0.32448546398E+02  0.00000000000E+00 0.  1.
</event>
<event>
 7    1  0.6230310E-012  0.5930194E+02  0.7816164E-02  0.1266605E+00
        -11   -1    0    0    0    0  0.00000000000E+00  0.00000000000E+00  0.45593999997E+02  0.45594000000E+02  0.51100000000E-03 0.  1.
         11   -1    0    0    0    0 -0.00000000000E+00 -0.00000000000E+00 -0.45593999997E+02  0.45594000000E+02  0.51100000000E-03 0. -1.
    9900012    2    1    2    0    0  0.31149234458E+02  0.64852617736E+01  0.20946061233E+01  0.59301940312E+02  0.49999993224E+02 0.  0.
         12    1    1    2    0    0 -0.31149234458E+02 -0.64852617736E+01 -0.20946061233E+01  0.31886059688E+02  0.00000000000E+00 0. -1.
         11    1    3    3    0    0  0.12561343191E+02 -0.10974227483E+02 -0.13348090023E+02  0.21363345223E+02  0.51100000000E-03 0. -1.
        -11    1    3    3    0    0  0.35303167414E+01 -0.58154251984E+01  0.43833865100E+01  0.80929836334E+01  0.51100000000E-03 0.  1.
         12    1    3    3    0    0  0.15057574526E+02  0.23274914455E+02  0.11059309637E+02  0.29845611455E+02  0.00000000000E+00 0. -1.
</event>
<event>
 7    1  0.6230310E-012  0.5930195E+02  0.7816164E-02  0.1266605E+00
        -11   -1    0    0    0    0  0.00000000000E+00  0.00000000000E+00  0.45593999997E+02  0.45594000000E+02  0.51100000000E-03 0.  1.
         11   -1    0    0    0    0 -0.00000000000E+00 -0.00000000000E+00 -0.45593999997E+02  0.45594000000E+02  0.51100000000E-03 0. -1.
    9900012    2    1    2    0    0  0.16896148581E+02 -0.26763275244E+02 -0.38687475136E+01  0.59301953742E+02  0.50000017716E+02 0.  0.
         12    1    1    2    0    0 -0.16896148581E+02  0.26763275244E+02  0.38687475136E+01  0.31886046258E+02  0.00000000000E+00 0. -1.
         11    1    3    3    0    0  0.21677272451E+02 -0.22484925425E+02 -0.64898593177E+01  0.31899753707E+02  0.51100000000E-03 0. -1.
        -11    1    3    3    0    0  0.83464879999E+01 -0.27996937811E+01 -0.68438950996E+01  0.11150831700E+02  0.51100000000E-03 0.  1.
        -12    1    3    3    0    0 -0.13127611870E+02 -0.14786560374E+01  0.94650069037E+01  0.16251368336E+02  0.00000000000E+00 0.  1.
</event>
<event>
 7    1  0.6230310E-012  0.5930190E+02  0.7816164E-02  0.1266605E+00
        -11   -1    0    0    0    0  0.00000000000E+00  0.00000000000E+00  0.45593999997E+02  0.45594000000E+02  0.51100000000E-03 0.  1.
         11   -1    0    0    0    0 -0.00000000000E+00 -0.00000000000E+00 -0.45593999997E+02  0.45594000000E+02  0.51100000000E-03 0. -1.
    9900012    2    1    2    0    0 -0.24193587840E+02  0.11988297151E+02  0.16960969297E+02  0.59301898942E+02  0.49999917775E+02 0.  0.
         12    1    1    2    0    0  0.24193587840E+02 -0.11988297151E+02 -0.16960969297E+02  0.31886101058E+02  0.00000000000E+00 0. -1.
         11    1    3    3    0    0 -0.41285865814E+01  0.93353119786E+01  0.68842778255E+01  0.12312049315E+02  0.51100000000E-03 0.  1.
        -11    1    3    3    0    0  0.32548340994E+01 -0.77010419966E+01  0.18351692226E+02  0.20166422604E+02  0.51100000000E-03 0. -1.
        -12    1    3    3    0    0 -0.23319835358E+02  0.10354027169E+02 -0.82750007545E+01  0.26823427023E+02  0.00000000000E+00 0.  1.
</event>
<event>
 7    1  0.6230310E-012  0.5930194E+02  0.7816164E-02  0.1266605E+00
        -11   -1    0    0    0    0  0.00000000000E+00  0.00000000000E+00  0.45593999997E+02  0.45594000000E+02  0.51100000000E-03 0. -1.
         11   -1    0    0    0    0 -0.00000000000E+00 -0.00000000000E+00 -0.45593999997E+02  0.45594000000E+02  0.51100000000E-03 0.  1.
    9900012    2    1    2    0    0  0.17755916801E+02 -0.22205679330E+02 -0.14434543072E+02  0.59301940199E+02  0.49999993018E+02 0.  0.
         12    1    1    2    0    0 -0.17755916801E+02  0.22205679330E+02  0.14434543072E+02  0.31886059801E+02  0.00000000000E+00 0. -1.
         11    1    3    3    0    0  0.20905336888E+02 -0.15056099817E+01  0.27198430822E+01  0.21135219858E+02  0.51100000000E-03 0. -1.
        -11    1    3    3    0    0  0.40475249014E+01 -0.13691417105E+02 -0.22606019183E+02  0.26737042913E+02  0.51100000000E-03 0.  1.
        -12    1    3    3    0    0 -0.71969449880E+01 -0.70086522428E+01  0.54516330293E+01  0.11429677428E+02  0.00000000000E+00 0.  1.
</event>
<event>
 7    1  0.6230310E-012  0.5930194E+02  0.7816164E-02  0.1266605E+00
        -11   -1    0    0    0    0  0.00000000000E+00  0.00000000000E+00  0.45593999997E+02  0.45594000000E+02  0.51100000000E-03 0. -1.
         11   -1    0    0    0    0 -0.00000000000E+00 -0.00000000000E+00 -0.45593999997E+02  0.45594000000E+02  0.51100000000E-03 0.  1.
    9900012    2    1    2    0    0 -0.54928789632E+01 -0.89165089504E+01 -0.30117183271E+02  0.59301943810E+02  0.49999999603E+02 0.  0.
         12    1    1    2    0    0  0.54928789632E+01  0.89165089504E+01  0.30117183271E+02  0.31886056190E+02  0.00000000000E+00 0. -1.
         11    1    3    3    0    0 -0.44653473363E+01 -0.13129829720E+01 -0.10328444395E+02  0.11328725215E+02  0.51100000000E-03 0. -1.
        -11    1    3    3    0    0  0.34101578851E+01 -0.12462778366E+02 -0.31773720623E+02  0.34300427751E+02  0.51100000000E-03 0.  1.
         12    1    3    3    0    0 -0.44376895120E+01  0.48592523880E+01  0.11984981747E+02  0.13672790844E+02  0.00000000000E+00 0. -1.
</event>
<event>
 7    1  0.6230310E-012  0.5930181E+02  0.7816164E-02  0.1266605E+00
        -11   -1    0    0    0    0  0.00000000000E+00  0.00000000000E+00  0.45593999997E+02  0.45594000000E+02  0.51100000000E-03 0.  1.
         11   -1    0    0    0    0 -0.00000000000E+00 -0.00000000000E+00 -0.45593999997E+02  0.45594000000E+02  0.51100000000E-03 0. -1.
    9900012    2    1    2    0    0  0.12749814097E+02  0.58013925946E+01  0.28644632841E+02  0.59301813239E+02  0.49999761472E+02 0.  0.
         12    1    1    2    0    0 -0.12749814097E+02 -0.58013925946E+01 -0.28644632841E+02  0.31886186761E+02  0.00000000000E+00 0. -1.
         11    1    3    3    0    0 -0.16159488779E+02  0.10039445122E+01  0.70992907994E+00  0.16206201953E+02  0.51100000000E-03 0. -1.
        -11    1    3    3    0    0 -0.15849847660E+01 -0.67308884563E+00  0.23650800930E+01  0.29255477111E+01  0.51100000000E-03 0.  1.
        -12    1    3    3    0    0  0.30494287642E+02  0.54705369280E+01  0.25569623668E+02  0.40170063575E+02  0.00000000000E+00 0.  1.
</event>
<event>
 7    1  0.6230310E-012  0.5930195E+02  0.7816164E-02  0.1266605E+00
        -11   -1    0    0    0    0  0.00000000000E+00  0.00000000000E+00  0.45593999997E+02  0.45594000000E+02  0.51100000000E-03 0. -1.
         11   -1    0    0    0    0 -0.00000000000E+00 -0.00000000000E+00 -0.45593999997E+02  0.45594000000E+02  0.51100000000E-03 0.  1.
    9900012    2    1    2    0    0 -0.19944442324E+02  0.22654337314E+02 -0.10282045255E+02  0.59301949235E+02  0.50000009497E+02 0.  0.
         12    1    1    2    0    0  0.19944442324E+02 -0.22654337314E+02  0.10282045255E+02  0.31886050765E+02  0.00000000000E+00 0. -1.
         11    1    3    3    0    0 -0.12046132693E+02 -0.77891168827E+01  0.62672658608E+00  0.14358706110E+02  0.51100000000E-03 0. -1.
        -11    1    3    3    0    0 -0.82530589261E+01  0.20479007947E+02 -0.21203219342E+02  0.30611750339E+02  0.51100000000E-03 0.  1.
         12    1    3    3    0    0  0.35474929467E+00  0.99644462498E+01  0.10294447501E+02  0.14331492786E+02  0.00000000000E+00 0. -1.
</event>
<event>
 7    1  0.6230310E-012  0.5930193E+02  0.7816164E-02  0.1266605E+00
        -11   -1    0    0    0    0  0.00000000000E+00  0.00000000000E+00  0.45593999997E+02  0.45594000000E+02  0.51100000000E-03 0. -1.
         11   -1    0    0    0    0 -0.00000000000E+00 -0.00000000000E+00 -0.45593999997E+02  0.45594000000E+02  0.51100000000E-03 0.  1.
    9900012    2    1    2    0    0 -0.28161720637E+02 -0.36415616000E+01 -0.14504419331E+02  0.59301926860E+02  0.49999968691E+02 0.  0.
         12    1    1    2    0    0  0.28161720637E+02  0.36415616000E+01  0.14504419331E+02  0.31886073140E+02  0.00000000000E+00 0. -1.
         11    1    3    3    0    0 -0.70776011722E+01  0.12614920372E+02 -0.58968064507E+01  0.15620530750E+02  0.51100000000E-03 0.  1.
        -11    1    3    3    0    0 -0.28246778861E+02 -0.20123916319E+02 -0.67792724140E+01  0.35338520891E+02  0.51100000000E-03 0. -1.
         12    1    3    3    0    0  0.71626593965E+01  0.38674343472E+01 -0.18283404663E+01  0.83428752191E+01  0.00000000000E+00 0. -1.
</event>
<event>
 7    1  0.6230310E-012  0.5930194E+02  0.7816164E-02  0.1266605E+00
        -11   -1    0    0    0    0  0.00000000000E+00  0.00000000000E+00  0.45593999997E+02  0.45594000000E+02  0.51100000000E-03 0.  1.
         11   -1    0    0    0    0 -0.00000000000E+00 -0.00000000000E+00 -0.45593999997E+02  0.45594000000E+02  0.51100000000E-03 0. -1.
    9900012    2    1    2    0    0  0.28667639278E+02 -0.44934036219E+01  0.13217284519E+02  0.59301939912E+02  0.49999992494E+02 0.  0.
         12    1    1    2    0    0 -0.28667639278E+02  0.44934036219E+01 -0.13217284519E+02  0.31886060088E+02  0.00000000000E+00 0. -1.
         11    1    3    3    0    0  0.28851095648E+02  0.20423827461E+01  0.38101738374E+01  0.29173180703E+02  0.51100000000E-03 0. -1.
        -11    1    3    3    0    0  0.87387423342E+01  0.62476839989E+01 -0.18492872861E+01  0.10900414518E+02  0.51100000000E-03 0.  1.
        -12    1    3    3    0    0 -0.89221987049E+01 -0.12783470367E+02  0.11256397968E+02  0.19228344691E+02  0.00000000000E+00 0.  1.
</event>
<event>
 7    1  0.6230310E-012  0.5930197E+02  0.7816164E-02  0.1266605E+00
        -11   -1    0    0    0    0  0.00000000000E+00  0.00000000000E+00  0.45593999997E+02  0.45594000000E+02  0.51100000000E-03 0.  1.
         11   -1    0    0    0    0 -0.00000000000E+00 -0.00000000000E+00 -0.45593999997E+02  0.45594000000E+02  0.51100000000E-03 0. -1.
    9900012    2    1    2    0    0 -0.30180767235E+02  0.51145712456E+01  0.89264445997E+01  0.59301969154E+02  0.50000045823E+02 0.  0.
         12    1    1    2    0    0  0.30180767235E+02 -0.51145712456E+01 -0.89264445997E+01  0.31886030846E+02  0.00000000000E+00 0. -1.
         11    1    3    3    0    0 -0.32182634155E+01 -0.13888662233E+02  0.10715846269E+02  0.17834840048E+02  0.51100000000E-03 0. -1.
        -11    1    3    3    0    0 -0.17560687351E+02  0.45705980291E+01  0.98804470380E+01  0.20661348952E+02  0.51100000000E-03 0.  1.
        -12    1    3    3    0    0 -0.94018164692E+01  0.14432635449E+02 -0.11669848707E+02  0.20805780153E+02  0.00000000000E+00 0.  1.
</event>
<event>
 7    1  0.6230310E-012  0.5930196E+02  0.7816164E-02  0.1266605E+00
        -11   -1    0    0    0    0  0.00000000000E+00  0.00000000000E+00  0.45593999997E+02  0.45594000000E+02  0.51100000000E-03 0.  1.
         11   -1    0    0    0    0 -0.00000000000E+00 -0.00000000000E+00 -0.45593999997E+02  0.45594000000E+02  0.51100000000E-03 0. -1.
    9900012    2    1    2    0    0  0.83264789013E+01  0.26367769056E+02  0.15878600489E+02  0.59301961529E+02  0.50000031918E+02 0.  0.
         12    1    1    2    0    0 -0.83264789013E+01 -0.26367769056E+02 -0.15878600489E+02  0.31886038471E+02  0.00000000000E+00 0. -1.
         11    1    3    3    0    0  0.72794713104E+01 -0.36716321531E+01 -0.74471759957E+01  0.11042283088E+02  0.51100000000E-03 0. -1.
        -11    1    3    3    0    0  0.13350331100E+02  0.17794843144E+02  0.45819909546E+01  0.22713045246E+02  0.51100000000E-03 0.  1.
        -12    1    3    3    0    0 -0.12303323509E+02  0.12244558065E+02  0.18743785530E+02  0.25546633195E+02  0.00000000000E+00 0.  1.
</event>
<event>
 7    1  0.6230310E-012  0.5930192E+02  0.7816164E-02  0.1266605E+00
        -11   -1    0    0    0    0  0.00000000000E+00  0.00000000000E+00  0.45593999997E+02  0.45594000000E+02  0.51100000000E-03 0.  1.
         11   -1    0    0    0    0 -0.00000000000E+00 -0.00000000000E+00 -0.45593999997E+02  0.45594000000E+02  0.51100000000E-03 0. -1.
    9900012    2    1    2    0    0 -0.25081756272E+02 -0.18017418090E+02 -0.79372782551E+01  0.59301917794E+02  0.49999952156E+02 0.  0.
         12    1    1    2    0    0  0.25081756272E+02  0.18017418090E+02  0.79372782551E+01  0.31886082206E+02  0.00000000000E+00 0. -1.
         11    1    3    3    0    0  0.80079937364E+00 -0.79084424850E+01 -0.17865003270E+02  0.19553595175E+02  0.51100000000E-03 0. -1.
        -11    1    3    3    0    0 -0.29276550058E+01 -0.21166522820E+01  0.14562488532E+02  0.15003914597E+02  0.51100000000E-03 0.  1.
         12    1    3    3    0    0 -0.22954900640E+02 -0.79923233233E+01 -0.46347635174E+01  0.24744408022E+02  0.00000000000E+00 0. -1.
</event>
<event>
 7    1  0.6230310E-012  0.5930193E+02  0.7816164E-02  0.1266605E+00
        -11   -1    0    0    0    0  0.00000000000E+00  0.00000000000E+00  0.45593999997E+02  0.45594000000E+02  0.51100000000E-03 0.  1.
         11   -1    0    0    0    0 -0.00000000000E+00 -0.00000000000E+00 -0.45593999997E+02  0.45594000000E+02  0.51100000000E-03 0. -1.
    9900012    2    1    2    0    0  0.13290060745E+02  0.14810588560E+02  0.24914702793E+02  0.59301926812E+02  0.49999968602E+02 0.  0.
         12    1    1    2    0    0 -0.13290060745E+02 -0.14810588560E+02 -0.24914702793E+02  0.31886073188E+02  0.00000000000E+00 0. -1.
         11    1    3    3    0    0  0.10539937416E+02 -0.15881290214E+01  0.23357825649E+02  0.25674899296E+02  0.51100000000E-03 0. -1.
        -11    1    3    3    0    0  0.12429821171E+02  0.14980042330E+01  0.78494816393E+01  0.14776969693E+02  0.51100000000E-03 0.  1.
         12    1    3    3    0    0 -0.96796978428E+01  0.14900713348E+02 -0.62926044952E+01  0.18850057824E+02  0.00000000000E+00 0. -1.
</event>
<event>
 7    1  0.6230310E-012  0.5930194E+02  0.7816164E-02  0.1266605E+00
        -11   -1    0    0    0    0  0.00000000000E+00  0.00000000000E+00  0.45593999997E+02  0.45594000000E+02  0.51100000000E-03 0. -1.
         11   -1    0    0    0    0 -0.00000000000E+00 -0.00000000000E+00 -0.45593999997E+02  0.45594000000E+02  0.51100000000E-03 0.  1.
    9900012    2    1    2    0    0  0.27859595095E+02 -0.95293730311E+01 -0.12237439086E+02  0.59301938709E+02  0.49999990301E+02 0.  0.
         12    1    1    2    0    0 -0.27859595095E+02  0.95293730311E+01  0.12237439086E+02  0.31886061291E+02  0.00000000000E+00 0. -1.
         11    1    3    3    0    0  0.10040072670E+02  0.60997266072E+01  0.96592573263E+01  0.15208911080E+02  0.51100000000E-03 0. -1.
        -11    1    3    3    0    0 -0.10843826696E+01 -0.37758763049E+01  0.67330859523E+01  0.77953559474E+01  0.51100000000E-03 0.  1.
        -12    1    3    3    0    0  0.18903905095E+02 -0.11853223333E+02 -0.28629782365E+02  0.36297671682E+02  0.00000000000E+00 0.  1.
</event>
<event>
 7    1  0.6230310E-012  0.5930186E+02  0.7816164E-02  0.1266605E+00
        -11   -1    0    0    0    0  0.00000000000E+00  0.00000000000E+00  0.45593999997E+02  0.45594000000E+02  0.51100000000E-03 0. -1.
         11   -1    0    0    0    0 -0.00000000000E+00 -0.00000000000E+00 -0.45593999997E+02  0.45594000000E+02  0.51100000000E-03 0.  1.
    9900012    2    1    2    0    0  0.20788336702E+02 -0.17109884710E+02 -0.17082814075E+02  0.59301864544E+02  0.49999855040E+02 0.  0.
         12    1    1    2    0    0 -0.20788336702E+02  0.17109884710E+02  0.17082814075E+02  0.31886135456E+02  0.00000000000E+00 0. -1.
         11    1    3    3    0    0  0.11621894901E+02  0.79929924613E+01 -0.20948643468E+02  0.25254742782E+02  0.51100000000E-03 0. -1.
        -11    1    3    3    0    0  0.14542173206E+02 -0.12507806104E+02 -0.17182838781E+01  0.19258050650E+02  0.51100000000E-03 0.  1.
        -12    1    3    3    0    0 -0.53757314052E+01 -0.12595071067E+02  0.55841132713E+01  0.14789071112E+02  0.00000000000E+00 0.  1.
</event>
<event>
 7    1  0.6230310E-012  0.5930189E+02  0.7816164E-02  0.1266605E+00
        -11   -1    0    0    0    0  0.00000000000E+00  0.00000000000E+00  0.45593999997E+02  0.45594000000E+02  0.51100000000E-03 0. -1.
         11   -1    0    0    0    0 -0.00000000000E+00 -0.00000000000E+00 -0.45593999997E+02  0.45594000000E+02  0.51100000000E-03 0.  1.
    9900012    2    1    2    0    0 -0.31743618517E+02  0.29428675125E+01 -0.63723642927E+00  0.59301892429E+02  0.49999905896E+02 0.  0.
         12    1    1    2    0    0  0.31743618517E+02 -0.29428675125E+01  0.63723642927E+00  0.31886107571E+02  0.00000000000E+00 0. -1.
         11    1    3    3    0    0  0.29848219043E+01  0.11336232957E+01  0.13991681812E+02  0.14351356164E+02  0.51100000000E-03 0. -1.
        -11    1    3    3    0    0 -0.70050316842E+01  0.93874864318E+01  0.17926093962E+01  0.11849422733E+02  0.51100000000E-03 0.  1.
        -12    1    3    3    0    0 -0.27723408737E+02 -0.75782422149E+01 -0.16421527637E+02  0.33101113531E+02  0.00000000000E+00 0.  1.
</event>
<event>
 7    1  0.6230310E-012  0.5930207E+02  0.7816164E-02  0.1266604E+00
        -11   -1    0    0    0    0  0.00000000000E+00  0.00000000000E+00  0.45593999997E+02  0.45594000000E+02  0.51100000000E-03 0. -1.
         11   -1    0    0    0    0 -0.00000000000E+00 -0.00000000000E+00 -0.45593999997E+02  0.45594000000E+02  0.51100000000E-03 0.  1.
    9900012    2    1    2    0    0  0.29054292622E+02 -0.13136200659E+02 -0.27828734864E-01  0.59302071098E+02  0.50000231744E+02 0.  0.
         12    1    1    2    0    0 -0.29054292622E+02  0.13136200659E+02  0.27828734864E-01  0.31885928902E+02  0.00000000000E+00 0. -1.
         11    1    3    3    0    0 -0.48476187079E+00  0.38402832223E+01  0.55911914301E+00  0.39109313182E+01  0.51100000000E-03 0. -1.
        -11    1    3    3    0    0  0.61576055934E+01  0.11372233392E+02  0.10876086806E+02  0.16897723617E+02  0.51100000000E-03 0.  1.
         12    1    3    3    0    0  0.23381448900E+02 -0.28348717273E+02 -0.11463034684E+02  0.38493416162E+02  0.00000000000E+00 0. -1.
</event>
<event>
 7    1  0.6230310E-012  0.5930196E+02  0.7816164E-02  0.1266605E+00
        -11   -1    0    0    0    0  0.00000000000E+00  0.00000000000E+00  0.45593999997E+02  0.45594000000E+02  0.51100000000E-03 0.  1.
         11   -1    0    0    0    0 -0.00000000000E+00 -0.00000000000E+00 -0.45593999997E+02  0.45594000000E+02  0.51100000000E-03 0. -1.
    9900012    2    1    2    0    0 -0.29723552810E+00 -0.50233359218E+01  0.31486460916E+02  0.59301961147E+02  0.50000031222E+02 0.  0.
         12    1    1    2    0    0  0.29723552810E+00  0.50233359218E+01 -0.31486460916E+02  0.31886038853E+02  0.00000000000E+00 0. -1.
         11    1    3    3    0    0  0.64992324457E+01  0.98282872414E+00 -0.80508722039E+01  0.10393388196E+02  0.51100000000E-03 0. -1.
        -11    1    3    3    0    0 -0.88666017746E+01  0.81079436770E+01  0.84026825346E+01  0.14661529652E+02  0.51100000000E-03 0.  1.
        -12    1    3    3    0    0  0.20701338008E+01 -0.14114108323E+02  0.31134650585E+02  0.34247043299E+02  0.00000000000E+00 0.  1.
</event>
<event>
 7    1  0.6230310E-012  0.5930196E+02  0.7816164E-02  0.1266605E+00
        -11   -1    0    0    0    0  0.00000000000E+00  0.00000000000E+00  0.45593999997E+02  0.45594000000E+02  0.51100000000E-03 0.  1.
         11   -1    0    0    0    0 -0.00000000000E+00 -0.00000000000E+00 -0.45593999997E+02  0.45594000000E+02  0.51100000000E-03 0. -1.
    9900012    2    1    2    0    0  0.31479267475E+01  0.43613086509E+00  0.31727269887E+02  0.59301963755E+02  0.50000035977E+02 0.  0.
         12    1    1    2    0    0 -0.31479267475E+01 -0.43613086509E+00 -0.31727269887E+02  0.31886036245E+02  0.00000000000E+00 0. -1.
         11    1    3    3    0    0 -0.10221342896E+02  0.12507180825E+02  0.10251893239E+01  0.16185068310E+02  0.51100000000E-03 0. -1.
        -11    1    3    3    0    0 -0.19247771116E+01 -0.13875353050E+02  0.19775435614E+02  0.24234232878E+02  0.51100000000E-03 0.  1.
        -12    1    3    3    0    0  0.15294046755E+02  0.18043030897E+01  0.10926644949E+02  0.18882662567E+02  0.00000000000E+00 0.  1.
</event>
<event>
 7    1  0.6230310E-012  0.5930197E+02  0.7816164E-02  0.1266605E+00
        -11   -1    0    0    0    0  0.00000000000E+00  0.00000000000E+00  0.45593999997E+02  0.45594000000E+02  0.51100000000E-03 0. -1.
         11   -1    0    0    0    0 -0.00000000000E+00 -0.00000000000E+00 -0.45593999997E+02  0.45594000000E+02  0.51100000000E-03 0.  1.
    9900012    2    1    2    0    0  0.89308007592E+01 -0.29886771491E+02 -0.66136618076E+01  0.59301971165E+02  0.50000049492E+02 0.  0.
         12    1    1    2    0    0 -0.89308007592E+01  0.29886771491E+02  0.66136618076E+01  0.31886028835E+02  0.00000000000E+00 0. -1.
         11    1    3    3    0    0 -0.30396231495E+01 -0.21067127550E+02 -0.18330135098E+01  0.21364061198E+02  0.51100000000E-03 0. -1.
        -11    1    3    3    0    0 -0.92519346560E+00 -0.14815307842E+02 -0.14469675418E+02  0.20729709027E+02  0.51100000000E-03 0.  1.
         12    1    3    3    0    0  0.12895617374E+02  0.59956639004E+01  0.96890271197E+01  0.17208200940E+02  0.00000000000E+00 0. -1.
</event>
<event>
 7    1  0.6230310E-012  0.5930202E+02  0.7816164E-02  0.1266604E+00
        -11   -1    0    0    0    0  0.00000000000E+00  0.00000000000E+00  0.45593999997E+02  0.45594000000E+02  0.51100000000E-03 0. -1.
         11   -1    0    0    0    0 -0.00000000000E+00 -0.00000000000E+00 -0.45593999997E+02  0.45594000000E+02  0.51100000000E-03 0.  1.
    9900012    2    1    2    0    0 -0.13532150585E+01 -0.31018087941E+02 -0.72637796771E+01  0.59302023997E+02  0.50000145844E+02 0.  0.
         12    1    1    2    0    0  0.13532150585E+01  0.31018087941E+02  0.72637796771E+01  0.31885976003E+02  0.00000000000E+00 0. -1.
         11    1    3    3    0    0  0.52343207601E+01  0.21269399907E+01 -0.15073287326E+01  0.58475659648E+01  0.51100000000E-03 0. -1.
        -11    1    3    3    0    0 -0.48921255686E+01  0.90964629667E+01 -0.42014503487E+01  0.11150368441E+02  0.51100000000E-03 0.  1.
        -12    1    3    3    0    0 -0.16954102499E+01 -0.42241490898E+02 -0.15550005957E+01  0.42304089590E+02  0.00000000000E+00 0.  1.
</event>
<event>
 7    1  0.6230310E-012  0.5930194E+02  0.7816164E-02  0.1266605E+00
        -11   -1    0    0    0    0  0.00000000000E+00  0.00000000000E+00  0.45593999997E+02  0.45594000000E+02  0.51100000000E-03 0. -1.
         11   -1    0    0    0    0 -0.00000000000E+00 -0.00000000000E+00 -0.45593999997E+02  0.45594000000E+02  0.51100000000E-03 0.  1.
    9900012    2    1    2    0    0  0.14552271630E+02  0.16137199841E+02 -0.23335447744E+02  0.59301938003E+02  0.49999989012E+02 0.  0.
         12    1    1    2    0    0 -0.14552271630E+02 -0.16137199841E+02  0.23335447744E+02  0.31886061997E+02  0.00000000000E+00 0. -1.
         11    1    3    3    0    0 -0.41639500447E+01  0.10542227034E+02 -0.25340912714E+01  0.11614587795E+02  0.51100000000E-03 0. -1.
        -11    1    3    3    0    0 -0.60084346225E+01  0.39897806937E+01  0.72733214286E+01  0.10243087497E+02  0.51100000000E-03 0.  1.
         12    1    3    3    0    0  0.24724656297E+02  0.16051921128E+01 -0.28074677901E+02  0.37444262711E+02  0.00000000000E+00 0. -1.
</event>
<event>
 7    1  0.6230310E-012  0.5930206E+02  0.7816164E-02  0.1266604E+00
        -11   -1    0    0    0    0  0.00000000000E+00  0.00000000000E+00  0.45593999997E+02  0.45594000000E+02  0.51100000000E-03 0.  1.
         11   -1    0    0    0    0 -0.00000000000E+00 -0.00000000000E+00 -0.45593999997E+02  0.45594000000E+02  0.51100000000E-03 0. -1.
    9900012    2    1    2    0    0 -0.20626950856E+01 -0.18653966149E+02  0.25777670129E+02  0.59302055739E+02  0.50000203734E+02 0.  0.
         12    1    1    2    0    0  0.20626950856E+01  0.18653966149E+02 -0.25777670129E+02  0.31885944261E+02  0.00000000000E+00 0. -1.
         11    1    3    3    0    0  0.18606542727E+01 -0.32624617228E+01  0.99569908760E+01  0.10641774212E+02  0.51100000000E-03 0. -1.
        -11    1    3    3    0    0  0.14769063561E+01 -0.16375335682E+02  0.29582236504E+02  0.33844373061E+02  0.51100000000E-03 0.  1.
         12    1    3    3    0    0 -0.54002557144E+01  0.98383125570E+00 -0.13761557250E+02  0.14815908466E+02  0.00000000000E+00 0. -1.
</event>
<event>
 7    1  0.6230310E-012  0.5930195E+02  0.7816164E-02  0.1266605E+00
        -11   -1    0    0    0    0  0.00000000000E+00  0.00000000000E+00  0.45593999997E+02  0.45594000000E+02  0.51100000000E-03 0.  1.
         11   -1    0    0    0    0 -0.00000000000E+00 -0.00000000000E+00 -0.45593999997E+02  0.45594000000E+02  0.51100000000E-03 0. -1.
    9900012    2    1    2    0    0  0.47858043401E+01 -0.26028592185E+02 -0.17785630623E+02  0.59301949900E+02  0.50000010710E+02 0.  0.
         12    1    1    2    0    0 -0.47858043401E+01  0.26028592185E+02  0.17785630623E+02  0.31886050100E+02  0.00000000000E+00 0. -1.
         11    1    3    3    0    0 -0.84769512002E+00  0.10991831737E+02  0.53557320215E+01  0.12256541833E+02  0.51100000000E-03 0. -1.
        -11    1    3    3    0    0  0.82824795328E+01 -0.13339559032E+02 -0.33162908050E+01  0.16048086719E+02  0.51100000000E-03 0.  1.
        -12    1    3    3    0    0 -0.26489800726E+01 -0.23680864890E+02 -0.19825071839E+02  0.30997321348E+02  0.00000000000E+00 0.  1.
</event>
<event>
 7    1  0.6230310E-012  0.5930196E+02  0.7816164E-02  0.1266605E+00
        -11   -1    0    0    0    0  0.00000000000E+00  0.00000000000E+00  0.45593999997E+02  0.45594000000E+02  0.51100000000E-03 0.  1.
         11   -1    0    0    0    0 -0.00000000000E+00 -0.00000000000E+00 -0.45593999997E+02  0.45594000000E+02  0.51100000000E-03 0. -1.
    9900012    2    1    2    0    0  0.88340172005E+00  0.23503464741E+02  0.21529666794E+02  0.59301955942E+02  0.50000021729E+02 0.  0.
         12    1    1    2    0    0 -0.88340172005E+00 -0.23503464741E+02 -0.21529666794E+02  0.31886044058E+02  0.00000000000E+00 0. -1.
         11    1    3    3    0    0 -0.47438180942E+00 -0.10676463797E+02 -0.66485659401E+01  0.12586315848E+02  0.51100000000E-03 0. -1.
        -11    1    3    3    0    0  0.19863788213E+01  0.51720834988E+01  0.12643116930E+02  0.13803787687E+02  0.51100000000E-03 0.  1.
        -12    1    3    3    0    0 -0.62859529178E+00  0.29007845038E+02  0.15535115804E+02  0.32911852407E+02  0.00000000000E+00 0.  1.
</event>
<event>
 7    1  0.6230310E-012  0.5930203E+02  0.7816164E-02  0.1266604E+00
        -11   -1    0    0    0    0  0.00000000000E+00  0.00000000000E+00  0.45593999997E+02  0.45594000000E+02  0.51100000000E-03 0.  1.
         11   -1    0    0    0    0 -0.00000000000E+00 -0.00000000000E+00 -0.45593999997E+02  0.45594000000E+02  0.51100000000E-03 0. -1.
    9900012    2    1    2    0    0 -0.13841033060E+02 -0.13033277780E+02  0.25598327095E+02  0.59302033245E+02  0.50000162710E+02 0.  0.
         12    1    1    2    0    0  0.13841033060E+02  0.13033277780E+02 -0.25598327095E+02  0.31885966755E+02  0.00000000000E+00 0. -1.
         11    1    3    3    0    0  0.57749196799E+00  0.35313669737E+00  0.14096794669E+02  0.14113037331E+02  0.51100000000E-03 0. -1.
        -11    1    3    3    0    0  0.11385827605E+02 -0.45654926272E+01 -0.50753906434E+01  0.13275555868E+02  0.51100000000E-03 0.  1.
         12    1    3    3    0    0 -0.25804352632E+02 -0.88209218505E+01  0.16576923069E+02  0.31913440045E+02  0.00000000000E+00 0. -1.
</event>
<event>
 7    1  0.6230310E-012  0.5930195E+02  0.7816164E-02  0.1266605E+00
        -11   -1    0    0    0    0  0.00000000000E+00  0.00000000000E+00  0.45593999997E+02  0.45594000000E+02  0.51100000000E-03 0.  1.
         11   -1    0    0    0    0 -0.00000000000E+00 -0.00000000000E+00 -0.45593999997E+02  0.45594000000E+02  0.51100000000E-03 0. -1.
    9900012    2    1    2    0    0  0.19385735862E+02 -0.14639116372E+02  0.20654527919E+02  0.59301952791E+02  0.50000015982E+02 0.  0.
         12    1    1    2    0    0 -0.19385735862E+02  0.14639116372E+02 -0.20654527919E+02  0.31886047209E+02  0.00000000000E+00 0. -1.
         11    1    3    3    0    0 -0.27524075088E+01 -0.15807036030E+01 -0.66382649289E+01  0.73580522220E+01  0.51100000000E-03 0. -1.
        -11    1    3    3    0    0  0.26222358891E+02  0.68222869867E+00  0.70906334128E+01  0.27172681580E+02  0.51100000000E-03 0.  1.
         12    1    3    3    0    0 -0.40842155204E+01 -0.13740641468E+02  0.20202159435E+02  0.24771218989E+02  0.00000000000E+00 0. -1.
</event>
<event>
 7    1  0.6230310E-012  0.5930217E+02  0.7816164E-02  0.1266604E+00
        -11   -1    0    0    0    0  0.00000000000E+00  0.00000000000E+00  0.45593999997E+02  0.45594000000E+02  0.51100000000E-03 0. -1.
         11   -1    0    0    0    0 -0.00000000000E+00 -0.00000000000E+00 -0.45593999997E+02  0.45594000000E+02  0.51100000000E-03 0.  1.
    9900012    2    1    2    0    0  0.25266847386E+02  0.16306416138E+02 -0.10601559940E+02  0.59302174666E+02  0.50000420627E+02 0.  0.
         12    1    1    2    0    0 -0.25266847386E+02 -0.16306416138E+02  0.10601559940E+02  0.31885825334E+02  0.00000000000E+00 0. -1.
         11    1    3    3    0    0  0.69181556947E+01  0.68177081231E+01 -0.21586560846E+02  0.23671113867E+02  0.51100000000E-03 0. -1.
        -11    1    3    3    0    0  0.19519554809E+02 -0.15202158838E+01 -0.62499640394E+00  0.19588636936E+02  0.51100000000E-03 0.  1.
        -12    1    3    3    0    0 -0.11708631172E+01  0.11008923898E+02  0.11609997310E+02  0.16042423863E+02  0.00000000000E+00 0.  1.
</event>
<event>
 7    1  0.6230310E-012  0.5930194E+02  0.7816164E-02  0.1266605E+00
        -11   -1    0    0    0    0  0.00000000000E+00  0.00000000000E+00  0.45593999997E+02  0.45594000000E+02  0.51100000000E-03 0.  1.
         11   -1    0    0    0    0 -0.00000000000E+00 -0.00000000000E+00 -0.45593999997E+02  0.45594000000E+02  0.51100000000E-03 0. -1.
    9900012    2    1    2    0    0 -0.54617787509E+01  0.29686146966E+02  0.10277267374E+02  0.59301943902E+02  0.49999999771E+02 0.  0.
         12    1    1    2    0    0  0.54617787509E+01 -0.29686146966E+02 -0.10277267374E+02  0.31886056098E+02  0.00000000000E+00 0. -1.
         11    1    3    3    0    0 -0.53998603172E+01 -0.53818622435E+01 -0.53794155151E+01  0.93306507918E+01  0.51100000000E-03 0. -1.
        -11    1    3    3    0    0 -0.14798159200E+02  0.93630014733E+01  0.30667971758E+01  0.17777979567E+02  0.51100000000E-03 0.  1.
        -12    1    3    3    0    0  0.14736240766E+02  0.25705007736E+02  0.12589885713E+02  0.32193313543E+02  0.00000000000E+00 0.  1.
</event>
<event>
 7    1  0.6230310E-012  0.5930193E+02  0.7816164E-02  0.1266605E+00
        -11   -1    0    0    0    0  0.00000000000E+00  0.00000000000E+00  0.45593999997E+02  0.45594000000E+02  0.51100000000E-03 0.  1.
         11   -1    0    0    0    0 -0.00000000000E+00 -0.00000000000E+00 -0.45593999997E+02  0.45594000000E+02  0.51100000000E-03 0. -1.
    9900012    2    1    2    0    0  0.27941137701E+02  0.85453369588E+01  0.12766808362E+02  0.59301931639E+02  0.49999977406E+02 0.  0.
         12    1    1    2    0    0 -0.27941137701E+02 -0.85453369588E+01 -0.12766808362E+02  0.31886068361E+02  0.00000000000E+00 0. -1.
         11    1    3    3    0    0  0.47661244437E+01  0.22357179606E+01 -0.37445442825E+01  0.64603397091E+01  0.51100000000E-03 0. -1.
        -11    1    3    3    0    0 -0.34525450829E-01  0.19444732205E+02 -0.31639717780E+01  0.19700495431E+02  0.51100000000E-03 0.  1.
         12    1    3    3    0    0  0.23209538708E+02 -0.13135113207E+02  0.19675324423E+02  0.33141096499E+02  0.00000000000E+00 0. -1.
</event>
<event>
 7    1  0.6230310E-012  0.5930197E+02  0.7816164E-02  0.1266605E+00
        -11   -1    0    0    0    0  0.00000000000E+00  0.00000000000E+00  0.45593999997E+02  0.45594000000E+02  0.51100000000E-03 0.  1.
         11   -1    0    0    0    0 -0.00000000000E+00 -0.00000000000E+00 -0.45593999997E+02  0.45594000000E+02  0.51100000000E-03 0. -1.
    9900012    2    1    2    0    0  0.31222933924E+02  0.54834214694E+01  0.34321384044E+01  0.59301967197E+02  0.50000042256E+02 0.  0.
         12    1    1    2    0    0 -0.31222933924E+02 -0.54834214694E+01 -0.34321384044E+01  0.31886032803E+02  0.00000000000E+00 0. -1.
         11    1    3    3    0    0  0.15305338715E+02  0.38132176687E+00 -0.28362895292E+01  0.15570592090E+02  0.51100000000E-03 0. -1.
        -11    1    3    3    0    0  0.22182067271E+02 -0.96729295637E+01  0.11579546548E+02  0.26827142473E+02  0.51100000000E-03 0.  1.
        -12    1    3    3    0    0 -0.62644720616E+01  0.14775029266E+02 -0.53111186143E+01  0.16904232635E+02  0.00000000000E+00 0.  1.
</event>
<event>
 7    1  0.6230310E-012  0.5930194E+02  0.7816164E-02  0.1266605E+00
        -11   -1    0    0    0    0  0.00000000000E+00  0.00000000000E+00  0.45593999997E+02  0.45594000000E+02  0.51100000000E-03 0. -1.
         11   -1    0    0    0    0 -0.00000000000E+00 -0.00000000000E+00 -0.45593999997E+02  0.45594000000E+02  0.51100000000E-03 0.  1.
    9900012    2    1    2    0    0 -0.20294360081E+02  0.22934608831E+02 -0.88805198591E+01  0.59301937742E+02  0.49999988537E+02 0.  0.
         12    1    1    2    0    0  0.20294360081E+02 -0.22934608831E+02  0.88805198591E+01  0.31886062258E+02  0.00000000000E+00 0. -1.
         11    1    3    3    0    0 -0.96544757693E+00 -0.76286283696E+01  0.84191689476E+00  0.77354304433E+01  0.51100000000E-03 0. -1.
        -11    1    3    3    0    0 -0.19611577998E+02  0.60187500041E+01 -0.16246182426E+02  0.26168259149E+02  0.51100000000E-03 0.  1.
         12    1    3    3    0    0  0.28266549386E+00  0.24544487196E+02  0.65237456721E+01  0.25398248150E+02  0.00000000000E+00 0. -1.
</event>
<event>
 7    1  0.6230310E-012  0.5930196E+02  0.7816164E-02  0.1266605E+00
        -11   -1    0    0    0    0  0.00000000000E+00  0.00000000000E+00  0.45593999997E+02  0.45594000000E+02  0.51100000000E-03 0.  1.
         11   -1    0    0    0    0 -0.00000000000E+00 -0.00000000000E+00 -0.45593999997E+02  0.45594000000E+02  0.51100000000E-03 0. -1.
    9900012    2    1    2    0    0 -0.15591566791E+01  0.28541498727E+02  0.14130516922E+02  0.59301958734E+02  0.50000026821E+02 0.  0.
         12    1    1    2    0    0  0.15591566791E+01 -0.28541498727E+02 -0.14130516922E+02  0.31886041266E+02  0.00000000000E+00 0. -1.
         11    1    3    3    0    0 -0.18958744517E+02  0.39437538276E+00  0.10404725714E+02  0.21629790638E+02  0.51100000000E-03 0. -1.
        -11    1    3    3    0    0 -0.28447175381E+01  0.72389059683E+01  0.35960055258E+01  0.85688641892E+01  0.51100000000E-03 0.  1.
        -12    1    3    3    0    0  0.20244305376E+02  0.20908217376E+02  0.12978568198E+00  0.29103303907E+02  0.00000000000E+00 0.  1.
</event>
<event>
 7    1  0.6230310E-012  0.5930194E+02  0.7816164E-02  0.1266605E+00
        -11   -1    0    0    0    0  0.00000000000E+00  0.00000000000E+00  0.45593999997E+02  0.45594000000E+02  0.51100000000E-03 0. -1.
         11   -1    0    0    0    0 -0.00000000000E+00 -0.00000000000E+00 -0.45593999997E+02  0.45594000000E+02  0.51100000000E-03 0.  1.
    9900012    2    1    2    0    0 -0.30247190441E+02  0.10089161787E+02 -0.19213837429E+00  0.59301942980E+02  0.49999998089E+02 0.  0.
         12    1    1    2    0    0  0.30247190441E+02 -0.10089161787E+02  0.19213837429E+00  0.31886057020E+02  0.00000000000E+00 0. -1.
         11    1    3    3    0    0 -0.16217738032E+02  0.28592777023E+02  0.53974994950E+01  0.33312083781E+02  0.51100000000E-03 0.  1.
        -11    1    3    3    0    0 -0.26400861006E+01 -0.24591059896E+01  0.28326669769E+01  0.45870752501E+01  0.51100000000E-03 0. -1.
        -12    1    3    3    0    0 -0.11389366308E+02 -0.16044509246E+02 -0.84223048462E+01  0.21402783949E+02  0.00000000000E+00 0.  1.
</event>
<event>
 7    1  0.6230310E-012  0.5930196E+02  0.7816164E-02  0.1266605E+00
        -11   -1    0    0    0    0  0.00000000000E+00  0.00000000000E+00  0.45593999997E+02  0.45594000000E+02  0.51100000000E-03 0. -1.
         11   -1    0    0    0    0 -0.00000000000E+00 -0.00000000000E+00 -0.45593999997E+02  0.45594000000E+02  0.51100000000E-03 0.  1.
    9900012    2    1    2    0    0  0.19861226618E+02  0.81746352151E+01 -0.23567490432E+02  0.59301959341E+02  0.50000027927E+02 0.  0.
         12    1    1    2    0    0 -0.19861226618E+02 -0.81746352151E+01  0.23567490432E+02  0.31886040659E+02  0.00000000000E+00 0. -1.
         11    1    3    3    0    0 -0.12805006835E+01 -0.11264734125E+02 -0.81077448010E+00  0.11366233872E+02  0.51100000000E-03 0. -1.
        -11    1    3    3    0    0 -0.79238961052E+01  0.23029659226E+01 -0.26939437015E+01  0.86803867687E+01  0.51100000000E-03 0.  1.
         12    1    3    3    0    0  0.29065623406E+02  0.17136403418E+02 -0.20062772250E+02  0.39255338700E+02  0.00000000000E+00 0. -1.
</event>
<event>
 7    1  0.6230310E-012  0.5930194E+02  0.7816164E-02  0.1266605E+00
        -11   -1    0    0    0    0  0.00000000000E+00  0.00000000000E+00  0.45593999997E+02  0.45594000000E+02  0.51100000000E-03 0. -1.
         11   -1    0    0    0    0 -0.00000000000E+00 -0.00000000000E+00 -0.45593999997E+02  0.45594000000E+02  0.51100000000E-03 0.  1.
    9900012    2    1    2    0    0  0.27303521775E+02  0.15311558180E+02 -0.60658499178E+01  0.59301942695E+02  0.49999997570E+02 0.  0.
         12    1    1    2    0    0 -0.27303521775E+02 -0.15311558180E+02  0.60658499178E+01  0.31886057305E+02  0.00000000000E+00 0. -1.
         11    1    3    3    0    0 -0.48162992780E+01 -0.58691686988E+01  0.80075256823E+01  0.11034688386E+02  0.51100000000E-03 0. -1.
        -11    1    3    3    0    0 -0.51283459915E+00 -0.24910828598E+01  0.34691169497E+01  0.43015422598E+01  0.51100000000E-03 0.  1.
        -12    1    3    3    0    0  0.32632655652E+02  0.23671809739E+02 -0.17542492550E+02  0.43965712050E+02  0.00000000000E+00 0.  1.
</event>
<event>
 7    1  0.6230310E-012  0.5930192E+02  0.7816164E-02  0.1266605E+00
        -11   -1    0    0    0    0  0.00000000000E+00  0.00000000000E+00  0.45593999997E+02  0.45594000000E+02  0.51100000000E-03 0.  1.
         11   -1    0    0    0    0 -0.00000000000E+00 -0.00000000000E+00 -0.45593999997E+02  0.45594000000E+02  0.51100000000E-03 0. -1.
    9900012    2    1    2    0    0 -0.21841652798E+02  0.33720797301E+01  0.22984636922E+02  0.59301917565E+02  0.49999951738E+02 0.  0.
         12    1    1    2    0    0  0.21841652798E+02 -0.33720797301E+01 -0.22984636922E+02  0.31886082435E+02  0.00000000000E+00 0. -1.
         11    1    3    3    0    0 -0.69520214496E+01  0.10688981632E+02 -0.49106705616E+00  0.12760332193E+02  0.51100000000E-03 0. -1.
        -11    1    3    3    0    0  0.60840127408E+01  0.10779214989E+02  0.88517630116E+01  0.15217108644E+02  0.51100000000E-03 0.  1.
        -12    1    3    3    0    0 -0.20973644089E+02 -0.18096116890E+02  0.14623940966E+02  0.31324476728E+02  0.00000000000E+00 0.  1.
</event>
<event>
 7    1  0.6230310E-012  0.5930196E+02  0.7816164E-02  0.1266605E+00
        -11   -1    0    0    0    0  0.00000000000E+00  0.00000000000E+00  0.45593999997E+02  0.45594000000E+02  0.51100000000E-03 0. -1.
         11   -1    0    0    0    0 -0.00000000000E+00 -0.00000000000E+00 -0.45593999997E+02  0.45594000000E+02  0.51100000000E-03 0.  1.
    9900012    2    1    2    0    0 -0.67138979495E+01  0.29998859050E+02 -0.84682813640E+01  0.59301956670E+02  0.50000023056E+02 0.  0.
         12    1    1    2    0    0  0.67138979495E+01 -0.29998859050E+02  0.84682813640E+01  0.31886043330E+02  0.00000000000E+00 0. -1.
         11    1    3    3    0    0 -0.49776403316E+01 -0.21700726058E+01 -0.27898676639E+01  0.61048734818E+01  0.51100000000E-03 0. -1.
        -11    1    3    3    0    0 -0.25776285492E+01  0.25213331212E+02 -0.23179305964E+02  0.34345836210E+02  0.51100000000E-03 0.  1.
         12    1    3    3    0    0  0.84137093133E+00  0.69556004444E+01  0.17500892264E+02  0.18851246978E+02  0.00000000000E+00 0. -1.
</event>
<event>
 7    1  0.6230310E-012  0.5930192E+02  0.7816164E-02  0.1266605E+00
        -11   -1    0    0    0    0  0.00000000000E+00  0.00000000000E+00  0.45593999997E+02  0.45594000000E+02  0.51100000000E-03 0.  1.
         11   -1    0    0    0    0 -0.00000000000E+00 -0.00000000000E+00 -0.45593999997E+02  0.45594000000E+02  0.51100000000E-03 0. -1.
    9900012    2    1    2    0    0  0.65957612038E+01  0.37533051646E+01  0.30969840954E+02  0.59301915037E+02  0.49999947128E+02 0.  0.
         12    1    1    2    0    0 -0.65957612038E+01 -0.37533051646E+01 -0.30969840954E+02  0.31886084963E+02  0.00000000000E+00 0. -1.
         11    1    3    3    0    0  0.11641675836E+02  0.34138447739E+01  0.14957814593E+01  0.12223760258E+02  0.51100000000E-03 0. -1.
        -11    1    3    3    0    0 -0.30979823756E+00  0.14543441940E+02  0.60739258069E+00  0.14559416349E+02  0.51100000000E-03 0.  1.
        -12    1    3    3    0    0 -0.47361163943E+01 -0.14203981549E+02  0.28866666914E+02  0.32518738430E+02  0.00000000000E+00 0.  1.
</event>
<event>
 7    1  0.6230310E-012  0.5930195E+02  0.7816164E-02  0.1266605E+00
        -11   -1    0    0    0    0  0.00000000000E+00  0.00000000000E+00  0.45593999997E+02  0.45594000000E+02  0.51100000000E-03 0. -1.
         11   -1    0    0    0    0 -0.00000000000E+00 -0.00000000000E+00 -0.45593999997E+02  0.45594000000E+02  0.51100000000E-03 0.  1.
    9900012    2    1    2    0    0 -0.27840032770E+02  0.13973431645E+02 -0.68114668209E+01  0.59301948240E+02  0.50000007683E+02 0.  0.
         12    1    1    2    0    0  0.27840032770E+02 -0.13973431645E+02  0.68114668209E+01  0.31886051760E+02  0.00000000000E+00 0. -1.
         11    1    3    3    0    0  0.78643772455E+01  0.68500213694E+01  0.76283000644E+01  0.12921384769E+02  0.51100000000E-03 0. -1.
        -11    1    3    3    0    0 -0.10918518783E+02  0.93588675104E+01  0.45424671091E+01  0.15080996691E+02  0.51100000000E-03 0.  1.
         12    1    3    3    0    0 -0.24785891232E+02 -0.22354572344E+01 -0.18982233994E+02  0.31299566780E+02  0.00000000000E+00 0. -1.
</event>
<event>
 7    1  0.6230310E-012  0.5930188E+02  0.7816164E-02  0.1266605E+00
        -11   -1    0    0    0    0  0.00000000000E+00  0.00000000000E+00  0.45593999997E+02  0.45594000000E+02  0.51100000000E-03 0. -1.
         11   -1    0    0    0    0 -0.00000000000E+00 -0.00000000000E+00 -0.45593999997E+02  0.45594000000E+02  0.51100000000E-03 0.  1.
    9900012    2    1    2    0    0  0.11053831048E+02 -0.28409113933E+02 -0.93519850525E+01  0.59301881395E+02  0.49999885773E+02 0.  0.
         12    1    1    2    0    0 -0.11053831048E+02  0.28409113933E+02  0.93519850525E+01  0.31886118605E+02  0.00000000000E+00 0. -1.
         11    1    3    3    0    0 -0.40924286339E+01  0.85703016899E+01 -0.40632006523E+01  0.10329939157E+02  0.51100000000E-03 0. -1.
        -11    1    3    3    0    0 -0.69484892103E+01 -0.14168755110E+02 -0.67897925694E+01  0.17179534542E+02  0.51100000000E-03 0.  1.
        -12    1    3    3    0    0  0.22094748892E+02 -0.22810660512E+02  0.15010081693E+01  0.31792407696E+02  0.00000000000E+00 0.  1.
</event>
<event>
 7    1  0.6230310E-012  0.5930197E+02  0.7816164E-02  0.1266605E+00
        -11   -1    0    0    0    0  0.00000000000E+00  0.00000000000E+00  0.45593999997E+02  0.45594000000E+02  0.51100000000E-03 0.  1.
         11   -1    0    0    0    0 -0.00000000000E+00 -0.00000000000E+00 -0.45593999997E+02  0.45594000000E+02  0.51100000000E-03 0. -1.
    9900012    2    1    2    0    0  0.11488258010E+02  0.17275713471E+02  0.24213397610E+02  0.59301969017E+02  0.50000045574E+02 0.  0.
         12    1    1    2    0    0 -0.11488258010E+02 -0.17275713471E+02 -0.24213397610E+02  0.31886030983E+02  0.00000000000E+00 0. -1.
         11    1    3    3    0    0  0.72334151914E+01  0.68854423396E+01  0.38227650339E+01  0.10693228900E+02  0.51100000000E-03 0. -1.
        -11    1    3    3    0    0 -0.11858242373E+01  0.20577496792E+02  0.28007275793E+02  0.34774229696E+02  0.51100000000E-03 0.  1.
         12    1    3    3    0    0  0.54406670562E+01 -0.10187225660E+02 -0.76166432174E+01  0.13834510420E+02  0.00000000000E+00 0. -1.
</event>
<event>
 7    1  0.6230310E-012  0.5930218E+02  0.7816164E-02  0.1266604E+00
        -11   -1    0    0    0    0  0.00000000000E+00  0.00000000000E+00  0.45593999997E+02  0.45594000000E+02  0.51100000000E-03 0. -1.
         11   -1    0    0    0    0 -0.00000000000E+00 -0.00000000000E+00 -0.45593999997E+02  0.45594000000E+02  0.51100000000E-03 0.  1.
    9900012    2    1    2    0    0  0.26669477568E+02 -0.17324980551E+02 -0.22998734255E+01  0.59302181795E+02  0.50000433628E+02 0.  0.
         12    1    1    2    0    0 -0.26669477568E+02  0.17324980551E+02  0.22998734255E+01  0.31885818205E+02  0.00000000000E+00 0. -1.
         11    1    3    3    0    0  0.13886525619E+02  0.65854301620E+01 -0.54696872490E+01  0.16313214369E+02  0.51100000000E-03 0. -1.
        -11    1    3    3    0    0  0.11862529212E+01 -0.18733097928E+02 -0.12699869478E+02  0.22663248641E+02  0.51100000000E-03 0.  1.
         12    1    3    3    0    0  0.11596699028E+02 -0.51773127856E+01  0.15869683302E+02  0.20325718785E+02  0.00000000000E+00 0. -1.
</event>
<event>
 7    1  0.6230310E-012  0.5930197E+02  0.7816164E-02  0.1266605E+00
        -11   -1    0    0    0    0  0.00000000000E+00  0.00000000000E+00  0.45593999997E+02  0.45594000000E+02  0.51100000000E-03 0.  1.
         11   -1    0    0    0    0 -0.00000000000E+00 -0.00000000000E+00 -0.45593999997E+02  0.45594000000E+02  0.51100000000E-03 0. -1.
    9900012    2    1    2    0    0 -0.10511177332E+02  0.30023178879E+02  0.22005915039E+01  0.59301972937E+02  0.50000052723E+02 0.  0.
         12    1    1    2    0    0  0.10511177332E+02 -0.30023178879E+02 -0.22005915039E+01  0.31886027063E+02  0.00000000000E+00 0. -1.
         11    1    3    3    0    0 -0.19183993002E+01 -0.71500202220E+01 -0.40745016270E+01  0.84501247813E+01  0.51100000000E-03 0. -1.
        -11    1    3    3    0    0 -0.95250204218E+01  0.38242176076E+01 -0.94660823979E+01  0.13962713582E+02  0.51100000000E-03 0.  1.
        -12    1    3    3    0    0  0.93224238974E+00  0.33348981494E+02  0.15741175529E+02  0.36889134573E+02  0.00000000000E+00 0.  1.
</event>
<event>
 7    1  0.6230310E-012  0.5930195E+02  0.7816164E-02  0.1266605E+00
        -11   -1    0    0    0    0  0.00000000000E+00  0.00000000000E+00  0.45593999997E+02  0.45594000000E+02  0.51100000000E-03 0.  1.
         11   -1    0    0    0    0 -0.00000000000E+00 -0.00000000000E+00 -0.45593999997E+02  0.45594000000E+02  0.51100000000E-03 0. -1.
    9900012    2    1    2    0    0  0.97993303757E+01 -0.15303986281E+02  0.26200794268E+02  0.59301945177E+02  0.50000002096E+02 0.  0.
         12    1    1    2    0    0 -0.97993303757E+01  0.15303986281E+02 -0.26200794268E+02  0.31886054823E+02  0.00000000000E+00 0. -1.
         11    1    3    3    0    0  0.93505694395E+01  0.93044374812E+01 -0.42845664170E+01  0.13869506672E+02  0.51100000000E-03 0. -1.
        -11    1    3    3    0    0  0.50449786546E+01 -0.92444767203E+01 -0.49969459904E+00  0.10543332225E+02  0.51100000000E-03 0.  1.
        -12    1    3    3    0    0 -0.45962177184E+01 -0.15363947042E+02  0.30985055284E+02  0.34889106280E+02  0.00000000000E+00 0.  1.
</event>
<event>
 7    1  0.6230310E-012  0.5930194E+02  0.7816164E-02  0.1266605E+00
        -11   -1    0    0    0    0  0.00000000000E+00  0.00000000000E+00  0.45593999997E+02  0.45594000000E+02  0.51100000000E-03 0.  1.
         11   -1    0    0    0    0 -0.00000000000E+00 -0.00000000000E+00 -0.45593999997E+02  0.45594000000E+02  0.51100000000E-03 0. -1.
    9900012    2    1    2    0    0 -0.10301167491E+02 -0.27108916071E+02  0.13255684482E+02  0.59301944218E+02  0.50000000348E+02 0.  0.
         12    1    1    2    0    0  0.10301167491E+02  0.27108916071E+02 -0.13255684482E+02  0.31886055782E+02  0.00000000000E+00 0. -1.
         11    1    3    3    0    0  0.44806997650E+00 -0.22126137845E+02  0.12014855014E+01  0.22163264883E+02  0.51100000000E-03 0. -1.
        -11    1    3    3    0    0  0.36220733999E+01 -0.10541163048E+02  0.17540523118E+02  0.20782335904E+02  0.51100000000E-03 0.  1.
         12    1    3    3    0    0 -0.14371310868E+02  0.55583848218E+01 -0.54863241374E+01  0.16356343431E+02  0.00000000000E+00 0. -1.
</event>
<event>
 7    1  0.6230310E-012  0.5930196E+02  0.7816164E-02  0.1266605E+00
        -11   -1    0    0    0    0  0.00000000000E+00  0.00000000000E+00  0.45593999997E+02  0.45594000000E+02  0.51100000000E-03 0.  1.
         11   -1    0    0    0    0 -0.00000000000E+00 -0.00000000000E+00 -0.45593999997E+02  0.45594000000E+02  0.51100000000E-03 0. -1.
    9900012    2    1    2    0    0 -0.12171366658E+02 -0.28029129489E+02  0.91074169536E+01  0.59301963718E+02  0.50000035911E+02 0.  0.
         12    1    1    2    0    0  0.12171366658E+02  0.28029129489E+02 -0.91074169536E+01  0.31886036282E+02  0.00000000000E+00 0. -1.
         11    1    3    3    0    0 -0.84491876248E+01 -0.21093754462E+02 -0.60255824108E+00  0.22730999220E+02  0.51100000000E-03 0. -1.
        -11    1    3    3    0    0 -0.16148602381E+02 -0.76539731300E+00  0.14676520685E+02  0.21834913592E+02  0.51100000000E-03 0.  1.
         12    1    3    3    0    0  0.12426423348E+02 -0.61699777133E+01 -0.49665454906E+01  0.14736050906E+02  0.00000000000E+00 0. -1.
</event>
<event>
 7    1  0.6230310E-012  0.5930195E+02  0.7816164E-02  0.1266605E+00
        -11   -1    0    0    0    0  0.00000000000E+00  0.00000000000E+00  0.45593999997E+02  0.45594000000E+02  0.51100000000E-03 0.  1.
         11   -1    0    0    0    0 -0.00000000000E+00 -0.00000000000E+00 -0.45593999997E+02  0.45594000000E+02  0.51100000000E-03 0. -1.
    9900012    2    1    2    0    0  0.27737645257E+02 -0.15592074044E+02 -0.20567925659E+01  0.59301950809E+02  0.50000012367E+02 0.  0.
         12    1    1    2    0    0 -0.27737645257E+02  0.15592074044E+02  0.20567925659E+01  0.31886049191E+02  0.00000000000E+00 0. -1.
         11    1    3    3    0    0 -0.33363267238E+01  0.47447970597E+00  0.94094570395E+01  0.99947030490E+01  0.51100000000E-03 0. -1.
        -11    1    3    3    0    0  0.10356521666E+02  0.81529381540E+01  0.41459782572E+01  0.13817274606E+02  0.51100000000E-03 0.  1.
        -12    1    3    3    0    0  0.20717450315E+02 -0.24219491904E+02 -0.15612227863E+02  0.35489973154E+02  0.00000000000E+00 0.  1.
</event>
<event>
 7    1  0.6230310E-012  0.5930194E+02  0.7816164E-02  0.1266605E+00
        -11   -1    0    0    0    0  0.00000000000E+00  0.00000000000E+00  0.45593999997E+02  0.45594000000E+02  0.51100000000E-03 0.  1.
         11   -1    0    0    0    0 -0.00000000000E+00 -0.00000000000E+00 -0.45593999997E+02  0.45594000000E+02  0.51100000000E-03 0. -1.
    9900012    2    1    2    0    0  0.89444852105E+01 -0.20553260739E+01  0.30536740047E+02  0.59301942331E+02  0.49999996906E+02 0.  0.
         12    1    1    2    0    0 -0.89444852105E+01  0.20553260739E+01 -0.30536740047E+02  0.31886057669E+02  0.00000000000E+00 0. -1.
         11    1    3    3    0    0  0.15544957816E+02 -0.11302044179E+02  0.13102655564E+02  0.23260728691E+02  0.51100000000E-03 0. -1.
        -11    1    3    3    0    0 -0.70342494453E+01 -0.96033384946E+01  0.29470733541E+01  0.12263360759E+02  0.51100000000E-03 0.  1.
        -12    1    3    3    0    0  0.43377683972E+00  0.18850056600E+02  0.14487011129E+02  0.23777852881E+02  0.00000000000E+00 0.  1.
</event>
<event>
 7    1  0.6230310E-012  0.5930191E+02  0.7816164E-02  0.1266605E+00
        -11   -1    0    0    0    0  0.00000000000E+00  0.00000000000E+00  0.45593999997E+02  0.45594000000E+02  0.51100000000E-03 0. -1.
         11   -1    0    0    0    0 -0.00000000000E+00 -0.00000000000E+00 -0.45593999997E+02  0.45594000000E+02  0.51100000000E-03 0.  1.
    9900012    2    1    2    0    0 -0.11874303860E+02 -0.24928104067E+02 -0.15947208134E+02  0.59301907235E+02  0.49999932899E+02 0.  0.
         12    1    1    2    0    0  0.11874303860E+02  0.24928104067E+02  0.15947208134E+02  0.31886092765E+02  0.00000000000E+00 0. -1.
         11    1    3    3    0    0 -0.27166563399E+01 -0.10625478090E+02  0.13532087660E+01  0.11050438025E+02  0.51100000000E-03 0. -1.
        -11    1    3    3    0    0 -0.45956167837E+01 -0.24124307179E+02 -0.24937679239E+02  0.34999853380E+02  0.51100000000E-03 0.  1.
         12    1    3    3    0    0 -0.45620307363E+01  0.98216812030E+01  0.76372623384E+01  0.13251615830E+02  0.00000000000E+00 0. -1.
</event>
<event>
 7    1  0.6230310E-012  0.5930195E+02  0.7816164E-02  0.1266605E+00
        -11   -1    0    0    0    0  0.00000000000E+00  0.00000000000E+00  0.45593999997E+02  0.45594000000E+02  0.51100000000E-03 0.  1.
         11   -1    0    0    0    0 -0.00000000000E+00 -0.00000000000E+00 -0.45593999997E+02  0.45594000000E+02  0.51100000000E-03 0. -1.
    9900012    2    1    2    0    0  0.28014984615E+02 -0.66516713906E+01 -0.13698036291E+02  0.59301948293E+02  0.50000007778E+02 0.  0.
         12    1    1    2    0    0 -0.28014984615E+02  0.66516713906E+01  0.13698036291E+02  0.31886051707E+02  0.00000000000E+00 0. -1.
         11    1    3    3    0    0  0.15978253159E+02  0.52758802982E+01 -0.20839633047E+02  0.26784879928E+02  0.51100000000E-03 0. -1.
        -11    1    3    3    0    0  0.17437819552E+02 -0.47328276764E+00  0.91446253431E+01  0.19695830021E+02  0.51100000000E-03 0.  1.
        -12    1    3    3    0    0 -0.54010880966E+01 -0.11454268921E+02 -0.20030285870E+01  0.12821238344E+02  0.00000000000E+00 0.  1.
</event>
<event>
 7    1  0.6230310E-012  0.5930192E+02  0.7816164E-02  0.1266605E+00
        -11   -1    0    0    0    0  0.00000000000E+00  0.00000000000E+00  0.45593999997E+02  0.45594000000E+02  0.51100000000E-03 0.  1.
         11   -1    0    0    0    0 -0.00000000000E+00 -0.00000000000E+00 -0.45593999997E+02  0.45594000000E+02  0.51100000000E-03 0. -1.
    9900012    2    1    2    0    0 -0.70802218162E+01  0.16223264980E+02 -0.26521654681E+02  0.59301920991E+02  0.49999957986E+02 0.  0.
         12    1    1    2    0    0  0.70802218162E+01 -0.16223264980E+02  0.26521654681E+02  0.31886079009E+02  0.00000000000E+00 0. -1.
         11    1    3    3    0    0 -0.59859201144E+01  0.11150752877E+01  0.21137334934E+01  0.64453473184E+01  0.51100000000E-03 0. -1.
        -11    1    3    3    0    0 -0.20900254752E+02  0.77013772491E+01 -0.20269545169E+02  0.30116213604E+02  0.51100000000E-03 0.  1.
         12    1    3    3    0    0  0.19805953051E+02  0.74068124433E+01 -0.83658430054E+01  0.22740360068E+02  0.00000000000E+00 0. -1.
</event>
<event>
 7    1  0.6230310E-012  0.5930191E+02  0.7816164E-02  0.1266605E+00
        -11   -1    0    0    0    0  0.00000000000E+00  0.00000000000E+00  0.45593999997E+02  0.45594000000E+02  0.51100000000E-03 0. -1.
         11   -1    0    0    0    0 -0.00000000000E+00 -0.00000000000E+00 -0.45593999997E+02  0.45594000000E+02  0.51100000000E-03 0.  1.
    9900012    2    1    2    0    0 -0.46698510588E+01  0.30585507975E+02 -0.77098602521E+01  0.59301909739E+02  0.49999937466E+02 0.  0.
         12    1    1    2    0    0  0.46698510588E+01 -0.30585507975E+02  0.77098602521E+01  0.31886090261E+02  0.00000000000E+00 0. -1.
         11    1    3    3    0    0  0.70230604962E+01 -0.83171610358E+01 -0.95923587746E+01  0.14509028002E+02  0.51100000000E-03 0. -1.
        -11    1    3    3    0    0 -0.89179178567E+01  0.46319093122E+01 -0.18151833879E+01  0.10211695930E+02  0.51100000000E-03 0.  1.
        -12    1    3    3    0    0 -0.27749936983E+01  0.34270759699E+02  0.36976819105E+01  0.34581185808E+02  0.00000000000E+00 0.  1.
</event>
<event>
 7    1  0.6230310E-012  0.5930195E+02  0.7816164E-02  0.1266605E+00
        -11   -1    0    0    0    0  0.00000000000E+00  0.00000000000E+00  0.45593999997E+02  0.45594000000E+02  0.51100000000E-03 0. -1.
         11   -1    0    0    0    0 -0.00000000000E+00 -0.00000000000E+00 -0.45593999997E+02  0.45594000000E+02  0.51100000000E-03 0.  1.
    9900012    2    1    2    0    0  0.30991052133E+02 -0.14105980309E+01 -0.73678320501E+01  0.59301952139E+02  0.50000014792E+02 0.  0.
         12    1    1    2    0    0 -0.30991052133E+02  0.14105980309E+01  0.73678320501E+01  0.31886047861E+02  0.00000000000E+00 0. -1.
         11    1    3    3    0    0  0.58966542926E+01  0.12148620318E+02 -0.26801200753E+01  0.13767445346E+02  0.51100000000E-03 0. -1.
        -11    1    3    3    0    0  0.65519428557E+01  0.95713261700E+01  0.71358804546E+01  0.13618334331E+02  0.51100000000E-03 0.  1.
        -12    1    3    3    0    0  0.18542454984E+02 -0.23130544519E+02 -0.11823592429E+02  0.31916172461E+02  0.00000000000E+00 0.  1.
</event>
<event>
 7    1  0.6230310E-012  0.5930195E+02  0.7816164E-02  0.1266605E+00
        -11   -1    0    0    0    0  0.00000000000E+00  0.00000000000E+00  0.45593999997E+02  0.45594000000E+02  0.51100000000E-03 0. -1.
         11   -1    0    0    0    0 -0.00000000000E+00 -0.00000000000E+00 -0.45593999997E+02  0.45594000000E+02  0.51100000000E-03 0.  1.
    9900012    2    1    2    0    0 -0.11956943794E+02  0.27820856751E+02  0.99875753425E+01  0.59301949187E+02  0.50000009409E+02 0.  0.
         12    1    1    2    0    0  0.11956943794E+02 -0.27820856751E+02 -0.99875753425E+01  0.31886050813E+02  0.00000000000E+00 0. -1.
         11    1    3    3    0    0 -0.10055330651E+02  0.62245129656E+01 -0.10905579000E+02  0.16086823482E+02  0.51100000000E-03 0.  1.
        -11    1    3    3    0    0 -0.38072337571E+01 -0.47056023104E+01 -0.37513717616E+01  0.71211313947E+01  0.51100000000E-03 0. -1.
        -12    1    3    3    0    0  0.19056206142E+01  0.26301946096E+02  0.24644526104E+02  0.36093994310E+02  0.00000000000E+00 0.  1.
</event>
<event>
 7    1  0.6230310E-012  0.5930195E+02  0.7816164E-02  0.1266605E+00
        -11   -1    0    0    0    0  0.00000000000E+00  0.00000000000E+00  0.45593999997E+02  0.45594000000E+02  0.51100000000E-03 0.  1.
         11   -1    0    0    0    0 -0.00000000000E+00 -0.00000000000E+00 -0.45593999997E+02  0.45594000000E+02  0.51100000000E-03 0. -1.
    9900012    2    1    2    0    0 -0.12609496616E+01  0.19459817192E+02  0.25227877782E+02  0.59301948244E+02  0.50000007690E+02 0.  0.
         12    1    1    2    0    0  0.12609496616E+01 -0.19459817192E+02 -0.25227877782E+02  0.31886051756E+02  0.00000000000E+00 0. -1.
         11    1    3    3    0    0 -0.66128779838E+01 -0.61684997350E+01  0.62909942114E+00  0.90651150325E+01  0.51100000000E-03 0. -1.
        -11    1    3    3    0    0  0.14842057711E+02  0.71457417839E+01  0.24423596389E+02  0.29459469845E+02  0.51100000000E-03 0.  1.
         12    1    3    3    0    0 -0.94901293891E+01  0.18482575143E+02  0.17518197155E+00  0.20777363366E+02  0.00000000000E+00 0. -1.
</event>
<event>
 7    1  0.6230310E-012  0.5930195E+02  0.7816164E-02  0.1266605E+00
        -11   -1    0    0    0    0  0.00000000000E+00  0.00000000000E+00  0.45593999997E+02  0.45594000000E+02  0.51100000000E-03 0.  1.
         11   -1    0    0    0    0 -0.00000000000E+00 -0.00000000000E+00 -0.45593999997E+02  0.45594000000E+02  0.51100000000E-03 0. -1.
    9900012    2    1    2    0    0 -0.15114871528E+02 -0.14600189504E+02  0.23981150543E+02  0.59301945741E+02  0.50000003125E+02 0.  0.
         12    1    1    2    0    0  0.15114871528E+02  0.14600189504E+02 -0.23981150543E+02  0.31886054259E+02  0.00000000000E+00 0. -1.
         11    1    3    3    0    0  0.16408563896E+01 -0.27992317652E+02  0.13486022357E+02  0.31114868737E+02  0.51100000000E-03 0. -1.
        -11    1    3    3    0    0 -0.49236257253E+01 -0.96493108392E+00 -0.23888849645E+01  0.55569734491E+01  0.51100000000E-03 0.  1.
        -12    1    3    3    0    0 -0.11832102192E+02  0.14357059232E+02  0.12884013150E+02  0.22630103555E+02  0.00000000000E+00 0.  1.
</event>
<event>
 7    1  0.6230310E-012  0.5930188E+02  0.7816164E-02  0.1266605E+00
        -11   -1    0    0    0    0  0.00000000000E+00  0.00000000000E+00  0.45593999997E+02  0.45594000000E+02  0.51100000000E-03 0.  1.
         11   -1    0    0    0    0 -0.00000000000E+00 -0.00000000000E+00 -0.45593999997E+02  0.45594000000E+02  0.51100000000E-03 0. -1.
    9900012    2    1    2    0    0  0.20837632371E+02 -0.22627602397E+02  0.83969880451E+01  0.59301878861E+02  0.49999881151E+02 0.  0.
         12    1    1    2    0    0 -0.20837632371E+02  0.22627602397E+02 -0.83969880451E+01  0.31886121139E+02  0.00000000000E+00 0. -1.
         11    1    3    3    0    0  0.14656642279E+02 -0.29015892434E+00  0.17172372381E+01  0.14759751322E+02  0.51100000000E-03 0. -1.
        -11    1    3    3    0    0  0.14432056817E+02 -0.19528332460E+02 -0.95716492644E+01  0.26100890838E+02  0.51100000000E-03 0.  1.
        -12    1    3    3    0    0 -0.82510667248E+01 -0.28091110131E+01  0.16251400071E+02  0.18441236701E+02  0.00000000000E+00 0.  1.
</event>
<event>
 7    1  0.6230310E-012  0.5930197E+02  0.7816164E-02  0.1266605E+00
        -11   -1    0    0    0    0  0.00000000000E+00  0.00000000000E+00  0.45593999997E+02  0.45594000000E+02  0.51100000000E-03 0. -1.
         11   -1    0    0    0    0 -0.00000000000E+00 -0.00000000000E+00 -0.45593999997E+02  0.45594000000E+02  0.51100000000E-03 0.  1.
    9900012    2    1    2    0    0  0.29106637377E+02 -0.79245019728E+01  0.10330763850E+02  0.59301972454E+02  0.50000051844E+02 0.  0.
         12    1    1    2    0    0 -0.29106637377E+02  0.79245019728E+01 -0.10330763850E+02  0.31886027546E+02  0.00000000000E+00 0. -1.
         11    1    3    3    0    0  0.17564049000E+02 -0.81580275428E+01  0.64959462903E-01  0.19366296772E+02  0.51100000000E-03 0. -1.
        -11    1    3    3    0    0  0.46316959957E+01 -0.79320006597E+01 -0.12071621335E+02  0.15168826065E+02  0.51100000000E-03 0.  1.
         12    1    3    3    0    0  0.69108923810E+01  0.81655262297E+01  0.22337425722E+02  0.24766849618E+02  0.00000000000E+00 0. -1.
</event>
<event>
 7    1  0.6230310E-012  0.5930195E+02  0.7816164E-02  0.1266605E+00
        -11   -1    0    0    0    0  0.00000000000E+00  0.00000000000E+00  0.45593999997E+02  0.45594000000E+02  0.51100000000E-03 0.  1.
         11   -1    0    0    0    0 -0.00000000000E+00 -0.00000000000E+00 -0.45593999997E+02  0.45594000000E+02  0.51100000000E-03 0. -1.
    9900012    2    1    2    0    0  0.96915117905E+01 -0.29267099421E+02  0.81382818163E+01  0.59301950696E+02  0.50000012161E+02 0.  0.
         12    1    1    2    0    0 -0.96915117905E+01  0.29267099421E+02 -0.81382818163E+01  0.31886049304E+02  0.00000000000E+00 0. -1.
         11    1    3    3    0    0  0.15132368330E+02 -0.13427479545E+02 -0.67872667518E+01  0.21338996425E+02  0.51100000000E-03 0. -1.
        -11    1    3    3    0    0 -0.32744518408E+01  0.87877353386E+01  0.61667440378E+00  0.93982240248E+01  0.51100000000E-03 0.  1.
        -12    1    3    3    0    0 -0.21664046985E+01 -0.24627355215E+02  0.14308874164E+02  0.28564730246E+02  0.00000000000E+00 0.  1.
</event>
<event>
 7    1  0.6230310E-012  0.5930193E+02  0.7816164E-02  0.1266605E+00
        -11   -1    0    0    0    0  0.00000000000E+00  0.00000000000E+00  0.45593999997E+02  0.45594000000E+02  0.51100000000E-03 0. -1.
         11   -1    0    0    0    0 -0.00000000000E+00 -0.00000000000E+00 -0.45593999997E+02  0.45594000000E+02  0.51100000000E-03 0.  1.
    9900012    2    1    2    0    0  0.16097998178E+01  0.18569624810E+02 -0.25870808865E+02  0.59301934511E+02  0.49999982644E+02 0.  0.
         12    1    1    2    0    0 -0.16097998178E+01 -0.18569624810E+02  0.25870808865E+02  0.31886065489E+02  0.00000000000E+00 0. -1.
         11    1    3    3    0    0  0.20502018393E+02  0.20731723996E+02 -0.12247443113E+02  0.31624942705E+02  0.51100000000E-03 0. -1.
        -11    1    3    3    0    0 -0.17596943777E+01  0.51621134953E+01 -0.33378189120E+01  0.63941360160E+01  0.51100000000E-03 0.  1.
         12    1    3    3    0    0 -0.17132524197E+02 -0.73242126816E+01 -0.10285546841E+02  0.21282855790E+02  0.00000000000E+00 0. -1.
</event>
<event>
 7    1  0.6230310E-012  0.5930193E+02  0.7816164E-02  0.1266605E+00
        -11   -1    0    0    0    0  0.00000000000E+00  0.00000000000E+00  0.45593999997E+02  0.45594000000E+02  0.51100000000E-03 0.  1.
         11   -1    0    0    0    0 -0.00000000000E+00 -0.00000000000E+00 -0.45593999997E+02  0.45594000000E+02  0.51100000000E-03 0. -1.
    9900012    2    1    2    0    0  0.21838034496E+01 -0.10542664290E+02  0.30013408088E+02  0.59301930426E+02  0.49999975194E+02 0.  0.
         12    1    1    2    0    0 -0.21838034496E+01  0.10542664290E+02 -0.30013408088E+02  0.31886069574E+02  0.00000000000E+00 0. -1.
         11    1    3    3    0    0 -0.62787298859E+01  0.13501721772E+02  0.42210827298E+01  0.15476966094E+02  0.51100000000E-03 0. -1.
        -11    1    3    3    0    0  0.12566247770E+02 -0.11195297806E+02  0.26480227310E+01  0.17036939297E+02  0.51100000000E-03 0.  1.
         12    1    3    3    0    0 -0.41037144343E+01 -0.12849088256E+02  0.23144302627E+02  0.26788025035E+02  0.00000000000E+00 0. -1.
</event>
<event>
 7    1  0.6230310E-012  0.5930191E+02  0.7816164E-02  0.1266605E+00
        -11   -1    0    0    0    0  0.00000000000E+00  0.00000000000E+00  0.45593999997E+02  0.45594000000E+02  0.51100000000E-03 0.  1.
         11   -1    0    0    0    0 -0.00000000000E+00 -0.00000000000E+00 -0.45593999997E+02  0.45594000000E+02  0.51100000000E-03 0. -1.
    9900012    2    1    2    0    0 -0.12991754264E+02 -0.12723492042E+02  0.26192549116E+02  0.59301912786E+02  0.49999943023E+02 0.  0.
         12    1    1    2    0    0  0.12991754264E+02  0.12723492042E+02 -0.26192549116E+02  0.31886087214E+02  0.00000000000E+00 0. -1.
         11    1    3    3    0    0 -0.18076314776E+02 -0.23581928976E+02  0.92485339484E+01  0.31119060246E+02  0.51100000000E-03 0. -1.
        -11    1    3    3    0    0 -0.35139983672E+01  0.60930952568E+01 -0.15825422143E+01  0.72096070943E+01  0.51100000000E-03 0.  1.
        -12    1    3    3    0    0  0.85985588797E+01  0.47653416777E+01  0.18526557382E+02  0.20973245446E+02  0.00000000000E+00 0.  1.
</event>
<event>
 7    1  0.6230310E-012  0.5930199E+02  0.7816164E-02  0.1266605E+00
        -11   -1    0    0    0    0  0.00000000000E+00  0.00000000000E+00  0.45593999997E+02  0.45594000000E+02  0.51100000000E-03 0. -1.
         11   -1    0    0    0    0 -0.00000000000E+00 -0.00000000000E+00 -0.45593999997E+02  0.45594000000E+02  0.51100000000E-03 0.  1.
    9900012    2    1    2    0    0  0.31148344644E+02  0.63421514242E+01 -0.25050832657E+01  0.59301988946E+02  0.50000081921E+02 0.  0.
         12    1    1    2    0    0 -0.31148344644E+02 -0.63421514242E+01  0.25050832657E+01  0.31886011054E+02  0.00000000000E+00 0. -1.
         11    1    3    3    0    0  0.92577003186E+01 -0.17029820513E+02 -0.70819520255E+01  0.20636711139E+02  0.51100000000E-03 0.  1.
        -11    1    3    3    0    0  0.11677140798E+01  0.30843978878E+01  0.87641024897E+01  0.93641101667E+01  0.51100000000E-03 0. -1.
        -12    1    3    3    0    0  0.20722930246E+02  0.20287574049E+02 -0.41872337300E+01  0.29301167640E+02  0.00000000000E+00 0.  1.
</event>
<event>
 7    1  0.6230310E-012  0.5930177E+02  0.7816164E-02  0.1266605E+00
        -11   -1    0    0    0    0  0.00000000000E+00  0.00000000000E+00  0.45593999997E+02  0.45594000000E+02  0.51100000000E-03 0.  1.
         11   -1    0    0    0    0 -0.00000000000E+00 -0.00000000000E+00 -0.45593999997E+02  0.45594000000E+02  0.51100000000E-03 0. -1.
    9900012    2    1    2    0    0 -0.28424799855E+02  0.11452119427E+02 -0.88097409643E+01  0.59301767516E+02  0.49999678083E+02 0.  0.
         12    1    1    2    0    0  0.28424799855E+02 -0.11452119427E+02  0.88097409643E+01  0.31886232484E+02  0.00000000000E+00 0. -1.
         11    1    3    3    0    0 -0.16490075588E+01  0.16478482825E+02 -0.18088629954E+02  0.24524643851E+02  0.51100000000E-03 0. -1.
        -11    1    3    3    0    0 -0.11048576154E+02 -0.87946922676E+01 -0.30427972969E+01  0.14445631270E+02  0.51100000000E-03 0.  1.
        -12    1    3    3    0    0 -0.15727216142E+02  0.37683288696E+01  0.12321686287E+02  0.20331492395E+02  0.00000000000E+00 0.  1.
</event>
<event>
 7    1  0.6230310E-012  0.5930195E+02  0.7816164E-02  0.1266605E+00
        -11   -1    0    0    0    0  0.00000000000E+00  0.00000000000E+00  0.45593999997E+02  0.45594000000E+02  0.51100000000E-03 0. -1.
         11   -1    0    0    0    0 -0.00000000000E+00 -0.00000000000E+00 -0.45593999997E+02  0.45594000000E+02  0.51100000000E-03 0.  1.
    9900012    2    1    2    0    0 -0.29025384433E+02  0.13157161380E+02 -0.10659111049E+01  0.59301952839E+02  0.50000016070E+02 0.  0.
         12    1    1    2    0    0  0.29025384433E+02 -0.13157161380E+02  0.10659111049E+01  0.31886047161E+02  0.00000000000E+00 0. -1.
         11    1    3    3    0    0 -0.59302635795E+00  0.10078529800E+01  0.61233845914E+01  0.62340425893E+01  0.51100000000E-03 0. -1.
        -11    1    3    3    0    0 -0.20291802617E+01 -0.13224270927E+02 -0.94489826489E+01  0.16379321947E+02  0.51100000000E-03 0.  1.
        -12    1    3    3    0    0 -0.26403177813E+02  0.25373579327E+02  0.22596869526E+01  0.36688588303E+02  0.00000000000E+00 0.  1.
</event>
<event>
 7    1  0.6230310E-012  0.5930200E+02  0.7816164E-02  0.1266605E+00
        -11   -1    0    0    0    0  0.00000000000E+00  0.00000000000E+00  0.45593999997E+02  0.45594000000E+02  0.51100000000E-03 0. -1.
         11   -1    0    0    0    0 -0.00000000000E+00 -0.00000000000E+00 -0.45593999997E+02  0.45594000000E+02  0.51100000000E-03 0.  1.
    9900012    2    1    2    0    0 -0.18195599512E+01  0.24616380549E+02  0.20185148684E+02  0.59301996533E+02  0.50000095756E+02 0.  0.
         12    1    1    2    0    0  0.18195599512E+01 -0.24616380549E+02 -0.20185148684E+02  0.31886003467E+02  0.00000000000E+00 0. -1.
         11    1    3    3    0    0 -0.88941585399E+01  0.27373297760E+02  0.18307223041E+02  0.34110964544E+02  0.51100000000E-03 0.  1.
        -11    1    3    3    0    0  0.11902997413E+02  0.42446581018E+01  0.77788084119E+01  0.14839418128E+02  0.51100000000E-03 0. -1.
        -12    1    3    3    0    0 -0.48283988239E+01 -0.70015753128E+01 -0.59008827694E+01  0.10351613861E+02  0.00000000000E+00 0.  1.
</event>
<event>
 7    1  0.6230310E-012  0.5930200E+02  0.7816164E-02  0.1266605E+00
        -11   -1    0    0    0    0  0.00000000000E+00  0.00000000000E+00  0.45593999997E+02  0.45594000000E+02  0.51100000000E-03 0. -1.
         11   -1    0    0    0    0 -0.00000000000E+00 -0.00000000000E+00 -0.45593999997E+02  0.45594000000E+02  0.51100000000E-03 0.  1.
    9900012    2    1    2    0    0 -0.31694517752E+02 -0.29571560348E+01  0.18519489527E+01  0.59302000842E+02  0.50000103616E+02 0.  0.
         12    1    1    2    0    0  0.31694517752E+02  0.29571560348E+01 -0.18519489527E+01  0.31885999158E+02  0.00000000000E+00 0. -1.
         11    1    3    3    0    0 -0.73382354952E+01 -0.50350786522E+01  0.58302827475E+01  0.10639262869E+02  0.51100000000E-03 0. -1.
        -11    1    3    3    0    0 -0.10341314667E+02  0.18470163040E+02  0.95303235226E+01  0.23214581161E+02  0.51100000000E-03 0.  1.
         12    1    3    3    0    0 -0.14014967590E+02 -0.16392240423E+02 -0.13508657317E+02  0.25448156813E+02  0.00000000000E+00 0. -1.
</event>
<event>
 7    1  0.6230310E-012  0.5930196E+02  0.7816164E-02  0.1266605E+00
        -11   -1    0    0    0    0  0.00000000000E+00  0.00000000000E+00  0.45593999997E+02  0.45594000000E+02  0.51100000000E-03 0.  1.
         11   -1    0    0    0    0 -0.00000000000E+00 -0.00000000000E+00 -0.45593999997E+02  0.45594000000E+02  0.51100000000E-03 0. -1.
    9900012    2    1    2    0    0  0.65463449020E+01 -0.20902659448E+02  0.23172049681E+02  0.59301957756E+02  0.50000025036E+02 0.  0.
         12    1    1    2    0    0 -0.65463449020E+01  0.20902659448E+02 -0.23172049681E+02  0.31886042244E+02  0.00000000000E+00 0. -1.
         11    1    3    3    0    0  0.34167177842E+01 -0.20459004665E+02  0.12116056261E+01  0.20777700083E+02  0.51100000000E-03 0. -1.
        -11    1    3    3    0    0 -0.69413179490E+00 -0.72549681304E+01 -0.60331703710E+01  0.94612645301E+01  0.51100000000E-03 0.  1.
        -12    1    3    3    0    0  0.38237589127E+01  0.68113133474E+01  0.27993614426E+02  0.29062993142E+02  0.00000000000E+00 0.  1.
</event>
<event>
 7    1  0.6230310E-012  0.5930193E+02  0.7816164E-02  0.1266605E+00
        -11   -1    0    0    0    0  0.00000000000E+00  0.00000000000E+00  0.45593999997E+02  0.45594000000E+02  0.51100000000E-03 0. -1.
         11   -1    0    0    0    0 -0.00000000000E+00 -0.00000000000E+00 -0.45593999997E+02  0.45594000000E+02  0.51100000000E-03 0.  1.
    9900012    2    1    2    0    0  0.29350054922E+02  0.11673479716E+02 -0.43618326875E+01  0.59301930361E+02  0.49999975076E+02 0.  0.
         12    1    1    2    0    0 -0.29350054922E+02 -0.11673479716E+02  0.43618326875E+01  0.31886069639E+02  0.00000000000E+00 0. -1.
         11    1    3    3    0    0  0.33321378814E+01 -0.49625762246E+01 -0.25451329650E+01  0.64967690213E+01  0.51100000000E-03 0. -1.
        -11    1    3    3    0    0  0.10725102384E+02 -0.83972154500E+01  0.13953685939E+02  0.19499907692E+02  0.51100000000E-03 0.  1.
        -12    1    3    3    0    0  0.15292814657E+02  0.25033271391E+02 -0.15770385661E+02  0.33305253648E+02  0.00000000000E+00 0.  1.
</event>
<event>
 7    1  0.6230310E-012  0.5930195E+02  0.7816164E-02  0.1266605E+00
        -11   -1    0    0    0    0  0.00000000000E+00  0.00000000000E+00  0.45593999997E+02  0.45594000000E+02  0.51100000000E-03 0. -1.
         11   -1    0    0    0    0 -0.00000000000E+00 -0.00000000000E+00 -0.45593999997E+02  0.45594000000E+02  0.51100000000E-03 0.  1.
    9900012    2    1    2    0    0  0.86820975358E-02  0.31558102856E+02 -0.45613860727E+01  0.59301950164E+02  0.50000011191E+02 0.  0.
         12    1    1    2    0    0 -0.86820975357E-02 -0.31558102856E+02  0.45613860727E+01  0.31886049836E+02  0.00000000000E+00 0. -1.
         11    1    3    3    0    0  0.19753550769E+01  0.28614532453E+01  0.57595510348E+00  0.35244385223E+01  0.51100000000E-03 0. -1.
        -11    1    3    3    0    0  0.86326750100E+01 -0.38756182210E+01 -0.17059797609E+02  0.19508464551E+02  0.51100000000E-03 0.  1.
        -12    1    3    3    0    0 -0.10599347989E+02  0.32572267831E+02  0.11922456433E+02  0.36269047091E+02  0.00000000000E+00 0.  1.
</event>
<event>
 7    1  0.6230310E-012  0.5930187E+02  0.7816164E-02  0.1266605E+00
        -11   -1    0    0    0    0  0.00000000000E+00  0.00000000000E+00  0.45593999997E+02  0.45594000000E+02  0.51100000000E-03 0.  1.
         11   -1    0    0    0    0 -0.00000000000E+00 -0.00000000000E+00 -0.45593999997E+02  0.45594000000E+02  0.51100000000E-03 0. -1.
    9900012    2    1    2    0    0 -0.17308162688E+02 -0.25588173098E+02  0.78992423924E+01  0.59301872476E+02  0.49999869506E+02 0.  0.
         12    1    1    2    0    0  0.17308162688E+02  0.25588173098E+02 -0.78992423924E+01  0.31886127524E+02  0.00000000000E+00 0. -1.
         11    1    3    3    0    0  0.65302490513E+01 -0.19652525747E+02 -0.37468392653E+01  0.21045301748E+02  0.51100000000E-03 0. -1.
        -11    1    3    3    0    0 -0.13059524677E+02 -0.10922642308E+02 -0.50580939083E+01  0.17760619754E+02  0.51100000000E-03 0.  1.
        -12    1    3    3    0    0 -0.10778887061E+02  0.49869949571E+01  0.16704175566E+02  0.20495950974E+02  0.00000000000E+00 0.  1.
</event>
<event>
 7    1  0.6230310E-012  0.5930197E+02  0.7816164E-02  0.1266605E+00
        -11   -1    0    0    0    0  0.00000000000E+00  0.00000000000E+00  0.45593999997E+02  0.45594000000E+02  0.51100000000E-03 0. -1.
         11   -1    0    0    0    0 -0.00000000000E+00 -0.00000000000E+00 -0.45593999997E+02  0.45594000000E+02  0.51100000000E-03 0.  1.
    9900012    2    1    2    0    0  0.23463030111E+02  0.19593886815E+02 -0.90710980642E+01  0.59301968534E+02  0.50000044694E+02 0.  0.
         12    1    1    2    0    0 -0.23463030111E+02 -0.19593886815E+02  0.90710980642E+01  0.31886031466E+02  0.00000000000E+00 0. -1.
         11    1    3    3    0    0 -0.69967554713E+01  0.20282294545E+01 -0.11538039416E+02  0.13645316254E+02  0.51100000000E-03 0. -1.
        -11    1    3    3    0    0  0.69047816371E+01  0.20705444387E+02  0.12519073039E+01  0.21862266783E+02  0.51100000000E-03 0.  1.
        -12    1    3    3    0    0  0.23555003946E+02 -0.31397870266E+01  0.12150340482E+01  0.23794385497E+02  0.00000000000E+00 0.  1.
</event>
<event>
 7    1  0.6230310E-012  0.5930195E+02  0.7816164E-02  0.1266605E+00
        -11   -1    0    0    0    0  0.00000000000E+00  0.00000000000E+00  0.45593999997E+02  0.45594000000E+02  0.51100000000E-03 0.  1.
         11   -1    0    0    0    0 -0.00000000000E+00 -0.00000000000E+00 -0.45593999997E+02  0.45594000000E+02  0.51100000000E-03 0. -1.
    9900012    2    1    2    0    0 -0.19791039577E+02 -0.54540751071E+01  0.24398518654E+02  0.59301954537E+02  0.50000019166E+02 0.  0.
         12    1    1    2    0    0  0.19791039577E+02  0.54540751071E+01 -0.24398518654E+02  0.31886045463E+02  0.00000000000E+00 0. -1.
         11    1    3    3    0    0  0.55307372851E+01 -0.18018856267E+02  0.61010327523E+00  0.18858432128E+02  0.51100000000E-03 0. -1.
        -11    1    3    3    0    0 -0.61904237974E+01  0.40686035774E+01 -0.15587087879E+01  0.75699706213E+01  0.51100000000E-03 0.  1.
        -12    1    3    3    0    0 -0.19131353065E+02  0.84961775822E+01  0.25347124166E+02  0.32873551787E+02  0.00000000000E+00 0.  1.
</event>
<event>
 7    1  0.6230310E-012  0.5930194E+02  0.7816164E-02  0.1266605E+00
        -11   -1    0    0    0    0  0.00000000000E+00  0.00000000000E+00  0.45593999997E+02  0.45594000000E+02  0.51100000000E-03 0.  1.
         11   -1    0    0    0    0 -0.00000000000E+00 -0.00000000000E+00 -0.45593999997E+02  0.45594000000E+02  0.51100000000E-03 0. -1.
    9900012    2    1    2    0    0  0.22910111981E+02 -0.46756391586E+01  0.21679155089E+02  0.59301943519E+02  0.49999999072E+02 0.  0.
         12    1    1    2    0    0 -0.22910111981E+02  0.46756391586E+01 -0.21679155089E+02  0.31886056481E+02  0.00000000000E+00 0. -1.
         11    1    3    3    0    0 -0.11195582512E+01  0.71114537879E+01 -0.19580235994E+01  0.74605658185E+01  0.51100000000E-03 0. -1.
        -11    1    3    3    0    0  0.23055797060E+02 -0.17116308773E+02  0.11789320220E+01  0.28738957619E+02  0.51100000000E-03 0.  1.
         12    1    3    3    0    0  0.97387317261E+00  0.53292158266E+01  0.22458246666E+02  0.23102420081E+02  0.00000000000E+00 0. -1.
</event>
<event>
 7    1  0.6230310E-012  0.5930199E+02  0.7816164E-02  0.1266605E+00
        -11   -1    0    0    0    0  0.00000000000E+00  0.00000000000E+00  0.45593999997E+02  0.45594000000E+02  0.51100000000E-03 0. -1.
         11   -1    0    0    0    0 -0.00000000000E+00 -0.00000000000E+00 -0.45593999997E+02  0.45594000000E+02  0.51100000000E-03 0.  1.
    9900012    2    1    2    0    0  0.14181436502E+02  0.26663513683E+02  0.10230426500E+02  0.59301988497E+02  0.50000081101E+02 0.  0.
         12    1    1    2    0    0 -0.14181436502E+02 -0.26663513683E+02 -0.10230426500E+02  0.31886011503E+02  0.00000000000E+00 0. -1.
         11    1    3    3    0    0 -0.11684066628E+02  0.19711208023E+02 -0.84923028397E+00  0.22929682227E+02  0.51100000000E-03 0.  1.
        -11    1    3    3    0    0  0.11500447093E+02  0.11431427099E+02  0.13540284666E+02  0.21125272021E+02  0.51100000000E-03 0. -1.
        -12    1    3    3    0    0  0.14365056037E+02 -0.44791214387E+01 -0.24606278827E+01  0.15247034249E+02  0.00000000000E+00 0.  1.
</event>
<event>
 7    1  0.6230310E-012  0.5930197E+02  0.7816164E-02  0.1266605E+00
        -11   -1    0    0    0    0  0.00000000000E+00  0.00000000000E+00  0.45593999997E+02  0.45594000000E+02  0.51100000000E-03 0.  1.
         11   -1    0    0    0    0 -0.00000000000E+00 -0.00000000000E+00 -0.45593999997E+02  0.45594000000E+02  0.51100000000E-03 0. -1.
    9900012    2    1    2    0    0 -0.24426012828E+02 -0.12712989138E+02  0.16076956004E+02  0.59301973125E+02  0.50000053067E+02 0.  0.
         12    1    1    2    0    0  0.24426012828E+02  0.12712989138E+02 -0.16076956004E+02  0.31886026875E+02  0.00000000000E+00 0. -1.
         11    1    3    3    0    0 -0.13169067864E+01  0.76449488647E+01 -0.73337385341E+01  0.10675355159E+02  0.51100000000E-03 0. -1.
        -11    1    3    3    0    0 -0.13914087741E+02  0.43045353389E+01  0.15207640728E+02  0.21057141281E+02  0.51100000000E-03 0.  1.
         12    1    3    3    0    0 -0.91950183005E+01 -0.24662473342E+02  0.82030538095E+01  0.27569476685E+02  0.00000000000E+00 0. -1.
</event>
<event>
 7    1  0.6230310E-012  0.5930193E+02  0.7816164E-02  0.1266605E+00
        -11   -1    0    0    0    0  0.00000000000E+00  0.00000000000E+00  0.45593999997E+02  0.45594000000E+02  0.51100000000E-03 0.  1.
         11   -1    0    0    0    0 -0.00000000000E+00 -0.00000000000E+00 -0.45593999997E+02  0.45594000000E+02  0.51100000000E-03 0. -1.
    9900012    2    1    2    0    0 -0.10666248182E+02  0.30038592907E+02  0.79726100215E+00  0.59301928759E+02  0.49999972153E+02 0.  0.
         12    1    1    2    0    0  0.10666248182E+02 -0.30038592907E+02 -0.79726100215E+00  0.31886071241E+02  0.00000000000E+00 0. -1.
         11    1    3    3    0    0 -0.11666765943E+02  0.46461702531E+01  0.19916392004E+01  0.12714831991E+02  0.51100000000E-03 0. -1.
        -11    1    3    3    0    0 -0.10723874753E+02  0.13313600925E+02  0.15356640983E+02  0.22979988726E+02  0.51100000000E-03 0.  1.
         12    1    3    3    0    0  0.11724392514E+02  0.12078821728E+02 -0.16551019181E+02  0.23607108042E+02  0.00000000000E+00 0. -1.
</event>
<event>
 7    1  0.6230310E-012  0.5930193E+02  0.7816164E-02  0.1266605E+00
        -11   -1    0    0    0    0  0.00000000000E+00  0.00000000000E+00  0.45593999997E+02  0.45594000000E+02  0.51100000000E-03 0.  1.
         11   -1    0    0    0    0 -0.00000000000E+00 -0.00000000000E+00 -0.45593999997E+02  0.45594000000E+02  0.51100000000E-03 0. -1.
    9900012    2    1    2    0    0 -0.26180396794E+02 -0.16286402026E+02  0.81278024870E+01  0.59301933443E+02  0.49999980696E+02 0.  0.
         12    1    1    2    0    0  0.26180396794E+02  0.16286402026E+02 -0.81278024870E+01  0.31886066557E+02  0.00000000000E+00 0. -1.
         11    1    3    3    0    0 -0.72450356847E+01 -0.25727061453E+02 -0.69097227265E+00  0.26736672868E+02  0.51100000000E-03 0. -1.
        -11    1    3    3    0    0  0.48509246165E+01 -0.84389429085E+00 -0.66805420437E+00  0.49688956409E+01  0.51100000000E-03 0.  1.
        -12    1    3    3    0    0 -0.23786285725E+02  0.10284553718E+02  0.94868289641E+01  0.27596364934E+02  0.00000000000E+00 0.  1.
</event>
<event>
 7    1  0.6230310E-012  0.5930195E+02  0.7816164E-02  0.1266605E+00
        -11   -1    0    0    0    0  0.00000000000E+00  0.00000000000E+00  0.45593999997E+02  0.45594000000E+02  0.51100000000E-03 0.  1.
         11   -1    0    0    0    0 -0.00000000000E+00 -0.00000000000E+00 -0.45593999997E+02  0.45594000000E+02  0.51100000000E-03 0. -1.
    9900012    2    1    2    0    0  0.84952448259E+01  0.30482455169E+02  0.39205666295E+01  0.59301951319E+02  0.50000013298E+02 0.  0.
         12    1    1    2    0    0 -0.84952448259E+01 -0.30482455169E+02 -0.39205666295E+01  0.31886048681E+02  0.00000000000E+00 0. -1.
         11    1    3    3    0    0 -0.56969473759E+00  0.14783750595E+02  0.44955014085E+00  0.14801551586E+02  0.51100000000E-03 0. -1.
        -11    1    3    3    0    0 -0.13917545034E+02  0.16110371659E+02  0.26030543389E+00  0.21291075453E+02  0.51100000000E-03 0.  1.
         12    1    3    3    0    0  0.22982484597E+02 -0.41166708561E+00  0.32107110548E+01  0.23209324280E+02  0.00000000000E+00 0. -1.
</event>
<event>
 7    1  0.6230310E-012  0.5930197E+02  0.7816164E-02  0.1266605E+00
        -11   -1    0    0    0    0  0.00000000000E+00  0.00000000000E+00  0.45593999997E+02  0.45594000000E+02  0.51100000000E-03 0.  1.
         11   -1    0    0    0    0 -0.00000000000E+00 -0.00000000000E+00 -0.45593999997E+02  0.45594000000E+02  0.51100000000E-03 0. -1.
    9900012    2    1    2    0    0 -0.47179487806E+01  0.20898687397E+02  0.23615771097E+02  0.59301971396E+02  0.50000049913E+02 0.  0.
         12    1    1    2    0    0  0.47179487806E+01 -0.20898687397E+02 -0.23615771097E+02  0.31886028604E+02  0.00000000000E+00 0. -1.
         11    1    3    3    0    0 -0.12291458361E+01 -0.36019669436E+00  0.14717819260E+02  0.14773447302E+02  0.51100000000E-03 0. -1.
        -11    1    3    3    0    0  0.11756248797E+02 -0.84985404420E+00 -0.66133644993E+01  0.13515481047E+02  0.51100000000E-03 0.  1.
        -12    1    3    3    0    0 -0.15245051741E+02  0.22108738136E+02  0.15511316336E+02  0.31013043047E+02  0.00000000000E+00 0.  1.
</event>
<event>
 7    1  0.6230310E-012  0.5930195E+02  0.7816164E-02  0.1266605E+00
        -11   -1    0    0    0    0  0.00000000000E+00  0.00000000000E+00  0.45593999997E+02  0.45594000000E+02  0.51100000000E-03 0. -1.
         11   -1    0    0    0    0 -0.00000000000E+00 -0.00000000000E+00 -0.45593999997E+02  0.45594000000E+02  0.51100000000E-03 0.  1.
    9900012    2    1    2    0    0 -0.20214995680E+02 -0.15967191828E+02 -0.18791568164E+02  0.59301948202E+02  0.50000007613E+02 0.  0.
         12    1    1    2    0    0  0.20214995680E+02  0.15967191828E+02  0.18791568164E+02  0.31886051798E+02  0.00000000000E+00 0. -1.
         11    1    3    3    0    0  0.34476628840E+01 -0.29642256947E+00 -0.12264434935E+02  0.12743257443E+02  0.51100000000E-03 0. -1.
        -11    1    3    3    0    0  0.33491292055E+01 -0.11779753160E+01  0.10784607998E+02  0.11353944786E+02  0.51100000000E-03 0.  1.
        -12    1    3    3    0    0 -0.27011787770E+02 -0.14492793942E+02 -0.17311741226E+02  0.35204745973E+02  0.00000000000E+00 0.  1.
</event>
<event>
 7    1  0.6230310E-012  0.5930182E+02  0.7816164E-02  0.1266605E+00
        -11   -1    0    0    0    0  0.00000000000E+00  0.00000000000E+00  0.45593999997E+02  0.45594000000E+02  0.51100000000E-03 0.  1.
         11   -1    0    0    0    0 -0.00000000000E+00 -0.00000000000E+00 -0.45593999997E+02  0.45594000000E+02  0.51100000000E-03 0. -1.
    9900012    2    1    2    0    0 -0.14404380820E+02  0.24471192920E+02  0.14505280674E+02  0.59301817456E+02  0.49999769164E+02 0.  0.
         12    1    1    2    0    0  0.14404380820E+02 -0.24471192920E+02 -0.14505280674E+02  0.31886182544E+02  0.00000000000E+00 0. -1.
         11    1    3    3    0    0 -0.31791795437E+01  0.14931238203E+02  0.11028910292E+02  0.18833107001E+02  0.51100000000E-03 0. -1.
        -11    1    3    3    0    0 -0.20221322568E+02  0.13842126589E+02  0.12059278460E+02  0.27311765819E+02  0.51100000000E-03 0.  1.
         12    1    3    3    0    0  0.89961212909E+01 -0.43021718716E+01 -0.85829080777E+01  0.13156944636E+02  0.00000000000E+00 0. -1.
</event>
<event>
 7    1  0.6230310E-012  0.5930194E+02  0.7816164E-02  0.1266605E+00
        -11   -1    0    0    0    0  0.00000000000E+00  0.00000000000E+00  0.45593999997E+02  0.45594000000E+02  0.51100000000E-03 0. -1.
         11   -1    0    0    0    0 -0.00000000000E+00 -0.00000000000E+00 -0.45593999997E+02  0.45594000000E+02  0.51100000000E-03 0.  1.
    9900012    2    1    2    0    0 -0.20961394446E+01  0.18791419649E+02 -0.25675082950E+02  0.59301935058E+02  0.49999983642E+02 0.  0.
         12    1    1    2    0    0  0.20961394446E+01 -0.18791419649E+02  0.25675082950E+02  0.31886064942E+02  0.00000000000E+00 0. -1.
         11    1    3    3    0    0  0.71847958166E+01 -0.24805673986E+01  0.20448357661E+01  0.78712044260E+01  0.51100000000E-03 0. -1.
        -11    1    3    3    0    0  0.19851810152E+01 -0.99079453900E+01 -0.53188671145E+01  0.11419223842E+02  0.51100000000E-03 0.  1.
         12    1    3    3    0    0 -0.11266116276E+02  0.31179932437E+02 -0.22401051602E+02  0.40011506790E+02  0.00000000000E+00 0. -1.
</event>
<event>
 7    1  0.6230310E-012  0.5930194E+02  0.7816164E-02  0.1266605E+00
        -11   -1    0    0    0    0  0.00000000000E+00  0.00000000000E+00  0.45593999997E+02  0.45594000000E+02  0.51100000000E-03 0. -1.
         11   -1    0    0    0    0 -0.00000000000E+00 -0.00000000000E+00 -0.45593999997E+02  0.45594000000E+02  0.51100000000E-03 0.  1.
    9900012    2    1    2    0    0 -0.20727903614E+02  0.23605249952E+00 -0.24228475775E+02  0.59301941175E+02  0.49999994797E+02 0.  0.
         12    1    1    2    0    0  0.20727903614E+02 -0.23605249952E+00  0.24228475775E+02  0.31886058825E+02  0.00000000000E+00 0. -1.
         11    1    3    3    0    0 -0.11871077610E+02  0.21451452662E+02 -0.40434073090E+01  0.24848268508E+02  0.51100000000E-03 0. -1.
        -11    1    3    3    0    0 -0.10076592085E+02 -0.43133123056E+01 -0.84754744778E+01  0.13855541815E+02  0.51100000000E-03 0.  1.
        -12    1    3    3    0    0  0.12197660817E+01 -0.16902087857E+02 -0.11709593988E+02  0.20598130852E+02  0.00000000000E+00 0.  1.
</event>
<event>
 7    1  0.6230310E-012  0.5930196E+02  0.7816164E-02  0.1266605E+00
        -11   -1    0    0    0    0  0.00000000000E+00  0.00000000000E+00  0.45593999997E+02  0.45594000000E+02  0.51100000000E-03 0.  1.
         11   -1    0    0    0    0 -0.00000000000E+00 -0.00000000000E+00 -0.45593999997E+02  0.45594000000E+02  0.51100000000E-03 0. -1.
    9900012    2    1    2    0    0 -0.28819019180E+02  0.11034310223E+02  0.80266669491E+01  0.59301964642E+02  0.50000037595E+02 0.  0.
         12    1    1    2    0    0  0.28819019180E+02 -0.11034310223E+02 -0.80266669491E+01  0.31886035358E+02  0.00000000000E+00 0. -1.
         11    1    3    3    0    0 -0.69228450902E+01  0.90547536809E+00 -0.83869535318E+01  0.10912683428E+02  0.51100000000E-03 0. -1.
        -11    1    3    3    0    0 -0.13918018154E+01  0.16662456099E+02 -0.55718260351E+01  0.17624409243E+02  0.51100000000E-03 0.  1.
        -12    1    3    3    0    0 -0.20504372274E+02 -0.65336212436E+01  0.21985446516E+02  0.30764871971E+02  0.00000000000E+00 0.  1.
</event>
<event>
 7    1  0.6230310E-012  0.5930190E+02  0.7816164E-02  0.1266605E+00
        -11   -1    0    0    0    0  0.00000000000E+00  0.00000000000E+00  0.45593999997E+02  0.45594000000E+02  0.51100000000E-03 0.  1.
         11   -1    0    0    0    0 -0.00000000000E+00 -0.00000000000E+00 -0.45593999997E+02  0.45594000000E+02  0.51100000000E-03 0. -1.
    9900012    2    1    2    0    0  0.30174767059E+02 -0.87093529451E+01  0.55094430493E+01  0.59301900231E+02  0.49999920125E+02 0.  0.
         12    1    1    2    0    0 -0.30174767059E+02  0.87093529451E+01 -0.55094430493E+01  0.31886099769E+02  0.00000000000E+00 0. -1.
         11    1    3    3    0    0  0.18105189098E+01 -0.40228040830E+01  0.12019970136E+02  0.12803929621E+02  0.51100000000E-03 0. -1.
        -11    1    3    3    0    0 -0.61051210602E+01  0.68079894824E+01 -0.42735116270E+01  0.10093766682E+02  0.51100000000E-03 0.  1.
        -12    1    3    3    0    0  0.34469369209E+02 -0.11494538345E+02 -0.22370154598E+01  0.36404203927E+02  0.00000000000E+00 0.  1.
</event>
<event>
 7    1  0.6230310E-012  0.5930196E+02  0.7816164E-02  0.1266605E+00
        -11   -1    0    0    0    0  0.00000000000E+00  0.00000000000E+00  0.45593999997E+02  0.45594000000E+02  0.51100000000E-03 0. -1.
         11   -1    0    0    0    0 -0.00000000000E+00 -0.00000000000E+00 -0.45593999997E+02  0.45594000000E+02  0.51100000000E-03 0.  1.
    9900012    2    1    2    0    0 -0.58033957691E+01 -0.29567462705E+02 -0.10430985550E+02  0.59301957398E+02  0.50000024385E+02 0.  0.
         12    1    1    2    0    0  0.58033957691E+01  0.29567462705E+02  0.10430985550E+02  0.31886042602E+02  0.00000000000E+00 0. -1.
         11    1    3    3    0    0  0.17551149045E+02 -0.79878431571E+01 -0.61141449165E+01  0.20229464635E+02  0.51100000000E-03 0. -1.
        -11    1    3    3    0    0  0.19212029023E+01  0.24452747091E+01  0.19091804129E+01  0.36490216641E+01  0.51100000000E-03 0.  1.
        -12    1    3    3    0    0 -0.25275747716E+02 -0.24024894257E+02 -0.62260210463E+01  0.35423471099E+02  0.00000000000E+00 0.  1.
</event>
<event>
 7    1  0.6230310E-012  0.5930194E+02  0.7816164E-02  0.1266605E+00
        -11   -1    0    0    0    0  0.00000000000E+00  0.00000000000E+00  0.45593999997E+02  0.45594000000E+02  0.51100000000E-03 0.  1.
         11   -1    0    0    0    0 -0.00000000000E+00 -0.00000000000E+00 -0.45593999997E+02  0.45594000000E+02  0.51100000000E-03 0. -1.
    9900012    2    1    2    0    0  0.28699097019E+02 -0.29965237004E+01  0.13568483430E+02  0.59301936170E+02  0.49999985669E+02 0.  0.
         12    1    1    2    0    0 -0.28699097019E+02  0.29965237004E+01 -0.13568483430E+02  0.31886063830E+02  0.00000000000E+00 0. -1.
         11    1    3    3    0    0  0.98198356396E+01  0.91175079459E+01  0.80608282009E+01  0.15637617295E+02  0.51100000000E-03 0. -1.
        -11    1    3    3    0    0  0.78720890788E+01 -0.92851807955E+01  0.21105993218E+02  0.24364878799E+02  0.51100000000E-03 0.  1.
         12    1    3    3    0    0  0.11007172301E+02 -0.28288508508E+01 -0.15598337990E+02  0.19299440076E+02  0.00000000000E+00 0. -1.
</event>
<event>
 7    1  0.6230310E-012  0.5930194E+02  0.7816164E-02  0.1266605E+00
        -11   -1    0    0    0    0  0.00000000000E+00  0.00000000000E+00  0.45593999997E+02  0.45594000000E+02  0.51100000000E-03 0.  1.
         11   -1    0    0    0    0 -0.00000000000E+00 -0.00000000000E+00 -0.45593999997E+02  0.45594000000E+02  0.51100000000E-03 0. -1.
    9900012    2    1    2    0    0  0.20712090179E+01 -0.11984150971E+02  0.29475605743E+02  0.59301935408E+02  0.49999984279E+02 0.  0.
         12    1    1    2    0    0 -0.20712090179E+01  0.11984150971E+02 -0.29475605743E+02  0.31886064592E+02  0.00000000000E+00 0. -1.
         11    1    3    3    0    0  0.84605173443E+01  0.52010971370E+01 -0.47644916123E+01  0.11015087187E+02  0.51100000000E-03 0. -1.
        -11    1    3    3    0    0 -0.16279240787E+02 -0.69509847870E+01  0.27088036984E+02  0.32358795064E+02  0.51100000000E-03 0.  1.
         12    1    3    3    0    0  0.98899324605E+01 -0.10234263321E+02  0.71520603712E+01  0.15928053156E+02  0.00000000000E+00 0. -1.
</event>
<event>
 7    1  0.6230310E-012  0.5930195E+02  0.7816164E-02  0.1266605E+00
        -11   -1    0    0    0    0  0.00000000000E+00  0.00000000000E+00  0.45593999997E+02  0.45594000000E+02  0.51100000000E-03 0.  1.
         11   -1    0    0    0    0 -0.00000000000E+00 -0.00000000000E+00 -0.45593999997E+02  0.45594000000E+02  0.51100000000E-03 0. -1.
    9900012    2    1    2    0    0 -0.23103012078E+02  0.73778265697E+01  0.20701174763E+02  0.59301950879E+02  0.50000012496E+02 0.  0.
         12    1    1    2    0    0  0.23103012078E+02 -0.73778265697E+01 -0.20701174763E+02  0.31886049121E+02  0.00000000000E+00 0. -1.
         11    1    3    3    0    0 -0.26456024296E+02 -0.15256356489E+02  0.54779485178E+01  0.31027174463E+02  0.51100000000E-03 0.  1.
        -11    1    3    3    0    0 -0.10256928756E+01  0.95890110278E+01  0.37087055399E+01  0.10332263809E+02  0.51100000000E-03 0. -1.
        -12    1    3    3    0    0  0.43787050942E+01  0.13045172031E+02  0.11514520705E+02  0.17942512608E+02  0.00000000000E+00 0.  1.
</event>
<event>
 7    1  0.6230310E-012  0.5930194E+02  0.7816164E-02  0.1266605E+00
        -11   -1    0    0    0    0  0.00000000000E+00  0.00000000000E+00  0.45593999997E+02  0.45594000000E+02  0.51100000000E-03 0.  1.
         11   -1    0    0    0    0 -0.00000000000E+00 -0.00000000000E+00 -0.45593999997E+02  0.45594000000E+02  0.51100000000E-03 0. -1.
    9900012    2    1    2    0    0 -0.16296108603E+02  0.10352671267E+02  0.25376760667E+02  0.59301938156E+02  0.49999989292E+02 0.  0.
         12    1    1    2    0    0  0.16296108603E+02 -0.10352671267E+02 -0.25376760667E+02  0.31886061844E+02  0.00000000000E+00 0. -1.
         11    1    3    3    0    0 -0.53318400041E+00 -0.41938585374E+01 -0.70849558739E+01  0.82504142082E+01  0.51100000000E-03 0. -1.
        -11    1    3    3    0    0 -0.19513827325E+02 -0.22763578659E+01  0.81956076430E+01  0.21287067598E+02  0.51100000000E-03 0.  1.
         12    1    3    3    0    0  0.37509027228E+01  0.16822887670E+02  0.24266108898E+02  0.29764456350E+02  0.00000000000E+00 0. -1.
</event>
<event>
 7    1  0.6230310E-012  0.5930187E+02  0.7816164E-02  0.1266605E+00
        -11   -1    0    0    0    0  0.00000000000E+00  0.00000000000E+00  0.45593999997E+02  0.45594000000E+02  0.51100000000E-03 0.  1.
         11   -1    0    0    0    0 -0.00000000000E+00 -0.00000000000E+00 -0.45593999997E+02  0.45594000000E+02  0.51100000000E-03 0. -1.
    9900012    2    1    2    0    0  0.13128752628E+02  0.28323099773E+02 -0.64933219474E+01  0.59301868905E+02  0.49999862994E+02 0.  0.
         12    1    1    2    0    0 -0.13128752628E+02 -0.28323099773E+02  0.64933219474E+01  0.31886131095E+02  0.00000000000E+00 0. -1.
         11    1    3    3    0    0 -0.87695205530E+01 -0.81631843786E+00 -0.27795782431E+01  0.92356332751E+01  0.51100000000E-03 0. -1.
        -11    1    3    3    0    0  0.21741591501E+02  0.18399708860E+02 -0.16853497212E+02  0.33095112263E+02  0.51100000000E-03 0.  1.
         12    1    3    3    0    0  0.15668167991E+00  0.10739709351E+02  0.13139753508E+02  0.16971123367E+02  0.00000000000E+00 0. -1.
</event>
<event>
 7    1  0.6230310E-012  0.5930196E+02  0.7816164E-02  0.1266605E+00
        -11   -1    0    0    0    0  0.00000000000E+00  0.00000000000E+00  0.45593999997E+02  0.45594000000E+02  0.51100000000E-03 0.  1.
         11   -1    0    0    0    0 -0.00000000000E+00 -0.00000000000E+00 -0.45593999997E+02  0.45594000000E+02  0.51100000000E-03 0. -1.
    9900012    2    1    2    0    0  0.11641429664E+02  0.22666895793E+02 -0.19167899206E+02  0.59301962154E+02  0.50000033059E+02 0.  0.
         12    1    1    2    0    0 -0.11641429664E+02 -0.22666895793E+02  0.19167899206E+02  0.31886037846E+02  0.00000000000E+00 0. -1.
         11    1    3    3    0    0  0.24695116669E+02  0.15134781397E+02 -0.70829811336E+01  0.29817428079E+02  0.51100000000E-03 0. -1.
        -11    1    3    3    0    0 -0.33053131763E+01 -0.11889398105E+01  0.61268195002E+01  0.70623360523E+01  0.51100000000E-03 0.  1.
        -12    1    3    3    0    0 -0.97483738288E+01  0.87210542064E+01 -0.18211737573E+02  0.22422198023E+02  0.00000000000E+00 0.  1.
</event>
<event>
 7    1  0.6230310E-012  0.5930194E+02  0.7816164E-02  0.1266605E+00
        -11   -1    0    0    0    0  0.00000000000E+00  0.00000000000E+00  0.45593999997E+02  0.45594000000E+02  0.51100000000E-03 0.  1.
         11   -1    0    0    0    0 -0.00000000000E+00 -0.00000000000E+00 -0.45593999997E+02  0.45594000000E+02  0.51100000000E-03 0. -1.
    9900012    2    1    2    0    0  0.43907657817E+01 -0.92021217833E+01  0.30211968815E+02  0.59301938325E+02  0.49999989600E+02 0.  0.
         12    1    1    2    0    0 -0.43907657817E+01  0.92021217833E+01 -0.30211968815E+02  0.31886061675E+02  0.00000000000E+00 0. -1.
         11    1    3    3    0    0 -0.93921267287E+01 -0.93220649517E+01  0.17860709482E+02  0.22228762514E+02  0.51100000000E-03 0. -1.
        -11    1    3    3    0    0  0.15418949173E+02 -0.72938710896E+01  0.20007011975E+02  0.26291159683E+02  0.51100000000E-03 0.  1.
         12    1    3    3    0    0 -0.16360566628E+01  0.74138142580E+01 -0.76557526421E+01  0.10782016127E+02  0.00000000000E+00 0. -1.
</event>
<event>
 7    1  0.6230310E-012  0.5930193E+02  0.7816164E-02  0.1266605E+00
        -11   -1    0    0    0    0  0.00000000000E+00  0.00000000000E+00  0.45593999997E+02  0.45594000000E+02  0.51100000000E-03 0. -1.
         11   -1    0    0    0    0 -0.00000000000E+00 -0.00000000000E+00 -0.45593999997E+02  0.45594000000E+02  0.51100000000E-03 0.  1.
    9900012    2    1    2    0    0 -0.17238484087E+02 -0.23494060379E+02 -0.12945465432E+02  0.59301932792E+02  0.49999979509E+02 0.  0.
         12    1    1    2    0    0  0.17238484087E+02  0.23494060379E+02  0.12945465432E+02  0.31886067208E+02  0.00000000000E+00 0. -1.
         11    1    3    3    0    0 -0.70125291158E+01 -0.45795495939E+00  0.64101978934E+01  0.95118833382E+01  0.51100000000E-03 0. -1.
        -11    1    3    3    0    0 -0.23956159342E+01 -0.22640879140E+01 -0.26319029725E+02  0.26524637523E+02  0.51100000000E-03 0.  1.
         12    1    3    3    0    0 -0.78303390370E+01 -0.20772017506E+02  0.69633663994E+01  0.23265411931E+02  0.00000000000E+00 0. -1.
</event>
<event>
 7    1  0.6230310E-012  0.5930193E+02  0.7816164E-02  0.1266605E+00
        -11   -1    0    0    0    0  0.00000000000E+00  0.00000000000E+00  0.45593999997E+02  0.45594000000E+02  0.51100000000E-03 0.  1.
         11   -1    0    0    0    0 -0.00000000000E+00 -0.00000000000E+00 -0.45593999997E+02  0.45594000000E+02  0.51100000000E-03 0. -1.
    9900012    2    1    2    0    0  0.25310923085E+01 -0.71481167466E+01  0.30971270625E+02  0.59301927721E+02  0.49999970260E+02 0.  0.
         12    1    1    2    0    0 -0.25310923085E+01  0.71481167466E+01 -0.30971270625E+02  0.31886072279E+02  0.00000000000E+00 0. -1.
         11    1    3    3    0    0  0.35106202220E+00  0.11265786038E+02  0.13574482425E+02  0.17643915465E+02  0.51100000000E-03 0. -1.
        -11    1    3    3    0    0 -0.13914306188E+02 -0.15681357687E+02  0.13298908348E+02  0.24826877756E+02  0.51100000000E-03 0.  1.
         12    1    3    3    0    0  0.16094336474E+02 -0.27325450974E+01  0.40978798516E+01  0.16831134499E+02  0.00000000000E+00 0. -1.
</event>
<event>
 7    1  0.6230310E-012  0.5930193E+02  0.7816164E-02  0.1266605E+00
        -11   -1    0    0    0    0  0.00000000000E+00  0.00000000000E+00  0.45593999997E+02  0.45594000000E+02  0.51100000000E-03 0.  1.
         11   -1    0    0    0    0 -0.00000000000E+00 -0.00000000000E+00 -0.45593999997E+02  0.45594000000E+02  0.51100000000E-03 0. -1.
    9900012    2    1    2    0    0  0.15243936251E+02 -0.27938934926E+02  0.19389521011E+01  0.59301933882E+02  0.49999981497E+02 0.  0.
         12    1    1    2    0    0 -0.15243936251E+02  0.27938934926E+02 -0.19389521011E+01  0.31886066118E+02  0.00000000000E+00 0. -1.
         11    1    3    3    0    0 -0.39983483225E+01 -0.42642018593E+01  0.18064385930E+01  0.61182863169E+01  0.51100000000E-03 0. -1.
        -11    1    3    3    0    0  0.19721913970E+02 -0.11191107990E+02  0.19653359649E+02  0.30007487973E+02  0.51100000000E-03 0.  1.
         12    1    3    3    0    0 -0.47962939644E+00 -0.12483625077E+02 -0.19520846140E+02  0.23176159592E+02  0.00000000000E+00 0. -1.
</event>
<event>
 7    1  0.6230310E-012  0.5930193E+02  0.7816164E-02  0.1266605E+00
        -11   -1    0    0    0    0  0.00000000000E+00  0.00000000000E+00  0.45593999997E+02  0.45594000000E+02  0.51100000000E-03 0.  1.
         11   -1    0    0    0    0 -0.00000000000E+00 -0.00000000000E+00 -0.45593999997E+02  0.45594000000E+02  0.51100000000E-03 0. -1.
    9900012    2    1    2    0    0  0.17702922892E+02  0.26088357492E+02 -0.47671127342E+01  0.59301933460E+02  0.49999980728E+02 0.  0.
         12    1    1    2    0    0 -0.17702922892E+02 -0.26088357492E+02  0.47671127342E+01  0.31886066540E+02  0.00000000000E+00 0. -1.
         11    1    3    3    0    0  0.22588716734E+02 -0.13622614253E+01 -0.52889557220E+00  0.22635936267E+02  0.51100000000E-03 0. -1.
        -11    1    3    3    0    0 -0.65788439350E+01  0.86377033430E+01  0.85798160418E+01  0.13838509679E+02  0.51100000000E-03 0.  1.
         12    1    3    3    0    0  0.16930500933E+01  0.18812915574E+02 -0.12818033204E+02  0.22827487515E+02  0.00000000000E+00 0. -1.
</event>
<event>
 7    1  0.6230310E-012  0.5930196E+02  0.7816164E-02  0.1266605E+00
        -11   -1    0    0    0    0  0.00000000000E+00  0.00000000000E+00  0.45593999997E+02  0.45594000000E+02  0.51100000000E-03 0.  1.
         11   -1    0    0    0    0 -0.00000000000E+00 -0.00000000000E+00 -0.45593999997E+02  0.45594000000E+02  0.51100000000E-03 0. -1.
    9900012    2    1    2    0    0  0.19273985996E+01  0.24913252251E+02 -0.19807436215E+02  0.59301960226E+02  0.50000029541E+02 0.  0.
         12    1    1    2    0    0 -0.19273985996E+01 -0.24913252251E+02  0.19807436215E+02  0.31886039774E+02  0.00000000000E+00 0. -1.
         11    1    3    3    0    0 -0.33898822406E+01 -0.30424866701E+01 -0.74681508692E+01  0.87476456495E+01  0.51100000000E-03 0. -1.
        -11    1    3    3    0    0 -0.89825593105E+00 -0.97980096660E+01  0.13201052926E+01  0.99272622297E+01  0.51100000000E-03 0.  1.
        -12    1    3    3    0    0  0.62155367713E+01  0.37753748587E+02 -0.13659390638E+02  0.40627052346E+02  0.00000000000E+00 0.  1.
</event>
<event>
 7    1  0.6230310E-012  0.5930194E+02  0.7816164E-02  0.1266605E+00
        -11   -1    0    0    0    0  0.00000000000E+00  0.00000000000E+00  0.45593999997E+02  0.45594000000E+02  0.51100000000E-03 0. -1.
         11   -1    0    0    0    0 -0.00000000000E+00 -0.00000000000E+00 -0.45593999997E+02  0.45594000000E+02  0.51100000000E-03 0.  1.
    9900012    2    1    2    0    0 -0.22114724425E+02 -0.22953203031E+02  0.90015354978E+00  0.59301939688E+02  0.49999992086E+02 0.  0.
         12    1    1    2    0    0  0.22114724425E+02  0.22953203031E+02 -0.90015354978E+00  0.31886060312E+02  0.00000000000E+00 0. -1.
         11    1    3    3    0    0 -0.37673404293E+01 -0.88499185553E+01 -0.14893263810E+02  0.17729162967E+02  0.51100000000E-03 0. -1.
        -11    1    3    3    0    0 -0.19668852120E+02 -0.21874628880E+02  0.79947601445E+01  0.30484083100E+02  0.51100000000E-03 0.  1.
         12    1    3    3    0    0  0.13214681242E+01  0.77713444051E+01  0.77986572155E+01  0.11088693621E+02  0.00000000000E+00 0. -1.
</event>
<event>
 7    1  0.6230310E-012  0.5930193E+02  0.7816164E-02  0.1266605E+00
        -11   -1    0    0    0    0  0.00000000000E+00  0.00000000000E+00  0.45593999997E+02  0.45594000000E+02  0.51100000000E-03 0.  1.
         11   -1    0    0    0    0 -0.00000000000E+00 -0.00000000000E+00 -0.45593999997E+02  0.45594000000E+02  0.51100000000E-03 0. -1.
    9900012    2    1    2    0    0  0.18881097940E+02  0.69886814543E+01  0.24726183143E+02  0.59301926853E+02  0.49999968677E+02 0.  0.
         12    1    1    2    0    0 -0.18881097940E+02 -0.69886814543E+01 -0.24726183143E+02  0.31886073147E+02  0.00000000000E+00 0. -1.
         11    1    3    3    0    0  0.18822507743E+01  0.12209685337E+02  0.87548440700E+01  0.15141551405E+02  0.51100000000E-03 0. -1.
        -11    1    3    3    0    0  0.19830982330E+02 -0.65159171746E-01 -0.65489649572E+01  0.20884469065E+02  0.51100000000E-03 0.  1.
        -12    1    3    3    0    0 -0.28321351637E+01 -0.51558447113E+01  0.22520304031E+02  0.23275906382E+02  0.00000000000E+00 0.  1.
</event>
<event>
 7    1  0.6230310E-012  0.5930193E+02  0.7816164E-02  0.1266605E+00
        -11   -1    0    0    0    0  0.00000000000E+00  0.00000000000E+00  0.45593999997E+02  0.45594000000E+02  0.51100000000E-03 0. -1.
         11   -1    0    0    0    0 -0.00000000000E+00 -0.00000000000E+00 -0.45593999997E+02  0.45594000000E+02  0.51100000000E-03 0.  1.
    9900012    2    1    2    0    0 -0.77255211347E+01  0.15586257288E+02 -0.26722766309E+02  0.59301932004E+02  0.49999978072E+02 0.  0.
         12    1    1    2    0    0  0.77255211347E+01 -0.15586257288E+02  0.26722766309E+02  0.31886067996E+02  0.00000000000E+00 0. -1.
         11    1    3    3    0    0 -0.19368433800E+02  0.27765735875E+02 -0.17018487312E+02  0.37890648281E+02  0.51100000000E-03 0.  1.
        -11    1    3    3    0    0  0.10788607517E+02 -0.63759397689E+01 -0.38166275691E+01  0.13100126196E+02  0.51100000000E-03 0. -1.
        -12    1    3    3    0    0  0.85430514805E+00 -0.58035388180E+01 -0.58876514275E+01  0.83111575265E+01  0.00000000000E+00 0.  1.
</event>
<event>
 7    1  0.6230310E-012  0.5930193E+02  0.7816164E-02  0.1266605E+00
        -11   -1    0    0    0    0  0.00000000000E+00  0.00000000000E+00  0.45593999997E+02  0.45594000000E+02  0.51100000000E-03 0.  1.
         11   -1    0    0    0    0 -0.00000000000E+00 -0.00000000000E+00 -0.45593999997E+02  0.45594000000E+02  0.51100000000E-03 0. -1.
    9900012    2    1    2    0    0 -0.15448947977E+02  0.23766105725E+02  0.14602170538E+02  0.59301934715E+02  0.49999983016E+02 0.  0.
         12    1    1    2    0    0  0.15448947977E+02 -0.23766105725E+02 -0.14602170538E+02  0.31886065285E+02  0.00000000000E+00 0. -1.
         11    1    3    3    0    0 -0.53438866572E+01  0.65500039709E+01 -0.85102522680E+00  0.84961121003E+01  0.51100000000E-03 0. -1.
        -11    1    3    3    0    0  0.11013021408E+02  0.24192629953E+01 -0.96331028972E+01  0.14830244289E+02  0.51100000000E-03 0.  1.
         12    1    3    3    0    0 -0.21118082728E+02  0.14796838758E+02  0.25086298662E+02  0.35975578326E+02  0.00000000000E+00 0. -1.
</event>
<event>
 7    1  0.6230310E-012  0.5930195E+02  0.7816164E-02  0.1266605E+00
        -11   -1    0    0    0    0  0.00000000000E+00  0.00000000000E+00  0.45593999997E+02  0.45594000000E+02  0.51100000000E-03 0.  1.
         11   -1    0    0    0    0 -0.00000000000E+00 -0.00000000000E+00 -0.45593999997E+02  0.45594000000E+02  0.51100000000E-03 0. -1.
    9900012    2    1    2    0    0  0.97446504461E+01 -0.29080914391E+02 -0.87213752132E+01  0.59301950076E+02  0.50000011031E+02 0.  0.
         12    1    1    2    0    0 -0.97446504461E+01  0.29080914391E+02  0.87213752132E+01  0.31886049924E+02  0.00000000000E+00 0. -1.
         11    1    3    3    0    0  0.13894089445E+02 -0.15641007075E+02 -0.10742688420E+01  0.20948529247E+02  0.51100000000E-03 0. -1.
        -11    1    3    3    0    0  0.30003263132E+00 -0.24246495256E+02  0.24827120484E+00  0.24249622484E+02  0.51100000000E-03 0.  1.
         12    1    3    3    0    0 -0.44494716298E+01  0.10806587939E+02 -0.78953775761E+01  0.14103798345E+02  0.00000000000E+00 0. -1.
</event>
<event>
 7    1  0.6230310E-012  0.5930185E+02  0.7816164E-02  0.1266605E+00
        -11   -1    0    0    0    0  0.00000000000E+00  0.00000000000E+00  0.45593999997E+02  0.45594000000E+02  0.51100000000E-03 0.  1.
         11   -1    0    0    0    0 -0.00000000000E+00 -0.00000000000E+00 -0.45593999997E+02  0.45594000000E+02  0.51100000000E-03 0. -1.
    9900012    2    1    2    0    0  0.12692069019E+02 -0.29249425558E+02 -0.32975031160E+00  0.59301854941E+02  0.49999837527E+02 0.  0.
         12    1    1    2    0    0 -0.12692069019E+02  0.29249425558E+02  0.32975031160E+00  0.31886145059E+02  0.00000000000E+00 0. -1.
         11    1    3    3    0    0  0.10100109002E+01 -0.20416216046E+02 -0.10419794150E+02  0.22943716134E+02  0.51100000000E-03 0. -1.
        -11    1    3    3    0    0  0.11532183617E+02 -0.61592865749E+01 -0.97682102933E+01  0.16320110376E+02  0.51100000000E-03 0.  1.
        -12    1    3    3    0    0  0.14987450181E+00 -0.26739229368E+01  0.19858254132E+02  0.20038028431E+02  0.00000000000E+00 0.  1.
</event>
<event>
 7    1  0.6230310E-012  0.5930187E+02  0.7816164E-02  0.1266605E+00
        -11   -1    0    0    0    0  0.00000000000E+00  0.00000000000E+00  0.45593999997E+02  0.45594000000E+02  0.51100000000E-03 0.  1.
         11   -1    0    0    0    0 -0.00000000000E+00 -0.00000000000E+00 -0.45593999997E+02  0.45594000000E+02  0.51100000000E-03 0. -1.
    9900012    2    1    2    0    0  0.17512173410E+02 -0.17432447212E+02  0.20153377518E+02  0.59301873570E+02  0.49999871502E+02 0.  0.
         12    1    1    2    0    0 -0.17512173410E+02  0.17432447212E+02 -0.20153377518E+02  0.31886126430E+02  0.00000000000E+00 0. -1.
         11    1    3    3    0    0  0.17779548248E+01 -0.12816636584E+02  0.42155587328E+01  0.13608755724E+02  0.51100000000E-03 0. -1.
        -11    1    3    3    0    0 -0.75863503345E+01 -0.12309714960E+02 -0.28943080259E+01  0.14746484768E+02  0.51100000000E-03 0.  1.
        -12    1    3    3    0    0  0.23320568920E+02  0.76939043326E+01  0.18832126811E+02  0.30946633078E+02  0.00000000000E+00 0.  1.
</event>
<event>
 7    1  0.6230310E-012  0.5930194E+02  0.7816164E-02  0.1266605E+00
        -11   -1    0    0    0    0  0.00000000000E+00  0.00000000000E+00  0.45593999997E+02  0.45594000000E+02  0.51100000000E-03 0.  1.
         11   -1    0    0    0    0 -0.00000000000E+00 -0.00000000000E+00 -0.45593999997E+02  0.45594000000E+02  0.51100000000E-03 0. -1.
    9900012    2    1    2    0    0  0.25042081001E+02  0.51886668759E+01  0.19044487645E+02  0.59301943573E+02  0.49999999170E+02 0.  0.
         12    1    1    2    0    0 -0.25042081001E+02 -0.51886668759E+01 -0.19044487645E+02  0.31886056427E+02  0.00000000000E+00 0. -1.
         11    1    3    3    0    0  0.70036533966E+01 -0.11117493616E+01  0.11916914848E+02  0.13867227816E+02  0.51100000000E-03 0. -1.
        -11    1    3    3    0    0  0.68374220079E+01  0.12714165823E+02  0.21639730974E+02  0.26013041136E+02  0.51100000000E-03 0.  1.
         12    1    3    3    0    0  0.11201005597E+02 -0.64137495852E+01 -0.14512158177E+02  0.19421674621E+02  0.00000000000E+00 0. -1.
</event>
<event>
 7    1  0.6230310E-012  0.5930192E+02  0.7816164E-02  0.1266605E+00
        -11   -1    0    0    0    0  0.00000000000E+00  0.00000000000E+00  0.45593999997E+02  0.45594000000E+02  0.51100000000E-03 0.  1.
         11   -1    0    0    0    0 -0.00000000000E+00 -0.00000000000E+00 -0.45593999997E+02  0.45594000000E+02  0.51100000000E-03 0. -1.
    9900012    2    1    2    0    0 -0.43663822858E+01  0.36974155339E+01  0.31368548298E+02  0.59301921561E+02  0.49999959026E+02 0.  0.
         12    1    1    2    0    0  0.43663822858E+01 -0.36974155339E+01 -0.31368548298E+02  0.31886078439E+02  0.00000000000E+00 0. -1.
         11    1    3    3    0    0  0.53574712278E+01 -0.77108659741E+01  0.29459550674E+01  0.98406607272E+01  0.51100000000E-03 0. -1.
        -11    1    3    3    0    0  0.13008458075E+02  0.66827656927E+01  0.28117915567E+01  0.14892464901E+02  0.51100000000E-03 0.  1.
         12    1    3    3    0    0 -0.22732311589E+02  0.47255158153E+01  0.25610801674E+02  0.34568795933E+02  0.00000000000E+00 0. -1.
</event>
<event>
 7    1  0.6230310E-012  0.5930193E+02  0.7816164E-02  0.1266605E+00
        -11   -1    0    0    0    0  0.00000000000E+00  0.00000000000E+00  0.45593999997E+02  0.45594000000E+02  0.51100000000E-03 0. -1.
         11   -1    0    0    0    0 -0.00000000000E+00 -0.00000000000E+00 -0.45593999997E+02  0.45594000000E+02  0.51100000000E-03 0.  1.
    9900012    2    1    2    0    0 -0.18366406467E+02  0.25751682152E+02 -0.40307861000E+01  0.59301933188E+02  0.49999980230E+02 0.  0.
         12    1    1    2    0    0  0.18366406467E+02 -0.25751682152E+02  0.40307861000E+01  0.31886066812E+02  0.00000000000E+00 0. -1.
         11    1    3    3    0    0  0.53853051354E+01  0.99665782345E+01  0.14995328054E+01  0.11427282792E+02  0.51100000000E-03 0. -1.
        -11    1    3    3    0    0 -0.22213743873E+01  0.17941324021E+02 -0.15720261573E+02  0.23957300265E+02  0.51100000000E-03 0.  1.
        -12    1    3    3    0    0 -0.21530337215E+02 -0.21562201030E+01  0.10189942668E+02  0.23917350131E+02  0.00000000000E+00 0.  1.
</event>
<event>
 7    1  0.6230310E-012  0.5930190E+02  0.7816164E-02  0.1266605E+00
        -11   -1    0    0    0    0  0.00000000000E+00  0.00000000000E+00  0.45593999997E+02  0.45594000000E+02  0.51100000000E-03 0. -1.
         11   -1    0    0    0    0 -0.00000000000E+00 -0.00000000000E+00 -0.45593999997E+02  0.45594000000E+02  0.51100000000E-03 0.  1.
    9900012    2    1    2    0    0 -0.31845652286E+02 -0.45237338114E+00  0.15404878137E+01  0.59301900930E+02  0.49999921401E+02 0.  0.
         12    1    1    2    0    0  0.31845652286E+02  0.45237338114E+00 -0.15404878137E+01  0.31886099070E+02  0.00000000000E+00 0. -1.
         11    1    3    3    0    0  0.49771977139E+01 -0.15261691275E+01 -0.80786426040E+01  0.96107312872E+01  0.51100000000E-03 0. -1.
        -11    1    3    3    0    0 -0.19449639638E+02  0.37080412039E+01 -0.10959814232E+02  0.22630854599E+02  0.51100000000E-03 0.  1.
         12    1    3    3    0    0 -0.17373210361E+02 -0.26342454575E+01  0.20578944650E+02  0.27060315044E+02  0.00000000000E+00 0. -1.
</event>
<event>
 7    1  0.6230310E-012  0.5930199E+02  0.7816164E-02  0.1266605E+00
        -11   -1    0    0    0    0  0.00000000000E+00  0.00000000000E+00  0.45593999997E+02  0.45594000000E+02  0.51100000000E-03 0. -1.
         11   -1    0    0    0    0 -0.00000000000E+00 -0.00000000000E+00 -0.45593999997E+02  0.45594000000E+02  0.51100000000E-03 0.  1.
    9900012    2    1    2    0    0  0.30142185951E+02  0.10187964273E+02  0.20908450071E+01  0.59301990171E+02  0.50000084154E+02 0.  0.
         12    1    1    2    0    0 -0.30142185951E+02 -0.10187964273E+02 -0.20908450071E+01  0.31886009829E+02  0.00000000000E+00 0. -1.
         11    1    3    3    0    0 -0.74025224767E+01  0.12359162421E+02  0.56979725741E+01  0.15492357034E+02  0.51100000000E-03 0. -1.
        -11    1    3    3    0    0  0.23279468801E+01  0.59265340262E+01 -0.42721455875E+01  0.76677487193E+01  0.51100000000E-03 0.  1.
        -12    1    3    3    0    0  0.35216761548E+02 -0.80977321735E+01  0.66501802049E+00  0.36141884418E+02  0.00000000000E+00 0.  1.
</event>
<event>
 7    1  0.6230310E-012  0.5930193E+02  0.7816164E-02  0.1266605E+00
        -11   -1    0    0    0    0  0.00000000000E+00  0.00000000000E+00  0.45593999997E+02  0.45594000000E+02  0.51100000000E-03 0.  1.
         11   -1    0    0    0    0 -0.00000000000E+00 -0.00000000000E+00 -0.45593999997E+02  0.45594000000E+02  0.51100000000E-03 0. -1.
    9900012    2    1    2    0    0 -0.10593106467E+02  0.10605506801E+02  0.28143041531E+02  0.59301929911E+02  0.49999974254E+02 0.  0.
         12    1    1    2    0    0  0.10593106467E+02 -0.10605506801E+02 -0.28143041531E+02  0.31886070089E+02  0.00000000000E+00 0. -1.
         11    1    3    3    0    0  0.10298451124E+02  0.80060427407E+01  0.43222529445E+01  0.13741786154E+02  0.51100000000E-03 0. -1.
        -11    1    3    3    0    0 -0.37782425764E+01 -0.41002143367E+01  0.26417610700E+02  0.26999574625E+02  0.51100000000E-03 0.  1.
         12    1    3    3    0    0 -0.17113315014E+02  0.66996783972E+01 -0.25968221141E+01  0.18560569132E+02  0.00000000000E+00 0. -1.
</event>
<event>
 7    1  0.6230310E-012  0.5930194E+02  0.7816164E-02  0.1266605E+00
        -11   -1    0    0    0    0  0.00000000000E+00  0.00000000000E+00  0.45593999997E+02  0.45594000000E+02  0.51100000000E-03 0.  1.
         11   -1    0    0    0    0 -0.00000000000E+00 -0.00000000000E+00 -0.45593999997E+02  0.45594000000E+02  0.51100000000E-03 0. -1.
    9900012    2    1    2    0    0  0.29346478560E+02  0.11293350432E+02  0.52881992517E+01  0.59301943186E+02  0.49999998464E+02 0.  0.
         12    1    1    2    0    0 -0.29346478560E+02 -0.11293350432E+02 -0.52881992517E+01  0.31886056814E+02  0.00000000000E+00 0. -1.
         11    1    3    3    0    0 -0.29291462314E+01  0.10934770743E+01 -0.10913342092E+02  0.11352384139E+02  0.51100000000E-03 0. -1.
        -11    1    3    3    0    0  0.14537073666E+02 -0.10047174816E+02  0.10079607159E+02  0.20343812654E+02  0.51100000000E-03 0.  1.
        -12    1    3    3    0    0  0.17738551125E+02  0.20247048173E+02  0.61219341847E+01  0.27605746393E+02  0.00000000000E+00 0.  1.
</event>
<event>
 7    1  0.6230310E-012  0.5930196E+02  0.7816164E-02  0.1266605E+00
        -11   -1    0    0    0    0  0.00000000000E+00  0.00000000000E+00  0.45593999997E+02  0.45594000000E+02  0.51100000000E-03 0.  1.
         11   -1    0    0    0    0 -0.00000000000E+00 -0.00000000000E+00 -0.45593999997E+02  0.45594000000E+02  0.51100000000E-03 0. -1.
    9900012    2    1    2    0    0  0.30468682493E+02 -0.18935236922E+01 -0.92083527329E+01  0.59301955954E+02  0.50000021751E+02 0.  0.
         12    1    1    2    0    0 -0.30468682493E+02  0.18935236922E+01  0.92083527329E+01  0.31886044046E+02  0.00000000000E+00 0. -1.
         11    1    3    3    0    0  0.99042815399E+00 -0.16536389494E+02 -0.44323145882E+01  0.17148718269E+02  0.51100000000E-03 0. -1.
        -11    1    3    3    0    0  0.10029869409E+02 -0.66995211696E+01 -0.55300546842E+01  0.13268887268E+02  0.51100000000E-03 0.  1.
        -12    1    3    3    0    0  0.19448384930E+02  0.21342386971E+02  0.75401653946E+00  0.28884350416E+02  0.00000000000E+00 0.  1.
</event>
<event>
 7    1  0.6230310E-012  0.5930195E+02  0.7816164E-02  0.1266605E+00
        -11   -1    0    0    0    0  0.00000000000E+00  0.00000000000E+00  0.45593999997E+02  0.45594000000E+02  0.51100000000E-03 0. -1.
         11   -1    0    0    0    0 -0.00000000000E+00 -0.00000000000E+00 -0.45593999997E+02  0.45594000000E+02  0.51100000000E-03 0.  1.
    9900012    2    1    2    0    0  0.30486510108E+02  0.56324045824E+01 -0.74544581119E+01  0.59301949356E+02  0.50000009717E+02 0.  0.
         12    1    1    2    0    0 -0.30486510108E+02 -0.56324045824E+01  0.74544581119E+01  0.31886050644E+02  0.00000000000E+00 0. -1.
         11    1    3    3    0    0  0.30158752002E+02 -0.29668939782E+01 -0.58493434246E+01  0.30863693897E+02  0.51100000000E-03 0. -1.
        -11    1    3    3    0    0  0.49536580807E+01 -0.36885971917E+01 -0.10777621557E+02  0.12421819686E+02  0.51100000000E-03 0.  1.
         12    1    3    3    0    0 -0.46258999749E+01  0.12287895752E+02  0.91725068694E+01  0.16016435773E+02  0.00000000000E+00 0. -1.
</event>
<event>
 7    1  0.6230310E-012  0.5930193E+02  0.7816164E-02  0.1266605E+00
        -11   -1    0    0    0    0  0.00000000000E+00  0.00000000000E+00  0.45593999997E+02  0.45594000000E+02  0.51100000000E-03 0.  1.
         11   -1    0    0    0    0 -0.00000000000E+00 -0.00000000000E+00 -0.45593999997E+02  0.45594000000E+02  0.51100000000E-03 0. -1.
    9900012    2    1    2    0    0  0.23889721876E+02 -0.13643258768E+02  0.16120305906E+02  0.59301928062E+02  0.49999970882E+02 0.  0.
         12    1    1    2    0    0 -0.23889721876E+02  0.13643258768E+02 -0.16120305906E+02  0.31886071938E+02  0.00000000000E+00 0. -1.
         11    1    3    3    0    0 -0.30367561567E+01  0.94970902774E+01  0.11770445251E+02  0.15425951943E+02  0.51100000000E-03 0. -1.
        -11    1    3    3    0    0  0.24905017753E+01 -0.40772156582E+01 -0.89540254887E+01  0.10148933901E+02  0.51100000000E-03 0.  1.
        -12    1    3    3    0    0  0.24435976258E+02 -0.19063133387E+02  0.13303886144E+02  0.33727042217E+02  0.00000000000E+00 0.  1.
</event>
<event>
 7    1  0.6230310E-012  0.5930199E+02  0.7816164E-02  0.1266605E+00
        -11   -1    0    0    0    0  0.00000000000E+00  0.00000000000E+00  0.45593999997E+02  0.45594000000E+02  0.51100000000E-03 0.  1.
         11   -1    0    0    0    0 -0.00000000000E+00 -0.00000000000E+00 -0.45593999997E+02  0.45594000000E+02  0.51100000000E-03 0. -1.
    9900012    2    1    2    0    0  0.59784986132E+01 -0.18897202923E+00  0.31319954677E+02  0.59301988693E+02  0.50000081458E+02 0.  0.
         12    1    1    2    0    0 -0.59784986132E+01  0.18897202923E+00 -0.31319954677E+02  0.31886011307E+02  0.00000000000E+00 0. -1.
         11    1    3    3    0    0 -0.59790169738E+01  0.10463572215E+02  0.20941502959E+01  0.12231943967E+02  0.51100000000E-03 0. -1.
        -11    1    3    3    0    0 -0.10784275427E+02  0.85391575936E+00  0.12751794624E+02  0.16722381260E+02  0.51100000000E-03 0.  1.
         12    1    3    3    0    0  0.22741791014E+02 -0.11506460004E+02  0.16474009757E+02  0.30347663466E+02  0.00000000000E+00 0. -1.
</event>
<event>
 7    1  0.6230310E-012  0.5930195E+02  0.7816164E-02  0.1266605E+00
        -11   -1    0    0    0    0  0.00000000000E+00  0.00000000000E+00  0.45593999997E+02  0.45594000000E+02  0.51100000000E-03 0.  1.
         11   -1    0    0    0    0 -0.00000000000E+00 -0.00000000000E+00 -0.45593999997E+02  0.45594000000E+02  0.51100000000E-03 0. -1.
    9900012    2    1    2    0    0  0.15183851520E+02  0.16612477394E+02  0.22587526679E+02  0.59301951113E+02  0.50000012921E+02 0.  0.
         12    1    1    2    0    0 -0.15183851520E+02 -0.16612477394E+02 -0.22587526679E+02  0.31886048887E+02  0.00000000000E+00 0. -1.
         11    1    3    3    0    0 -0.21120866203E+01 -0.24930843457E+00 -0.34361979338E+00  0.21543303856E+01  0.51100000000E-03 0. -1.
        -11    1    3    3    0    0 -0.15978338617E+02  0.66943685674E+01  0.51440602492E+01  0.18071613973E+02  0.51100000000E-03 0.  1.
        -12    1    3    3    0    0  0.33274276758E+02  0.10167417261E+02  0.17787086223E+02  0.39076006754E+02  0.00000000000E+00 0.  1.
</event>
<event>
 7    1  0.6230310E-012  0.5930196E+02  0.7816164E-02  0.1266605E+00
        -11   -1    0    0    0    0  0.00000000000E+00  0.00000000000E+00  0.45593999997E+02  0.45594000000E+02  0.51100000000E-03 0. -1.
         11   -1    0    0    0    0 -0.00000000000E+00 -0.00000000000E+00 -0.45593999997E+02  0.45594000000E+02  0.51100000000E-03 0.  1.
    9900012    2    1    2    0    0  0.20932287514E+02 -0.23800761894E+02 -0.34760303407E+01  0.59301957376E+02  0.50000024344E+02 0.  0.
         12    1    1    2    0    0 -0.20932287514E+02  0.23800761894E+02  0.34760303407E+01  0.31886042624E+02  0.00000000000E+00 0. -1.
         11    1    3    3    0    0 -0.68757738457E-01 -0.20060243056E+02  0.69008698858E+01  0.21214148216E+02  0.51100000000E-03 0. -1.
        -11    1    3    3    0    0  0.24236777302E+02 -0.12463991277E+02 -0.65678964381E+01  0.28034081337E+02  0.51100000000E-03 0.  1.
         12    1    3    3    0    0 -0.32357320489E+01  0.87234724388E+01 -0.38090037884E+01  0.10053727823E+02  0.00000000000E+00 0. -1.
</event>
<event>
 7    1  0.6230310E-012  0.5930196E+02  0.7816164E-02  0.1266605E+00
        -11   -1    0    0    0    0  0.00000000000E+00  0.00000000000E+00  0.45593999997E+02  0.45594000000E+02  0.51100000000E-03 0.  1.
         11   -1    0    0    0    0 -0.00000000000E+00 -0.00000000000E+00 -0.45593999997E+02  0.45594000000E+02  0.51100000000E-03 0. -1.
    9900012    2    1    2    0    0  0.83987612134E+01 -0.27903778854E+01  0.30633220157E+02  0.59301959546E+02  0.50000028302E+02 0.  0.
         12    1    1    2    0    0 -0.83987612134E+01  0.27903778854E+01 -0.30633220157E+02  0.31886040454E+02  0.00000000000E+00 0. -1.
         11    1    3    3    0    0  0.95892465483E+01 -0.12990329274E+02 -0.77645598368E+01  0.17916213153E+02  0.51100000000E-03 0. -1.
        -11    1    3    3    0    0 -0.33904492004E+01  0.50566598075E+01  0.61405117073E+01  0.86470132692E+01  0.51100000000E-03 0.  1.
        -12    1    3    3    0    0  0.21999638655E+01  0.51432915812E+01  0.32257268286E+02  0.32738733124E+02  0.00000000000E+00 0.  1.
</event>
<event>
 7    1  0.6230310E-012  0.5930194E+02  0.7816164E-02  0.1266605E+00
        -11   -1    0    0    0    0  0.00000000000E+00  0.00000000000E+00  0.45593999997E+02  0.45594000000E+02  0.51100000000E-03 0.  1.
         11   -1    0    0    0    0 -0.00000000000E+00 -0.00000000000E+00 -0.45593999997E+02  0.45594000000E+02  0.51100000000E-03 0. -1.
    9900012    2    1    2    0    0  0.12111700959E+02  0.14560860428E+02  0.25651683983E+02  0.59301939602E+02  0.49999991928E+02 0.  0.
         12    1    1    2    0    0 -0.12111700959E+02 -0.14560860428E+02 -0.25651683983E+02  0.31886060398E+02  0.00000000000E+00 0. -1.
         11    1    3    3    0    0 -0.10441748608E+02 -0.10630473814E+02  0.10983756177E+02  0.18511617636E+02  0.51100000000E-03 0. -1.
        -11    1    3    3    0    0  0.53068172875E+01  0.27781361475E+01 -0.37257721064E+01  0.70541993328E+01  0.51100000000E-03 0.  1.
        -12    1    3    3    0    0  0.17246632280E+02  0.22413198094E+02  0.18393699912E+02  0.33736122633E+02  0.00000000000E+00 0.  1.
</event>
<event>
 7    1  0.6230310E-012  0.5930192E+02  0.7816164E-02  0.1266605E+00
        -11   -1    0    0    0    0  0.00000000000E+00  0.00000000000E+00  0.45593999997E+02  0.45594000000E+02  0.51100000000E-03 0. -1.
         11   -1    0    0    0    0 -0.00000000000E+00 -0.00000000000E+00 -0.45593999997E+02  0.45594000000E+02  0.51100000000E-03 0.  1.
    9900012    2    1    2    0    0 -0.99592883148E+01 -0.79871046809E+01 -0.29218839174E+02  0.59301924237E+02  0.49999963906E+02 0.  0.
         12    1    1    2    0    0  0.99592883148E+01  0.79871046809E+01  0.29218839174E+02  0.31886075763E+02  0.00000000000E+00 0. -1.
         11    1    3    3    0    0 -0.75370757982E+01  0.35848423745E+01  0.45011012753E+01  0.94825376028E+01  0.51100000000E-03 0. -1.
        -11    1    3    3    0    0  0.12934739374E+01  0.97857982416E+01 -0.24213215172E+02  0.26147938949E+02  0.51100000000E-03 0.  1.
        -12    1    3    3    0    0 -0.37156864541E+01 -0.21357745297E+02 -0.95067252771E+01  0.23671447685E+02  0.00000000000E+00 0.  1.
</event>
<event>
 7    1  0.6230310E-012  0.5930196E+02  0.7816164E-02  0.1266605E+00
        -11   -1    0    0    0    0  0.00000000000E+00  0.00000000000E+00  0.45593999997E+02  0.45594000000E+02  0.51100000000E-03 0. -1.
         11   -1    0    0    0    0 -0.00000000000E+00 -0.00000000000E+00 -0.45593999997E+02  0.45594000000E+02  0.51100000000E-03 0.  1.
    9900012    2    1    2    0    0 -0.48415157970E+01 -0.49451477994E+01 -0.31125954455E+02  0.59301955988E+02  0.50000021813E+02 0.  0.
         12    1    1    2    0    0  0.48415157970E+01  0.49451477994E+01  0.31125954455E+02  0.31886044012E+02  0.00000000000E+00 0. -1.
         11    1    3    3    0    0  0.11384973607E+02 -0.35909095227E+00  0.58025689635E+01  0.12783441523E+02  0.51100000000E-03 0.  1.
        -11    1    3    3    0    0 -0.10167191155E+02 -0.29516950081E+01 -0.16845878349E+01  0.10720173312E+02  0.51100000000E-03 0. -1.
        -12    1    3    3    0    0 -0.60592982490E+01 -0.16343618391E+01 -0.35243935584E+02  0.35798341153E+02  0.00000000000E+00 0.  1.
</event>
<event>
 7    1  0.6230310E-012  0.5930215E+02  0.7816164E-02  0.1266604E+00
        -11   -1    0    0    0    0  0.00000000000E+00  0.00000000000E+00  0.45593999997E+02  0.45594000000E+02  0.51100000000E-03 0.  1.
         11   -1    0    0    0    0 -0.00000000000E+00 -0.00000000000E+00 -0.45593999997E+02  0.45594000000E+02  0.51100000000E-03 0. -1.
    9900012    2    1    2    0    0  0.18983356323E+02 -0.18490228019E+01  0.25552312917E+02  0.59302150505E+02  0.50000376563E+02 0.  0.
         12    1    1    2    0    0 -0.18983356323E+02  0.18490228019E+01 -0.25552312917E+02  0.31885849495E+02  0.00000000000E+00 0. -1.
         11    1    3    3    0    0 -0.11176780192E+02  0.82199310150E+01  0.61482779159E+01  0.15175276042E+02  0.51100000000E-03 0. -1.
        -11    1    3    3    0    0  0.22380980151E+00 -0.46567223994E+00 -0.45643312285E+01  0.45934803022E+01  0.51100000000E-03 0.  1.
        -12    1    3    3    0    0  0.29936326714E+02 -0.96032815770E+01  0.23968366230E+02  0.39533394161E+02  0.00000000000E+00 0.  1.
</event>
<event>
 7    1  0.6230310E-012  0.5930194E+02  0.7816164E-02  0.1266605E+00
        -11   -1    0    0    0    0  0.00000000000E+00  0.00000000000E+00  0.45593999997E+02  0.45594000000E+02  0.51100000000E-03 0. -1.
         11   -1    0    0    0    0 -0.00000000000E+00 -0.00000000000E+00 -0.45593999997E+02  0.45594000000E+02  0.51100000000E-03 0.  1.
    9900012    2    1    2    0    0  0.23752684448E+02 -0.21221785177E+02  0.14719979746E+01  0.59301937800E+02  0.49999988642E+02 0.  0.
         12    1    1    2    0    0 -0.23752684448E+02  0.21221785177E+02 -0.14719979746E+01  0.31886062200E+02  0.00000000000E+00 0. -1.
         11    1    3    3    0    0  0.15759092753E+02 -0.18952027319E+02 -0.19732638530E+02  0.31573808251E+02  0.51100000000E-03 0.  1.
        -11    1    3    3    0    0 -0.24655296244E+01  0.73260364364E+00 -0.11867986562E+01  0.28326728966E+01  0.51100000000E-03 0. -1.
        -12    1    3    3    0    0  0.10459121320E+02 -0.30023615017E+01  0.22391435161E+02  0.24895456652E+02  0.00000000000E+00 0.  1.
</event>
<event>
 7    1  0.6230310E-012  0.5930192E+02  0.7816164E-02  0.1266605E+00
        -11   -1    0    0    0    0  0.00000000000E+00  0.00000000000E+00  0.45593999997E+02  0.45594000000E+02  0.51100000000E-03 0.  1.
         11   -1    0    0    0    0 -0.00000000000E+00 -0.00000000000E+00 -0.45593999997E+02  0.45594000000E+02  0.51100000000E-03 0. -1.
    9900012    2    1    2    0    0  0.18408226730E+02  0.25727286438E+02  0.39957847406E+01  0.59301915660E+02  0.49999948264E+02 0.  0.
         12    1    1    2    0    0 -0.18408226730E+02 -0.25727286438E+02 -0.39957847406E+01  0.31886084340E+02  0.00000000000E+00 0. -1.
         11    1    3    3    0    0  0.12518938007E+02  0.17504307580E+01  0.32762186997E+01  0.13058385271E+02  0.51100000000E-03 0. -1.
        -11    1    3    3    0    0 -0.46121785147E+01  0.18997674028E+02  0.17225967376E+02  0.26056050380E+02  0.51100000000E-03 0.  1.
         12    1    3    3    0    0  0.10501467238E+02  0.49791816528E+01 -0.16506401335E+02  0.20187480009E+02  0.00000000000E+00 0. -1.
</event>
<event>
 7    1  0.6230310E-012  0.5930200E+02  0.7816164E-02  0.1266605E+00
        -11   -1    0    0    0    0  0.00000000000E+00  0.00000000000E+00  0.45593999997E+02  0.45594000000E+02  0.51100000000E-03 0. -1.
         11   -1    0    0    0    0 -0.00000000000E+00 -0.00000000000E+00 -0.45593999997E+02  0.45594000000E+02  0.51100000000E-03 0.  1.
    9900012    2    1    2    0    0 -0.13226445887E+01 -0.14252723372E+02 -0.28492581766E+02  0.59302004203E+02  0.50000109746E+02 0.  0.
         12    1    1    2    0    0  0.13226445887E+01  0.14252723372E+02  0.28492581766E+02  0.31885995797E+02  0.00000000000E+00 0. -1.
         11    1    3    3    0    0 -0.18022246611E+02 -0.14468424896E+02 -0.96614935007E+01  0.25049573825E+02  0.51100000000E-03 0. -1.
        -11    1    3    3    0    0 -0.24536893885E+01  0.63780913538E+01 -0.20897130046E+00  0.68369810735E+01  0.51100000000E-03 0.  1.
        -12    1    3    3    0    0  0.19153291411E+02 -0.61623898298E+01 -0.18622116965E+02  0.27415449304E+02  0.00000000000E+00 0.  1.
</event>
<event>
 7    1  0.6230310E-012  0.5930201E+02  0.7816164E-02  0.1266605E+00
        -11   -1    0    0    0    0  0.00000000000E+00  0.00000000000E+00  0.45593999997E+02  0.45594000000E+02  0.51100000000E-03 0. -1.
         11   -1    0    0    0    0 -0.00000000000E+00 -0.00000000000E+00 -0.45593999997E+02  0.45594000000E+02  0.51100000000E-03 0.  1.
    9900012    2    1    2    0    0  0.22597985956E+02  0.18452956614E+02  0.12866065074E+02  0.59302012364E+02  0.50000124628E+02 0.  0.
         12    1    1    2    0    0 -0.22597985956E+02 -0.18452956614E+02 -0.12866065074E+02  0.31885987636E+02  0.00000000000E+00 0. -1.
         11    1    3    3    0    0 -0.16089577823E+01 -0.22067110933E+01 -0.64463206502E+01  0.70009548764E+01  0.51100000000E-03 0. -1.
        -11    1    3    3    0    0 -0.63235326897E+01  0.86585972685E+01 -0.46398731654E+01  0.11682756335E+02  0.51100000000E-03 0.  1.
         12    1    3    3    0    0  0.30530476428E+02  0.12001070438E+02  0.23952258889E+02  0.40618301152E+02  0.00000000000E+00 0. -1.
</event>
<event>
 7    1  0.6230310E-012  0.5930195E+02  0.7816164E-02  0.1266605E+00
        -11   -1    0    0    0    0  0.00000000000E+00  0.00000000000E+00  0.45593999997E+02  0.45594000000E+02  0.51100000000E-03 0.  1.
         11   -1    0    0    0    0 -0.00000000000E+00 -0.00000000000E+00 -0.45593999997E+02  0.45594000000E+02  0.51100000000E-03 0. -1.
    9900012    2    1    2    0    0  0.26315411961E+02  0.14409932353E+02  0.10796899767E+02  0.59301951301E+02  0.50000013264E+02 0.  0.
         12    1    1    2    0    0 -0.26315411961E+02 -0.14409932353E+02 -0.10796899767E+02  0.31886048699E+02  0.00000000000E+00 0. -1.
         11    1    3    3    0    0  0.20822021432E+01  0.82344015110E+01  0.88276656229E+01  0.12250249574E+02  0.51100000000E-03 0. -1.
        -11    1    3    3    0    0  0.90419963827E+01  0.22708580226E+02  0.26724438711E+01  0.24588193731E+02  0.51100000000E-03 0.  1.
        -12    1    3    3    0    0  0.15191213435E+02 -0.16533049384E+02 -0.70320972685E+00  0.22463507995E+02  0.00000000000E+00 0.  1.
</event>
<event>
 7    1  0.6230310E-012  0.5930192E+02  0.7816164E-02  0.1266605E+00
        -11   -1    0    0    0    0  0.00000000000E+00  0.00000000000E+00  0.45593999997E+02  0.45594000000E+02  0.51100000000E-03 0.  1.
         11   -1    0    0    0    0 -0.00000000000E+00 -0.00000000000E+00 -0.45593999997E+02  0.45594000000E+02  0.51100000000E-03 0. -1.
    9900012    2    1    2    0    0  0.25706170975E+02  0.18836506030E+02  0.10492275348E+01  0.59301920529E+02  0.49999957144E+02 0.  0.
         12    1    1    2    0    0 -0.25706170975E+02 -0.18836506030E+02 -0.10492275348E+01  0.31886079471E+02  0.00000000000E+00 0. -1.
         11    1    3    3    0    0 -0.90640292316E+01  0.10177430561E+02 -0.20811836081E+01  0.13786516754E+02  0.51100000000E-03 0. -1.
        -11    1    3    3    0    0  0.71723598927E+01  0.13575203733E+02  0.75958565401E+01  0.17129680080E+02  0.51100000000E-03 0.  1.
         12    1    3    3    0    0  0.27597840314E+02 -0.49161282632E+01 -0.44654453972E+01  0.28385723695E+02  0.00000000000E+00 0. -1.
</event>
<event>
 7    1  0.6230310E-012  0.5930194E+02  0.7816164E-02  0.1266605E+00
        -11   -1    0    0    0    0  0.00000000000E+00  0.00000000000E+00  0.45593999997E+02  0.45594000000E+02  0.51100000000E-03 0.  1.
         11   -1    0    0    0    0 -0.00000000000E+00 -0.00000000000E+00 -0.45593999997E+02  0.45594000000E+02  0.51100000000E-03 0. -1.
    9900012    2    1    2    0    0 -0.18287172555E+02 -0.18612365181E+02 -0.18327028974E+02  0.59301940214E+02  0.49999993044E+02 0.  0.
         12    1    1    2    0    0  0.18287172555E+02  0.18612365181E+02  0.18327028974E+02  0.31886059786E+02  0.00000000000E+00 0. -1.
         11    1    3    3    0    0  0.34211962506E+01 -0.66569449104E+01 -0.12403649839E+02  0.14486891623E+02  0.51100000000E-03 0. -1.
        -11    1    3    3    0    0  0.49649984230E+01  0.66387630413E+01  0.59455927424E+01  0.10201688947E+02  0.51100000000E-03 0.  1.
        -12    1    3    3    0    0 -0.26673367229E+02 -0.18594183312E+02 -0.11868971878E+02  0.34613359643E+02  0.00000000000E+00 0.  1.
</event>
<event>
 7    1  0.6230310E-012  0.5930195E+02  0.7816164E-02  0.1266605E+00
        -11   -1    0    0    0    0  0.00000000000E+00  0.00000000000E+00  0.45593999997E+02  0.45594000000E+02  0.51100000000E-03 0. -1.
         11   -1    0    0    0    0 -0.00000000000E+00 -0.00000000000E+00 -0.45593999997E+02  0.45594000000E+02  0.51100000000E-03 0.  1.
    9900012    2    1    2    0    0  0.14791154275E+02 -0.97712401506E+01 -0.26504053548E+02  0.59301949236E+02  0.50000009499E+02 0.  0.
         12    1    1    2    0    0 -0.14791154275E+02  0.97712401506E+01  0.26504053548E+02  0.31886050764E+02  0.00000000000E+00 0. -1.
         11    1    3    3    0    0  0.12357905986E+02  0.14568790142E+02  0.12471960442E+01  0.19144790017E+02  0.51100000000E-03 0. -1.
        -11    1    3    3    0    0 -0.50232967527E+00  0.52973795437E+00 -0.86003979334E+01  0.86313267970E+01  0.51100000000E-03 0.  1.
        -12    1    3    3    0    0  0.29355779643E+01 -0.24869768247E+02 -0.19150851658E+02  0.31525832422E+02  0.00000000000E+00 0.  1.
</event>
<event>
 7    1  0.6230310E-012  0.5930194E+02  0.7816164E-02  0.1266605E+00
        -11   -1    0    0    0    0  0.00000000000E+00  0.00000000000E+00  0.45593999997E+02  0.45594000000E+02  0.51100000000E-03 0.  1.
         11   -1    0    0    0    0 -0.00000000000E+00 -0.00000000000E+00 -0.45593999997E+02  0.45594000000E+02  0.51100000000E-03 0. -1.
    9900012    2    1    2    0    0 -0.87174300943E-01  0.25971907947E+02 -0.18497919802E+02  0.59301942878E+02  0.49999997904E+02 0.  0.
         12    1    1    2    0    0  0.87174300943E-01 -0.25971907947E+02  0.18497919802E+02  0.31886057122E+02  0.00000000000E+00 0. -1.
         11    1    3    3    0    0  0.97534604409E+01  0.89487649745E+01  0.12176332047E+02  0.17985367595E+02  0.51100000000E-03 0. -1.
        -11    1    3    3    0    0  0.84213834392E+00 -0.28560683870E+01  0.30013714703E+00  0.29927255453E+01  0.51100000000E-03 0.  1.
         12    1    3    3    0    0 -0.10682773086E+02  0.19879211360E+02 -0.30974388996E+02  0.38323849738E+02  0.00000000000E+00 0. -1.
</event>
<event>
 7    1  0.6230310E-012  0.5930194E+02  0.7816164E-02  0.1266605E+00
        -11   -1    0    0    0    0  0.00000000000E+00  0.00000000000E+00  0.45593999997E+02  0.45594000000E+02  0.51100000000E-03 0. -1.
         11   -1    0    0    0    0 -0.00000000000E+00 -0.00000000000E+00 -0.45593999997E+02  0.45594000000E+02  0.51100000000E-03 0.  1.
    9900012    2    1    2    0    0 -0.15812328655E+02 -0.14323304618E+01 -0.27652117584E+02  0.59301938548E+02  0.49999990006E+02 0.  0.
         12    1    1    2    0    0  0.15812328655E+02  0.14323304618E+01  0.27652117584E+02  0.31886061452E+02  0.00000000000E+00 0. -1.
         11    1    3    3    0    0  0.57642543491E+00 -0.14766506225E+02 -0.28510589357E+01  0.15050266100E+02  0.51100000000E-03 0. -1.
        -11    1    3    3    0    0 -0.46126876155E+01 -0.90095417332E+01 -0.12715223872E+02  0.16251942889E+02  0.51100000000E-03 0.  1.
         12    1    3    3    0    0 -0.11776066474E+02  0.22343717496E+02 -0.12085834777E+02  0.27999729559E+02  0.00000000000E+00 0. -1.
</event>
<event>
 7    1  0.6230310E-012  0.5930194E+02  0.7816164E-02  0.1266605E+00
        -11   -1    0    0    0    0  0.00000000000E+00  0.00000000000E+00  0.45593999997E+02  0.45594000000E+02  0.51100000000E-03 0.  1.
         11   -1    0    0    0    0 -0.00000000000E+00 -0.00000000000E+00 -0.45593999997E+02  0.45594000000E+02  0.51100000000E-03 0. -1.
    9900012    2    1    2    0    0 -0.28173655527E+02  0.28994774819E+01  0.14647835604E+02  0.59301938416E+02  0.49999989766E+02 0.  0.
         12    1    1    2    0    0  0.28173655527E+02 -0.28994774819E+01 -0.14647835604E+02  0.31886061584E+02  0.00000000000E+00 0. -1.
         11    1    3    3    0    0 -0.15717919400E+02 -0.27262256464E+01  0.63181876595E+01  0.17158228116E+02  0.51100000000E-03 0. -1.
        -11    1    3    3    0    0 -0.15983499101E+02 -0.23798670122E+01  0.21153709283E+02  0.26619831465E+02  0.51100000000E-03 0.  1.
         12    1    3    3    0    0  0.35277629732E+01  0.80055701405E+01 -0.12824061339E+02  0.15523878835E+02  0.00000000000E+00 0. -1.
</event>
<event>
 7    1  0.6230310E-012  0.5930194E+02  0.7816164E-02  0.1266605E+00
        -11   -1    0    0    0    0  0.00000000000E+00  0.00000000000E+00  0.45593999997E+02  0.45594000000E+02  0.51100000000E-03 0. -1.
         11   -1    0    0    0    0 -0.00000000000E+00 -0.00000000000E+00 -0.45593999997E+02  0.45594000000E+02  0.51100000000E-03 0.  1.
    9900012    2    1    2    0    0  0.27436813816E+02 -0.15206618818E+02 -0.57184374265E+01  0.59301944508E+02  0.50000000877E+02 0.  0.
         12    1    1    2    0    0 -0.27436813816E+02  0.15206618818E+02  0.57184374265E+01  0.31886055492E+02  0.00000000000E+00 0. -1.
         11    1    3    3    0    0 -0.28909269867E+01  0.88297892916E+01  0.47939131700E+01  0.10454866882E+02  0.51100000000E-03 0. -1.
        -11    1    3    3    0    0  0.54628702582E+00 -0.13221965340E+00 -0.10643735322E+02  0.10658565260E+02  0.51100000000E-03 0.  1.
         12    1    3    3    0    0  0.29781453776E+02 -0.23904188456E+02  0.13138472525E+00  0.38188512366E+02  0.00000000000E+00 0. -1.
</event>
<event>
 7    1  0.6230310E-012  0.5930193E+02  0.7816164E-02  0.1266605E+00
        -11   -1    0    0    0    0  0.00000000000E+00  0.00000000000E+00  0.45593999997E+02  0.45594000000E+02  0.51100000000E-03 0. -1.
         11   -1    0    0    0    0 -0.00000000000E+00 -0.00000000000E+00 -0.45593999997E+02  0.45594000000E+02  0.51100000000E-03 0.  1.
    9900012    2    1    2    0    0 -0.18336288138E+02 -0.22552348285E+02 -0.13110809952E+02  0.59301933867E+02  0.49999981469E+02 0.  0.
         12    1    1    2    0    0  0.18336288138E+02  0.22552348285E+02  0.13110809952E+02  0.31886066133E+02  0.00000000000E+00 0. -1.
         11    1    3    3    0    0 -0.29554324211E+01 -0.14756400405E+02 -0.64298078305E+01  0.16365462496E+02  0.51100000000E-03 0. -1.
        -11    1    3    3    0    0 -0.39251759316E+01 -0.17631165875E+02 -0.16874852402E+02  0.24718933231E+02  0.51100000000E-03 0.  1.
         12    1    3    3    0    0 -0.11455679785E+02  0.98352179949E+01  0.10193850281E+02  0.18217538140E+02  0.00000000000E+00 0. -1.
</event>
<event>
 7    1  0.6230310E-012  0.5930200E+02  0.7816164E-02  0.1266605E+00
        -11   -1    0    0    0    0  0.00000000000E+00  0.00000000000E+00  0.45593999997E+02  0.45594000000E+02  0.51100000000E-03 0.  1.
         11   -1    0    0    0    0 -0.00000000000E+00 -0.00000000000E+00 -0.45593999997E+02  0.45594000000E+02  0.51100000000E-03 0. -1.
    9900012    2    1    2    0    0  0.21657795504E+02  0.45277849266E+01  0.22959876230E+02  0.59302002149E+02  0.50000105999E+02 0.  0.
         12    1    1    2    0    0 -0.21657795504E+02 -0.45277849266E+01 -0.22959876230E+02  0.31885997851E+02  0.00000000000E+00 0. -1.
         11    1    3    3    0    0  0.11887523841E+02 -0.17265472417E+02  0.68017596399E+01  0.22038005701E+02  0.51100000000E-03 0. -1.
        -11    1    3    3    0    0  0.82790848842E+01  0.39317367749E+01 -0.42498101010E+01  0.10102607918E+02  0.51100000000E-03 0.  1.
        -12    1    3    3    0    0  0.14911867792E+01  0.17861520568E+02  0.20407926691E+02  0.27161388530E+02  0.00000000000E+00 0.  1.
</event>
<event>
 7    1  0.6230310E-012  0.5930195E+02  0.7816164E-02  0.1266605E+00
        -11   -1    0    0    0    0  0.00000000000E+00  0.00000000000E+00  0.45593999997E+02  0.45594000000E+02  0.51100000000E-03 0.  1.
         11   -1    0    0    0    0 -0.00000000000E+00 -0.00000000000E+00 -0.45593999997E+02  0.45594000000E+02  0.51100000000E-03 0. -1.
    9900012    2    1    2    0    0  0.48625279356E+01  0.31497921047E+02  0.97839767950E+00  0.59301945521E+02  0.50000002724E+02 0.  0.
         12    1    1    2    0    0 -0.48625279356E+01 -0.31497921047E+02 -0.97839767950E+00  0.31886054479E+02  0.00000000000E+00 0. -1.
         11    1    3    3    0    0 -0.25470488069E+01  0.53448268024E+01  0.10037339797E+02  0.11653446771E+02  0.51100000000E-03 0. -1.
        -11    1    3    3    0    0  0.85126023306E+01 -0.37610469236E+01  0.87860277678E+01  0.12798599791E+02  0.51100000000E-03 0.  1.
         12    1    3    3    0    0 -0.11030255881E+01  0.29914141168E+02 -0.17844969886E+02  0.34849898960E+02  0.00000000000E+00 0. -1.
</event>
<event>
 7    1  0.6230310E-012  0.5930194E+02  0.7816164E-02  0.1266605E+00
        -11   -1    0    0    0    0  0.00000000000E+00  0.00000000000E+00  0.45593999997E+02  0.45594000000E+02  0.51100000000E-03 0. -1.
         11   -1    0    0    0    0 -0.00000000000E+00 -0.00000000000E+00 -0.45593999997E+02  0.45594000000E+02  0.51100000000E-03 0.  1.
    9900012    2    1    2    0    0 -0.29258947240E+02  0.11537150698E+02 -0.52468251962E+01  0.59301936987E+02  0.49999987160E+02 0.  0.
         12    1    1    2    0    0  0.29258947240E+02 -0.11537150698E+02  0.52468251962E+01  0.31886063013E+02  0.00000000000E+00 0. -1.
         11    1    3    3    0    0 -0.70584724816E+01  0.84600688682E+01 -0.21389153082E+01  0.11223624993E+02  0.51100000000E-03 0. -1.
        -11    1    3    3    0    0 -0.10587981856E+02  0.18022928124E+02  0.11783524118E+02  0.23995473299E+02  0.51100000000E-03 0.  1.
         12    1    3    3    0    0 -0.11612492903E+02 -0.14945846294E+02 -0.14891434006E+02  0.24082838695E+02  0.00000000000E+00 0. -1.
</event>
<event>
 7    1  0.6230310E-012  0.5930198E+02  0.7816164E-02  0.1266605E+00
        -11   -1    0    0    0    0  0.00000000000E+00  0.00000000000E+00  0.45593999997E+02  0.45594000000E+02  0.51100000000E-03 0. -1.
         11   -1    0    0    0    0 -0.00000000000E+00 -0.00000000000E+00 -0.45593999997E+02  0.45594000000E+02  0.51100000000E-03 0.  1.
    9900012    2    1    2    0    0  0.40699657122E+01  0.34652064233E-01 -0.31625190483E+02  0.59301976498E+02  0.50000059218E+02 0.  0.
         12    1    1    2    0    0 -0.40699657122E+01 -0.34652064233E-01  0.31625190483E+02  0.31886023502E+02  0.00000000000E+00 0. -1.
         11    1    3    3    0    0 -0.96676817290E+01  0.10364135455E+02  0.28989588330E+01  0.14466628368E+02  0.51100000000E-03 0. -1.
        -11    1    3    3    0    0 -0.36148023244E+01 -0.38431657069E+01  0.41138262968E+00  0.52920652324E+01  0.51100000000E-03 0.  1.
        -12    1    3    3    0    0  0.17352449766E+02 -0.64863176844E+01 -0.34935531946E+02  0.39543282898E+02  0.00000000000E+00 0.  1.
</event>
<event>
 7    1  0.6230310E-012  0.5930196E+02  0.7816164E-02  0.1266605E+00
        -11   -1    0    0    0    0  0.00000000000E+00  0.00000000000E+00  0.45593999997E+02  0.45594000000E+02  0.51100000000E-03 0.  1.
         11   -1    0    0    0    0 -0.00000000000E+00 -0.00000000000E+00 -0.45593999997E+02  0.45594000000E+02  0.51100000000E-03 0. -1.
    9900012    2    1    2    0    0 -0.62465681020E+01  0.19785966626E+02  0.24211892385E+02  0.59301955698E+02  0.50000021284E+02 0.  0.
         12    1    1    2    0    0  0.62465681020E+01 -0.19785966626E+02 -0.24211892385E+02  0.31886044302E+02  0.00000000000E+00 0. -1.
         11    1    3    3    0    0 -0.71921651430E+01 -0.32166400655E+01 -0.28473294728E+00  0.78838496857E+01  0.51100000000E-03 0. -1.
        -11    1    3    3    0    0  0.14426822908E+02  0.23168010243E+02  0.50514572862E+01  0.27756209014E+02  0.51100000000E-03 0.  1.
         12    1    3    3    0    0 -0.13481225867E+02 -0.16540355219E+00  0.19445168046E+02  0.23661896998E+02  0.00000000000E+00 0. -1.
</event>
<event>
 7    1  0.6230310E-012  0.5930194E+02  0.7816164E-02  0.1266605E+00
        -11   -1    0    0    0    0  0.00000000000E+00  0.00000000000E+00  0.45593999997E+02  0.45594000000E+02  0.51100000000E-03 0. -1.
         11   -1    0    0    0    0 -0.00000000000E+00 -0.00000000000E+00 -0.45593999997E+02  0.45594000000E+02  0.51100000000E-03 0.  1.
    9900012    2    1    2    0    0  0.18948457576E+02  0.56194381449E+01 -0.25021968184E+02  0.59301936879E+02  0.49999986962E+02 0.  0.
         12    1    1    2    0    0 -0.18948457576E+02 -0.56194381449E+01  0.25021968184E+02  0.31886063121E+02  0.00000000000E+00 0. -1.
         11    1    3    3    0    0  0.15851134803E+02 -0.43250489431E+01  0.68476292445E+01  0.17800408688E+02  0.51100000000E-03 0. -1.
        -11    1    3    3    0    0  0.14077406555E+01  0.17436837182E+02 -0.15307905246E+02  0.23245579966E+02  0.51100000000E-03 0.  1.
        -12    1    3    3    0    0  0.16895821172E+01 -0.74923500941E+01 -0.16561692182E+02  0.18255948225E+02  0.00000000000E+00 0.  1.
</event>
<event>
 7    1  0.6230310E-012  0.5930181E+02  0.7816164E-02  0.1266605E+00
        -11   -1    0    0    0    0  0.00000000000E+00  0.00000000000E+00  0.45593999997E+02  0.45594000000E+02  0.51100000000E-03 0. -1.
         11   -1    0    0    0    0 -0.00000000000E+00 -0.00000000000E+00 -0.45593999997E+02  0.45594000000E+02  0.51100000000E-03 0.  1.
    9900012    2    1    2    0    0 -0.24507382998E+02 -0.44740636489E+01 -0.19902261496E+02  0.59301810520E+02  0.49999756513E+02 0.  0.
         12    1    1    2    0    0  0.24507382998E+02  0.44740636489E+01  0.19902261496E+02  0.31886189480E+02  0.00000000000E+00 0. -1.
         11    1    3    3    0    0  0.45866791275E+01 -0.11536124448E+00  0.61119436583E+00  0.46286598978E+01  0.51100000000E-03 0. -1.
        -11    1    3    3    0    0 -0.25099395077E+02 -0.13875768064E+02  0.31545253961E+01  0.28852514680E+02  0.51100000000E-03 0.  1.
         12    1    3    3    0    0 -0.39946670476E+01  0.95170656600E+01 -0.23667981258E+02  0.25820635942E+02  0.00000000000E+00 0. -1.
</event>
<event>
 7    1  0.6230310E-012  0.5930195E+02  0.7816164E-02  0.1266605E+00
        -11   -1    0    0    0    0  0.00000000000E+00  0.00000000000E+00  0.45593999997E+02  0.45594000000E+02  0.51100000000E-03 0. -1.
         11   -1    0    0    0    0 -0.00000000000E+00 -0.00000000000E+00 -0.45593999997E+02  0.45594000000E+02  0.51100000000E-03 0.  1.
    9900012    2    1    2    0    0 -0.13763417589E+02 -0.18643671481E+02 -0.21902107459E+02  0.59301945663E+02  0.50000002982E+02 0.  0.
         12    1    1    2    0    0  0.13763417589E+02  0.18643671481E+02  0.21902107459E+02  0.31886054337E+02  0.00000000000E+00 0. -1.
         11    1    3    3    0    0  0.67498467656E+01 -0.10756158520E+01 -0.28964082509E+01  0.74233794081E+01  0.51100000000E-03 0. -1.
        -11    1    3    3    0    0 -0.43044003152E+01 -0.76100401130E+01 -0.29070457658E+02  0.30356746882E+02  0.51100000000E-03 0.  1.
         12    1    3    3    0    0 -0.16208864039E+02 -0.99580155162E+01  0.10064758449E+02  0.21521819373E+02  0.00000000000E+00 0. -1.
</event>
<event>
 7    1  0.6230310E-012  0.5930195E+02  0.7816164E-02  0.1266605E+00
        -11   -1    0    0    0    0  0.00000000000E+00  0.00000000000E+00  0.45593999997E+02  0.45594000000E+02  0.51100000000E-03 0.  1.
         11   -1    0    0    0    0 -0.00000000000E+00 -0.00000000000E+00 -0.45593999997E+02  0.45594000000E+02  0.51100000000E-03 0. -1.
    9900012    2    1    2    0    0  0.14816691689E+02  0.27155555239E+02 -0.77305515581E+01  0.59301953517E+02  0.50000017305E+02 0.  0.
         12    1    1    2    0    0 -0.14816691689E+02 -0.27155555239E+02  0.77305515581E+01  0.31886046483E+02  0.00000000000E+00 0. -1.
         11    1    3    3    0    0  0.87650593047E+01  0.27680595555E+01 -0.59255600524E+01  0.10936209604E+02  0.51100000000E-03 0. -1.
        -11    1    3    3    0    0  0.20255374932E+02  0.21832869626E+02  0.80980096014E+01  0.30863119893E+02  0.51100000000E-03 0.  1.
        -12    1    3    3    0    0 -0.14203742547E+02  0.25546260573E+01 -0.99030011071E+01  0.17502624019E+02  0.00000000000E+00 0.  1.
</event>
<event>
 7    1  0.6230310E-012  0.5930195E+02  0.7816164E-02  0.1266605E+00
        -11   -1    0    0    0    0  0.00000000000E+00  0.00000000000E+00  0.45593999997E+02  0.45594000000E+02  0.51100000000E-03 0.  1.
         11   -1    0    0    0    0 -0.00000000000E+00 -0.00000000000E+00 -0.45593999997E+02  0.45594000000E+02  0.51100000000E-03 0. -1.
    9900012    2    1    2    0    0 -0.28876624438E+02 -0.90893460617E+00  0.13492016038E+02  0.59301951361E+02  0.50000013374E+02 0.  0.
         12    1    1    2    0    0  0.28876624438E+02  0.90893460617E+00 -0.13492016038E+02  0.31886048639E+02  0.00000000000E+00 0. -1.
         11    1    3    3    0    0  0.45986955955E+01  0.65028451405E+01  0.66351573054E+01  0.10366306422E+02  0.51100000000E-03 0. -1.
        -11    1    3    3    0    0 -0.30035136403E+01 -0.14199937228E+01  0.16174870908E+02  0.16512538433E+02  0.51100000000E-03 0.  1.
        -12    1    3    3    0    0 -0.30471806393E+02 -0.59917860239E+01 -0.93180121752E+01  0.32423106506E+02  0.00000000000E+00 0.  1.
</event>
<event>
 7    1  0.6230310E-012  0.5930192E+02  0.7816164E-02  0.1266605E+00
        -11   -1    0    0    0    0  0.00000000000E+00  0.00000000000E+00  0.45593999997E+02  0.45594000000E+02  0.51100000000E-03 0. -1.
         11   -1    0    0    0    0 -0.00000000000E+00 -0.00000000000E+00 -0.45593999997E+02  0.45594000000E+02  0.51100000000E-03 0.  1.
    9900012    2    1    2    0    0 -0.31817641522E+02  0.14101051023E+01 -0.15400234448E+01  0.59301915565E+02  0.49999948090E+02 0.  0.
         12    1    1    2    0    0  0.31817641522E+02 -0.14101051023E+01  0.15400234448E+01  0.31886084435E+02  0.00000000000E+00 0. -1.
         11    1    3    3    0    0 -0.18942470893E+02  0.33024950474E+01 -0.37166840583E+01  0.19584111359E+02  0.51100000000E-03 0. -1.
        -11    1    3    3    0    0 -0.81330099416E+01 -0.18325129934E+01 -0.17549756220E+02  0.19429305140E+02  0.51100000000E-03 0.  1.
         12    1    3    3    0    0 -0.47421606867E+01 -0.59876951739E-01  0.19726416834E+02  0.20288499065E+02  0.00000000000E+00 0. -1.
</event>
<event>
 7    1  0.6230310E-012  0.5930195E+02  0.7816164E-02  0.1266605E+00
        -11   -1    0    0    0    0  0.00000000000E+00  0.00000000000E+00  0.45593999997E+02  0.45594000000E+02  0.51100000000E-03 0.  1.
         11   -1    0    0    0    0 -0.00000000000E+00 -0.00000000000E+00 -0.45593999997E+02  0.45594000000E+02  0.51100000000E-03 0. -1.
    9900012    2    1    2    0    0 -0.28459233031E+02 -0.12355882916E+02  0.73569170978E+01  0.59301952636E+02  0.50000015699E+02 0.  0.
         12    1    1    2    0    0  0.28459233031E+02  0.12355882916E+02 -0.73569170978E+01  0.31886047364E+02  0.00000000000E+00 0. -1.
         11    1    3    3    0    0 -0.20711935322E+01 -0.42059143932E+00  0.17360987717E+02  0.17489157630E+02  0.51100000000E-03 0. -1.
        -11    1    3    3    0    0 -0.15593565180E+01 -0.91691167464E+01  0.69587730745E+01  0.11615886433E+02  0.51100000000E-03 0.  1.
        -12    1    3    3    0    0 -0.24828682981E+02 -0.27661747300E+01 -0.16962843694E+02  0.30196908573E+02  0.00000000000E+00 0.  1.
</event>
<event>
 7    1  0.6230310E-012  0.5930200E+02  0.7816164E-02  0.1266605E+00
        -11   -1    0    0    0    0  0.00000000000E+00  0.00000000000E+00  0.45593999997E+02  0.45594000000E+02  0.51100000000E-03 0.  1.
         11   -1    0    0    0    0 -0.00000000000E+00 -0.00000000000E+00 -0.45593999997E+02  0.45594000000E+02  0.51100000000E-03 0. -1.
    9900012    2    1    2    0    0  0.23173983719E+02  0.87410981803E+00 -0.21884233992E+02  0.59301995440E+02  0.50000093763E+02 0.  0.
         12    1    1    2    0    0 -0.23173983719E+02 -0.87410981803E+00  0.21884233992E+02  0.31886004560E+02  0.00000000000E+00 0. -1.
         11    1    3    3    0    0 -0.25933116768E+01  0.46315388843E+01  0.30287063143E+01  0.61114221004E+01  0.51100000000E-03 0. -1.
        -11    1    3    3    0    0  0.19130989575E+02  0.55319974486E+01  0.55375548131E+01  0.20670323449E+02  0.51100000000E-03 0.  1.
         12    1    3    3    0    0  0.66363058205E+01 -0.92894265149E+01 -0.30450495120E+02  0.32520249891E+02  0.00000000000E+00 0. -1.
</event>
<event>
 7    1  0.6230310E-012  0.5930193E+02  0.7816164E-02  0.1266605E+00
        -11   -1    0    0    0    0  0.00000000000E+00  0.00000000000E+00  0.45593999997E+02  0.45594000000E+02  0.51100000000E-03 0. -1.
         11   -1    0    0    0    0 -0.00000000000E+00 -0.00000000000E+00 -0.45593999997E+02  0.45594000000E+02  0.51100000000E-03 0.  1.
    9900012    2    1    2    0    0  0.19988839083E+00 -0.18136503414E+02 -0.26224966478E+02  0.59301928147E+02  0.49999971037E+02 0.  0.
         12    1    1    2    0    0 -0.19988839083E+00  0.18136503414E+02  0.26224966478E+02  0.31886071853E+02  0.00000000000E+00 0. -1.
         11    1    3    3    0    0  0.45276799152E+01 -0.83561681592E+01  0.52532990456E+01  0.10859216493E+02  0.51100000000E-03 0. -1.
        -11    1    3    3    0    0  0.12452686727E+02  0.42230338367E+01 -0.49008972077E+01  0.14032897606E+02  0.51100000000E-03 0.  1.
        -12    1    3    3    0    0 -0.16780478251E+02 -0.14003369091E+02 -0.26577368316E+02  0.34409814048E+02  0.00000000000E+00 0.  1.
</event>
<event>
 7    1  0.6230310E-012  0.5930191E+02  0.7816164E-02  0.1266605E+00
        -11   -1    0    0    0    0  0.00000000000E+00  0.00000000000E+00  0.45593999997E+02  0.45594000000E+02  0.51100000000E-03 0. -1.
         11   -1    0    0    0    0 -0.00000000000E+00 -0.00000000000E+00 -0.45593999997E+02  0.45594000000E+02  0.51100000000E-03 0.  1.
    9900012    2    1    2    0    0  0.19271961764E+02  0.19494473455E+01 -0.25328123116E+02  0.59301910937E+02  0.49999939650E+02 0.  0.
         12    1    1    2    0    0 -0.19271961764E+02 -0.19494473455E+01  0.25328123116E+02  0.31886089063E+02  0.00000000000E+00 0. -1.
         11    1    3    3    0    0  0.15426664036E+00 -0.11319700329E+01 -0.15840999314E+01  0.19530814641E+01  0.51100000000E-03 0. -1.
        -11    1    3    3    0    0  0.22405967747E+02  0.42912987095E+01  0.89217227530E+01  0.24495709266E+02  0.51100000000E-03 0.  1.
        -12    1    3    3    0    0 -0.32882726240E+01 -0.12098813310E+01 -0.32665745937E+02  0.32853120207E+02  0.00000000000E+00 0.  1.
</event>
<event>
 7    1  0.6230310E-012  0.5930200E+02  0.7816164E-02  0.1266605E+00
        -11   -1    0    0    0    0  0.00000000000E+00  0.00000000000E+00  0.45593999997E+02  0.45594000000E+02  0.51100000000E-03 0.  1.
         11   -1    0    0    0    0 -0.00000000000E+00 -0.00000000000E+00 -0.45593999997E+02  0.45594000000E+02  0.51100000000E-03 0. -1.
    9900012    2    1    2    0    0  0.21312468676E+02  0.78213399464E+01  0.22390228398E+02  0.59301999823E+02  0.50000101756E+02 0.  0.
         12    1    1    2    0    0 -0.21312468676E+02 -0.78213399464E+01 -0.22390228398E+02  0.31886000177E+02  0.00000000000E+00 0. -1.
         11    1    3    3    0    0  0.94440815209E+01  0.17058216689E+02 -0.47013901697E+01  0.20056831808E+02  0.51100000000E-03 0. -1.
        -11    1    3    3    0    0  0.82789884601E-01  0.50610463660E+00 -0.42983062733E+01  0.43287911879E+01  0.51100000000E-03 0.  1.
        -12    1    3    3    0    0  0.11785597270E+02 -0.97429813796E+01  0.31389924841E+02  0.34916376826E+02  0.00000000000E+00 0.  1.
</event>
<event>
 7    1  0.6230310E-012  0.5930197E+02  0.7816164E-02  0.1266605E+00
        -11   -1    0    0    0    0  0.00000000000E+00  0.00000000000E+00  0.45593999997E+02  0.45594000000E+02  0.51100000000E-03 0.  1.
         11   -1    0    0    0    0 -0.00000000000E+00 -0.00000000000E+00 -0.45593999997E+02  0.45594000000E+02  0.51100000000E-03 0. -1.
    9900012    2    1    2    0    0 -0.25136974053E+00  0.31060206740E+02 -0.72055159881E+01  0.59301967163E+02  0.50000042192E+02 0.  0.
         12    1    1    2    0    0  0.25136974053E+00 -0.31060206740E+02  0.72055159881E+01  0.31886032837E+02  0.00000000000E+00 0. -1.
         11    1    3    3    0    0 -0.15416475080E+01  0.46307628629E+01 -0.56241379148E+01  0.74465810462E+01  0.51100000000E-03 0. -1.
        -11    1    3    3    0    0 -0.32147106107E+01  0.13315966786E+02 -0.22746487539E+02  0.26552815884E+02  0.51100000000E-03 0.  1.
         12    1    3    3    0    0  0.45049883781E+01  0.13113477091E+02  0.21165109465E+02  0.25302570233E+02  0.00000000000E+00 0. -1.
</event>
<event>
 7    1  0.6230310E-012  0.5930195E+02  0.7816164E-02  0.1266605E+00
        -11   -1    0    0    0    0  0.00000000000E+00  0.00000000000E+00  0.45593999997E+02  0.45594000000E+02  0.51100000000E-03 0. -1.
         11   -1    0    0    0    0 -0.00000000000E+00 -0.00000000000E+00 -0.45593999997E+02  0.45594000000E+02  0.51100000000E-03 0.  1.
    9900012    2    1    2    0    0  0.18276781469E+02 -0.17795960473E+02  0.19130696604E+02  0.59301945014E+02  0.50000001798E+02 0.  0.
         12    1    1    2    0    0 -0.18276781469E+02  0.17795960473E+02 -0.19130696604E+02  0.31886054986E+02  0.00000000000E+00 0. -1.
         11    1    3    3    0    0 -0.56789845486E+00  0.96094432202E+00 -0.77741741668E+01  0.78538975599E+01  0.51100000000E-03 0. -1.
        -11    1    3    3    0    0  0.15053072194E+02  0.71238343846E+01  0.51652341834E+01  0.17436273778E+02  0.51100000000E-03 0.  1.
         12    1    3    3    0    0  0.37916077301E+01 -0.25880739180E+02  0.21739636587E+02  0.34011773676E+02  0.00000000000E+00 0. -1.
</event>
<event>
 7    1  0.6230310E-012  0.5930196E+02  0.7816164E-02  0.1266605E+00
        -11   -1    0    0    0    0  0.00000000000E+00  0.00000000000E+00  0.45593999997E+02  0.45594000000E+02  0.51100000000E-03 0.  1.
         11   -1    0    0    0    0 -0.00000000000E+00 -0.00000000000E+00 -0.45593999997E+02  0.45594000000E+02  0.51100000000E-03 0. -1.
    9900012    2    1    2    0    0 -0.10348678181E+02  0.18217250088E+02  0.24036556806E+02  0.59301962241E+02  0.50000033217E+02 0.  0.
         12    1    1    2    0    0  0.10348678181E+02 -0.18217250088E+02 -0.24036556806E+02  0.31886037759E+02  0.00000000000E+00 0. -1.
         11    1    3    3    0    0  0.29213797945E+01 -0.60051016814E+01 -0.16013600507E+01  0.68673182816E+01  0.51100000000E-03 0. -1.
        -11    1    3    3    0    0 -0.57327382008E+01  0.82650901986E+01  0.32101440076E+02  0.33640428928E+02  0.51100000000E-03 0.  1.
        -12    1    3    3    0    0 -0.75373197744E+01  0.15957261571E+02 -0.64635232196E+01  0.18794215031E+02  0.00000000000E+00 0.  1.
</event>
<event>
 7    1  0.6230310E-012  0.5930199E+02  0.7816164E-02  0.1266605E+00
        -11   -1    0    0    0    0  0.00000000000E+00  0.00000000000E+00  0.45593999997E+02  0.45594000000E+02  0.51100000000E-03 0.  1.
         11   -1    0    0    0    0 -0.00000000000E+00 -0.00000000000E+00 -0.45593999997E+02  0.45594000000E+02  0.51100000000E-03 0. -1.
    9900012    2    1    2    0    0 -0.16746228981E+02  0.40115089165E+01  0.26836344783E+02  0.59301987547E+02  0.50000079368E+02 0.  0.
         12    1    1    2    0    0  0.16746228981E+02 -0.40115089165E+01 -0.26836344783E+02  0.31886012453E+02  0.00000000000E+00 0. -1.
         11    1    3    3    0    0  0.75987576018E+01 -0.13399002285E+02  0.14752098994E+01  0.15474192186E+02  0.51100000000E-03 0. -1.
        -11    1    3    3    0    0 -0.10040484188E+02  0.90319555120E+01 -0.28733687646E-01  0.13505123805E+02  0.51100000000E-03 0.  1.
        -12    1    3    3    0    0 -0.14304502395E+02  0.83785556891E+01  0.25389868571E+02  0.30322671555E+02  0.00000000000E+00 0.  1.
</event>
<event>
 7    1  0.6230310E-012  0.5930192E+02  0.7816164E-02  0.1266605E+00
        -11   -1    0    0    0    0  0.00000000000E+00  0.00000000000E+00  0.45593999997E+02  0.45594000000E+02  0.51100000000E-03 0.  1.
         11   -1    0    0    0    0 -0.00000000000E+00 -0.00000000000E+00 -0.45593999997E+02  0.45594000000E+02  0.51100000000E-03 0. -1.
    9900012    2    1    2    0    0  0.41600030732E+01 -0.14872905435E+02  0.27896470414E+02  0.59301921483E+02  0.49999958883E+02 0.  0.
         12    1    1    2    0    0 -0.41600030732E+01  0.14872905435E+02 -0.27896470414E+02  0.31886078517E+02  0.00000000000E+00 0. -1.
         11    1    3    3    0    0 -0.98423931195E+00 -0.67217490785E+01 -0.45673264485E+01  0.81860313245E+01  0.51100000000E-03 0. -1.
        -11    1    3    3    0    0 -0.12772077517E+02 -0.36520668204E+01 -0.53910411147E+00  0.13294893368E+02  0.51100000000E-03 0.  1.
        -12    1    3    3    0    0  0.17916319902E+02 -0.44990895363E+01  0.33002900974E+02  0.37820996790E+02  0.00000000000E+00 0.  1.
</event>
<event>
 7    1  0.6230310E-012  0.5930195E+02  0.7816164E-02  0.1266605E+00
        -11   -1    0    0    0    0  0.00000000000E+00  0.00000000000E+00  0.45593999997E+02  0.45594000000E+02  0.51100000000E-03 0.  1.
         11   -1    0    0    0    0 -0.00000000000E+00 -0.00000000000E+00 -0.45593999997E+02  0.45594000000E+02  0.51100000000E-03 0. -1.
    9900012    2    1    2    0    0  0.31142453126E+02 -0.43398544925E+00  0.68322576014E+01  0.59301945462E+02  0.50000002615E+02 0.  0.
         12    1    1    2    0    0 -0.31142453126E+02  0.43398544925E+00 -0.68322576014E+01  0.31886054538E+02  0.00000000000E+00 0. -1.
         11    1    3    3    0    0  0.10701249031E+02  0.74941938090E+01 -0.92106508426E+01  0.15984860365E+02  0.51100000000E-03 0. -1.
        -11    1    3    3    0    0  0.81794512088E+00 -0.10530728668E+02 -0.72031097416E+01  0.12784759314E+02  0.51100000000E-03 0.  1.
        -12    1    3    3    0    0  0.19623258974E+02  0.26025494102E+01  0.23246018186E+02  0.30532325782E+02  0.00000000000E+00 0.  1.
</event>
<event>
 7    1  0.6230310E-012  0.5930193E+02  0.7816164E-02  0.1266605E+00
        -11   -1    0    0    0    0  0.00000000000E+00  0.00000000000E+00  0.45593999997E+02  0.45594000000E+02  0.51100000000E-03 0. -1.
         11   -1    0    0    0    0 -0.00000000000E+00 -0.00000000000E+00 -0.45593999997E+02  0.45594000000E+02  0.51100000000E-03 0.  1.
    9900012    2    1    2    0    0 -0.31379286329E+02 -0.56545032112E+01 -0.29720329030E+00  0.59301931775E+02  0.49999977653E+02 0.  0.
         12    1    1    2    0    0  0.31379286329E+02  0.56545032112E+01  0.29720329030E+00  0.31886068225E+02  0.00000000000E+00 0. -1.
         11    1    3    3    0    0  0.29390599721E+00 -0.73410573493E+01 -0.39312577727E+01  0.83326041354E+01  0.51100000000E-03 0.  1.
        -11    1    3    3    0    0  0.31101636524E+01 -0.90158584201E+01 -0.83276357909E+01  0.12661292948E+02  0.51100000000E-03 0. -1.
        -12    1    3    3    0    0 -0.34783355978E+02  0.10702412558E+02  0.11961690273E+02  0.38308034691E+02  0.00000000000E+00 0.  1.
</event>
<event>
 7    1  0.6230310E-012  0.5930206E+02  0.7816164E-02  0.1266604E+00
        -11   -1    0    0    0    0  0.00000000000E+00  0.00000000000E+00  0.45593999997E+02  0.45594000000E+02  0.51100000000E-03 0. -1.
         11   -1    0    0    0    0 -0.00000000000E+00 -0.00000000000E+00 -0.45593999997E+02  0.45594000000E+02  0.51100000000E-03 0.  1.
    9900012    2    1    2    0    0  0.11709741518E+02 -0.28640559694E+02 -0.77015126213E+01  0.59302062619E+02  0.50000216282E+02 0.  0.
         12    1    1    2    0    0 -0.11709741518E+02  0.28640559694E+02  0.77015126213E+01  0.31885937381E+02  0.00000000000E+00 0. -1.
         11    1    3    3    0    0  0.54646602744E+01  0.38731875253E+00 -0.79058287211E+01  0.96184539173E+01  0.51100000000E-03 0. -1.
        -11    1    3    3    0    0  0.40887804288E+01  0.38429883437E+01  0.13144125359E+02  0.14291770937E+02  0.51100000000E-03 0.  1.
        -12    1    3    3    0    0  0.21563008147E+01 -0.32870866790E+02 -0.12939809259E+02  0.35391837765E+02  0.00000000000E+00 0.  1.
</event>
<event>
 7    1  0.6230310E-012  0.5930193E+02  0.7816164E-02  0.1266605E+00
        -11   -1    0    0    0    0  0.00000000000E+00  0.00000000000E+00  0.45593999997E+02  0.45594000000E+02  0.51100000000E-03 0. -1.
         11   -1    0    0    0    0 -0.00000000000E+00 -0.00000000000E+00 -0.45593999997E+02  0.45594000000E+02  0.51100000000E-03 0.  1.
    9900012    2    1    2    0    0  0.92551270620E+01 -0.29968317404E+02  0.57414112355E+01  0.59301933640E+02  0.49999981055E+02 0.  0.
         12    1    1    2    0    0 -0.92551270620E+01  0.29968317404E+02 -0.57414112355E+01  0.31886066360E+02  0.00000000000E+00 0. -1.
         11    1    3    3    0    0  0.10047539303E+02 -0.21433289024E+01 -0.66621825714E+01  0.12244655230E+02  0.51100000000E-03 0. -1.
        -11    1    3    3    0    0 -0.10144158270E+02 -0.30615477770E+02  0.13056846548E+01  0.32278727341E+02  0.51100000000E-03 0.  1.
         12    1    3    3    0    0  0.93517460286E+01  0.27904892681E+01  0.11097909152E+02  0.14778551069E+02  0.00000000000E+00 0. -1.
</event>
<event>
 7    1  0.6230310E-012  0.5930198E+02  0.7816164E-02  0.1266605E+00
        -11   -1    0    0    0    0  0.00000000000E+00  0.00000000000E+00  0.45593999997E+02  0.45594000000E+02  0.51100000000E-03 0. -1.
         11   -1    0    0    0    0 -0.00000000000E+00 -0.00000000000E+00 -0.45593999997E+02  0.45594000000E+02  0.51100000000E-03 0.  1.
    9900012    2    1    2    0    0 -0.69990015070E+01  0.12102587536E+02 -0.28657631015E+02  0.59301977003E+02  0.50000060138E+02 0.  0.
         12    1    1    2    0    0  0.69990015070E+01 -0.12102587536E+02  0.28657631015E+02  0.31886022997E+02  0.00000000000E+00 0. -1.
         11    1    3    3    0    0 -0.22223552496E+02  0.63153087951E+01 -0.14510109832E+02  0.27282094830E+02  0.51100000000E-03 0.  1.
        -11    1    3    3    0    0 -0.23708830534E+00  0.20060526185E+01  0.60071981441E+01  0.63377352246E+01  0.51100000000E-03 0. -1.
         12    1    3    3    0    0  0.15461639295E+02  0.37812261227E+01 -0.20154719328E+02  0.25682146948E+02  0.00000000000E+00 0. -1.
</event>
<event>
 7    1  0.6230310E-012  0.5930194E+02  0.7816164E-02  0.1266605E+00
        -11   -1    0    0    0    0  0.00000000000E+00  0.00000000000E+00  0.45593999997E+02  0.45594000000E+02  0.51100000000E-03 0.  1.
         11   -1    0    0    0    0 -0.00000000000E+00 -0.00000000000E+00 -0.45593999997E+02  0.45594000000E+02  0.51100000000E-03 0. -1.
    9900012    2    1    2    0    0 -0.61119449610E+01  0.22676189335E+01  0.31212538597E+02  0.59301944545E+02  0.50000000943E+02 0.  0.
         12    1    1    2    0    0  0.61119449610E+01 -0.22676189335E+01 -0.31212538597E+02  0.31886055455E+02  0.00000000000E+00 0. -1.
         11    1    3    3    0    0 -0.25071491607E+01 -0.57665078733E+01  0.37336475439E+01  0.73129019007E+01  0.51100000000E-03 0. -1.
        -11    1    3    3    0    0 -0.66743388416E+01 -0.58771585189E+01  0.34837622820E+02  0.35954801561E+02  0.51100000000E-03 0.  1.
         12    1    3    3    0    0  0.30695430413E+01  0.13911285326E+02 -0.73587317676E+01  0.16034241083E+02  0.00000000000E+00 0. -1.
</event>
<event>
 7    1  0.6230310E-012  0.5930195E+02  0.7816164E-02  0.1266605E+00
        -11   -1    0    0    0    0  0.00000000000E+00  0.00000000000E+00  0.45593999997E+02  0.45594000000E+02  0.51100000000E-03 0.  1.
         11   -1    0    0    0    0 -0.00000000000E+00 -0.00000000000E+00 -0.45593999997E+02  0.45594000000E+02  0.51100000000E-03 0. -1.
    9900012    2    1    2    0    0 -0.23486924404E+02  0.17910439878E+02  0.12012535975E+02  0.59301945130E+02  0.50000002011E+02 0.  0.
         12    1    1    2    0    0  0.23486924404E+02 -0.17910439878E+02 -0.12012535975E+02  0.31886054870E+02  0.00000000000E+00 0. -1.
         11    1    3    3    0    0 -0.11167924116E+02 -0.41363314743E+01 -0.98808582868E+01  0.15474596210E+02  0.51100000000E-03 0. -1.
        -11    1    3    3    0    0 -0.15302488969E+02  0.15558384456E+02  0.11096263554E+01  0.21850875645E+02  0.51100000000E-03 0.  1.
         12    1    3    3    0    0  0.29834886809E+01  0.64883868965E+01  0.20783767906E+02  0.21976473275E+02  0.00000000000E+00 0. -1.
</event>
<event>
 7    1  0.6230310E-012  0.5930195E+02  0.7816164E-02  0.1266605E+00
        -11   -1    0    0    0    0  0.00000000000E+00  0.00000000000E+00  0.45593999997E+02  0.45594000000E+02  0.51100000000E-03 0.  1.
         11   -1    0    0    0    0 -0.00000000000E+00 -0.00000000000E+00 -0.45593999997E+02  0.45594000000E+02  0.51100000000E-03 0. -1.
    9900012    2    1    2    0    0 -0.20943361754E+02  0.25347588050E+01  0.23909640297E+02  0.59301948146E+02  0.50000007510E+02 0.  0.
         12    1    1    2    0    0  0.20943361754E+02 -0.25347588050E+01 -0.23909640297E+02  0.31886051854E+02  0.00000000000E+00 0. -1.
         11    1    3    3    0    0 -0.42284153127E+01 -0.13787461155E+02  0.58777109870E+01  0.15573087936E+02  0.51100000000E-03 0. -1.
        -11    1    3    3    0    0 -0.64930537148E+01 -0.70899650085E+01 -0.35882477906E+01  0.10261718805E+02  0.51100000000E-03 0.  1.
        -12    1    3    3    0    0 -0.10221892726E+02  0.23412184969E+02  0.21620177100E+02  0.33467141404E+02  0.00000000000E+00 0.  1.
</event>
<event>
 7    1  0.6230310E-012  0.5930210E+02  0.7816164E-02  0.1266604E+00
        -11   -1    0    0    0    0  0.00000000000E+00  0.00000000000E+00  0.45593999997E+02  0.45594000000E+02  0.51100000000E-03 0.  1.
         11   -1    0    0    0    0 -0.00000000000E+00 -0.00000000000E+00 -0.45593999997E+02  0.45594000000E+02  0.51100000000E-03 0. -1.
    9900012    2    1    2    0    0 -0.22914565945E+01 -0.28208211064E+02  0.14688667448E+02  0.59302095651E+02  0.50000276524E+02 0.  0.
         12    1    1    2    0    0  0.22914565945E+01  0.28208211064E+02 -0.14688667448E+02  0.31885904349E+02  0.00000000000E+00 0. -1.
         11    1    3    3    0    0  0.60308068648E+01 -0.23805074365E+02 -0.61816984702E+01  0.25323222410E+02  0.51100000000E-03 0. -1.
        -11    1    3    3    0    0  0.98225931780E+00  0.37029335506E+01 -0.44134925616E+01  0.58442678840E+01  0.51100000000E-03 0.  1.
        -12    1    3    3    0    0 -0.93045227772E+01 -0.81060702492E+01  0.25283858480E+02  0.28134605358E+02  0.00000000000E+00 0.  1.
</event>
<event>
 7    1  0.6230310E-012  0.5930194E+02  0.7816164E-02  0.1266605E+00
        -11   -1    0    0    0    0  0.00000000000E+00  0.00000000000E+00  0.45593999997E+02  0.45594000000E+02  0.51100000000E-03 0.  1.
         11   -1    0    0    0    0 -0.00000000000E+00 -0.00000000000E+00 -0.45593999997E+02  0.45594000000E+02  0.51100000000E-03 0. -1.
    9900012    2    1    2    0    0  0.23708636616E+02 -0.11896249954E+02  0.17694649625E+02  0.59301939746E+02  0.49999992192E+02 0.  0.
         12    1    1    2    0    0 -0.23708636616E+02  0.11896249954E+02 -0.17694649625E+02  0.31886060254E+02  0.00000000000E+00 0. -1.
         11    1    3    3    0    0  0.21461353207E+02 -0.18072272113E+02  0.57571169889E-01  0.28057084943E+02  0.51100000000E-03 0.  1.
        -11    1    3    3    0    0  0.41036612246E+01 -0.91716029790E+01  0.92478088836E+01  0.13655779218E+02  0.51100000000E-03 0. -1.
         12    1    3    3    0    0 -0.18563778160E+01  0.15347625138E+02  0.83892695714E+01  0.17589075585E+02  0.00000000000E+00 0. -1.
</event>
<event>
 7    1  0.6230310E-012  0.5930193E+02  0.7816164E-02  0.1266605E+00
        -11   -1    0    0    0    0  0.00000000000E+00  0.00000000000E+00  0.45593999997E+02  0.45594000000E+02  0.51100000000E-03 0. -1.
         11   -1    0    0    0    0 -0.00000000000E+00 -0.00000000000E+00 -0.45593999997E+02  0.45594000000E+02  0.51100000000E-03 0.  1.
    9900012    2    1    2    0    0  0.42708996985E+01  0.14335887915E+02 -0.28159605604E+02  0.59301926954E+02  0.49999968861E+02 0.  0.
         12    1    1    2    0    0 -0.42708996985E+01 -0.14335887915E+02  0.28159605604E+02  0.31886073046E+02  0.00000000000E+00 0. -1.
         11    1    3    3    0    0  0.14941403862E+02  0.40231594990E+01 -0.42845377636E+01  0.16055797266E+02  0.51100000000E-03 0. -1.
        -11    1    3    3    0    0 -0.27421425382E+00  0.18646501756E+02 -0.23388513619E+02  0.29913037137E+02  0.51100000000E-03 0.  1.
         12    1    3    3    0    0 -0.10396289910E+02 -0.83337733399E+01 -0.48655422183E+00  0.13333092551E+02  0.00000000000E+00 0. -1.
</event>
<event>
 7    1  0.6230310E-012  0.5930198E+02  0.7816164E-02  0.1266605E+00
        -11   -1    0    0    0    0  0.00000000000E+00  0.00000000000E+00  0.45593999997E+02  0.45594000000E+02  0.51100000000E-03 0.  1.
         11   -1    0    0    0    0 -0.00000000000E+00 -0.00000000000E+00 -0.45593999997E+02  0.45594000000E+02  0.51100000000E-03 0. -1.
    9900012    2    1    2    0    0  0.27003414943E+02  0.82501991955E+00  0.16936733538E+02  0.59301983952E+02  0.50000072812E+02 0.  0.
         12    1    1    2    0    0 -0.27003414943E+02 -0.82501991955E+00 -0.16936733538E+02  0.31886016048E+02  0.00000000000E+00 0. -1.
         11    1    3    3    0    0 -0.85509841523E+01  0.82205857077E+01  0.14467963646E+02  0.18708803588E+02  0.51100000000E-03 0. -1.
        -11    1    3    3    0    0  0.28703153495E+01  0.38318267668E+01  0.36406096991E+01  0.60146193411E+01  0.51100000000E-03 0.  1.
         12    1    3    3    0    0  0.32684083746E+02 -0.11227392555E+02 -0.11718398074E+01  0.34578561023E+02  0.00000000000E+00 0. -1.
</event>
<event>
 7    1  0.6230310E-012  0.5930193E+02  0.7816164E-02  0.1266605E+00
        -11   -1    0    0    0    0  0.00000000000E+00  0.00000000000E+00  0.45593999997E+02  0.45594000000E+02  0.51100000000E-03 0.  1.
         11   -1    0    0    0    0 -0.00000000000E+00 -0.00000000000E+00 -0.45593999997E+02  0.45594000000E+02  0.51100000000E-03 0. -1.
    9900012    2    1    2    0    0 -0.18752273441E+01 -0.23475777507E+01  0.31744198798E+02  0.59301925356E+02  0.49999965947E+02 0.  0.
         12    1    1    2    0    0  0.18752273441E+01  0.23475777507E+01 -0.31744198798E+02  0.31886074644E+02  0.00000000000E+00 0. -1.
         11    1    3    3    0    0  0.12275028308E+02  0.61623561245E+00 -0.77828872474E+01  0.14547487772E+02  0.51100000000E-03 0. -1.
        -11    1    3    3    0    0  0.17158437592E+01 -0.46094800610E+01  0.74016738546E+01  0.88868555941E+01  0.51100000000E-03 0.  1.
        -12    1    3    3    0    0 -0.15866099412E+02  0.16456666979E+01  0.32125412191E+02  0.35867581990E+02  0.00000000000E+00 0.  1.
</event>
<event>
 7    1  0.6230310E-012  0.5930195E+02  0.7816164E-02  0.1266605E+00
        -11   -1    0    0    0    0  0.00000000000E+00  0.00000000000E+00  0.45593999997E+02  0.45594000000E+02  0.51100000000E-03 0.  1.
         11   -1    0    0    0    0 -0.00000000000E+00 -0.00000000000E+00 -0.45593999997E+02  0.45594000000E+02  0.51100000000E-03 0. -1.
    9900012    2    1    2    0    0 -0.82817405757E+01 -0.79748131219E+01  0.29741142678E+02  0.59301946009E+02  0.50000003614E+02 0.  0.
         12    1    1    2    0    0  0.82817405757E+01  0.79748131219E+01 -0.29741142678E+02  0.31886053991E+02  0.00000000000E+00 0. -1.
         11    1    3    3    0    0 -0.13606249498E+02 -0.14694794903E+02 -0.31118497958E+01  0.20266983793E+02  0.51100000000E-03 0. -1.
        -11    1    3    3    0    0  0.12045755061E+02  0.24408731877E+01  0.14379039991E+02  0.18915995037E+02  0.51100000000E-03 0.  1.
        -12    1    3    3    0    0 -0.67212461385E+01  0.42791085933E+01  0.18473952483E+02  0.20118967179E+02  0.00000000000E+00 0.  1.
</event>
<event>
 7    1  0.6230310E-012  0.5930193E+02  0.7816164E-02  0.1266605E+00
        -11   -1    0    0    0    0  0.00000000000E+00  0.00000000000E+00  0.45593999997E+02  0.45594000000E+02  0.51100000000E-03 0.  1.
         11   -1    0    0    0    0 -0.00000000000E+00 -0.00000000000E+00 -0.45593999997E+02  0.45594000000E+02  0.51100000000E-03 0. -1.
    9900012    2    1    2    0    0  0.21775234811E+02 -0.23289435411E+02 -0.40323910563E+00  0.59301933221E+02  0.49999980291E+02 0.  0.
         12    1    1    2    0    0 -0.21775234811E+02  0.23289435411E+02  0.40323910563E+00  0.31886066779E+02  0.00000000000E+00 0. -1.
         11    1    3    3    0    0  0.79759891201E+01 -0.31275297835E+01  0.61204936585E+01  0.10528926245E+02  0.51100000000E-03 0. -1.
        -11    1    3    3    0    0  0.23604300953E+02 -0.12531927617E+02  0.96187543542E+01  0.28403039782E+02  0.51100000000E-03 0.  1.
         12    1    3    3    0    0 -0.98050552616E+01 -0.76299780102E+01 -0.16142487118E+02  0.20369967194E+02  0.00000000000E+00 0. -1.
</event>
<event>
 7    1  0.6230310E-012  0.5930195E+02  0.7816164E-02  0.1266605E+00
        -11   -1    0    0    0    0  0.00000000000E+00  0.00000000000E+00  0.45593999997E+02  0.45594000000E+02  0.51100000000E-03 0.  1.
         11   -1    0    0    0    0 -0.00000000000E+00 -0.00000000000E+00 -0.45593999997E+02  0.45594000000E+02  0.51100000000E-03 0. -1.
    9900012    2    1    2    0    0 -0.23713295528E+02  0.54114095371E+01  0.20618357894E+02  0.59301946305E+02  0.50000004153E+02 0.  0.
         12    1    1    2    0    0  0.23713295528E+02 -0.54114095371E+01 -0.20618357894E+02  0.31886053695E+02  0.00000000000E+00 0. -1.
         11    1    3    3    0    0 -0.23109777162E+02  0.16184283634E+01  0.16871077297E+02  0.28658582664E+02  0.51100000000E-03 0. -1.
        -11    1    3    3    0    0 -0.94604034153E+01  0.12276293592E+02 -0.41648000749E+01  0.16048432230E+02  0.51100000000E-03 0.  1.
        -12    1    3    3    0    0  0.88568850491E+01 -0.84833124178E+01  0.79120806713E+01  0.14594931411E+02  0.00000000000E+00 0.  1.
</event>
<event>
 7    1  0.6230310E-012  0.5930196E+02  0.7816164E-02  0.1266605E+00
        -11   -1    0    0    0    0  0.00000000000E+00  0.00000000000E+00  0.45593999997E+02  0.45594000000E+02  0.51100000000E-03 0.  1.
         11   -1    0    0    0    0 -0.00000000000E+00 -0.00000000000E+00 -0.45593999997E+02  0.45594000000E+02  0.51100000000E-03 0. -1.
    9900012    2    1    2    0    0 -0.17727266431E+02  0.17813229144E+02  0.19625295300E+02  0.59301963506E+02  0.50000035524E+02 0.  0.
         12    1    1    2    0    0  0.17727266431E+02 -0.17813229144E+02 -0.19625295300E+02  0.31886036494E+02  0.00000000000E+00 0. -1.
         11    1    3    3    0    0  0.47899876823E+01  0.15401424743E+02  0.15091923667E+02  0.22088776026E+02  0.51100000000E-03 0. -1.
        -11    1    3    3    0    0 -0.20984815872E+02  0.42819904463E+00  0.15418147134E+02  0.26043523435E+02  0.51100000000E-03 0.  1.
         12    1    3    3    0    0 -0.15324382409E+01  0.19836053564E+01 -0.10884775501E+02  0.11169664045E+02  0.00000000000E+00 0. -1.
</event>
<event>
 7    1  0.6230310E-012  0.5930195E+02  0.7816164E-02  0.1266605E+00
        -11   -1    0    0    0    0  0.00000000000E+00  0.00000000000E+00  0.45593999997E+02  0.45594000000E+02  0.51100000000E-03 0. -1.
         11   -1    0    0    0    0 -0.00000000000E+00 -0.00000000000E+00 -0.45593999997E+02  0.45594000000E+02  0.51100000000E-03 0.  1.
    9900012    2    1    2    0    0  0.60464041559E+01  0.31192796581E+02 -0.26777936252E+01  0.59301950693E+02  0.50000012155E+02 0.  0.
         12    1    1    2    0    0 -0.60464041559E+01 -0.31192796581E+02  0.26777936252E+01  0.31886049307E+02  0.00000000000E+00 0. -1.
         11    1    3    3    0    0 -0.18974190387E+02  0.10807468538E+02 -0.65454115862E+01  0.22796133227E+02  0.51100000000E-03 0. -1.
        -11    1    3    3    0    0  0.11572224025E+01  0.10330825423E+02  0.72335887619E+00  0.10420574165E+02  0.51100000000E-03 0.  1.
        -12    1    3    3    0    0  0.23863372140E+02  0.10054502620E+02  0.31442590848E+01  0.26085243300E+02  0.00000000000E+00 0.  1.
</event>
<event>
 7    1  0.6230310E-012  0.5930207E+02  0.7816164E-02  0.1266604E+00
        -11   -1    0    0    0    0  0.00000000000E+00  0.00000000000E+00  0.45593999997E+02  0.45594000000E+02  0.51100000000E-03 0.  1.
         11   -1    0    0    0    0 -0.00000000000E+00 -0.00000000000E+00 -0.45593999997E+02  0.45594000000E+02  0.51100000000E-03 0. -1.
    9900012    2    1    2    0    0 -0.75165985423E+01  0.15869991471E+02  0.26614975084E+02  0.59302066084E+02  0.50000222601E+02 0.  0.
         12    1    1    2    0    0  0.75165985423E+01 -0.15869991471E+02 -0.26614975084E+02  0.31885933916E+02  0.00000000000E+00 0. -1.
         11    1    3    3    0    0 -0.68392842829E+01 -0.97454093341E+01  0.12428957589E+01  0.11970530595E+02  0.51100000000E-03 0. -1.
        -11    1    3    3    0    0  0.78072815334E+01 -0.42539357015E+01  0.51201843954E+01  0.10259917271E+02  0.51100000000E-03 0.  1.
         12    1    3    3    0    0 -0.84845957928E+01  0.29869336507E+02  0.20251894930E+02  0.37071618219E+02  0.00000000000E+00 0. -1.
</event>
<event>
 7    1  0.6230310E-012  0.5930198E+02  0.7816164E-02  0.1266605E+00
        -11   -1    0    0    0    0  0.00000000000E+00  0.00000000000E+00  0.45593999997E+02  0.45594000000E+02  0.51100000000E-03 0. -1.
         11   -1    0    0    0    0 -0.00000000000E+00 -0.00000000000E+00 -0.45593999997E+02  0.45594000000E+02  0.51100000000E-03 0.  1.
    9900012    2    1    2    0    0  0.18447582339E+02  0.25938724223E+02 -0.18940269822E+01  0.59301983525E+02  0.50000072033E+02 0.  0.
         12    1    1    2    0    0 -0.18447582339E+02 -0.25938724223E+02  0.18940269822E+01  0.31886016475E+02  0.00000000000E+00 0. -1.
         11    1    3    3    0    0  0.10446169040E+01 -0.68988835316E+01  0.15192389515E+02  0.16718089541E+02  0.51100000000E-03 0. -1.
        -11    1    3    3    0    0  0.14768593194E+01  0.94441393833E+01 -0.64681177743E-01  0.95591352149E+01  0.51100000000E-03 0.  1.
        -12    1    3    3    0    0  0.15926106116E+02  0.23393468371E+02 -0.17021735320E+02  0.33024758769E+02  0.00000000000E+00 0.  1.
</event>
<event>
 7    1  0.6230310E-012  0.5930196E+02  0.7816164E-02  0.1266605E+00
        -11   -1    0    0    0    0  0.00000000000E+00  0.00000000000E+00  0.45593999997E+02  0.45594000000E+02  0.51100000000E-03 0.  1.
         11   -1    0    0    0    0 -0.00000000000E+00 -0.00000000000E+00 -0.45593999997E+02  0.45594000000E+02  0.51100000000E-03 0. -1.
    9900012    2    1    2    0    0  0.67025151466E+01 -0.10174472644E+02  0.29466527560E+02  0.59301955258E+02  0.50000020481E+02 0.  0.
         12    1    1    2    0    0 -0.67025151466E+01  0.10174472644E+02 -0.29466527560E+02  0.31886044742E+02  0.00000000000E+00 0. -1.
         11    1    3    3    0    0  0.65254008816E+01 -0.10124993963E+02  0.33880712820E+01  0.12513008698E+02  0.51100000000E-03 0. -1.
        -11    1    3    3    0    0  0.73257618560E+01 -0.18039656223E+02  0.12353901189E+02  0.23058943130E+02  0.51100000000E-03 0.  1.
        -12    1    3    3    0    0 -0.71486475911E+01  0.17990177542E+02  0.13724555089E+02  0.23730003429E+02  0.00000000000E+00 0.  1.
</event>
<event>
 7    1  0.6230310E-012  0.5930195E+02  0.7816164E-02  0.1266605E+00
        -11   -1    0    0    0    0  0.00000000000E+00  0.00000000000E+00  0.45593999997E+02  0.45594000000E+02  0.51100000000E-03 0. -1.
         11   -1    0    0    0    0 -0.00000000000E+00 -0.00000000000E+00 -0.45593999997E+02  0.45594000000E+02  0.51100000000E-03 0.  1.
    9900012    2    1    2    0    0 -0.10467439678E+02  0.29573836942E+02 -0.57044589494E+01  0.59301953259E+02  0.50000016835E+02 0.  0.
         12    1    1    2    0    0  0.10467439678E+02 -0.29573836942E+02  0.57044589494E+01  0.31886046741E+02  0.00000000000E+00 0. -1.
         11    1    3    3    0    0  0.19839466090E+01  0.24803822346E+02  0.27969749219E+01  0.25039742732E+02  0.51100000000E-03 0. -1.
        -11    1    3    3    0    0  0.51736586114E+01  0.80829782375E+01 -0.12626996282E+02  0.15860085623E+02  0.51100000000E-03 0.  1.
         12    1    3    3    0    0 -0.17625044899E+02 -0.33129636411E+01  0.41255624106E+01  0.18402124904E+02  0.00000000000E+00 0. -1.
</event>
<event>
 7    1  0.6230310E-012  0.5930193E+02  0.7816164E-02  0.1266605E+00
        -11   -1    0    0    0    0  0.00000000000E+00  0.00000000000E+00  0.45593999997E+02  0.45594000000E+02  0.51100000000E-03 0.  1.
         11   -1    0    0    0    0 -0.00000000000E+00 -0.00000000000E+00 -0.45593999997E+02  0.45594000000E+02  0.51100000000E-03 0. -1.
    9900012    2    1    2    0    0 -0.81148575545E+01  0.23771496802E+02  0.19641446931E+02  0.59301930771E+02  0.49999975822E+02 0.  0.
         12    1    1    2    0    0  0.81148575545E+01 -0.23771496802E+02 -0.19641446931E+02  0.31886069229E+02  0.00000000000E+00 0. -1.
         11    1    3    3    0    0  0.18692283720E+02  0.94821087969E+01 -0.49710449726E+00  0.20965661713E+02  0.51100000000E-03 0. -1.
        -11    1    3    3    0    0 -0.83264735631E+01  0.10590092238E+02  0.10991610337E+02  0.17386653320E+02  0.51100000000E-03 0.  1.
        -12    1    3    3    0    0 -0.18480667712E+02  0.36992957668E+01  0.91469410916E+01  0.20949615738E+02  0.00000000000E+00 0.  1.
</event>
<event>
 7    1  0.6230310E-012  0.5930191E+02  0.7816164E-02  0.1266605E+00
        -11   -1    0    0    0    0  0.00000000000E+00  0.00000000000E+00  0.45593999997E+02  0.45594000000E+02  0.51100000000E-03 0. -1.
         11   -1    0    0    0    0 -0.00000000000E+00 -0.00000000000E+00 -0.45593999997E+02  0.45594000000E+02  0.51100000000E-03 0.  1.
    9900012    2    1    2    0    0 -0.72292027706E+01 -0.30302260586E+02 -0.67995856459E+01  0.59301910019E+02  0.49999937976E+02 0.  0.
         12    1    1    2    0    0  0.72292027706E+01  0.30302260586E+02  0.67995856459E+01  0.31886089981E+02  0.00000000000E+00 0. -1.
         11    1    3    3    0    0 -0.24083260764E+01 -0.34830304722E+00  0.25759163120E+00  0.24469783841E+01  0.51100000000E-03 0. -1.
        -11    1    3    3    0    0 -0.10746142391E+02 -0.41669816632E+02 -0.31098310912E+01  0.43145384969E+02  0.51100000000E-03 0.  1.
         12    1    3    3    0    0  0.59252656964E+01  0.11715859093E+02 -0.39473461859E+01  0.13709546666E+02  0.00000000000E+00 0. -1.
</event>
<event>
 7    1  0.6230310E-012  0.5930194E+02  0.7816164E-02  0.1266605E+00
        -11   -1    0    0    0    0  0.00000000000E+00  0.00000000000E+00  0.45593999997E+02  0.45594000000E+02  0.51100000000E-03 0. -1.
         11   -1    0    0    0    0 -0.00000000000E+00 -0.00000000000E+00 -0.45593999997E+02  0.45594000000E+02  0.51100000000E-03 0.  1.
    9900012    2    1    2    0    0  0.52154879013E+01 -0.42348698926E+01 -0.31170267589E+02  0.59301936922E+02  0.49999987041E+02 0.  0.
         12    1    1    2    0    0 -0.52154879013E+01  0.42348698926E+01  0.31170267589E+02  0.31886063078E+02  0.00000000000E+00 0. -1.
         11    1    3    3    0    0 -0.33036471010E+01  0.33006649288E+01 -0.24383227713E+01  0.52681962130E+01  0.51100000000E-03 0. -1.
        -11    1    3    3    0    0  0.21979574635E+02  0.35090479670E+00 -0.74810989479E+00  0.21995101819E+02  0.51100000000E-03 0.  1.
         12    1    3    3    0    0 -0.13460439633E+02 -0.78864396182E+01 -0.27983834923E+02  0.32038638890E+02  0.00000000000E+00 0. -1.
</event>
<event>
 7    1  0.6230310E-012  0.5930193E+02  0.7816164E-02  0.1266605E+00
        -11   -1    0    0    0    0  0.00000000000E+00  0.00000000000E+00  0.45593999997E+02  0.45594000000E+02  0.51100000000E-03 0.  1.
         11   -1    0    0    0    0 -0.00000000000E+00 -0.00000000000E+00 -0.45593999997E+02  0.45594000000E+02  0.51100000000E-03 0. -1.
    9900012    2    1    2    0    0 -0.20817704127E+02  0.81261937148E+00  0.24138854036E+02  0.59301930479E+02  0.49999975290E+02 0.  0.
         12    1    1    2    0    0  0.20817704127E+02 -0.81261937148E+00 -0.24138854036E+02  0.31886069521E+02  0.00000000000E+00 0. -1.
         11    1    3    3    0    0 -0.80043010884E+01 -0.40463227874E+01  0.22491768164E+02  0.24214070278E+02  0.51100000000E-03 0. -1.
        -11    1    3    3    0    0  0.87591939808E+01  0.79307942319E+01  0.53747586456E+01  0.12981101922E+02  0.51100000000E-03 0.  1.
         12    1    3    3    0    0 -0.21572597019E+02 -0.30718520730E+01 -0.37276727733E+01  0.22106758279E+02  0.00000000000E+00 0. -1.
</event>
<event>
 7    1  0.6230310E-012  0.5930204E+02  0.7816164E-02  0.1266604E+00
        -11   -1    0    0    0    0  0.00000000000E+00  0.00000000000E+00  0.45593999997E+02  0.45594000000E+02  0.51100000000E-03 0. -1.
         11   -1    0    0    0    0 -0.00000000000E+00 -0.00000000000E+00 -0.45593999997E+02  0.45594000000E+02  0.51100000000E-03 0.  1.
    9900012    2    1    2    0    0  0.25554797695E+02 -0.18915297580E+02 -0.24245801479E+01  0.59302035115E+02  0.50000166121E+02 0.  0.
         12    1    1    2    0    0 -0.25554797695E+02  0.18915297580E+02  0.24245801479E+01  0.31885964885E+02  0.00000000000E+00 0. -1.
         11    1    3    3    0    0  0.13494697330E+01  0.84584080273E+00  0.35827317351E+01  0.39207757103E+01  0.51100000000E-03 0. -1.
        -11    1    3    3    0    0  0.20209556260E+02  0.11565074538E+02 -0.48235343294E+01  0.23779057950E+02  0.51100000000E-03 0.  1.
        -12    1    3    3    0    0  0.39957717015E+01 -0.31326212921E+02 -0.11837775536E+01  0.31602201455E+02  0.00000000000E+00 0.  1.
</event>
<event>
 7    1  0.6230310E-012  0.5930195E+02  0.7816164E-02  0.1266605E+00
        -11   -1    0    0    0    0  0.00000000000E+00  0.00000000000E+00  0.45593999997E+02  0.45594000000E+02  0.51100000000E-03 0. -1.
         11   -1    0    0    0    0 -0.00000000000E+00 -0.00000000000E+00 -0.45593999997E+02  0.45594000000E+02  0.51100000000E-03 0.  1.
    9900012    2    1    2    0    0  0.26838176419E+02  0.17127193467E+02 -0.17582615381E+01  0.59301953629E+02  0.50000017510E+02 0.  0.
         12    1    1    2    0    0 -0.26838176419E+02 -0.17127193467E+02  0.17582615381E+01  0.31886046371E+02  0.00000000000E+00 0. -1.
         11    1    3    3    0    0  0.85665292053E+01  0.10794774060E+02 -0.35121030495E+00  0.13785351594E+02  0.51100000000E-03 0. -1.
        -11    1    3    3    0    0  0.29551604977E+02  0.88194659373E+00  0.70598150054E+01  0.30395989450E+02  0.51100000000E-03 0.  1.
        -12    1    3    3    0    0 -0.11279957763E+02  0.54504728136E+01 -0.84668662386E+01  0.15120612584E+02  0.00000000000E+00 0.  1.
</event>
<event>
 7    1  0.6230310E-012  0.5930196E+02  0.7816164E-02  0.1266605E+00
        -11   -1    0    0    0    0  0.00000000000E+00  0.00000000000E+00  0.45593999997E+02  0.45594000000E+02  0.51100000000E-03 0. -1.
         11   -1    0    0    0    0 -0.00000000000E+00 -0.00000000000E+00 -0.45593999997E+02  0.45594000000E+02  0.51100000000E-03 0.  1.
    9900012    2    1    2    0    0  0.14667231587E+02 -0.27850539901E+02 -0.50930747391E+01  0.59301958140E+02  0.50000025737E+02 0.  0.
         12    1    1    2    0    0 -0.14667231587E+02  0.27850539901E+02  0.50930747391E+01  0.31886041860E+02  0.00000000000E+00 0. -1.
         11    1    3    3    0    0 -0.36980448541E+01  0.47301959338E+01  0.31824953789E+01  0.67954813231E+01  0.51100000000E-03 0. -1.
        -11    1    3    3    0    0  0.19364151188E+02 -0.17998526959E+01  0.30651683619E+01  0.19687688496E+02  0.51100000000E-03 0.  1.
        -12    1    3    3    0    0 -0.99887474643E+00 -0.30780883139E+02 -0.11340738480E+02  0.32818788321E+02  0.00000000000E+00 0.  1.
</event>
<event>
 7    1  0.6230310E-012  0.5930193E+02  0.7816164E-02  0.1266605E+00
        -11   -1    0    0    0    0  0.00000000000E+00  0.00000000000E+00  0.45593999997E+02  0.45594000000E+02  0.51100000000E-03 0.  1.
         11   -1    0    0    0    0 -0.00000000000E+00 -0.00000000000E+00 -0.45593999997E+02  0.45594000000E+02  0.51100000000E-03 0. -1.
    9900012    2    1    2    0    0 -0.99587385905E+01  0.14524678417E+02  0.26581550245E+02  0.59301928262E+02  0.49999971247E+02 0.  0.
         12    1    1    2    0    0  0.99587385905E+01 -0.14524678417E+02 -0.26581550245E+02  0.31886071738E+02  0.00000000000E+00 0. -1.
         11    1    3    3    0    0 -0.11819510330E+02  0.97177532514E+01 -0.10234950495E+02  0.18408958813E+02  0.51100000000E-03 0.  1.
        -11    1    3    3    0    0  0.63145493496E+01  0.11344680900E+01  0.39734000402E+01  0.75464203087E+01  0.51100000000E-03 0. -1.
        -12    1    3    3    0    0 -0.44537776095E+01  0.36724570756E+01  0.32843100700E+02  0.33346549140E+02  0.00000000000E+00 0.  1.
</event>
<event>
 7    1  0.6230310E-012  0.5930192E+02  0.7816164E-02  0.1266605E+00
        -11   -1    0    0    0    0  0.00000000000E+00  0.00000000000E+00  0.45593999997E+02  0.45594000000E+02  0.51100000000E-03 0.  1.
         11   -1    0    0    0    0 -0.00000000000E+00 -0.00000000000E+00 -0.45593999997E+02  0.45594000000E+02  0.51100000000E-03 0. -1.
    9900012    2    1    2    0    0 -0.16360091480E+01  0.57109623990E+01  0.31327787043E+02  0.59301923753E+02  0.49999963023E+02 0.  0.
         12    1    1    2    0    0  0.16360091480E+01 -0.57109623990E+01 -0.31327787043E+02  0.31886076247E+02  0.00000000000E+00 0. -1.
         11    1    3    3    0    0  0.89510717427E+00  0.12575635625E+02  0.17705977619E+02  0.21735902832E+02  0.51100000000E-03 0. -1.
        -11    1    3    3    0    0 -0.10325684452E+02 -0.82180630576E+01  0.22244153637E+02  0.25864235753E+02  0.51100000000E-03 0.  1.
         12    1    3    3    0    0  0.77945681300E+01  0.13533898311E+01 -0.86223442128E+01  0.11701785167E+02  0.00000000000E+00 0. -1.
</event>
<event>
 7    1  0.6230310E-012  0.5930194E+02  0.7816164E-02  0.1266605E+00
        -11   -1    0    0    0    0  0.00000000000E+00  0.00000000000E+00  0.45593999997E+02  0.45594000000E+02  0.51100000000E-03 0. -1.
         11   -1    0    0    0    0 -0.00000000000E+00 -0.00000000000E+00 -0.45593999997E+02  0.45594000000E+02  0.51100000000E-03 0.  1.
    9900012    2    1    2    0    0 -0.15272357438E+02  0.16863517116E+02 -0.22340492015E+02  0.59301942001E+02  0.49999996304E+02 0.  0.
         12    1    1    2    0    0  0.15272357438E+02 -0.16863517116E+02  0.22340492015E+02  0.31886057999E+02  0.00000000000E+00 0. -1.
         11    1    3    3    0    0  0.33284282657E+01  0.12171063941E+02 -0.15645124649E+02  0.20099332271E+02  0.51100000000E-03 0. -1.
        -11    1    3    3    0    0 -0.53084088951E+01  0.24517456498E+01 -0.19653235152E+02  0.20504631524E+02  0.51100000000E-03 0.  1.
        -12    1    3    3    0    0 -0.13292376809E+02  0.22407075247E+01  0.12957867786E+02  0.18697978206E+02  0.00000000000E+00 0.  1.
</event>
<event>
 7    1  0.6230310E-012  0.5930202E+02  0.7816164E-02  0.1266604E+00
        -11   -1    0    0    0    0  0.00000000000E+00  0.00000000000E+00  0.45593999997E+02  0.45594000000E+02  0.51100000000E-03 0. -1.
         11   -1    0    0    0    0 -0.00000000000E+00 -0.00000000000E+00 -0.45593999997E+02  0.45594000000E+02  0.51100000000E-03 0.  1.
    9900012    2    1    2    0    0 -0.76475781075E+01 -0.26263042496E+02 -0.16385443775E+02  0.59302021581E+02  0.50000141438E+02 0.  0.
         12    1    1    2    0    0  0.76475781075E+01  0.26263042496E+02  0.16385443775E+02  0.31885978419E+02  0.00000000000E+00 0. -1.
         11    1    3    3    0    0 -0.73776894693E+01  0.94910335239E+01 -0.64324347774E+00  0.12038429370E+02  0.51100000000E-03 0. -1.
        -11    1    3    3    0    0  0.86683312813E+01 -0.11622721884E+02 -0.15915130490E+02  0.21529491633E+02  0.51100000000E-03 0.  1.
         12    1    3    3    0    0 -0.89382199195E+01 -0.24131354135E+02  0.17293019234E+00  0.25734100578E+02  0.00000000000E+00 0. -1.
</event>
<event>
 7    1  0.6230310E-012  0.5930196E+02  0.7816164E-02  0.1266605E+00
        -11   -1    0    0    0    0  0.00000000000E+00  0.00000000000E+00  0.45593999997E+02  0.45594000000E+02  0.51100000000E-03 0. -1.
         11   -1    0    0    0    0 -0.00000000000E+00 -0.00000000000E+00 -0.45593999997E+02  0.45594000000E+02  0.51100000000E-03 0.  1.
    9900012    2    1    2    0    0 -0.18188546247E+02  0.24623096942E+02  0.89218593201E+01  0.59301957735E+02  0.50000024998E+02 0.  0.
         12    1    1    2    0    0  0.18188546247E+02 -0.24623096942E+02 -0.89218593201E+01  0.31886042265E+02  0.00000000000E+00 0. -1.
         11    1    3    3    0    0 -0.34945587404E+01  0.22634889222E+01  0.15210233563E+02  0.15769797975E+02  0.51100000000E-03 0.  1.
        -11    1    3    3    0    0 -0.17097339157E+02  0.94091927940E+01  0.10525902664E+02  0.22173104032E+02  0.51100000000E-03 0. -1.
        -12    1    3    3    0    0  0.24033516501E+01  0.12950415226E+02 -0.16814276906E+02  0.21359055727E+02  0.00000000000E+00 0.  1.
</event>
<event>
 7    1  0.6230310E-012  0.5930197E+02  0.7816164E-02  0.1266605E+00
        -11   -1    0    0    0    0  0.00000000000E+00  0.00000000000E+00  0.45593999997E+02  0.45594000000E+02  0.51100000000E-03 0.  1.
         11   -1    0    0    0    0 -0.00000000000E+00 -0.00000000000E+00 -0.45593999997E+02  0.45594000000E+02  0.51100000000E-03 0. -1.
    9900012    2    1    2    0    0 -0.31014268120E+02  0.54776124659E+01  0.49829635738E+01  0.59301968711E+02  0.50000045017E+02 0.  0.
         12    1    1    2    0    0  0.31014268120E+02 -0.54776124659E+01 -0.49829635738E+01  0.31886031289E+02  0.00000000000E+00 0. -1.
         11    1    3    3    0    0 -0.23919545136E+02  0.10898186972E+02 -0.12778351148E+02  0.29226723681E+02  0.51100000000E-03 0. -1.
        -11    1    3    3    0    0 -0.27630497308E+00  0.23680787862E+01 -0.47406860154E+01  0.53064343710E+01  0.51100000000E-03 0.  1.
        -12    1    3    3    0    0 -0.68184180109E+01 -0.77886532922E+01  0.22502000738E+02  0.24768810659E+02  0.00000000000E+00 0.  1.
</event>
<event>
 7    1  0.6230310E-012  0.5930194E+02  0.7816164E-02  0.1266605E+00
        -11   -1    0    0    0    0  0.00000000000E+00  0.00000000000E+00  0.45593999997E+02  0.45594000000E+02  0.51100000000E-03 0. -1.
         11   -1    0    0    0    0 -0.00000000000E+00 -0.00000000000E+00 -0.45593999997E+02  0.45594000000E+02  0.51100000000E-03 0.  1.
    9900012    2    1    2    0    0  0.17942141657E+01  0.28331953037E+02 -0.14519018800E+02  0.59301942321E+02  0.49999996888E+02 0.  0.
         12    1    1    2    0    0 -0.17942141657E+01 -0.28331953037E+02  0.14519018800E+02  0.31886057679E+02  0.00000000000E+00 0. -1.
         11    1    3    3    0    0  0.88956867043E+01  0.13375039503E+02 -0.23212885373E+02  0.28228761419E+02  0.51100000000E-03 0. -1.
        -11    1    3    3    0    0 -0.55390045265E+01  0.76870176883E+01 -0.82540047497E+01  0.12565803068E+02  0.51100000000E-03 0.  1.
         12    1    3    3    0    0 -0.15624680121E+01  0.72698958457E+01  0.16947871323E+02  0.18507377833E+02  0.00000000000E+00 0. -1.
</event>
<event>
 7    1  0.6230310E-012  0.5930176E+02  0.7816164E-02  0.1266605E+00
        -11   -1    0    0    0    0  0.00000000000E+00  0.00000000000E+00  0.45593999997E+02  0.45594000000E+02  0.51100000000E-03 0. -1.
         11   -1    0    0    0    0 -0.00000000000E+00 -0.00000000000E+00 -0.45593999997E+02  0.45594000000E+02  0.51100000000E-03 0.  1.
    9900012    2    1    2    0    0 -0.68315726651E+01  0.31135597269E+02 -0.79765742162E+00  0.59301763788E+02  0.49999671285E+02 0.  0.
         12    1    1    2    0    0  0.68315726651E+01 -0.31135597269E+02  0.79765742162E+00  0.31886236212E+02  0.00000000000E+00 0. -1.
         11    1    3    3    0    0 -0.15459722301E+01 -0.24760523503E+01  0.14169675416E+01  0.32447900784E+01  0.51100000000E-03 0. -1.
        -11    1    3    3    0    0 -0.22420173780E+02  0.31286324008E+02  0.83080295286E+00  0.38499201240E+02  0.51100000000E-03 0.  1.
         12    1    3    3    0    0  0.17134573345E+02  0.23253256117E+01 -0.30454279160E+01  0.17557772470E+02  0.00000000000E+00 0. -1.
</event>
<event>
 7    1  0.6230310E-012  0.5930194E+02  0.7816164E-02  0.1266605E+00
        -11   -1    0    0    0    0  0.00000000000E+00  0.00000000000E+00  0.45593999997E+02  0.45594000000E+02  0.51100000000E-03 0. -1.
         11   -1    0    0    0    0 -0.00000000000E+00 -0.00000000000E+00 -0.45593999997E+02  0.45594000000E+02  0.51100000000E-03 0.  1.
    9900012    2    1    2    0    0 -0.10324580669E+02 -0.24896275424E+02 -0.17038170454E+02  0.59301941159E+02  0.49999994768E+02 0.  0.
         12    1    1    2    0    0  0.10324580669E+02  0.24896275424E+02  0.17038170454E+02  0.31886058841E+02  0.00000000000E+00 0. -1.
         11    1    3    3    0    0  0.54218401039E+01 -0.11115715025E+00 -0.14873289034E+02  0.15831090707E+02  0.51100000000E-03 0. -1.
        -11    1    3    3    0    0 -0.28840526030E+01 -0.27789546701E+02 -0.79544916337E+01  0.29049106745E+02  0.51100000000E-03 0.  1.
        -12    1    3    3    0    0 -0.12862368170E+02  0.30044284277E+01  0.57896102136E+01  0.14421743707E+02  0.00000000000E+00 0.  1.
</event>
<event>
 7    1  0.6230310E-012  0.5930196E+02  0.7816164E-02  0.1266605E+00
        -11   -1    0    0    0    0  0.00000000000E+00  0.00000000000E+00  0.45593999997E+02  0.45594000000E+02  0.51100000000E-03 0.  1.
         11   -1    0    0    0    0 -0.00000000000E+00 -0.00000000000E+00 -0.45593999997E+02  0.45594000000E+02  0.51100000000E-03 0. -1.
    9900012    2    1    2    0    0  0.91442223227E+01  0.28801891553E+02  0.10176147602E+02  0.59301956989E+02  0.50000023638E+02 0.  0.
         12    1    1    2    0    0 -0.91442223227E+01 -0.28801891553E+02 -0.10176147602E+02  0.31886043011E+02  0.00000000000E+00 0. -1.
         11    1    3    3    0    0 -0.11747370449E+02  0.10054784439E+02 -0.97068902022E+01  0.18257138884E+02  0.51100000000E-03 0. -1.
        -11    1    3    3    0    0  0.21119758907E+01  0.67945043882E+01  0.17211708071E+02  0.18624409441E+02  0.51100000000E-03 0.  1.
         12    1    3    3    0    0  0.18779616881E+02  0.11952602725E+02  0.26713297325E+01  0.22420408663E+02  0.00000000000E+00 0. -1.
</event>
<event>
 7    1  0.6230310E-012  0.5930195E+02  0.7816164E-02  0.1266605E+00
        -11   -1    0    0    0    0  0.00000000000E+00  0.00000000000E+00  0.45593999997E+02  0.45594000000E+02  0.51100000000E-03 0. -1.
         11   -1    0    0    0    0 -0.00000000000E+00 -0.00000000000E+00 -0.45593999997E+02  0.45594000000E+02  0.51100000000E-03 0.  1.
    9900012    2    1    2    0    0 -0.24992187360E+02 -0.19292928066E+02 -0.44602514166E+01  0.59301947483E+02  0.50000006302E+02 0.  0.
         12    1    1    2    0    0  0.24992187360E+02  0.19292928066E+02  0.44602514166E+01  0.31886052517E+02  0.00000000000E+00 0. -1.
         11    1    3    3    0    0 -0.11748687600E+02 -0.11555202355E+00  0.28062907279E+01  0.12079746707E+02  0.51100000000E-03 0. -1.
        -11    1    3    3    0    0 -0.15544536304E+02  0.89809100297E+01  0.36977733700E+00  0.17956227037E+02  0.51100000000E-03 0.  1.
         12    1    3    3    0    0  0.23010365439E+01 -0.28158286072E+02 -0.76363194814E+01  0.29265973740E+02  0.00000000000E+00 0. -1.
</event>
<event>
 7    1  0.6230310E-012  0.5930207E+02  0.7816164E-02  0.1266604E+00
        -11   -1    0    0    0    0  0.00000000000E+00  0.00000000000E+00  0.45593999997E+02  0.45594000000E+02  0.51100000000E-03 0. -1.
         11   -1    0    0    0    0 -0.00000000000E+00 -0.00000000000E+00 -0.45593999997E+02  0.45594000000E+02  0.51100000000E-03 0.  1.
    9900012    2    1    2    0    0 -0.84756271008E+01  0.29035414581E+02 -0.10090638426E+02  0.59302069897E+02  0.50000229556E+02 0.  0.
         12    1    1    2    0    0  0.84756271008E+01 -0.29035414581E+02  0.10090638426E+02  0.31885930103E+02  0.00000000000E+00 0. -1.
         11    1    3    3    0    0 -0.13379360013E+02  0.26587309075E+02  0.32018417198E+01  0.29935665499E+02  0.51100000000E-03 0. -1.
        -11    1    3    3    0    0 -0.10115526931E+02  0.87198890693E+00 -0.16242974960E+01  0.10282149210E+02  0.51100000000E-03 0.  1.
         12    1    3    3    0    0  0.15019259843E+02  0.15761165995E+01 -0.11668182650E+02  0.19084255189E+02  0.00000000000E+00 0. -1.
</event>
<event>
 7    1  0.6230310E-012  0.5930201E+02  0.7816164E-02  0.1266605E+00
        -11   -1    0    0    0    0  0.00000000000E+00  0.00000000000E+00  0.45593999997E+02  0.45594000000E+02  0.51100000000E-03 0.  1.
         11   -1    0    0    0    0 -0.00000000000E+00 -0.00000000000E+00 -0.45593999997E+02  0.45594000000E+02  0.51100000000E-03 0. -1.
    9900012    2    1    2    0    0  0.18345508826E+00 -0.22425388843E+02  0.22666811344E+02  0.59302014724E+02  0.50000128933E+02 0.  0.
         12    1    1    2    0    0 -0.18345508826E+00  0.22425388843E+02 -0.22666811344E+02  0.31885985276E+02  0.00000000000E+00 0. -1.
         11    1    3    3    0    0  0.13450418628E+02 -0.69596170847E+01  0.10449480461E+02  0.18399501988E+02  0.51100000000E-03 0. -1.
        -11    1    3    3    0    0  0.67451100344E+00  0.79139083080E+01  0.11112633797E+02  0.13659265718E+02  0.51100000000E-03 0.  1.
         12    1    3    3    0    0 -0.13941474544E+02 -0.23379680066E+02  0.11046970865E+01  0.27243247018E+02  0.00000000000E+00 0. -1.
</event>
<event>
 7    1  0.6230310E-012  0.5930195E+02  0.7816164E-02  0.1266605E+00
        -11   -1    0    0    0    0  0.00000000000E+00  0.00000000000E+00  0.45593999997E+02  0.45594000000E+02  0.51100000000E-03 0.  1.
         11   -1    0    0    0    0 -0.00000000000E+00 -0.00000000000E+00 -0.45593999997E+02  0.45594000000E+02  0.51100000000E-03 0. -1.
    9900012    2    1    2    0    0 -0.27490544499E+01  0.10060555448E+02  0.30132172802E+02  0.59301954242E+02  0.50000018629E+02 0.  0.
         12    1    1    2    0    0  0.27490544499E+01 -0.10060555448E+02 -0.30132172802E+02  0.31886045758E+02  0.00000000000E+00 0. -1.
         11    1    3    3    0    0 -0.53599980959E+01  0.15855350383E+02 -0.48118433039E+01  0.17414808400E+02  0.51100000000E-03 0. -1.
        -11    1    3    3    0    0 -0.18422304444E+01 -0.17121780625E+01 -0.27415437743E+01  0.37204071357E+01  0.51100000000E-03 0.  1.
        -12    1    3    3    0    0  0.44531740905E+01 -0.40826168731E+01  0.37685559880E+02  0.38166738707E+02  0.00000000000E+00 0.  1.
</event>
<event>
 7    1  0.6230310E-012  0.5930195E+02  0.7816164E-02  0.1266605E+00
        -11   -1    0    0    0    0  0.00000000000E+00  0.00000000000E+00  0.45593999997E+02  0.45594000000E+02  0.51100000000E-03 0. -1.
         11   -1    0    0    0    0 -0.00000000000E+00 -0.00000000000E+00 -0.45593999997E+02  0.45594000000E+02  0.51100000000E-03 0.  1.
    9900012    2    1    2    0    0  0.18612927588E+02  0.22594489585E+02  0.12639931409E+02  0.59301954478E+02  0.50000019059E+02 0.  0.
         12    1    1    2    0    0 -0.18612927588E+02 -0.22594489585E+02 -0.12639931409E+02  0.31886045522E+02  0.00000000000E+00 0. -1.
         11    1    3    3    0    0  0.54404168974E+01  0.71671597483E+01 -0.16425428936E+01  0.91468170581E+01  0.51100000000E-03 0. -1.
        -11    1    3    3    0    0  0.28428876327E+02  0.49934325439E+01  0.12914597354E+02  0.31621546497E+02  0.51100000000E-03 0.  1.
         12    1    3    3    0    0 -0.15256365637E+02  0.10433897293E+02  0.13678769481E+01  0.18533590923E+02  0.00000000000E+00 0. -1.
</event>
<event>
 7    1  0.6230310E-012  0.5930195E+02  0.7816164E-02  0.1266605E+00
        -11   -1    0    0    0    0  0.00000000000E+00  0.00000000000E+00  0.45593999997E+02  0.45594000000E+02  0.51100000000E-03 0. -1.
         11   -1    0    0    0    0 -0.00000000000E+00 -0.00000000000E+00 -0.45593999997E+02  0.45594000000E+02  0.51100000000E-03 0.  1.
    9900012    2    1    2    0    0 -0.30535103528E+02 -0.78019275307E+01  0.48432814495E+01  0.59301952960E+02  0.50000016290E+02 0.  0.
         12    1    1    2    0    0  0.30535103528E+02  0.78019275307E+01 -0.48432814495E+01  0.31886047040E+02  0.00000000000E+00 0. -1.
         11    1    3    3    0    0 -0.13472471751E+02 -0.41219947476E+00  0.14300828323E+02  0.19651745329E+02  0.51100000000E-03 0. -1.
        -11    1    3    3    0    0 -0.74762775381E+01 -0.10903076684E+02  0.10730715616E+02  0.17027039229E+02  0.51100000000E-03 0.  1.
        -12    1    3    3    0    0 -0.95863542383E+01  0.35133486285E+01 -0.20188262490E+02  0.22623168402E+02  0.00000000000E+00 0.  1.
</event>
<event>
 7    1  0.6230310E-012  0.5930195E+02  0.7816164E-02  0.1266605E+00
        -11   -1    0    0    0    0  0.00000000000E+00  0.00000000000E+00  0.45593999997E+02  0.45594000000E+02  0.51100000000E-03 0.  1.
         11   -1    0    0    0    0 -0.00000000000E+00 -0.00000000000E+00 -0.45593999997E+02  0.45594000000E+02  0.51100000000E-03 0. -1.
    9900012    2    1    2    0    0  0.17638168605E+02 -0.12018522881E+02  0.23689036169E+02  0.59301947899E+02  0.50000007060E+02 0.  0.
         12    1    1    2    0    0 -0.17638168605E+02  0.12018522881E+02 -0.23689036169E+02  0.31886052101E+02  0.00000000000E+00 0. -1.
         11    1    3    3    0    0  0.42547241980E+01  0.11358328584E+02  0.19674455350E+01  0.12287601410E+02  0.51100000000E-03 0. -1.
        -11    1    3    3    0    0  0.43703864823E+01  0.15186478216E+00  0.21373211393E+02  0.21815991988E+02  0.51100000000E-03 0.  1.
         12    1    3    3    0    0  0.90130579246E+01 -0.23528716248E+02  0.34837924058E+00  0.25198354500E+02  0.00000000000E+00 0. -1.
</event>
<event>
 7    1  0.6230310E-012  0.5930206E+02  0.7816164E-02  0.1266604E+00
        -11   -1    0    0    0    0  0.00000000000E+00  0.00000000000E+00  0.45593999997E+02  0.45594000000E+02  0.51100000000E-03 0. -1.
         11   -1    0    0    0    0 -0.00000000000E+00 -0.00000000000E+00 -0.45593999997E+02  0.45594000000E+02  0.51100000000E-03 0.  1.
    9900012    2    1    2    0    0 -0.13589510359E+02  0.28756941311E+02 -0.22532055220E+01  0.59302056381E+02  0.50000204904E+02 0.  0.
         12    1    1    2    0    0  0.13589510359E+02 -0.28756941311E+02  0.22532055220E+01  0.31885943619E+02  0.00000000000E+00 0. -1.
         11    1    3    3    0    0  0.36015132461E+01  0.18848627184E+02 -0.45936312063E+01  0.19731778741E+02  0.51100000000E-03 0. -1.
        -11    1    3    3    0    0 -0.12103866442E+01 -0.93729391280E+01 -0.80915239611E+01  0.12441454256E+02  0.51100000000E-03 0.  1.
         12    1    3    3    0    0 -0.15980636961E+02  0.19281253256E+02  0.10431949645E+02  0.27128823384E+02  0.00000000000E+00 0. -1.
</event>
<event>
 7    1  0.6230310E-012  0.5930194E+02  0.7816164E-02  0.1266605E+00
        -11   -1    0    0    0    0  0.00000000000E+00  0.00000000000E+00  0.45593999997E+02  0.45594000000E+02  0.51100000000E-03 0.  1.
         11   -1    0    0    0    0 -0.00000000000E+00 -0.00000000000E+00 -0.45593999997E+02  0.45594000000E+02  0.51100000000E-03 0. -1.
    9900012    2    1    2    0    0  0.15030696585E+01  0.26995371375E+02 -0.16903000627E+02  0.59301941538E+02  0.49999995459E+02 0.  0.
         12    1    1    2    0    0 -0.15030696585E+01 -0.26995371375E+02  0.16903000627E+02  0.31886058462E+02  0.00000000000E+00 0. -1.
         11    1    3    3    0    0 -0.59586880717E+01  0.45980154340E+01 -0.47403038312E+01  0.88948406473E+01  0.51100000000E-03 0. -1.
        -11    1    3    3    0    0 -0.19213051661E+01  0.18487522575E+02 -0.26782729034E+02  0.32600528819E+02  0.51100000000E-03 0.  1.
        -12    1    3    3    0    0  0.93830628964E+01  0.39098333666E+01  0.14620032239E+02  0.17806572071E+02  0.00000000000E+00 0.  1.
</event>
<event>
 7    1  0.6230310E-012  0.5930194E+02  0.7816164E-02  0.1266605E+00
        -11   -1    0    0    0    0  0.00000000000E+00  0.00000000000E+00  0.45593999997E+02  0.45594000000E+02  0.51100000000E-03 0.  1.
         11   -1    0    0    0    0 -0.00000000000E+00 -0.00000000000E+00 -0.45593999997E+02  0.45594000000E+02  0.51100000000E-03 0. -1.
    9900012    2    1    2    0    0  0.19980802879E+02  0.55645689598E+01  0.24218249222E+02  0.59301944948E+02  0.50000001679E+02 0.  0.
         12    1    1    2    0    0 -0.19980802879E+02 -0.55645689598E+01 -0.24218249222E+02  0.31886055052E+02  0.00000000000E+00 0. -1.
         11    1    3    3    0    0  0.73400440836E+01  0.14666130993E+02  0.22330289505E+02  0.27705838286E+02  0.51100000000E-03 0. -1.
        -11    1    3    3    0    0  0.94237825122E+01  0.85043170942E+01  0.45854957031E+01  0.13496586872E+02  0.51100000000E-03 0.  1.
         12    1    3    3    0    0  0.32169762833E+01 -0.17605879128E+02 -0.26975359862E+01  0.18099519791E+02  0.00000000000E+00 0. -1.
</event>
<event>
 7    1  0.6230310E-012  0.5930199E+02  0.7816164E-02  0.1266605E+00
        -11   -1    0    0    0    0  0.00000000000E+00  0.00000000000E+00  0.45593999997E+02  0.45594000000E+02  0.51100000000E-03 0. -1.
         11   -1    0    0    0    0 -0.00000000000E+00 -0.00000000000E+00 -0.45593999997E+02  0.45594000000E+02  0.51100000000E-03 0.  1.
    9900012    2    1    2    0    0  0.16883678670E+02 -0.47959665868E+01 -0.26620622796E+02  0.59301992740E+02  0.50000088839E+02 0.  0.
         12    1    1    2    0    0 -0.16883678670E+02  0.47959665868E+01  0.26620622796E+02  0.31886007260E+02  0.00000000000E+00 0. -1.
         11    1    3    3    0    0  0.16319903329E+02  0.14542468283E+00 -0.18961739898E+01  0.16430333808E+02  0.51100000000E-03 0. -1.
        -11    1    3    3    0    0  0.17270972384E+02 -0.20266617581E+01 -0.16698834128E+02  0.24109021267E+02  0.51100000000E-03 0.  1.
        -12    1    3    3    0    0 -0.16707197043E+02 -0.29147295116E+01 -0.80256146781E+01  0.18762637664E+02  0.00000000000E+00 0.  1.
</event>
<event>
 7    1  0.6230310E-012  0.5930194E+02  0.7816164E-02  0.1266605E+00
        -11   -1    0    0    0    0  0.00000000000E+00  0.00000000000E+00  0.45593999997E+02  0.45594000000E+02  0.51100000000E-03 0. -1.
         11   -1    0    0    0    0 -0.00000000000E+00 -0.00000000000E+00 -0.45593999997E+02  0.45594000000E+02  0.51100000000E-03 0.  1.
    9900012    2    1    2    0    0  0.23744854068E+02  0.55063843032E+01 -0.20556803620E+02  0.59301944460E+02  0.50000000789E+02 0.  0.
         12    1    1    2    0    0 -0.23744854068E+02 -0.55063843032E+01  0.20556803620E+02  0.31886055540E+02  0.00000000000E+00 0. -1.
         11    1    3    3    0    0  0.17671345883E+02 -0.22807109535E+01 -0.58365464431E+00  0.17827472080E+02  0.51100000000E-03 0. -1.
        -11    1    3    3    0    0  0.20441643823E+02  0.72935187714E+01 -0.95231498823E+01  0.23701194109E+02  0.51100000000E-03 0.  1.
         12    1    3    3    0    0 -0.14368135638E+02  0.49357648530E+00 -0.10449999094E+02  0.17773278271E+02  0.00000000000E+00 0. -1.
</event>
<event>
 7    1  0.6230310E-012  0.5930195E+02  0.7816164E-02  0.1266605E+00
        -11   -1    0    0    0    0  0.00000000000E+00  0.00000000000E+00  0.45593999997E+02  0.45594000000E+02  0.51100000000E-03 0.  1.
         11   -1    0    0    0    0 -0.00000000000E+00 -0.00000000000E+00 -0.45593999997E+02  0.45594000000E+02  0.51100000000E-03 0. -1.
    9900012    2    1    2    0    0  0.17590132491E+02 -0.23899068030E+02  0.11667983969E+02  0.59301951897E+02  0.50000014352E+02 0.  0.
         12    1    1    2    0    0 -0.17590132491E+02  0.23899068030E+02 -0.11667983969E+02  0.31886048103E+02  0.00000000000E+00 0. -1.
         11    1    3    3    0    0 -0.28006772968E+01 -0.79192754587E+01  0.33066534131E+01  0.90273292931E+01  0.51100000000E-03 0. -1.
        -11    1    3    3    0    0  0.33403006720E+01 -0.22988384657E+02 -0.90374786830E+01  0.24925879301E+02  0.51100000000E-03 0.  1.
         12    1    3    3    0    0  0.17050509115E+02  0.70085920862E+01  0.17398809238E+02  0.25348743303E+02  0.00000000000E+00 0. -1.
</event>
<event>
 7    1  0.6230310E-012  0.5930194E+02  0.7816164E-02  0.1266605E+00
        -11   -1    0    0    0    0  0.00000000000E+00  0.00000000000E+00  0.45593999997E+02  0.45594000000E+02  0.51100000000E-03 0.  1.
         11   -1    0    0    0    0 -0.00000000000E+00 -0.00000000000E+00 -0.45593999997E+02  0.45594000000E+02  0.51100000000E-03 0. -1.
    9900012    2    1    2    0    0 -0.31532966959E+02 -0.35827309586E+01  0.30914593185E+01  0.59301935848E+02  0.49999985083E+02 0.  0.
         12    1    1    2    0    0  0.31532966959E+02  0.35827309586E+01 -0.30914593185E+01  0.31886064152E+02  0.00000000000E+00 0. -1.
         11    1    3    3    0    0 -0.64334662453E+01  0.10504948072E+02  0.70256597282E+01  0.14181090113E+02  0.51100000000E-03 0. -1.
        -11    1    3    3    0    0 -0.83709565709E+01 -0.15048978487E+01  0.14773529305E+02  0.17046841345E+02  0.51100000000E-03 0.  1.
         12    1    3    3    0    0 -0.16728544143E+02 -0.12582781182E+02 -0.18707729715E+02  0.28074004390E+02  0.00000000000E+00 0. -1.
</event>
<event>
 7    1  0.6230310E-012  0.5930190E+02  0.7816164E-02  0.1266605E+00
        -11   -1    0    0    0    0  0.00000000000E+00  0.00000000000E+00  0.45593999997E+02  0.45594000000E+02  0.51100000000E-03 0.  1.
         11   -1    0    0    0    0 -0.00000000000E+00 -0.00000000000E+00 -0.45593999997E+02  0.45594000000E+02  0.51100000000E-03 0. -1.
    9900012    2    1    2    0    0  0.20606728725E+02  0.14422626978E+02  0.19597797008E+02  0.59301904515E+02  0.49999927939E+02 0.  0.
         12    1    1    2    0    0 -0.20606728725E+02 -0.14422626978E+02 -0.19597797008E+02  0.31886095485E+02  0.00000000000E+00 0. -1.
         11    1    3    3    0    0 -0.33777547864E+01 -0.12732598940E+02 -0.95226208569E+00  0.13207388331E+02  0.51100000000E-03 0. -1.
        -11    1    3    3    0    0  0.10773458150E+02 -0.21154532903E+00  0.40201691365E+01  0.11501039609E+02  0.51100000000E-03 0.  1.
         12    1    3    3    0    0  0.13211025361E+02  0.27366771247E+02  0.16529889957E+02  0.34593476575E+02  0.00000000000E+00 0. -1.
</event>
<event>
 7    1  0.6230310E-012  0.5930191E+02  0.7816164E-02  0.1266605E+00
        -11   -1    0    0    0    0  0.00000000000E+00  0.00000000000E+00  0.45593999997E+02  0.45594000000E+02  0.51100000000E-03 0.  1.
         11   -1    0    0    0    0 -0.00000000000E+00 -0.00000000000E+00 -0.45593999997E+02  0.45594000000E+02  0.51100000000E-03 0. -1.
    9900012    2    1    2    0    0 -0.19160501346E+02 -0.23097881064E+02  0.10774304947E+02  0.59301912617E+02  0.49999942715E+02 0.  0.
         12    1    1    2    0    0  0.19160501346E+02  0.23097881064E+02 -0.10774304947E+02  0.31886087383E+02  0.00000000000E+00 0. -1.
         11    1    3    3    0    0 -0.18367096314E+02 -0.77145007615E+01 -0.86670874529E+01  0.21725150268E+02  0.51100000000E-03 0. -1.
        -11    1    3    3    0    0 -0.13722506555E+02 -0.51610401745E+01  0.45150329110E+01  0.15340438204E+02  0.51100000000E-03 0.  1.
        -12    1    3    3    0    0  0.12929101523E+02 -0.10222340128E+02  0.14926359489E+02  0.22236324145E+02  0.00000000000E+00 0.  1.
</event>
<event>
 7    1  0.6230310E-012  0.5930190E+02  0.7816164E-02  0.1266605E+00
        -11   -1    0    0    0    0  0.00000000000E+00  0.00000000000E+00  0.45593999997E+02  0.45594000000E+02  0.51100000000E-03 0. -1.
         11   -1    0    0    0    0 -0.00000000000E+00 -0.00000000000E+00 -0.45593999997E+02  0.45594000000E+02  0.51100000000E-03 0.  1.
    9900012    2    1    2    0    0 -0.31864405505E+02 -0.11467941046E+00 -0.11704317301E+01  0.59301899581E+02  0.49999918939E+02 0.  0.
         12    1    1    2    0    0  0.31864405505E+02  0.11467941046E+00  0.11704317301E+01  0.31886100419E+02  0.00000000000E+00 0. -1.
         11    1    3    3    0    0 -0.40992971529E+01 -0.15604681801E+01 -0.13385148215E+02  0.14085506419E+02  0.51100000000E-03 0. -1.
        -11    1    3    3    0    0 -0.22395136636E+02  0.14438973090E+01 -0.83632179055E+01  0.23949329811E+02  0.51100000000E-03 0.  1.
         12    1    3    3    0    0 -0.53699717154E+01  0.18914605589E-02  0.20577934390E+02  0.21267063351E+02  0.00000000000E+00 0. -1.
</event>
<event>
 7    1  0.6230310E-012  0.5930197E+02  0.7816164E-02  0.1266605E+00
        -11   -1    0    0    0    0  0.00000000000E+00  0.00000000000E+00  0.45593999997E+02  0.45594000000E+02  0.51100000000E-03 0.  1.
         11   -1    0    0    0    0 -0.00000000000E+00 -0.00000000000E+00 -0.45593999997E+02  0.45594000000E+02  0.51100000000E-03 0. -1.
    9900012    2    1    2    0    0 -0.18489243855E+02  0.20981018878E+02  0.15318744459E+02  0.59301965074E+02  0.50000038384E+02 0.  0.
         12    1    1    2    0    0  0.18489243855E+02 -0.20981018878E+02 -0.15318744459E+02  0.31886034926E+02  0.00000000000E+00 0. -1.
         11    1    3    3    0    0 -0.47283628689E+01  0.92265867274E+01  0.19937867407E+01  0.10557580399E+02  0.51100000000E-03 0. -1.
        -11    1    3    3    0    0 -0.46350845285E+00  0.23788928987E+02  0.18431116476E+02  0.30097076889E+02  0.51100000000E-03 0.  1.
         12    1    3    3    0    0 -0.13297372533E+02 -0.12034496836E+02 -0.51061587582E+01  0.18647307786E+02  0.00000000000E+00 0. -1.
</event>
<event>
 7    1  0.6230310E-012  0.5930194E+02  0.7816164E-02  0.1266605E+00
        -11   -1    0    0    0    0  0.00000000000E+00  0.00000000000E+00  0.45593999997E+02  0.45594000000E+02  0.51100000000E-03 0.  1.
         11   -1    0    0    0    0 -0.00000000000E+00 -0.00000000000E+00 -0.45593999997E+02  0.45594000000E+02  0.51100000000E-03 0. -1.
    9900012    2    1    2    0    0 -0.31219425793E+02  0.60949718299E+01 -0.22180080848E+01  0.59301940533E+02  0.49999993627E+02 0.  0.
         12    1    1    2    0    0  0.31219425793E+02 -0.60949718299E+01  0.22180080848E+01  0.31886059467E+02  0.00000000000E+00 0. -1.
         11    1    3    3    0    0 -0.18872054636E+02  0.13183692468E+01 -0.58329494988E+01  0.19796864493E+02  0.51100000000E-03 0. -1.
        -11    1    3    3    0    0 -0.92577162800E+01 -0.14925317046E+02  0.76519940829E+01  0.19157855134E+02  0.51100000000E-03 0.  1.
        -12    1    3    3    0    0 -0.30896548776E+01  0.19701919629E+02 -0.40370526689E+01  0.20347220906E+02  0.00000000000E+00 0.  1.
</event>
<event>
 7    1  0.6230310E-012  0.5930194E+02  0.7816164E-02  0.1266605E+00
        -11   -1    0    0    0    0  0.00000000000E+00  0.00000000000E+00  0.45593999997E+02  0.45594000000E+02  0.51100000000E-03 0.  1.
         11   -1    0    0    0    0 -0.00000000000E+00 -0.00000000000E+00 -0.45593999997E+02  0.45594000000E+02  0.51100000000E-03 0. -1.
    9900012    2    1    2    0    0 -0.32425395204E+01  0.15970995382E+02  0.27406823247E+02  0.59301941659E+02  0.49999995680E+02 0.  0.
         12    1    1    2    0    0  0.32425395204E+01 -0.15970995382E+02 -0.27406823247E+02  0.31886058341E+02  0.00000000000E+00 0. -1.
         11    1    3    3    0    0  0.26798418007E+01  0.88114126901E+01  0.17692443823E+02  0.19946055108E+02  0.51100000000E-03 0. -1.
        -11    1    3    3    0    0 -0.16966662124E+02  0.11760784579E+02  0.15739628272E+02  0.25959961016E+02  0.51100000000E-03 0.  1.
         12    1    3    3    0    0  0.11044280803E+02 -0.46012018871E+01 -0.60252488480E+01  0.13395925535E+02  0.00000000000E+00 0. -1.
</event>
<event>
 7    1  0.6230310E-012  0.5930192E+02  0.7816164E-02  0.1266605E+00
        -11   -1    0    0    0    0  0.00000000000E+00  0.00000000000E+00  0.45593999997E+02  0.45594000000E+02  0.51100000000E-03 0.  1.
         11   -1    0    0    0    0 -0.00000000000E+00 -0.00000000000E+00 -0.45593999997E+02  0.45594000000E+02  0.51100000000E-03 0. -1.
    9900012    2    1    2    0    0  0.83425894452E+01 -0.22410660513E+02  0.21092318459E+02  0.59301915241E+02  0.49999947500E+02 0.  0.
         12    1    1    2    0    0 -0.83425894452E+01  0.22410660513E+02 -0.21092318459E+02  0.31886084759E+02  0.00000000000E+00 0. -1.
         11    1    3    3    0    0  0.61436303388E+01 -0.14005114396E+02  0.77738617649E+01  0.17155767251E+02  0.51100000000E-03 0. -1.
        -11    1    3    3    0    0 -0.16100769318E+02 -0.24691672573E+01  0.15866847723E+02  0.22739578195E+02  0.51100000000E-03 0.  1.
         12    1    3    3    0    0  0.18299728424E+02 -0.59363788593E+01 -0.25483910290E+01  0.19406569795E+02  0.00000000000E+00 0. -1.
</event>
<event>
 7    1  0.6230310E-012  0.5930201E+02  0.7816164E-02  0.1266605E+00
        -11   -1    0    0    0    0  0.00000000000E+00  0.00000000000E+00  0.45593999997E+02  0.45594000000E+02  0.51100000000E-03 0.  1.
         11   -1    0    0    0    0 -0.00000000000E+00 -0.00000000000E+00 -0.45593999997E+02  0.45594000000E+02  0.51100000000E-03 0. -1.
    9900012    2    1    2    0    0 -0.76843376038E+00  0.13698343251E+02  0.28783351894E+02  0.59302008648E+02  0.50000117851E+02 0.  0.
         12    1    1    2    0    0  0.76843376038E+00 -0.13698343251E+02 -0.28783351894E+02  0.31885991352E+02  0.00000000000E+00 0. -1.
         11    1    3    3    0    0 -0.72404353898E+01 -0.44465498764E+01  0.97817146088E+01  0.12956760837E+02  0.51100000000E-03 0. -1.
        -11    1    3    3    0    0 -0.15835195983E+02  0.68520691134E+01  0.71755824723E+01  0.18686713650E+02  0.51100000000E-03 0.  1.
         12    1    3    3    0    0  0.22307197612E+02  0.11292824014E+02  0.11826054813E+02  0.27658534161E+02  0.00000000000E+00 0. -1.
</event>
<event>
 7    1  0.6230310E-012  0.5930183E+02  0.7816164E-02  0.1266605E+00
        -11   -1    0    0    0    0  0.00000000000E+00  0.00000000000E+00  0.45593999997E+02  0.45594000000E+02  0.51100000000E-03 0. -1.
         11   -1    0    0    0    0 -0.00000000000E+00 -0.00000000000E+00 -0.45593999997E+02  0.45594000000E+02  0.51100000000E-03 0.  1.
    9900012    2    1    2    0    0  0.16478484244E+02 -0.26404147473E+02  0.69288254385E+01  0.59301826371E+02  0.49999785422E+02 0.  0.
         12    1    1    2    0    0 -0.16478484244E+02  0.26404147473E+02 -0.69288254385E+01  0.31886173629E+02  0.00000000000E+00 0. -1.
         11    1    3    3    0    0  0.29332197963E-01 -0.19896270830E+02 -0.91108031269E+01  0.21883079930E+02  0.51100000000E-03 0. -1.
        -11    1    3    3    0    0  0.77743761556E+01 -0.54584455149E+01 -0.76323140564E+01  0.12185555800E+02  0.51100000000E-03 0.  1.
         12    1    3    3    0    0  0.86747758904E+01 -0.10494311276E+01  0.23671942622E+02  0.25233190641E+02  0.00000000000E+00 0. -1.
</event>
<event>
 7    1  0.6230310E-012  0.5930194E+02  0.7816164E-02  0.1266605E+00
        -11   -1    0    0    0    0  0.00000000000E+00  0.00000000000E+00  0.45593999997E+02  0.45594000000E+02  0.51100000000E-03 0.  1.
         11   -1    0    0    0    0 -0.00000000000E+00 -0.00000000000E+00 -0.45593999997E+02  0.45594000000E+02  0.51100000000E-03 0. -1.
    9900012    2    1    2    0    0 -0.15443287079E+02  0.27450510123E+02 -0.49694300656E+01  0.59301939456E+02  0.49999991663E+02 0.  0.
         12    1    1    2    0    0  0.15443287079E+02 -0.27450510123E+02  0.49694300656E+01  0.31886060544E+02  0.00000000000E+00 0. -1.
         11    1    3    3    0    0 -0.52714035058E+01  0.19549131574E+02 -0.57366761330E+01  0.21044374391E+02  0.51100000000E-03 0.  1.
        -11    1    3    3    0    0 -0.23606660962E+02  0.41307664214E+01  0.29054166574E+01  0.24140818528E+02  0.51100000000E-03 0. -1.
         12    1    3    3    0    0  0.13434777389E+02  0.37706121277E+01 -0.21381705901E+01  0.14116746537E+02  0.00000000000E+00 0. -1.
</event>
<event>
 7    1  0.6230310E-012  0.5930193E+02  0.7816164E-02  0.1266605E+00
        -11   -1    0    0    0    0  0.00000000000E+00  0.00000000000E+00  0.45593999997E+02  0.45594000000E+02  0.51100000000E-03 0.  1.
         11   -1    0    0    0    0 -0.00000000000E+00 -0.00000000000E+00 -0.45593999997E+02  0.45594000000E+02  0.51100000000E-03 0. -1.
    9900012    2    1    2    0    0  0.25841951358E+02 -0.32546494659E+01  0.18393530531E+02  0.59301934728E+02  0.49999983039E+02 0.  0.
         12    1    1    2    0    0 -0.25841951358E+02  0.32546494659E+01 -0.18393530531E+02  0.31886065272E+02  0.00000000000E+00 0. -1.
         11    1    3    3    0    0 -0.81474914662E+01 -0.20616412177E+01  0.84949178286E+00  0.84471070937E+01  0.51100000000E-03 0. -1.
        -11    1    3    3    0    0 -0.19528893975E+00 -0.58499038211E+01  0.15184742670E+02  0.16273780222E+02  0.51100000000E-03 0.  1.
        -12    1    3    3    0    0  0.34184731764E+02  0.46568955729E+01  0.23592960781E+01  0.34581047412E+02  0.00000000000E+00 0.  1.
</event>
<event>
 7    1  0.6230310E-012  0.5930187E+02  0.7816164E-02  0.1266605E+00
        -11   -1    0    0    0    0  0.00000000000E+00  0.00000000000E+00  0.45593999997E+02  0.45594000000E+02  0.51100000000E-03 0.  1.
         11   -1    0    0    0    0 -0.00000000000E+00 -0.00000000000E+00 -0.45593999997E+02  0.45594000000E+02  0.51100000000E-03 0. -1.
    9900012    2    1    2    0    0 -0.14324141107E+02  0.20897377784E+02  0.19360888582E+02  0.59301867852E+02  0.49999861073E+02 0.  0.
         12    1    1    2    0    0  0.14324141107E+02 -0.20897377784E+02 -0.19360888582E+02  0.31886132148E+02  0.00000000000E+00 0. -1.
         11    1    3    3    0    0 -0.10389553980E+02  0.38630793714E+00 -0.76537729297E+01  0.12910162897E+02  0.51100000000E-03 0. -1.
        -11    1    3    3    0    0 -0.14309481309E+02  0.17952718661E+02  0.75156413173E+01  0.24156701500E+02  0.51100000000E-03 0.  1.
        -12    1    3    3    0    0  0.10374894182E+02  0.25583511857E+01  0.19499020194E+02  0.22235003455E+02  0.00000000000E+00 0.  1.
</event>
<event>
 7    1  0.6230310E-012  0.5930195E+02  0.7816164E-02  0.1266605E+00
        -11   -1    0    0    0    0  0.00000000000E+00  0.00000000000E+00  0.45593999997E+02  0.45594000000E+02  0.51100000000E-03 0. -1.
         11   -1    0    0    0    0 -0.00000000000E+00 -0.00000000000E+00 -0.45593999997E+02  0.45594000000E+02  0.51100000000E-03 0.  1.
    9900012    2    1    2    0    0  0.18132239964E+02 -0.87199177540E+01 -0.24736719395E+02  0.59301946965E+02  0.50000005357E+02 0.  0.
         12    1    1    2    0    0 -0.18132239964E+02  0.87199177540E+01  0.24736719395E+02  0.31886053035E+02  0.00000000000E+00 0. -1.
         11    1    3    3    0    0  0.24397923332E+01 -0.12950873627E+02  0.37142037450E+01  0.13692078880E+02  0.51100000000E-03 0. -1.
        -11    1    3    3    0    0  0.23452234442E+02 -0.45157951365E+01 -0.20446903151E+02  0.31440031087E+02  0.51100000000E-03 0.  1.
         12    1    3    3    0    0 -0.77597868110E+01  0.87467510094E+01 -0.80040199884E+01  0.14169836998E+02  0.00000000000E+00 0. -1.
</event>
<event>
 7    1  0.6230310E-012  0.5930192E+02  0.7816164E-02  0.1266605E+00
        -11   -1    0    0    0    0  0.00000000000E+00  0.00000000000E+00  0.45593999997E+02  0.45594000000E+02  0.51100000000E-03 0.  1.
         11   -1    0    0    0    0 -0.00000000000E+00 -0.00000000000E+00 -0.45593999997E+02  0.45594000000E+02  0.51100000000E-03 0. -1.
    9900012    2    1    2    0    0 -0.21705512004E+02  0.12012280489E+00  0.23357616698E+02  0.59301922495E+02  0.49999960729E+02 0.  0.
         12    1    1    2    0    0  0.21705512004E+02 -0.12012280489E+00 -0.23357616698E+02  0.31886077505E+02  0.00000000000E+00 0. -1.
         11    1    3    3    0    0 -0.13185153857E+02 -0.20483558699E+02  0.14985253100E+02  0.28600389332E+02  0.51100000000E-03 0. -1.
        -11    1    3    3    0    0  0.20533792797E+01  0.84037592928E+01  0.11364123692E+02  0.14282256273E+02  0.51100000000E-03 0.  1.
        -12    1    3    3    0    0 -0.10573737426E+02  0.12199922211E+02 -0.29917600931E+01  0.16419276889E+02  0.00000000000E+00 0.  1.
</event>
<event>
 7    1  0.6230310E-012  0.5930193E+02  0.7816164E-02  0.1266605E+00
        -11   -1    0    0    0    0  0.00000000000E+00  0.00000000000E+00  0.45593999997E+02  0.45594000000E+02  0.51100000000E-03 0.  1.
         11   -1    0    0    0    0 -0.00000000000E+00 -0.00000000000E+00 -0.45593999997E+02  0.45594000000E+02  0.51100000000E-03 0. -1.
    9900012    2    1    2    0    0 -0.31615987698E+02 -0.38983597353E+01  0.13975923167E+01  0.59301934845E+02  0.49999983253E+02 0.  0.
         12    1    1    2    0    0  0.31615987698E+02  0.38983597353E+01 -0.13975923167E+01  0.31886065155E+02  0.00000000000E+00 0. -1.
         11    1    3    3    0    0  0.30107244306E+01 -0.22972582764E+01 -0.46559146472E+01  0.60016163363E+01  0.51100000000E-03 0. -1.
        -11    1    3    3    0    0 -0.12206168788E+02  0.18767879929E+02 -0.10904248699E+00  0.22388295246E+02  0.51100000000E-03 0.  1.
         12    1    3    3    0    0 -0.22420543341E+02 -0.20368981388E+02  0.61625494509E+01  0.30912023263E+02  0.00000000000E+00 0. -1.
</event>
<event>
 7    1  0.6230310E-012  0.5930194E+02  0.7816164E-02  0.1266605E+00
        -11   -1    0    0    0    0  0.00000000000E+00  0.00000000000E+00  0.45593999997E+02  0.45594000000E+02  0.51100000000E-03 0.  1.
         11   -1    0    0    0    0 -0.00000000000E+00 -0.00000000000E+00 -0.45593999997E+02  0.45594000000E+02  0.51100000000E-03 0. -1.
    9900012    2    1    2    0    0 -0.17891360204E+00  0.19803183390E+02  0.24990450767E+02  0.59301941730E+02  0.49999995810E+02 0.  0.
         12    1    1    2    0    0  0.17891360204E+00 -0.19803183390E+02 -0.24990450767E+02  0.31886058270E+02  0.00000000000E+00 0. -1.
         11    1    3    3    0    0  0.13212123645E+02  0.12888530940E+02  0.10238693092E+01  0.18485744498E+02  0.51100000000E-03 0. -1.
        -11    1    3    3    0    0 -0.22636885211E+01  0.16597561966E+02  0.65340040050E+01  0.17980449314E+02  0.51100000000E-03 0.  1.
         12    1    3    3    0    0 -0.11127348726E+02 -0.96829095164E+01  0.17432577453E+02  0.22835747919E+02  0.00000000000E+00 0. -1.
</event>
<event>
 7    1  0.6230310E-012  0.5930198E+02  0.7816164E-02  0.1266605E+00
        -11   -1    0    0    0    0  0.00000000000E+00  0.00000000000E+00  0.45593999997E+02  0.45594000000E+02  0.51100000000E-03 0. -1.
         11   -1    0    0    0    0 -0.00000000000E+00 -0.00000000000E+00 -0.45593999997E+02  0.45594000000E+02  0.51100000000E-03 0.  1.
    9900012    2    1    2    0    0  0.21959901909E+02 -0.11916876366E+02 -0.19810826906E+02  0.59301982738E+02  0.50000070598E+02 0.  0.
         12    1    1    2    0    0 -0.21959901909E+02  0.11916876366E+02  0.19810826906E+02  0.31886017262E+02  0.00000000000E+00 0. -1.
         11    1    3    3    0    0  0.29627724450E+01  0.36828202259E+01  0.41305965378E+01  0.62771819630E+01  0.51100000000E-03 0. -1.
        -11    1    3    3    0    0  0.22409810235E+02  0.64723194105E+01 -0.19156261852E+02  0.30183652557E+02  0.51100000000E-03 0.  1.
         12    1    3    3    0    0 -0.34126807707E+01 -0.22072016002E+02 -0.47851615920E+01  0.22841148218E+02  0.00000000000E+00 0. -1.
</event>
<event>
 7    1  0.6230310E-012  0.5930194E+02  0.7816164E-02  0.1266605E+00
        -11   -1    0    0    0    0  0.00000000000E+00  0.00000000000E+00  0.45593999997E+02  0.45594000000E+02  0.51100000000E-03 0.  1.
         11   -1    0    0    0    0 -0.00000000000E+00 -0.00000000000E+00 -0.45593999997E+02  0.45594000000E+02  0.51100000000E-03 0. -1.
    9900012    2    1    2    0    0  0.25366407039E+02  0.15136691579E+02  0.12006127391E+02  0.59301935129E+02  0.49999983770E+02 0.  0.
         12    1    1    2    0    0 -0.25366407039E+02 -0.15136691579E+02 -0.12006127391E+02  0.31886064871E+02  0.00000000000E+00 0. -1.
         11    1    3    3    0    0 -0.92854553143E+01  0.12325590959E+02  0.55799402400E+00  0.15441866159E+02  0.51100000000E-03 0. -1.
        -11    1    3    3    0    0  0.80235625948E+01  0.62941553136E+01 -0.60024928894E+01  0.11833168171E+02  0.51100000000E-03 0.  1.
        -12    1    3    3    0    0  0.26628299759E+02 -0.34830546929E+01  0.17450626256E+02  0.32026900799E+02  0.00000000000E+00 0.  1.
</event>
<event>
 7    1  0.6230310E-012  0.5930195E+02  0.7816164E-02  0.1266605E+00
        -11   -1    0    0    0    0  0.00000000000E+00  0.00000000000E+00  0.45593999997E+02  0.45594000000E+02  0.51100000000E-03 0. -1.
         11   -1    0    0    0    0 -0.00000000000E+00 -0.00000000000E+00 -0.45593999997E+02  0.45594000000E+02  0.51100000000E-03 0.  1.
    9900012    2    1    2    0    0  0.20998439050E+02 -0.41347983110E+01  0.23636605730E+02  0.59301950856E+02  0.50000012453E+02 0.  0.
         12    1    1    2    0    0 -0.20998439050E+02  0.41347983110E+01 -0.23636605730E+02  0.31886049144E+02  0.00000000000E+00 0. -1.
         11    1    3    3    0    0  0.24179638036E+02  0.28938239949E+01  0.45339737202E+01  0.24770668760E+02  0.51100000000E-03 0. -1.
        -11    1    3    3    0    0  0.11378844808E+02  0.95070243937E+00  0.11713510680E+02  0.16358125718E+02  0.51100000000E-03 0.  1.
         12    1    3    3    0    0 -0.14560043795E+02 -0.79793247452E+01  0.73891213289E+01  0.18173156377E+02  0.00000000000E+00 0. -1.
</event>
<event>
 7    1  0.6230310E-012  0.5930196E+02  0.7816164E-02  0.1266605E+00
        -11   -1    0    0    0    0  0.00000000000E+00  0.00000000000E+00  0.45593999997E+02  0.45594000000E+02  0.51100000000E-03 0.  1.
         11   -1    0    0    0    0 -0.00000000000E+00 -0.00000000000E+00 -0.45593999997E+02  0.45594000000E+02  0.51100000000E-03 0. -1.
    9900012    2    1    2    0    0 -0.29829797708E+02  0.10965524609E+02  0.25806558069E+01  0.59301963155E+02  0.50000034884E+02 0.  0.
         12    1    1    2    0    0  0.29829797708E+02 -0.10965524609E+02 -0.25806558069E+01  0.31886036845E+02  0.00000000000E+00 0. -1.
         11    1    3    3    0    0 -0.79689009913E+01 -0.67033647012E+01 -0.22523214696E+01  0.10654174468E+02  0.51100000000E-03 0. -1.
        -11    1    3    3    0    0 -0.28504203460E+02  0.10600462879E+02  0.15580252347E+02  0.34170216441E+02  0.51100000000E-03 0.  1.
         12    1    3    3    0    0  0.66433067436E+01  0.70684264315E+01 -0.10747275071E+02  0.14477572247E+02  0.00000000000E+00 0. -1.
</event>
<event>
 7    1  0.6230310E-012  0.5930192E+02  0.7816164E-02  0.1266605E+00
        -11   -1    0    0    0    0  0.00000000000E+00  0.00000000000E+00  0.45593999997E+02  0.45594000000E+02  0.51100000000E-03 0.  1.
         11   -1    0    0    0    0 -0.00000000000E+00 -0.00000000000E+00 -0.45593999997E+02  0.45594000000E+02  0.51100000000E-03 0. -1.
    9900012    2    1    2    0    0 -0.49880158437E+01 -0.31128231347E+02  0.47827667579E+01  0.59301922368E+02  0.49999960498E+02 0.  0.
         12    1    1    2    0    0  0.49880158437E+01  0.31128231347E+02 -0.47827667579E+01  0.31886077632E+02  0.00000000000E+00 0. -1.
         11    1    3    3    0    0  0.73949247566E+01 -0.24842821492E+02  0.10991980288E+02  0.28154472518E+02  0.51100000000E-03 0. -1.
        -11    1    3    3    0    0  0.28306632827E-01 -0.13689118392E+02 -0.90619336675E+01  0.16416802541E+02  0.51100000000E-03 0.  1.
         12    1    3    3    0    0 -0.12411247233E+02  0.74037085366E+01  0.28527201374E+01  0.14730647310E+02  0.00000000000E+00 0. -1.
</event>
<event>
 7    1  0.6230310E-012  0.5930196E+02  0.7816164E-02  0.1266605E+00
        -11   -1    0    0    0    0  0.00000000000E+00  0.00000000000E+00  0.45593999997E+02  0.45594000000E+02  0.51100000000E-03 0. -1.
         11   -1    0    0    0    0 -0.00000000000E+00 -0.00000000000E+00 -0.45593999997E+02  0.45594000000E+02  0.51100000000E-03 0.  1.
    9900012    2    1    2    0    0  0.50231520481E+00 -0.21210873652E+02 -0.23802650328E+02  0.59301958473E+02  0.50000026344E+02 0.  0.
         12    1    1    2    0    0 -0.50231520481E+00  0.21210873652E+02  0.23802650328E+02  0.31886041527E+02  0.00000000000E+00 0. -1.
         11    1    3    3    0    0  0.22914402386E+01  0.53189220192E+01  0.54457376322E+01  0.79496973800E+01  0.51100000000E-03 0. -1.
        -11    1    3    3    0    0 -0.70878858192E+01 -0.23383410467E+01  0.50762671377E+01  0.90263199894E+01  0.51100000000E-03 0.  1.
        -12    1    3    3    0    0  0.52987607854E+01 -0.24191454624E+02 -0.34324655098E+02  0.42325941103E+02  0.00000000000E+00 0.  1.
</event>
<event>
 7    1  0.6230310E-012  0.5930194E+02  0.7816164E-02  0.1266605E+00
        -11   -1    0    0    0    0  0.00000000000E+00  0.00000000000E+00  0.45593999997E+02  0.45594000000E+02  0.51100000000E-03 0.  1.
         11   -1    0    0    0    0 -0.00000000000E+00 -0.00000000000E+00 -0.45593999997E+02  0.45594000000E+02  0.51100000000E-03 0. -1.
    9900012    2    1    2    0    0  0.26309205021E+02 -0.28089446063E+01  0.17794839361E+02  0.59301941188E+02  0.49999994821E+02 0.  0.
         12    1    1    2    0    0 -0.26309205021E+02  0.28089446063E+01 -0.17794839361E+02  0.31886058812E+02  0.00000000000E+00 0. -1.
         11    1    3    3    0    0  0.70771267294E+01 -0.40612957040E+01 -0.53384046922E+01  0.97508158868E+01  0.51100000000E-03 0. -1.
        -11    1    3    3    0    0  0.27134914462E+02 -0.93989379030E+01  0.22122404718E+02  0.36249750445E+02  0.51100000000E-03 0.  1.
         12    1    3    3    0    0 -0.79028361700E+01  0.10651289001E+02  0.10108393354E+01  0.13301374856E+02  0.00000000000E+00 0. -1.
</event>
<event>
 7    1  0.6230310E-012  0.5930194E+02  0.7816164E-02  0.1266605E+00
        -11   -1    0    0    0    0  0.00000000000E+00  0.00000000000E+00  0.45593999997E+02  0.45594000000E+02  0.51100000000E-03 0.  1.
         11   -1    0    0    0    0 -0.00000000000E+00 -0.00000000000E+00 -0.45593999997E+02  0.45594000000E+02  0.51100000000E-03 0. -1.
    9900012    2    1    2    0    0  0.70776385549E+01  0.33201688946E+01  0.30912852876E+02  0.59301937811E+02  0.49999988663E+02 0.  0.
         12    1    1    2    0    0 -0.70776385549E+01 -0.33201688946E+01 -0.30912852876E+02  0.31886062189E+02  0.00000000000E+00 0. -1.
         11    1    3    3    0    0  0.43555419113E+01 -0.13047991843E+02  0.25649332679E+01  0.13992845293E+02  0.51100000000E-03 0. -1.
        -11    1    3    3    0    0  0.15625347018E+02  0.41405227375E+01  0.19868926592E+02  0.25613856448E+02  0.51100000000E-03 0.  1.
        -12    1    3    3    0    0 -0.12903250374E+02  0.12227638000E+02  0.84789930159E+01  0.19695236070E+02  0.00000000000E+00 0.  1.
</event>
<event>
 7    1  0.6230310E-012  0.5930194E+02  0.7816164E-02  0.1266605E+00
        -11   -1    0    0    0    0  0.00000000000E+00  0.00000000000E+00  0.45593999997E+02  0.45594000000E+02  0.51100000000E-03 0.  1.
         11   -1    0    0    0    0 -0.00000000000E+00 -0.00000000000E+00 -0.45593999997E+02  0.45594000000E+02  0.51100000000E-03 0. -1.
    9900012    2    1    2    0    0  0.30798728637E+01  0.27012346946E+02  0.16660372936E+02  0.59301944572E+02  0.50000000992E+02 0.  0.
         12    1    1    2    0    0 -0.30798728637E+01 -0.27012346946E+02 -0.16660372936E+02  0.31886055428E+02  0.00000000000E+00 0. -1.
         11    1    3    3    0    0 -0.10304281568E+02  0.25282086210E+01  0.96361716071E+01  0.14332685058E+02  0.51100000000E-03 0. -1.
        -11    1    3    3    0    0 -0.11180896058E+02  0.12430223373E+02  0.53538193134E+01  0.17555234868E+02  0.51100000000E-03 0.  1.
         12    1    3    3    0    0  0.24565050490E+02  0.12053914952E+02  0.16703820159E+01  0.27414024646E+02  0.00000000000E+00 0. -1.
</event>
<event>
 7    1  0.6230310E-012  0.5930195E+02  0.7816164E-02  0.1266605E+00
        -11   -1    0    0    0    0  0.00000000000E+00  0.00000000000E+00  0.45593999997E+02  0.45594000000E+02  0.51100000000E-03 0.  1.
         11   -1    0    0    0    0 -0.00000000000E+00 -0.00000000000E+00 -0.45593999997E+02  0.45594000000E+02  0.51100000000E-03 0. -1.
    9900012    2    1    2    0    0  0.21711710983E+01 -0.31791280277E+02 -0.11490789410E+01  0.59301954964E+02  0.50000019945E+02 0.  0.
         12    1    1    2    0    0 -0.21711710983E+01  0.31791280277E+02  0.11490789410E+01  0.31886045036E+02  0.00000000000E+00 0. -1.
         11    1    3    3    0    0 -0.98121927271E+01 -0.21565665181E+02 -0.63543527401E+01  0.24530284137E+02  0.51100000000E-03 0. -1.
        -11    1    3    3    0    0 -0.76414333983E+01 -0.11728978397E+02  0.56210585140E+01  0.15084983848E+02  0.51100000000E-03 0.  1.
        -12    1    3    3    0    0  0.19624797224E+02  0.15033633008E+01 -0.41578471489E+00  0.19686686979E+02  0.00000000000E+00 0.  1.
</event>
<event>
 7    1  0.6230310E-012  0.5930195E+02  0.7816164E-02  0.1266605E+00
        -11   -1    0    0    0    0  0.00000000000E+00  0.00000000000E+00  0.45593999997E+02  0.45594000000E+02  0.51100000000E-03 0.  1.
         11   -1    0    0    0    0 -0.00000000000E+00 -0.00000000000E+00 -0.45593999997E+02  0.45594000000E+02  0.51100000000E-03 0. -1.
    9900012    2    1    2    0    0  0.11881641530E+02 -0.24647539138E+02  0.16372094490E+02  0.59301951813E+02  0.50000014198E+02 0.  0.
         12    1    1    2    0    0 -0.11881641530E+02  0.24647539138E+02 -0.16372094490E+02  0.31886048187E+02  0.00000000000E+00 0. -1.
         11    1    3    3    0    0  0.15466901580E+02 -0.50917508049E+01  0.14219081247E+02  0.21617891722E+02  0.51100000000E-03 0.  1.
        -11    1    3    3    0    0  0.12017680650E+02 -0.18042821081E+02 -0.96767764890E+00  0.21700332740E+02  0.51100000000E-03 0. -1.
        -12    1    3    3    0    0 -0.15602940699E+02 -0.15129672524E+01  0.31206908927E+01  0.15983727351E+02  0.00000000000E+00 0.  1.
</event>
<event>
 7    1  0.6230310E-012  0.5930193E+02  0.7816164E-02  0.1266605E+00
        -11   -1    0    0    0    0  0.00000000000E+00  0.00000000000E+00  0.45593999997E+02  0.45594000000E+02  0.51100000000E-03 0.  1.
         11   -1    0    0    0    0 -0.00000000000E+00 -0.00000000000E+00 -0.45593999997E+02  0.45594000000E+02  0.51100000000E-03 0. -1.
    9900012    2    1    2    0    0  0.91239557003E+00 -0.30019827053E+01  0.31731323120E+02  0.59301933564E+02  0.49999980917E+02 0.  0.
         12    1    1    2    0    0 -0.91239557003E+00  0.30019827053E+01 -0.31731323120E+02  0.31886066436E+02  0.00000000000E+00 0. -1.
         11    1    3    3    0    0  0.73882515224E+01 -0.19940463238E+01 -0.18752550780E+01  0.78790267907E+01  0.51100000000E-03 0. -1.
        -11    1    3    3    0    0 -0.16760715532E+02  0.10580611933E+02  0.29240337110E+02  0.35325178677E+02  0.51100000000E-03 0.  1.
         12    1    3    3    0    0  0.10284859580E+02 -0.11588548314E+02  0.43662410878E+01  0.16097728096E+02  0.00000000000E+00 0. -1.
</event>
<event>
 7    1  0.6230310E-012  0.5930192E+02  0.7816164E-02  0.1266605E+00
        -11   -1    0    0    0    0  0.00000000000E+00  0.00000000000E+00  0.45593999997E+02  0.45594000000E+02  0.51100000000E-03 0. -1.
         11   -1    0    0    0    0 -0.00000000000E+00 -0.00000000000E+00 -0.45593999997E+02  0.45594000000E+02  0.51100000000E-03 0.  1.
    9900012    2    1    2    0    0  0.18926944828E+02  0.14916849609E+02 -0.20880145109E+02  0.59301919925E+02  0.49999956042E+02 0.  0.
         12    1    1    2    0    0 -0.18926944828E+02 -0.14916849609E+02  0.20880145109E+02  0.31886080075E+02  0.00000000000E+00 0. -1.
         11    1    3    3    0    0  0.21047418361E+02  0.18061211710E+00  0.75039274179E+01  0.22345813195E+02  0.51100000000E-03 0. -1.
        -11    1    3    3    0    0  0.58351619100E+01 -0.25819518122E+00 -0.34218864306E+01  0.67694228906E+01  0.51100000000E-03 0.  1.
        -12    1    3    3    0    0 -0.79556354431E+01  0.14994432673E+02 -0.24962186096E+02  0.30186683839E+02  0.00000000000E+00 0.  1.
</event>
<event>
 7    1  0.6230310E-012  0.5930196E+02  0.7816164E-02  0.1266605E+00
        -11   -1    0    0    0    0  0.00000000000E+00  0.00000000000E+00  0.45593999997E+02  0.45594000000E+02  0.51100000000E-03 0.  1.
         11   -1    0    0    0    0 -0.00000000000E+00 -0.00000000000E+00 -0.45593999997E+02  0.45594000000E+02  0.51100000000E-03 0. -1.
    9900012    2    1    2    0    0 -0.72548999983E+01 -0.29758942576E+02  0.88595417863E+01  0.59301957318E+02  0.50000024239E+02 0.  0.
         12    1    1    2    0    0  0.72548999983E+01  0.29758942576E+02 -0.88595417863E+01  0.31886042682E+02  0.00000000000E+00 0. -1.
         11    1    3    3    0    0 -0.31940590993E+01  0.84477226688E+01  0.20229992559E+01  0.92551908715E+01  0.51100000000E-03 0.  1.
        -11    1    3    3    0    0 -0.10953290412E+02 -0.12956115603E+02 -0.92507400081E+01  0.19323863312E+02  0.51100000000E-03 0. -1.
        -12    1    3    3    0    0  0.68924495127E+01 -0.25250549642E+02  0.16087282538E+02  0.30722903134E+02  0.00000000000E+00 0.  1.
</event>
<event>
 7    1  0.6230310E-012  0.5930183E+02  0.7816164E-02  0.1266605E+00
        -11   -1    0    0    0    0  0.00000000000E+00  0.00000000000E+00  0.45593999997E+02  0.45594000000E+02  0.51100000000E-03 0. -1.
         11   -1    0    0    0    0 -0.00000000000E+00 -0.00000000000E+00 -0.45593999997E+02  0.45594000000E+02  0.51100000000E-03 0.  1.
    9900012    2    1    2    0    0  0.10497273474E+01  0.31710753122E+02  0.31708497479E+01  0.59301826206E+02  0.49999785121E+02 0.  0.
         12    1    1    2    0    0 -0.10497273474E+01 -0.31710753122E+02 -0.31708497479E+01  0.31886173794E+02  0.00000000000E+00 0. -1.
         11    1    3    3    0    0 -0.15261009543E+01  0.23318143836E+01  0.12983241311E+02  0.13278964480E+02  0.51100000000E-03 0. -1.
        -11    1    3    3    0    0  0.12430379283E+02  0.85024232068E+00  0.36366710750E+01  0.12979315001E+02  0.51100000000E-03 0.  1.
        -12    1    3    3    0    0 -0.98545509813E+01  0.28528696418E+02 -0.13449062638E+02  0.33043546726E+02  0.00000000000E+00 0.  1.
</event>
<event>
 7    1  0.6230310E-012  0.5930193E+02  0.7816164E-02  0.1266605E+00
        -11   -1    0    0    0    0  0.00000000000E+00  0.00000000000E+00  0.45593999997E+02  0.45594000000E+02  0.51100000000E-03 0. -1.
         11   -1    0    0    0    0 -0.00000000000E+00 -0.00000000000E+00 -0.45593999997E+02  0.45594000000E+02  0.51100000000E-03 0.  1.
    9900012    2    1    2    0    0 -0.15996734972E+02 -0.68702302823E+01 -0.26713782392E+02  0.59301925240E+02  0.49999965736E+02 0.  0.
         12    1    1    2    0    0  0.15996734972E+02  0.68702302823E+01  0.26713782392E+02  0.31886074760E+02  0.00000000000E+00 0. -1.
         11    1    3    3    0    0 -0.44506794552E+01  0.25196399805E+01  0.50523463104E+01  0.71891123754E+01  0.51100000000E-03 0. -1.
        -11    1    3    3    0    0 -0.71026757756E+01 -0.15345222932E+02  0.24619038760E+01  0.17087563927E+02  0.51100000000E-03 0.  1.
        -12    1    3    3    0    0 -0.44433797408E+01  0.59553526695E+01 -0.34228032579E+02  0.35025248938E+02  0.00000000000E+00 0.  1.
</event>
<event>
 7    1  0.6230310E-012  0.5930192E+02  0.7816164E-02  0.1266605E+00
        -11   -1    0    0    0    0  0.00000000000E+00  0.00000000000E+00  0.45593999997E+02  0.45594000000E+02  0.51100000000E-03 0. -1.
         11   -1    0    0    0    0 -0.00000000000E+00 -0.00000000000E+00 -0.45593999997E+02  0.45594000000E+02  0.51100000000E-03 0.  1.
    9900012    2    1    2    0    0 -0.61810928413E+01 -0.53282939193E+01 -0.30824101083E+02  0.59301924161E+02  0.49999963768E+02 0.  0.
         12    1    1    2    0    0  0.61810928413E+01  0.53282939193E+01  0.30824101083E+02  0.31886075839E+02  0.00000000000E+00 0. -1.
         11    1    3    3    0    0 -0.66880505011E+01  0.14140434731E+02  0.23577349633E+01  0.15819002127E+02  0.51100000000E-03 0. -1.
        -11    1    3    3    0    0 -0.38568076685E+01 -0.55363134988E+01  0.50724976742E+00  0.67663162161E+01  0.51100000000E-03 0.  1.
        -12    1    3    3    0    0  0.43637653283E+01 -0.13932415151E+02 -0.33689085814E+02  0.36716605818E+02  0.00000000000E+00 0.  1.
</event>
<event>
 7    1  0.6230310E-012  0.5930195E+02  0.7816164E-02  0.1266605E+00
        -11   -1    0    0    0    0  0.00000000000E+00  0.00000000000E+00  0.45593999997E+02  0.45594000000E+02  0.51100000000E-03 0.  1.
         11   -1    0    0    0    0 -0.00000000000E+00 -0.00000000000E+00 -0.45593999997E+02  0.45594000000E+02  0.51100000000E-03 0. -1.
    9900012    2    1    2    0    0 -0.16613512694E+02  0.25084042197E+02  0.10559446197E+02  0.59301954761E+02  0.50000019576E+02 0.  0.
         12    1    1    2    0    0  0.16613512694E+02 -0.25084042197E+02 -0.10559446197E+02  0.31886045239E+02  0.00000000000E+00 0. -1.
         11    1    3    3    0    0 -0.35163455115E+01  0.13032033428E+02 -0.12099493516E+02  0.18127226060E+02  0.51100000000E-03 0.  1.
        -11    1    3    3    0    0  0.66416527603E+00 -0.56471680707E+01 -0.35357797731E+01  0.66957719195E+01  0.51100000000E-03 0. -1.
        -12    1    3    3    0    0 -0.13761332459E+02  0.17699176840E+02  0.26194719486E+02  0.34478956782E+02  0.00000000000E+00 0.  1.
</event>
<event>
 7    1  0.6230310E-012  0.5930189E+02  0.7816164E-02  0.1266605E+00
        -11   -1    0    0    0    0  0.00000000000E+00  0.00000000000E+00  0.45593999997E+02  0.45594000000E+02  0.51100000000E-03 0.  1.
         11   -1    0    0    0    0 -0.00000000000E+00 -0.00000000000E+00 -0.45593999997E+02  0.45594000000E+02  0.51100000000E-03 0. -1.
    9900012    2    1    2    0    0  0.97105266555E+01 -0.27821540284E+02 -0.12181614187E+02  0.59301887727E+02  0.49999897321E+02 0.  0.
         12    1    1    2    0    0 -0.97105266555E+01  0.27821540284E+02  0.12181614187E+02  0.31886112273E+02  0.00000000000E+00 0. -1.
         11    1    3    3    0    0 -0.11027051414E+02 -0.78986855953E+01 -0.74099756199E+01  0.15456158513E+02  0.51100000000E-03 0. -1.
        -11    1    3    3    0    0 -0.24706090079E+00 -0.22018738769E+02  0.79466223458E+00  0.22034459022E+02  0.51100000000E-03 0.  1.
        -12    1    3    3    0    0  0.20984638970E+02  0.20958840800E+01 -0.55663008014E+01  0.21811270192E+02  0.00000000000E+00 0.  1.
</event>
<event>
 7    1  0.6230310E-012  0.5930193E+02  0.7816164E-02  0.1266605E+00
        -11   -1    0    0    0    0  0.00000000000E+00  0.00000000000E+00  0.45593999997E+02  0.45594000000E+02  0.51100000000E-03 0.  1.
         11   -1    0    0    0    0 -0.00000000000E+00 -0.00000000000E+00 -0.45593999997E+02  0.45594000000E+02  0.51100000000E-03 0. -1.
    9900012    2    1    2    0    0  0.15760124182E+02  0.70227134088E+01  0.26814577708E+02  0.59301927876E+02  0.49999970543E+02 0.  0.
         12    1    1    2    0    0 -0.15760124182E+02 -0.70227134088E+01 -0.26814577708E+02  0.31886072124E+02  0.00000000000E+00 0. -1.
         11    1    3    3    0    0  0.14738615872E+02 -0.11839193833E+01  0.37655610424E+00  0.14790884277E+02  0.51100000000E-03 0. -1.
        -11    1    3    3    0    0  0.11697710233E+02  0.96478442265E+01  0.29622014736E+02  0.33277335833E+02  0.51100000000E-03 0.  1.
        -12    1    3    3    0    0 -0.10676201923E+02 -0.14412114344E+01 -0.31839931321E+01  0.11233707765E+02  0.00000000000E+00 0.  1.
</event>
<event>
 7    1  0.6230310E-012  0.5930195E+02  0.7816164E-02  0.1266605E+00
        -11   -1    0    0    0    0  0.00000000000E+00  0.00000000000E+00  0.45593999997E+02  0.45594000000E+02  0.51100000000E-03 0.  1.
         11   -1    0    0    0    0 -0.00000000000E+00 -0.00000000000E+00 -0.45593999997E+02  0.45594000000E+02  0.51100000000E-03 0. -1.
    9900012    2    1    2    0    0 -0.26868634303E+02 -0.16566724223E+02  0.45100357553E+01  0.59301948452E+02  0.50000008069E+02 0.  0.
         12    1    1    2    0    0  0.26868634303E+02  0.16566724223E+02 -0.45100357553E+01  0.31886051548E+02  0.00000000000E+00 0. -1.
         11    1    3    3    0    0 -0.11654462835E+02 -0.98608610968E+01 -0.98755949699E+01  0.18182146788E+02  0.51100000000E-03 0. -1.
        -11    1    3    3    0    0 -0.14241178834E+01  0.24737347600E+00 -0.11168343318E+02  0.11261491824E+02  0.51100000000E-03 0.  1.
        -12    1    3    3    0    0 -0.13790053584E+02 -0.69532366027E+01  0.25553974043E+02  0.29858309840E+02  0.00000000000E+00 0.  1.
</event>
<event>
 7    1  0.6230310E-012  0.5930194E+02  0.7816164E-02  0.1266605E+00
        -11   -1    0    0    0    0  0.00000000000E+00  0.00000000000E+00  0.45593999997E+02  0.45594000000E+02  0.51100000000E-03 0.  1.
         11   -1    0    0    0    0 -0.00000000000E+00 -0.00000000000E+00 -0.45593999997E+02  0.45594000000E+02  0.51100000000E-03 0. -1.
    9900012    2    1    2    0    0 -0.13532220284E+02 -0.17210930267E+02  0.23181542887E+02  0.59301936632E+02  0.49999986512E+02 0.  0.
         12    1    1    2    0    0  0.13532220284E+02  0.17210930267E+02 -0.23181542887E+02  0.31886063368E+02  0.00000000000E+00 0. -1.
         11    1    3    3    0    0 -0.65763026387E+01  0.89246566461E+01 -0.23095175938E+01  0.11323918245E+02  0.51100000000E-03 0. -1.
        -11    1    3    3    0    0 -0.75971335487E+01  0.44651246168E+01  0.11808125061E+01  0.88908995291E+01  0.51100000000E-03 0.  1.
        -12    1    3    3    0    0  0.64121590383E+00 -0.30600711530E+02  0.24310247975E+02  0.39087118858E+02  0.00000000000E+00 0.  1.
</event>
<event>
 7    1  0.6230310E-012  0.5930197E+02  0.7816164E-02  0.1266605E+00
        -11   -1    0    0    0    0  0.00000000000E+00  0.00000000000E+00  0.45593999997E+02  0.45594000000E+02  0.51100000000E-03 0.  1.
         11   -1    0    0    0    0 -0.00000000000E+00 -0.00000000000E+00 -0.45593999997E+02  0.45594000000E+02  0.51100000000E-03 0. -1.
    9900012    2    1    2    0    0  0.28058922937E+02  0.13939117972E+02  0.59259225644E+01  0.59301972897E+02  0.50000052650E+02 0.  0.
         12    1    1    2    0    0 -0.28058922937E+02 -0.13939117972E+02 -0.59259225644E+01  0.31886027103E+02  0.00000000000E+00 0. -1.
         11    1    3    3    0    0  0.18198678954E+02  0.46801977245E+01 -0.68513411000E+01  0.20000926017E+02  0.51100000000E-03 0. -1.
        -11    1    3    3    0    0  0.19753191271E+02  0.12636315850E+02  0.15969899295E+02  0.28370807662E+02  0.51100000000E-03 0.  1.
         12    1    3    3    0    0 -0.98929472877E+01 -0.33773956026E+01 -0.31926356305E+01  0.10930239218E+02  0.00000000000E+00 0. -1.
</event>
<event>
 7    1  0.6230310E-012  0.5930194E+02  0.7816164E-02  0.1266605E+00
        -11   -1    0    0    0    0  0.00000000000E+00  0.00000000000E+00  0.45593999997E+02  0.45594000000E+02  0.51100000000E-03 0. -1.
         11   -1    0    0    0    0 -0.00000000000E+00 -0.00000000000E+00 -0.45593999997E+02  0.45594000000E+02  0.51100000000E-03 0.  1.
    9900012    2    1    2    0    0  0.14943017192E+02  0.26667257586E+02 -0.90710692057E+01  0.59301942130E+02  0.49999996539E+02 0.  0.
         12    1    1    2    0    0 -0.14943017192E+02 -0.26667257586E+02  0.90710692057E+01  0.31886057870E+02  0.00000000000E+00 0. -1.
         11    1    3    3    0    0  0.13530661451E+02  0.75411109777E+00 -0.20310845540E+02  0.24416755101E+02  0.51100000000E-03 0.  1.
        -11    1    3    3    0    0  0.10876475384E+02  0.12626306600E+02  0.47489949465E+01  0.17328424291E+02  0.51100000000E-03 0. -1.
        -12    1    3    3    0    0 -0.94641196425E+01  0.13286839888E+02  0.64907813883E+01  0.17556762738E+02  0.00000000000E+00 0.  1.
</event>
<event>
 7    1  0.6230310E-012  0.5930193E+02  0.7816164E-02  0.1266605E+00
        -11   -1    0    0    0    0  0.00000000000E+00  0.00000000000E+00  0.45593999997E+02  0.45594000000E+02  0.51100000000E-03 0. -1.
         11   -1    0    0    0    0 -0.00000000000E+00 -0.00000000000E+00 -0.45593999997E+02  0.45594000000E+02  0.51100000000E-03 0.  1.
    9900012    2    1    2    0    0 -0.21084056799E+02 -0.18691217231E+02 -0.14927226758E+02  0.59301934841E+02  0.49999983245E+02 0.  0.
         12    1    1    2    0    0  0.21084056799E+02  0.18691217231E+02  0.14927226758E+02  0.31886065159E+02  0.00000000000E+00 0. -1.
         11    1    3    3    0    0 -0.13097611472E+02 -0.43781553609E+01  0.79610343958E+01  0.15940318051E+02  0.51100000000E-03 0. -1.
        -11    1    3    3    0    0 -0.14558470300E+02 -0.22200496417E+02 -0.15967810404E+02  0.30980349708E+02  0.51100000000E-03 0.  1.
         12    1    3    3    0    0  0.65720249740E+01  0.78874345472E+01 -0.69204507491E+01  0.12381267082E+02  0.00000000000E+00 0. -1.
</event>
<event>
 7    1  0.6230310E-012  0.5930196E+02  0.7816164E-02  0.1266605E+00
        -11   -1    0    0    0    0  0.00000000000E+00  0.00000000000E+00  0.45593999997E+02  0.45594000000E+02  0.51100000000E-03 0. -1.
         11   -1    0    0    0    0 -0.00000000000E+00 -0.00000000000E+00 -0.45593999997E+02  0.45594000000E+02  0.51100000000E-03 0.  1.
    9900012    2    1    2    0    0 -0.27489084796E+02 -0.55741182220E+01 -0.15165720645E+02  0.59301958233E+02  0.50000025907E+02 0.  0.
         12    1    1    2    0    0  0.27489084796E+02  0.55741182220E+01  0.15165720645E+02  0.31886041767E+02  0.00000000000E+00 0. -1.
         11    1    3    3    0    0 -0.63777005633E+01 -0.12655845881E+02  0.23214721558E+01  0.14360875066E+02  0.51100000000E-03 0. -1.
        -11    1    3    3    0    0 -0.17467397950E+02 -0.72252592910E+01  0.35570198587E+01  0.19234519841E+02  0.51100000000E-03 0.  1.
        -12    1    3    3    0    0 -0.36439862832E+01  0.14306986949E+02 -0.21044212659E+02  0.25706563326E+02  0.00000000000E+00 0.  1.
</event>
<event>
 7    1  0.6230310E-012  0.5930179E+02  0.7816164E-02  0.1266605E+00
        -11   -1    0    0    0    0  0.00000000000E+00  0.00000000000E+00  0.45593999997E+02  0.45594000000E+02  0.51100000000E-03 0. -1.
         11   -1    0    0    0    0 -0.00000000000E+00 -0.00000000000E+00 -0.45593999997E+02  0.45594000000E+02  0.51100000000E-03 0.  1.
    9900012    2    1    2    0    0 -0.14665993351E+02  0.91290651086E+00 -0.28298513495E+02  0.59301786281E+02  0.49999712308E+02 0.  0.
         12    1    1    2    0    0  0.14665993351E+02 -0.91290651086E+00  0.28298513495E+02  0.31886213719E+02  0.00000000000E+00 0. -1.
         11    1    3    3    0    0  0.79374073249E+01 -0.10601876945E+02 -0.67935113761E+01  0.14884691024E+02  0.51100000000E-03 0. -1.
        -11    1    3    3    0    0  0.12388012569E+01  0.74391582245E+01 -0.18580750437E+02  0.20052929729E+02  0.51100000000E-03 0.  1.
        -12    1    3    3    0    0 -0.23842201933E+02  0.40756252310E+01 -0.29242516822E+01  0.24364165529E+02  0.00000000000E+00 0.  1.
</event>
<event>
 7    1  0.6230310E-012  0.5930190E+02  0.7816164E-02  0.1266605E+00
        -11   -1    0    0    0    0  0.00000000000E+00  0.00000000000E+00  0.45593999997E+02  0.45594000000E+02  0.51100000000E-03 0.  1.
         11   -1    0    0    0    0 -0.00000000000E+00 -0.00000000000E+00 -0.45593999997E+02  0.45594000000E+02  0.51100000000E-03 0. -1.
    9900012    2    1    2    0    0  0.15321182851E+02  0.26637306521E+02 -0.85111035416E+01  0.59301896034E+02  0.49999912471E+02 0.  0.
         12    1    1    2    0    0 -0.15321182851E+02 -0.26637306521E+02  0.85111035416E+01  0.31886103966E+02  0.00000000000E+00 0. -1.
         11    1    3    3    0    0  0.49240814639E+01 -0.32244606904E+01 -0.59191973606E+01  0.83474919983E+01  0.51100000000E-03 0. -1.
        -11    1    3    3    0    0  0.78815573708E+01 -0.62457663539E+01  0.84258597787E+01  0.13119590588E+02  0.51100000000E-03 0.  1.
        -12    1    3    3    0    0  0.25155440167E+01  0.36107533565E+02 -0.11017765960E+02  0.37834813447E+02  0.00000000000E+00 0.  1.
</event>
<event>
 7    1  0.6230310E-012  0.5930192E+02  0.7816164E-02  0.1266605E+00
        -11   -1    0    0    0    0  0.00000000000E+00  0.00000000000E+00  0.45593999997E+02  0.45594000000E+02  0.51100000000E-03 0.  1.
         11   -1    0    0    0    0 -0.00000000000E+00 -0.00000000000E+00 -0.45593999997E+02  0.45594000000E+02  0.51100000000E-03 0. -1.
    9900012    2    1    2    0    0  0.21191844578E+02 -0.40933141715E+01  0.23470674920E+02  0.59301920299E+02  0.49999956724E+02 0.  0.
         12    1    1    2    0    0 -0.21191844578E+02  0.40933141715E+01 -0.23470674920E+02  0.31886079701E+02  0.00000000000E+00 0. -1.
         11    1    3    3    0    0  0.12527759891E+01  0.10666195756E+02  0.10690092662E+02  0.15153061109E+02  0.51100000000E-03 0. -1.
        -11    1    3    3    0    0  0.16638839964E+02  0.74621746347E+01 -0.13374082318E+00  0.18236033903E+02  0.51100000000E-03 0.  1.
        -12    1    3    3    0    0  0.33002286243E+01 -0.22221684562E+02  0.12914323080E+02  0.25912825287E+02  0.00000000000E+00 0.  1.
</event>
<event>
 7    1  0.6230310E-012  0.5930194E+02  0.7816164E-02  0.1266605E+00
        -11   -1    0    0    0    0  0.00000000000E+00  0.00000000000E+00  0.45593999997E+02  0.45594000000E+02  0.51100000000E-03 0.  1.
         11   -1    0    0    0    0 -0.00000000000E+00 -0.00000000000E+00 -0.45593999997E+02  0.45594000000E+02  0.51100000000E-03 0. -1.
    9900012    2    1    2    0    0 -0.30965783418E+02  0.75409120671E+01 -0.98783723615E+00  0.59301938470E+02  0.49999989864E+02 0.  0.
         12    1    1    2    0    0  0.30965783418E+02 -0.75409120671E+01  0.98783723615E+00  0.31886061530E+02  0.00000000000E+00 0. -1.
         11    1    3    3    0    0 -0.15349690631E+02  0.13376549236E+02 -0.13276312535E+02  0.24306491863E+02  0.51100000000E-03 0. -1.
        -11    1    3    3    0    0 -0.22131093675E+02 -0.10627346811E+02  0.78773689578E+01  0.25783303695E+02  0.51100000000E-03 0.  1.
         12    1    3    3    0    0  0.65150008879E+01  0.47917096423E+01  0.44111063409E+01  0.92121429112E+01  0.00000000000E+00 0. -1.
</event>
<event>
 7    1  0.6230310E-012  0.5930187E+02  0.7816164E-02  0.1266605E+00
        -11   -1    0    0    0    0  0.00000000000E+00  0.00000000000E+00  0.45593999997E+02  0.45594000000E+02  0.51100000000E-03 0.  1.
         11   -1    0    0    0    0 -0.00000000000E+00 -0.00000000000E+00 -0.45593999997E+02  0.45594000000E+02  0.51100000000E-03 0. -1.
    9900012    2    1    2    0    0  0.23224782699E+02  0.17698683915E+02  0.12809814815E+02  0.59301869797E+02  0.49999864620E+02 0.  0.
         12    1    1    2    0    0 -0.23224782699E+02 -0.17698683915E+02 -0.12809814815E+02  0.31886130203E+02  0.00000000000E+00 0. -1.
         11    1    3    3    0    0  0.19170441879E+02  0.18782941181E+02  0.14687933421E+02  0.30594772588E+02  0.51100000000E-03 0. -1.
        -11    1    3    3    0    0  0.13986475256E+02  0.65358678336E+01  0.20800139314E+01  0.15577725015E+02  0.51100000000E-03 0.  1.
         12    1    3    3    0    0 -0.99321344363E+01 -0.76201251003E+01 -0.39581325373E+01  0.13129372193E+02  0.00000000000E+00 0. -1.
</event>
<event>
 7    1  0.6230310E-012  0.5930196E+02  0.7816164E-02  0.1266605E+00
        -11   -1    0    0    0    0  0.00000000000E+00  0.00000000000E+00  0.45593999997E+02  0.45594000000E+02  0.51100000000E-03 0.  1.
         11   -1    0    0    0    0 -0.00000000000E+00 -0.00000000000E+00 -0.45593999997E+02  0.45594000000E+02  0.51100000000E-03 0. -1.
    9900012    2    1    2    0    0  0.29198478534E+02  0.10682790041E+02  0.70743653807E+01  0.59301956073E+02  0.50000021968E+02 0.  0.
         12    1    1    2    0    0 -0.29198478534E+02 -0.10682790041E+02 -0.70743653807E+01  0.31886043927E+02  0.00000000000E+00 0. -1.
         11    1    3    3    0    0  0.43746419638E+01  0.76135814140E+01  0.11229114947E+02  0.14254723323E+02  0.51100000000E-03 0. -1.
        -11    1    3    3    0    0  0.14655459921E+02 -0.71073580609E+01  0.14281471951E+02  0.21662351799E+02  0.51100000000E-03 0.  1.
         12    1    3    3    0    0  0.10168376650E+02  0.10176566688E+02 -0.18436221518E+02  0.23384880951E+02  0.00000000000E+00 0. -1.
</event>
<event>
 7    1  0.6230310E-012  0.5930194E+02  0.7816164E-02  0.1266605E+00
        -11   -1    0    0    0    0  0.00000000000E+00  0.00000000000E+00  0.45593999997E+02  0.45594000000E+02  0.51100000000E-03 0.  1.
         11   -1    0    0    0    0 -0.00000000000E+00 -0.00000000000E+00 -0.45593999997E+02  0.45594000000E+02  0.51100000000E-03 0. -1.
    9900012    2    1    2    0    0  0.98513826634E+01 -0.27768877339E+02  0.12188551049E+02  0.59301936184E+02  0.49999985694E+02 0.  0.
         12    1    1    2    0    0 -0.98513826634E+01  0.27768877339E+02 -0.12188551049E+02  0.31886063816E+02  0.00000000000E+00 0. -1.
         11    1    3    3    0    0 -0.57103475260E+01 -0.13406389689E+02  0.32467705727E+01  0.14929195315E+02  0.51100000000E-03 0. -1.
        -11    1    3    3    0    0 -0.72316477609E+01 -0.10988290859E+02  0.15583102514E+02  0.20392948526E+02  0.51100000000E-03 0.  1.
        -12    1    3    3    0    0  0.22793377950E+02 -0.33741967911E+01 -0.66413220381E+01  0.23979792342E+02  0.00000000000E+00 0.  1.
</event>
<event>
 7    1  0.6230310E-012  0.5930194E+02  0.7816164E-02  0.1266605E+00
        -11   -1    0    0    0    0  0.00000000000E+00  0.00000000000E+00  0.45593999997E+02  0.45594000000E+02  0.51100000000E-03 0.  1.
         11   -1    0    0    0    0 -0.00000000000E+00 -0.00000000000E+00 -0.45593999997E+02  0.45594000000E+02  0.51100000000E-03 0. -1.
    9900012    2    1    2    0    0 -0.21323353042E+02 -0.14636753392E+02  0.18649429072E+02  0.59301935026E+02  0.49999983583E+02 0.  0.
         12    1    1    2    0    0  0.21323353042E+02  0.14636753392E+02 -0.18649429072E+02  0.31886064974E+02  0.00000000000E+00 0. -1.
         11    1    3    3    0    0 -0.22191102469E+01 -0.75560475600E+01  0.19346010809E+02  0.20887470873E+02  0.51100000000E-03 0.  1.
        -11    1    3    3    0    0  0.36731802243E+01  0.94753921163E+01  0.95564526297E+00  0.10207280091E+02  0.51100000000E-03 0. -1.
         12    1    3    3    0    0 -0.22777423019E+02 -0.16556097949E+02 -0.16522269997E+01  0.28207184062E+02  0.00000000000E+00 0. -1.
</event>
<event>
 7    1  0.6230310E-012  0.5930194E+02  0.7816164E-02  0.1266605E+00
        -11   -1    0    0    0    0  0.00000000000E+00  0.00000000000E+00  0.45593999997E+02  0.45594000000E+02  0.51100000000E-03 0. -1.
         11   -1    0    0    0    0 -0.00000000000E+00 -0.00000000000E+00 -0.45593999997E+02  0.45594000000E+02  0.51100000000E-03 0.  1.
    9900012    2    1    2    0    0 -0.13041617180E+01  0.27427940425E+02  0.16208884176E+02  0.59301942232E+02  0.49999996725E+02 0.  0.
         12    1    1    2    0    0  0.13041617180E+01 -0.27427940425E+02 -0.16208884176E+02  0.31886057768E+02  0.00000000000E+00 0. -1.
         11    1    3    3    0    0 -0.17126778486E+02 -0.91576393190E+00 -0.23443596358E+01  0.17310724631E+02  0.51100000000E-03 0. -1.
        -11    1    3    3    0    0  0.35002977824E+01 -0.21131515173E+01  0.49782756251E+01  0.64421054292E+01  0.51100000000E-03 0.  1.
        -12    1    3    3    0    0  0.12322318986E+02  0.30456855874E+02  0.13574968187E+02  0.35549112172E+02  0.00000000000E+00 0.  1.
</event>
<event>
 7    1  0.6230310E-012  0.5930216E+02  0.7816164E-02  0.1266604E+00
        -11   -1    0    0    0    0  0.00000000000E+00  0.00000000000E+00  0.45593999997E+02  0.45594000000E+02  0.51100000000E-03 0.  1.
         11   -1    0    0    0    0 -0.00000000000E+00 -0.00000000000E+00 -0.45593999997E+02  0.45594000000E+02  0.51100000000E-03 0. -1.
    9900012    2    1    2    0    0 -0.28276428708E+02 -0.35517118098E+01  0.14301603992E+02  0.59302157468E+02  0.50000389262E+02 0.  0.
         12    1    1    2    0    0  0.28276428708E+02  0.35517118098E+01 -0.14301603992E+02  0.31885842532E+02  0.00000000000E+00 0. -1.
         11    1    3    3    0    0 -0.33338063177E+00 -0.65400989154E+01 -0.42413822797E+01  0.78021381923E+01  0.51100000000E-03 0. -1.
        -11    1    3    3    0    0 -0.82560226428E+01 -0.17619001055E+02  0.59945444999E+01  0.20359903538E+02  0.51100000000E-03 0.  1.
         12    1    3    3    0    0 -0.19687025434E+02  0.20607388161E+02  0.12548441772E+02  0.31140115737E+02  0.00000000000E+00 0. -1.
</event>
<event>
 7    1  0.6230310E-012  0.5930194E+02  0.7816164E-02  0.1266605E+00
        -11   -1    0    0    0    0  0.00000000000E+00  0.00000000000E+00  0.45593999997E+02  0.45594000000E+02  0.51100000000E-03 0.  1.
         11   -1    0    0    0    0 -0.00000000000E+00 -0.00000000000E+00 -0.45593999997E+02  0.45594000000E+02  0.51100000000E-03 0. -1.
    9900012    2    1    2    0    0 -0.66295643125E+01  0.18024050920E+02  0.25453948664E+02  0.59301936631E+02  0.49999986511E+02 0.  0.
         12    1    1    2    0    0  0.66295643125E+01 -0.18024050920E+02 -0.25453948664E+02  0.31886063369E+02  0.00000000000E+00 0. -1.
         11    1    3    3    0    0 -0.15549456821E+02 -0.34157162691E+01  0.54148476516E+01  0.16815864545E+02  0.51100000000E-03 0. -1.
        -11    1    3    3    0    0 -0.31282756366E+01 -0.41680250482E+01  0.11973853012E+02  0.13058778560E+02  0.51100000000E-03 0.  1.
         12    1    3    3    0    0  0.12048168145E+02  0.25607792238E+02  0.80652480006E+01  0.29427293526E+02  0.00000000000E+00 0. -1.
</event>
<event>
 7    1  0.6230310E-012  0.5930194E+02  0.7816164E-02  0.1266605E+00
        -11   -1    0    0    0    0  0.00000000000E+00  0.00000000000E+00  0.45593999997E+02  0.45594000000E+02  0.51100000000E-03 0.  1.
         11   -1    0    0    0    0 -0.00000000000E+00 -0.00000000000E+00 -0.45593999997E+02  0.45594000000E+02  0.51100000000E-03 0. -1.
    9900012    2    1    2    0    0  0.39904169801E+01  0.21349072152E+02  0.23345551514E+02  0.59301935882E+02  0.49999985145E+02 0.  0.
         12    1    1    2    0    0 -0.39904169801E+01 -0.21349072152E+02 -0.23345551514E+02  0.31886064118E+02  0.00000000000E+00 0. -1.
         11    1    3    3    0    0  0.16097335828E+02  0.73463886954E+00  0.93454490302E+01  0.18627971786E+02  0.51100000000E-03 0. -1.
        -11    1    3    3    0    0 -0.61286319348E+01 -0.62242216558E+01  0.93351924007E+01  0.12784634607E+02  0.51100000000E-03 0.  1.
        -12    1    3    3    0    0 -0.59782869128E+01  0.26838654938E+02  0.46649100836E+01  0.27889329489E+02  0.00000000000E+00 0.  1.
</event>
<event>
 7    1  0.6230310E-012  0.5930192E+02  0.7816164E-02  0.1266605E+00
        -11   -1    0    0    0    0  0.00000000000E+00  0.00000000000E+00  0.45593999997E+02  0.45594000000E+02  0.51100000000E-03 0. -1.
         11   -1    0    0    0    0 -0.00000000000E+00 -0.00000000000E+00 -0.45593999997E+02  0.45594000000E+02  0.51100000000E-03 0.  1.
    9900012    2    1    2    0    0 -0.38889424577E+01  0.31238339810E+02 -0.50758342879E+01  0.59301924023E+02  0.49999963515E+02 0.  0.
         12    1    1    2    0    0  0.38889424577E+01 -0.31238339810E+02  0.50758342879E+01  0.31886075977E+02  0.00000000000E+00 0. -1.
         11    1    3    3    0    0 -0.63665558804E+01  0.17840491275E+02  0.12279906125E+02  0.22574593184E+02  0.51100000000E-03 0. -1.
        -11    1    3    3    0    0  0.11174836797E+02 -0.40384437995E+00  0.20574951124E+01  0.11369844068E+02  0.51100000000E-03 0.  1.
        -12    1    3    3    0    0 -0.86972233747E+01  0.13801692915E+02 -0.19413235526E+02  0.25357486771E+02  0.00000000000E+00 0.  1.
</event>
<event>
 7    1  0.6230310E-012  0.5930176E+02  0.7816164E-02  0.1266605E+00
        -11   -1    0    0    0    0  0.00000000000E+00  0.00000000000E+00  0.45593999997E+02  0.45594000000E+02  0.51100000000E-03 0. -1.
         11   -1    0    0    0    0 -0.00000000000E+00 -0.00000000000E+00 -0.45593999997E+02  0.45594000000E+02  0.51100000000E-03 0.  1.
    9900012    2    1    2    0    0 -0.96091217850E+01 -0.75925191539E+01 -0.29440625987E+02  0.59301764300E+02  0.49999672219E+02 0.  0.
         12    1    1    2    0    0  0.96091217850E+01  0.75925191539E+01  0.29440625987E+02  0.31886235700E+02  0.00000000000E+00 0. -1.
         11    1    3    3    0    0  0.26232016619E+01  0.16907492814E+02 -0.57962246971E+01  0.18064903022E+02  0.51100000000E-03 0. -1.
        -11    1    3    3    0    0 -0.27499644570E+01 -0.36864954690E+01  0.34720799604E+01  0.57626289894E+01  0.51100000000E-03 0.  1.
        -12    1    3    3    0    0 -0.94823589899E+01 -0.20813516499E+02 -0.27116481250E+02  0.35474232289E+02  0.00000000000E+00 0.  1.
</event>
<event>
 7    1  0.6230310E-012  0.5930188E+02  0.7816164E-02  0.1266605E+00
        -11   -1    0    0    0    0  0.00000000000E+00  0.00000000000E+00  0.45593999997E+02  0.45594000000E+02  0.51100000000E-03 0. -1.
         11   -1    0    0    0    0 -0.00000000000E+00 -0.00000000000E+00 -0.45593999997E+02  0.45594000000E+02  0.51100000000E-03 0.  1.
    9900012    2    1    2    0    0 -0.11696536345E+02 -0.18118638842E+02 -0.23486817177E+02  0.59301880495E+02  0.49999884132E+02 0.  0.
         12    1    1    2    0    0  0.11696536345E+02  0.18118638842E+02  0.23486817177E+02  0.31886119505E+02  0.00000000000E+00 0. -1.
         11    1    3    3    0    0 -0.16683938942E+02  0.11897631074E+01 -0.79750822104E+01  0.18530280392E+02  0.51100000000E-03 0. -1.
        -11    1    3    3    0    0 -0.59234711815E+01 -0.20413107490E+02 -0.19749895782E+02  0.29014493825E+02  0.51100000000E-03 0.  1.
         12    1    3    3    0    0  0.10910873778E+02  0.11047055409E+01  0.42381608155E+01  0.11757106278E+02  0.00000000000E+00 0. -1.
</event>
<event>
 7    1  0.6230310E-012  0.5930194E+02  0.7816164E-02  0.1266605E+00
        -11   -1    0    0    0    0  0.00000000000E+00  0.00000000000E+00  0.45593999997E+02  0.45594000000E+02  0.51100000000E-03 0.  1.
         11   -1    0    0    0    0 -0.00000000000E+00 -0.00000000000E+00 -0.45593999997E+02  0.45594000000E+02  0.51100000000E-03 0. -1.
    9900012    2    1    2    0    0 -0.23160982555E+01 -0.48681482237E+01  0.31427018003E+02  0.59301942878E+02  0.49999997903E+02 0.  0.
         12    1    1    2    0    0  0.23160982555E+01  0.48681482237E+01 -0.31427018003E+02  0.31886057122E+02  0.00000000000E+00 0. -1.
         11    1    3    3    0    0  0.48351675587E+01 -0.65944671209E+01  0.13066480080E+02  0.15414238349E+02  0.51100000000E-03 0.  1.
        -11    1    3    3    0    0 -0.26107377388E+01  0.84155513250E+01  0.29123099717E+02  0.30426836724E+02  0.51100000000E-03 0. -1.
         12    1    3    3    0    0 -0.45405280754E+01 -0.66892324278E+01 -0.10762561795E+02  0.13460867805E+02  0.00000000000E+00 0. -1.
</event>
<event>
 7    1  0.6230310E-012  0.5930196E+02  0.7816164E-02  0.1266605E+00
        -11   -1    0    0    0    0  0.00000000000E+00  0.00000000000E+00  0.45593999997E+02  0.45594000000E+02  0.51100000000E-03 0.  1.
         11   -1    0    0    0    0 -0.00000000000E+00 -0.00000000000E+00 -0.45593999997E+02  0.45594000000E+02  0.51100000000E-03 0. -1.
    9900012    2    1    2    0    0  0.12259024655E+02 -0.20958698263E+02  0.20668070282E+02  0.59301955285E+02  0.50000020531E+02 0.  0.
         12    1    1    2    0    0 -0.12259024655E+02  0.20958698263E+02 -0.20668070282E+02  0.31886044715E+02  0.00000000000E+00 0. -1.
         11    1    3    3    0    0  0.24394744907E+01 -0.36885787100E+01 -0.11017060660E+02  0.11871489988E+02  0.51100000000E-03 0. -1.
        -11    1    3    3    0    0  0.20950403673E+01 -0.82797398651E-01  0.28187350049E+02  0.28265221609E+02  0.51100000000E-03 0.  1.
         12    1    3    3    0    0  0.77245097968E+01 -0.17187322155E+02  0.34977808934E+01  0.19165243688E+02  0.00000000000E+00 0. -1.
</event>
<event>
 7    1  0.6230310E-012  0.5930195E+02  0.7816164E-02  0.1266605E+00
        -11   -1    0    0    0    0  0.00000000000E+00  0.00000000000E+00  0.45593999997E+02  0.45594000000E+02  0.51100000000E-03 0.  1.
         11   -1    0    0    0    0 -0.00000000000E+00 -0.00000000000E+00 -0.45593999997E+02  0.45594000000E+02  0.51100000000E-03 0. -1.
    9900012    2    1    2    0    0 -0.13828646665E+02 -0.12156293020E+02  0.26032928075E+02  0.59301948618E+02  0.50000008372E+02 0.  0.
         12    1    1    2    0    0  0.13828646665E+02  0.12156293020E+02 -0.26032928075E+02  0.31886051382E+02  0.00000000000E+00 0. -1.
         11    1    3    3    0    0 -0.14971405248E+02 -0.66349665884E+01  0.20108746358E+02  0.25933133962E+02  0.51100000000E-03 0. -1.
        -11    1    3    3    0    0 -0.13265019007E+02 -0.10223353414E+02  0.70512259024E+01  0.18171336529E+02  0.51100000000E-03 0.  1.
         12    1    3    3    0    0  0.14407777590E+02  0.47020269820E+01 -0.11270441859E+01  0.15197478127E+02  0.00000000000E+00 0. -1.
</event>
<event>
 7    1  0.6230310E-012  0.5930194E+02  0.7816164E-02  0.1266605E+00
        -11   -1    0    0    0    0  0.00000000000E+00  0.00000000000E+00  0.45593999997E+02  0.45594000000E+02  0.51100000000E-03 0.  1.
         11   -1    0    0    0    0 -0.00000000000E+00 -0.00000000000E+00 -0.45593999997E+02  0.45594000000E+02  0.51100000000E-03 0. -1.
    9900012    2    1    2    0    0  0.30474251807E+02 -0.79465586017E+01  0.49893018829E+01  0.59301937997E+02  0.49999989001E+02 0.  0.
         12    1    1    2    0    0 -0.30474251807E+02  0.79465586017E+01 -0.49893018829E+01  0.31886062003E+02  0.00000000000E+00 0. -1.
         11    1    3    3    0    0  0.24966358711E+02 -0.18018234187E+02  0.13811183993E+00  0.30789525908E+02  0.51100000000E-03 0. -1.
        -11    1    3    3    0    0  0.12987295003E+01 -0.81256072101E+01 -0.22491684990E+01  0.85305890797E+01  0.51100000000E-03 0.  1.
        -12    1    3    3    0    0  0.42091635954E+01  0.18197282796E+02  0.71003585419E+01  0.19981823009E+02  0.00000000000E+00 0.  1.
</event>
<event>
 7    1  0.6230310E-012  0.5930192E+02  0.7816164E-02  0.1266605E+00
        -11   -1    0    0    0    0  0.00000000000E+00  0.00000000000E+00  0.45593999997E+02  0.45594000000E+02  0.51100000000E-03 0.  1.
         11   -1    0    0    0    0 -0.00000000000E+00 -0.00000000000E+00 -0.45593999997E+02  0.45594000000E+02  0.51100000000E-03 0. -1.
    9900012    2    1    2    0    0  0.22008839145E+02  0.15169294803E+02  0.17384633400E+02  0.59301921787E+02  0.49999959439E+02 0.  0.
         12    1    1    2    0    0 -0.22008839145E+02 -0.15169294803E+02 -0.17384633400E+02  0.31886078213E+02  0.00000000000E+00 0. -1.
         11    1    3    3    0    0  0.14838243945E+02  0.23445856886E+02  0.10111369461E+01  0.27765159584E+02  0.51100000000E-03 0. -1.
        -11    1    3    3    0    0  0.79741126566E+01  0.56098588902E+01  0.14540783890E+02  0.17506895379E+02  0.51100000000E-03 0.  1.
        -12    1    3    3    0    0 -0.80351745675E+00 -0.13886420974E+02  0.18327125645E+01  0.14029866824E+02  0.00000000000E+00 0.  1.
</event>
<event>
 7    1  0.6230310E-012  0.5930197E+02  0.7816164E-02  0.1266605E+00
        -11   -1    0    0    0    0  0.00000000000E+00  0.00000000000E+00  0.45593999997E+02  0.45594000000E+02  0.51100000000E-03 0.  1.
         11   -1    0    0    0    0 -0.00000000000E+00 -0.00000000000E+00 -0.45593999997E+02  0.45594000000E+02  0.51100000000E-03 0. -1.
    9900012    2    1    2    0    0  0.29203347748E+02  0.16601984114E+01 -0.12693576235E+02  0.59301973968E+02  0.50000054604E+02 0.  0.
         12    1    1    2    0    0 -0.29203347748E+02 -0.16601984114E+01  0.12693576235E+02  0.31886026032E+02  0.00000000000E+00 0. -1.
         11    1    3    3    0    0  0.97654399872E+01  0.20024265673E+02 -0.53183266607E+01  0.22904576674E+02  0.51100000000E-03 0. -1.
        -11    1    3    3    0    0  0.11393368179E+02 -0.91024637246E+00  0.60711073633E+01  0.12942014210E+02  0.51100000000E-03 0.  1.
        -12    1    3    3    0    0  0.80445395815E+01 -0.17453820890E+02 -0.13446356938E+02  0.23455383084E+02  0.00000000000E+00 0.  1.
</event>
<event>
 7    1  0.6230310E-012  0.5930193E+02  0.7816164E-02  0.1266605E+00
        -11   -1    0    0    0    0  0.00000000000E+00  0.00000000000E+00  0.45593999997E+02  0.45594000000E+02  0.51100000000E-03 0. -1.
         11   -1    0    0    0    0 -0.00000000000E+00 -0.00000000000E+00 -0.45593999997E+02  0.45594000000E+02  0.51100000000E-03 0.  1.
    9900012    2    1    2    0    0 -0.17669621684E+02 -0.24798192882E+02  0.94633731306E+01  0.59301932013E+02  0.49999978087E+02 0.  0.
         12    1    1    2    0    0  0.17669621684E+02  0.24798192882E+02 -0.94633731306E+01  0.31886067987E+02  0.00000000000E+00 0. -1.
         11    1    3    3    0    0  0.55965925308E+01 -0.58530759637E+01  0.90581471292E+00  0.81486714714E+01  0.51100000000E-03 0. -1.
        -11    1    3    3    0    0  0.14498204284E+01  0.12448015450E+01 -0.12677008050E+02  0.12820220104E+02  0.51100000000E-03 0.  1.
         12    1    3    3    0    0 -0.24716034643E+02 -0.20189918464E+02  0.21234566468E+02  0.38333040437E+02  0.00000000000E+00 0. -1.
</event>
<event>
 7    1  0.6230310E-012  0.5930194E+02  0.7816164E-02  0.1266605E+00
        -11   -1    0    0    0    0  0.00000000000E+00  0.00000000000E+00  0.45593999997E+02  0.45594000000E+02  0.51100000000E-03 0.  1.
         11   -1    0    0    0    0 -0.00000000000E+00 -0.00000000000E+00 -0.45593999997E+02  0.45594000000E+02  0.51100000000E-03 0. -1.
    9900012    2    1    2    0    0  0.24819360495E+02  0.15110525175E+02  0.13129809251E+02  0.59301944782E+02  0.50000001375E+02 0.  0.
         12    1    1    2    0    0 -0.24819360495E+02 -0.15110525175E+02 -0.13129809251E+02  0.31886055218E+02  0.00000000000E+00 0. -1.
         11    1    3    3    0    0  0.73433521970E+01 -0.92169318347E+01  0.25118060940E+01  0.12049308032E+02  0.51100000000E-03 0. -1.
        -11    1    3    3    0    0  0.41294164313E+01 -0.54332326015E+01  0.12860737138E+02  0.14559212086E+02  0.51100000000E-03 0.  1.
        -12    1    3    3    0    0  0.13346591866E+02  0.29760689611E+02 -0.22427339806E+01  0.32693424664E+02  0.00000000000E+00 0.  1.
</event>
<event>
 7    1  0.6230310E-012  0.5930197E+02  0.7816164E-02  0.1266605E+00
        -11   -1    0    0    0    0  0.00000000000E+00  0.00000000000E+00  0.45593999997E+02  0.45594000000E+02  0.51100000000E-03 0.  1.
         11   -1    0    0    0    0 -0.00000000000E+00 -0.00000000000E+00 -0.45593999997E+02  0.45594000000E+02  0.51100000000E-03 0. -1.
    9900012    2    1    2    0    0 -0.18535926340E+02 -0.22979362049E+02  0.12045216453E+02  0.59301970381E+02  0.50000048063E+02 0.  0.
         12    1    1    2    0    0  0.18535926340E+02  0.22979362049E+02 -0.12045216453E+02  0.31886029619E+02  0.00000000000E+00 0. -1.
         11    1    3    3    0    0  0.13347505889E+02 -0.59441080463E+01  0.53125318026E+01  0.15547068159E+02  0.51100000000E-03 0. -1.
        -11    1    3    3    0    0  0.36288011803E+01 -0.38289900517E+01  0.16489014115E+01  0.55270461323E+01  0.51100000000E-03 0.  1.
        -12    1    3    3    0    0 -0.35512233409E+02 -0.13206263950E+02  0.50837832388E+01  0.38227856090E+02  0.00000000000E+00 0.  1.
</event>
<event>
 7    1  0.6230310E-012  0.5930195E+02  0.7816164E-02  0.1266605E+00
        -11   -1    0    0    0    0  0.00000000000E+00  0.00000000000E+00  0.45593999997E+02  0.45594000000E+02  0.51100000000E-03 0. -1.
         11   -1    0    0    0    0 -0.00000000000E+00 -0.00000000000E+00 -0.45593999997E+02  0.45594000000E+02  0.51100000000E-03 0.  1.
    9900012    2    1    2    0    0  0.22807210034E+02 -0.21772613212E+02  0.47439156645E+01  0.59301948952E+02  0.50000008980E+02 0.  0.
         12    1    1    2    0    0 -0.22807210034E+02  0.21772613212E+02 -0.47439156645E+01  0.31886051048E+02  0.00000000000E+00 0. -1.
         11    1    3    3    0    0  0.79329783399E+01 -0.14308744075E+02  0.77938260126E+01  0.18122252248E+02  0.51100000000E-03 0. -1.
        -11    1    3    3    0    0  0.63689957519E+01 -0.19760152808E+02  0.83507849878E+01  0.22377742425E+02  0.51100000000E-03 0.  1.
         12    1    3    3    0    0  0.85052359427E+01  0.12296283671E+02 -0.11400695336E+02  0.18801954279E+02  0.00000000000E+00 0. -1.
</event>
<event>
 7    1  0.6230310E-012  0.5930197E+02  0.7816164E-02  0.1266605E+00
        -11   -1    0    0    0    0  0.00000000000E+00  0.00000000000E+00  0.45593999997E+02  0.45594000000E+02  0.51100000000E-03 0.  1.
         11   -1    0    0    0    0 -0.00000000000E+00 -0.00000000000E+00 -0.45593999997E+02  0.45594000000E+02  0.51100000000E-03 0. -1.
    9900012    2    1    2    0    0  0.24519191779E+02  0.85915246028E+01  0.18485512075E+02  0.59301965170E+02  0.50000038558E+02 0.  0.
         12    1    1    2    0    0 -0.24519191779E+02 -0.85915246028E+01 -0.18485512075E+02  0.31886034830E+02  0.00000000000E+00 0. -1.
         11    1    3    3    0    0 -0.17774229223E+01  0.40321265716E+01 -0.74276102181E+01  0.86363574930E+01  0.51100000000E-03 0. -1.
        -11    1    3    3    0    0  0.41435975507E+01 -0.19401365354E+01 -0.82496107459E+01  0.94334303495E+01  0.51100000000E-03 0.  1.
        -12    1    3    3    0    0  0.22153017151E+02  0.64995345667E+01  0.34162733039E+02  0.41232177327E+02  0.00000000000E+00 0.  1.
</event>
<event>
 7    1  0.6230310E-012  0.5930195E+02  0.7816164E-02  0.1266605E+00
        -11   -1    0    0    0    0  0.00000000000E+00  0.00000000000E+00  0.45593999997E+02  0.45594000000E+02  0.51100000000E-03 0.  1.
         11   -1    0    0    0    0 -0.00000000000E+00 -0.00000000000E+00 -0.45593999997E+02  0.45594000000E+02  0.51100000000E-03 0. -1.
    9900012    2    1    2    0    0 -0.80149605255E+01 -0.21988360348E+02 -0.21656235619E+02  0.59301950947E+02  0.50000012619E+02 0.  0.
         12    1    1    2    0    0  0.80149605255E+01  0.21988360348E+02  0.21656235619E+02  0.31886049053E+02  0.00000000000E+00 0. -1.
         11    1    3    3    0    0  0.47217868149E+01  0.37329013688E+01 -0.23446389173E+02  0.24206672404E+02  0.51100000000E-03 0. -1.
        -11    1    3    3    0    0 -0.97432133682E+01 -0.14166337524E+02 -0.86414895590E+01  0.19242938124E+02  0.51100000000E-03 0.  1.
        -12    1    3    3    0    0 -0.29935339723E+01 -0.11554924193E+02  0.10431643113E+02  0.15852340419E+02  0.00000000000E+00 0.  1.
</event>
<event>
 7    1  0.6230310E-012  0.5930196E+02  0.7816164E-02  0.1266605E+00
        -11   -1    0    0    0    0  0.00000000000E+00  0.00000000000E+00  0.45593999997E+02  0.45594000000E+02  0.51100000000E-03 0.  1.
         11   -1    0    0    0    0 -0.00000000000E+00 -0.00000000000E+00 -0.45593999997E+02  0.45594000000E+02  0.51100000000E-03 0. -1.
    9900012    2    1    2    0    0 -0.18645042220E+02 -0.19647049974E+02  0.16824848395E+02  0.59301957668E+02  0.50000024877E+02 0.  0.
         12    1    1    2    0    0  0.18645042220E+02  0.19647049974E+02 -0.16824848395E+02  0.31886042332E+02  0.00000000000E+00 0. -1.
         11    1    3    3    0    0 -0.30023432080E+02 -0.13319062360E+02  0.19370675729E+02  0.38131705633E+02  0.51100000000E-03 0. -1.
        -11    1    3    3    0    0 -0.86685313683E+00 -0.41851068528E+01  0.50392244347E+01  0.66075969077E+01  0.51100000000E-03 0.  1.
         12    1    3    3    0    0  0.12245242997E+02 -0.21428807613E+01 -0.75850517690E+01  0.14562655127E+02  0.00000000000E+00 0. -1.
</event>
<event>
 7    1  0.6230310E-012  0.5930194E+02  0.7816164E-02  0.1266605E+00
        -11   -1    0    0    0    0  0.00000000000E+00  0.00000000000E+00  0.45593999997E+02  0.45594000000E+02  0.51100000000E-03 0.  1.
         11   -1    0    0    0    0 -0.00000000000E+00 -0.00000000000E+00 -0.45593999997E+02  0.45594000000E+02  0.51100000000E-03 0. -1.
    9900012    2    1    2    0    0 -0.55845345670E+01  0.20051468237E+02  0.24155169826E+02  0.59301942952E+02  0.49999998038E+02 0.  0.
         12    1    1    2    0    0  0.55845345670E+01 -0.20051468237E+02 -0.24155169826E+02  0.31886057048E+02  0.00000000000E+00 0. -1.
         11    1    3    3    0    0 -0.16874684302E+02 -0.52971966212E+01  0.12556277462E+02  0.21690444124E+02  0.51100000000E-03 0. -1.
        -11    1    3    3    0    0  0.44210143851E+01  0.30077694196E+00  0.10747126209E+02  0.11624825030E+02  0.51100000000E-03 0.  1.
         12    1    3    3    0    0  0.68691353496E+01  0.25047887916E+02  0.85176615497E+00  0.25986673798E+02  0.00000000000E+00 0. -1.
</event>
<event>
 7    1  0.6230310E-012  0.5930199E+02  0.7816164E-02  0.1266605E+00
        -11   -1    0    0    0    0  0.00000000000E+00  0.00000000000E+00  0.45593999997E+02  0.45594000000E+02  0.51100000000E-03 0. -1.
         11   -1    0    0    0    0 -0.00000000000E+00 -0.00000000000E+00 -0.45593999997E+02  0.45594000000E+02  0.51100000000E-03 0.  1.
    9900012    2    1    2    0    0 -0.11050465796E+02 -0.19148794714E+02 -0.22976699121E+02  0.59301986831E+02  0.50000078063E+02 0.  0.
         12    1    1    2    0    0  0.11050465796E+02  0.19148794714E+02  0.22976699121E+02  0.31886013169E+02  0.00000000000E+00 0. -1.
         11    1    3    3    0    0 -0.25376327923E+01  0.28335174592E+01  0.47907910001E+00  0.38337864345E+01  0.51100000000E-03 0. -1.
        -11    1    3    3    0    0  0.11559035917E+02 -0.26406804678E+02 -0.85127062277E+01  0.30056560219E+02  0.51100000000E-03 0.  1.
         12    1    3    3    0    0 -0.20071868921E+02  0.44244925047E+01 -0.14943071994E+02  0.25411640177E+02  0.00000000000E+00 0. -1.
</event>
<event>
 7    1  0.6230310E-012  0.5930197E+02  0.7816164E-02  0.1266605E+00
        -11   -1    0    0    0    0  0.00000000000E+00  0.00000000000E+00  0.45593999997E+02  0.45594000000E+02  0.51100000000E-03 0. -1.
         11   -1    0    0    0    0 -0.00000000000E+00 -0.00000000000E+00 -0.45593999997E+02  0.45594000000E+02  0.51100000000E-03 0.  1.
    9900012    2    1    2    0    0  0.11281253796E+02  0.29058193618E+02  0.67137078262E+01  0.59301965810E+02  0.50000039726E+02 0.  0.
         12    1    1    2    0    0 -0.11281253796E+02 -0.29058193618E+02 -0.67137078262E+01  0.31886034190E+02  0.00000000000E+00 0. -1.
         11    1    3    3    0    0  0.15983653570E+02  0.11808220589E+02  0.56159268018E+00  0.19880307883E+02  0.51100000000E-03 0. -1.
        -11    1    3    3    0    0  0.74246831378E+01  0.23456623958E+02  0.75272581084E+01  0.25729336216E+02  0.51100000000E-03 0.  1.
         12    1    3    3    0    0 -0.12127082911E+02 -0.62066509285E+01 -0.13751429624E+01  0.13692321712E+02  0.00000000000E+00 0. -1.
</event>
<event>
 7    1  0.6230310E-012  0.5930193E+02  0.7816164E-02  0.1266605E+00
        -11   -1    0    0    0    0  0.00000000000E+00  0.00000000000E+00  0.45593999997E+02  0.45594000000E+02  0.51100000000E-03 0.  1.
         11   -1    0    0    0    0 -0.00000000000E+00 -0.00000000000E+00 -0.45593999997E+02  0.45594000000E+02  0.51100000000E-03 0. -1.
    9900012    2    1    2    0    0 -0.24997187480E+02 -0.11345336194E+02  0.16221756869E+02  0.59301930452E+02  0.49999975241E+02 0.  0.
         12    1    1    2    0    0  0.24997187480E+02  0.11345336194E+02 -0.16221756869E+02  0.31886069548E+02  0.00000000000E+00 0. -1.
         11    1    3    3    0    0 -0.26403612548E+02 -0.14906474075E+01 -0.42280893751E+01  0.26781514619E+02  0.51100000000E-03 0. -1.
        -11    1    3    3    0    0 -0.15008660957E+00 -0.60320706515E+01 -0.43124020589E+01  0.74165500142E+01  0.51100000000E-03 0.  1.
         12    1    3    3    0    0  0.15565116770E+01 -0.38226181352E+01  0.24762248303E+02  0.25103865819E+02  0.00000000000E+00 0. -1.
</event>
<event>
 7    1  0.6230310E-012  0.5930186E+02  0.7816164E-02  0.1266605E+00
        -11   -1    0    0    0    0  0.00000000000E+00  0.00000000000E+00  0.45593999997E+02  0.45594000000E+02  0.51100000000E-03 0.  1.
         11   -1    0    0    0    0 -0.00000000000E+00 -0.00000000000E+00 -0.45593999997E+02  0.45594000000E+02  0.51100000000E-03 0. -1.
    9900012    2    1    2    0    0  0.14573953954E+02 -0.24904813225E+02  0.13567458442E+02  0.59301862194E+02  0.49999850755E+02 0.  0.
         12    1    1    2    0    0 -0.14573953954E+02  0.24904813225E+02 -0.13567458442E+02  0.31886137806E+02  0.00000000000E+00 0. -1.
         11    1    3    3    0    0  0.25556407742E+01 -0.31865827967E+02  0.80766077669E+01  0.32972623267E+02  0.51100000000E-03 0. -1.
        -11    1    3    3    0    0 -0.25734101698E+01 -0.47293494316E+01  0.54089765802E+01  0.76319207186E+01  0.51100000000E-03 0.  1.
        -12    1    3    3    0    0  0.14591723349E+02  0.11690364174E+02  0.81874095314E-01  0.18697318209E+02  0.00000000000E+00 0.  1.
</event>
<event>
 7    1  0.6230310E-012  0.5930195E+02  0.7816164E-02  0.1266605E+00
        -11   -1    0    0    0    0  0.00000000000E+00  0.00000000000E+00  0.45593999997E+02  0.45594000000E+02  0.51100000000E-03 0. -1.
         11   -1    0    0    0    0 -0.00000000000E+00 -0.00000000000E+00 -0.45593999997E+02  0.45594000000E+02  0.51100000000E-03 0.  1.
    9900012    2    1    2    0    0 -0.24709578520E+02  0.18615532185E+02 -0.77213433393E+01  0.59301945805E+02  0.50000003242E+02 0.  0.
         12    1    1    2    0    0  0.24709578520E+02 -0.18615532185E+02  0.77213433393E+01  0.31886054195E+02  0.00000000000E+00 0. -1.
         11    1    3    3    0    0  0.83037053572E+01 -0.55599132130E+01  0.65109035301E+01  0.11927112921E+02  0.51100000000E-03 0. -1.
        -11    1    3    3    0    0 -0.19363085636E+02  0.33495557571E+01 -0.10231621819E+02  0.22154789424E+02  0.51100000000E-03 0.  1.
        -12    1    3    3    0    0 -0.13650198241E+02  0.20825889641E+02 -0.40006250508E+01  0.25220043460E+02  0.00000000000E+00 0.  1.
</event>
<event>
 7    1  0.6230310E-012  0.5930195E+02  0.7816164E-02  0.1266605E+00
        -11   -1    0    0    0    0  0.00000000000E+00  0.00000000000E+00  0.45593999997E+02  0.45594000000E+02  0.51100000000E-03 0. -1.
         11   -1    0    0    0    0 -0.00000000000E+00 -0.00000000000E+00 -0.45593999997E+02  0.45594000000E+02  0.51100000000E-03 0.  1.
    9900012    2    1    2    0    0 -0.19509723579E+02  0.40923487470E+01 -0.24886615583E+02  0.59301948699E+02  0.50000008519E+02 0.  0.
         12    1    1    2    0    0  0.19509723579E+02 -0.40923487470E+01  0.24886615583E+02  0.31886051301E+02  0.00000000000E+00 0. -1.
         11    1    3    3    0    0 -0.27348919794E+02  0.73055167323E+00 -0.79426627311E+01  0.28488296038E+02  0.51100000000E-03 0.  1.
        -11    1    3    3    0    0 -0.22278841139E+01  0.67971669465E+01  0.33518075045E+01  0.78993392086E+01  0.51100000000E-03 0. -1.
         12    1    3    3    0    0  0.10067080329E+02 -0.34353698728E+01 -0.20295760357E+02  0.22914313452E+02  0.00000000000E+00 0. -1.
</event>
<event>
 7    1  0.6230310E-012  0.5930195E+02  0.7816164E-02  0.1266605E+00
        -11   -1    0    0    0    0  0.00000000000E+00  0.00000000000E+00  0.45593999997E+02  0.45594000000E+02  0.51100000000E-03 0.  1.
         11   -1    0    0    0    0 -0.00000000000E+00 -0.00000000000E+00 -0.45593999997E+02  0.45594000000E+02  0.51100000000E-03 0. -1.
    9900012    2    1    2    0    0  0.41386328440E+01 -0.14029183135E+02  0.28333270450E+02  0.59301945436E+02  0.50000002568E+02 0.  0.
         12    1    1    2    0    0 -0.41386328440E+01  0.14029183135E+02 -0.28333270450E+02  0.31886054564E+02  0.00000000000E+00 0. -1.
         11    1    3    3    0    0 -0.72980449145E+01 -0.19643767682E+01 -0.89882939687E+01  0.11743494556E+02  0.51100000000E-03 0. -1.
        -11    1    3    3    0    0 -0.72249474607E+01 -0.44269895512E+01  0.62974998657E+01  0.10557301128E+02  0.51100000000E-03 0.  1.
         12    1    3    3    0    0  0.18661625219E+02 -0.76378168153E+01  0.31024064553E+02  0.37001149751E+02  0.00000000000E+00 0. -1.
</event>
<event>
 7    1  0.6230310E-012  0.5930190E+02  0.7816164E-02  0.1266605E+00
        -11   -1    0    0    0    0  0.00000000000E+00  0.00000000000E+00  0.45593999997E+02  0.45594000000E+02  0.51100000000E-03 0.  1.
         11   -1    0    0    0    0 -0.00000000000E+00 -0.00000000000E+00 -0.45593999997E+02  0.45594000000E+02  0.51100000000E-03 0. -1.
    9900012    2    1    2    0    0 -0.30504056161E+02 -0.16054291113E+01  0.91459449763E+01  0.59301903431E+02  0.49999925962E+02 0.  0.
         12    1    1    2    0    0  0.30504056161E+02  0.16054291113E+01 -0.91459449763E+01  0.31886096569E+02  0.00000000000E+00 0. -1.
         11    1    3    3    0    0  0.98649269340E+00  0.12680669203E+02  0.15483028405E+02  0.20037382766E+02  0.51100000000E-03 0. -1.
        -11    1    3    3    0    0  0.57866085935E+00  0.36073440779E+00 -0.38623462946E+01  0.39220781307E+01  0.51100000000E-03 0.  1.
        -12    1    3    3    0    0 -0.32069209713E+02 -0.14646832722E+02 -0.24747371342E+01  0.35342442534E+02  0.00000000000E+00 0.  1.
</event>
<event>
 7    1  0.6230310E-012  0.5930200E+02  0.7816164E-02  0.1266605E+00
        -11   -1    0    0    0    0  0.00000000000E+00  0.00000000000E+00  0.45593999997E+02  0.45594000000E+02  0.51100000000E-03 0.  1.
         11   -1    0    0    0    0 -0.00000000000E+00 -0.00000000000E+00 -0.45593999997E+02  0.45594000000E+02  0.51100000000E-03 0. -1.
    9900012    2    1    2    0    0  0.11568082351E+02  0.29636873110E+02 -0.21336144236E+01  0.59301998564E+02  0.50000099462E+02 0.  0.
         12    1    1    2    0    0 -0.11568082351E+02 -0.29636873110E+02  0.21336144236E+01  0.31886001436E+02  0.00000000000E+00 0. -1.
         11    1    3    3    0    0  0.64027842444E+00  0.31981112709E+02  0.10344472318E+02  0.33618590607E+02  0.51100000000E-03 0.  1.
        -11    1    3    3    0    0  0.88294288356E+01 -0.38778713815E+01  0.29134478705E+01  0.10073970358E+02  0.51100000000E-03 0. -1.
        -12    1    3    3    0    0  0.20983750909E+01  0.15336317826E+01 -0.15391534612E+02  0.15609437600E+02  0.00000000000E+00 0.  1.
</event>
<event>
 7    1  0.6230310E-012  0.5930194E+02  0.7816164E-02  0.1266605E+00
        -11   -1    0    0    0    0  0.00000000000E+00  0.00000000000E+00  0.45593999997E+02  0.45594000000E+02  0.51100000000E-03 0.  1.
         11   -1    0    0    0    0 -0.00000000000E+00 -0.00000000000E+00 -0.45593999997E+02  0.45594000000E+02  0.51100000000E-03 0. -1.
    9900012    2    1    2    0    0 -0.67914273249E+01  0.29607877151E+02 -0.96938693395E+01  0.59301937570E+02  0.49999988223E+02 0.  0.
         12    1    1    2    0    0  0.67914273249E+01 -0.29607877151E+02  0.96938693395E+01  0.31886062430E+02  0.00000000000E+00 0. -1.
         11    1    3    3    0    0  0.87844868744E+01  0.34577598216E+01 -0.15303313216E+02  0.17980954042E+02  0.51100000000E-03 0. -1.
        -11    1    3    3    0    0  0.97757560268E+00 -0.64801135791E+00  0.95098286477E+01  0.95818794581E+01  0.51100000000E-03 0.  1.
        -12    1    3    3    0    0 -0.16553489802E+02  0.26798128688E+02 -0.39003847716E+01  0.31739104070E+02  0.00000000000E+00 0.  1.
</event>
<event>
 7    1  0.6230310E-012  0.5930193E+02  0.7816164E-02  0.1266605E+00
        -11   -1    0    0    0    0  0.00000000000E+00  0.00000000000E+00  0.45593999997E+02  0.45594000000E+02  0.51100000000E-03 0.  1.
         11   -1    0    0    0    0 -0.00000000000E+00 -0.00000000000E+00 -0.45593999997E+02  0.45594000000E+02  0.51100000000E-03 0. -1.
    9900012    2    1    2    0    0 -0.23056686923E+02  0.26754009607E+01  0.21862126333E+02  0.59301934862E+02  0.49999983284E+02 0.  0.
         12    1    1    2    0    0  0.23056686923E+02 -0.26754009607E+01 -0.21862126333E+02  0.31886065138E+02  0.00000000000E+00 0. -1.
         11    1    3    3    0    0  0.88656752251E+01  0.10938323994E+02 -0.40694028580E+01  0.14656301337E+02  0.51100000000E-03 0. -1.
        -11    1    3    3    0    0 -0.83801595833E+01 -0.92296938499E+01  0.62528736145E+01  0.13946782851E+02  0.51100000000E-03 0.  1.
        -12    1    3    3    0    0 -0.23542202565E+02  0.96677081692E+00  0.19678655577E+02  0.30698850674E+02  0.00000000000E+00 0.  1.
</event>
<event>
 7    1  0.6230310E-012  0.5930195E+02  0.7816164E-02  0.1266605E+00
        -11   -1    0    0    0    0  0.00000000000E+00  0.00000000000E+00  0.45593999997E+02  0.45594000000E+02  0.51100000000E-03 0.  1.
         11   -1    0    0    0    0 -0.00000000000E+00 -0.00000000000E+00 -0.45593999997E+02  0.45594000000E+02  0.51100000000E-03 0. -1.
    9900012    2    1    2    0    0  0.24240432388E+02  0.69050934188E+01  0.19530518599E+02  0.59301952358E+02  0.50000015193E+02 0.  0.
         12    1    1    2    0    0 -0.24240432388E+02 -0.69050934188E+01 -0.19530518599E+02  0.31886047642E+02  0.00000000000E+00 0. -1.
         11    1    3    3    0    0  0.23815357098E+02 -0.14282264157E+02  0.47774545694E+01  0.28177621894E+02  0.51100000000E-03 0. -1.
        -11    1    3    3    0    0  0.48298911106E+01  0.36060129381E+01  0.11106101064E+02  0.12636322984E+02  0.51100000000E-03 0.  1.
        -12    1    3    3    0    0 -0.44048158211E+01  0.17581344638E+02  0.36469629657E+01  0.18488007480E+02  0.00000000000E+00 0.  1.
</event>
<event>
 7    1  0.6230310E-012  0.5930195E+02  0.7816164E-02  0.1266605E+00
        -11   -1    0    0    0    0  0.00000000000E+00  0.00000000000E+00  0.45593999997E+02  0.45594000000E+02  0.51100000000E-03 0. -1.
         11   -1    0    0    0    0 -0.00000000000E+00 -0.00000000000E+00 -0.45593999997E+02  0.45594000000E+02  0.51100000000E-03 0.  1.
    9900012    2    1    2    0    0  0.26830394972E+02  0.15660165108E+02 -0.71839806787E+01  0.59301945933E+02  0.50000003475E+02 0.  0.
         12    1    1    2    0    0 -0.26830394972E+02 -0.15660165108E+02  0.71839806787E+01  0.31886054067E+02  0.00000000000E+00 0. -1.
         11    1    3    3    0    0  0.20623218585E+02 -0.53019005752E+01  0.12379630700E+01  0.21329787794E+02  0.51100000000E-03 0. -1.
        -11    1    3    3    0    0  0.17724945356E+02  0.16420157215E+02 -0.84329359685E+01  0.25591202788E+02  0.51100000000E-03 0.  1.
         12    1    3    3    0    0 -0.11517768970E+02  0.45419084682E+01  0.10992219712E-01  0.12380955351E+02  0.00000000000E+00 0. -1.
</event>
<event>
 7    1  0.6230310E-012  0.5930194E+02  0.7816164E-02  0.1266605E+00
        -11   -1    0    0    0    0  0.00000000000E+00  0.00000000000E+00  0.45593999997E+02  0.45594000000E+02  0.51100000000E-03 0. -1.
         11   -1    0    0    0    0 -0.00000000000E+00 -0.00000000000E+00 -0.45593999997E+02  0.45594000000E+02  0.51100000000E-03 0.  1.
    9900012    2    1    2    0    0  0.25425929133E+02 -0.15879444646E+02 -0.10866744522E+02  0.59301940804E+02  0.49999994121E+02 0.  0.
         12    1    1    2    0    0 -0.25425929133E+02  0.15879444646E+02  0.10866744522E+02  0.31886059196E+02  0.00000000000E+00 0. -1.
         11    1    3    3    0    0  0.12781279620E+02 -0.24918599912E+02 -0.13006551551E+02  0.30878278997E+02  0.51100000000E-03 0. -1.
        -11    1    3    3    0    0  0.12776028776E+02  0.49000865485E+01 -0.91081199154E+01  0.16437627813E+02  0.51100000000E-03 0.  1.
         12    1    3    3    0    0 -0.13137926374E+00  0.41390687178E+01  0.11247926944E+02  0.11986033994E+02  0.00000000000E+00 0. -1.
</event>
<event>
 7    1  0.6230310E-012  0.5930193E+02  0.7816164E-02  0.1266605E+00
        -11   -1    0    0    0    0  0.00000000000E+00  0.00000000000E+00  0.45593999997E+02  0.45594000000E+02  0.51100000000E-03 0. -1.
         11   -1    0    0    0    0 -0.00000000000E+00 -0.00000000000E+00 -0.45593999997E+02  0.45594000000E+02  0.51100000000E-03 0.  1.
    9900012    2    1    2    0    0  0.30047556507E+02 -0.66570614155E+01  0.83396060979E+01  0.59301934884E+02  0.49999983323E+02 0.  0.
         12    1    1    2    0    0 -0.30047556507E+02  0.66570614155E+01 -0.83396060979E+01  0.31886065116E+02  0.00000000000E+00 0. -1.
         11    1    3    3    0    0  0.46379680579E+01  0.41917033427E+00  0.24132721935E+01  0.52450294962E+01  0.51100000000E-03 0. -1.
        -11    1    3    3    0    0  0.33783113406E+02 -0.73588971602E+01 -0.10059152765E+02  0.36008869372E+02  0.51100000000E-03 0.  1.
         12    1    3    3    0    0 -0.83735249572E+01  0.28266541042E+00  0.15985486670E+02  0.18048036015E+02  0.00000000000E+00 0. -1.
</event>
<event>
 7    1  0.6230310E-012  0.5930194E+02  0.7816164E-02  0.1266605E+00
        -11   -1    0    0    0    0  0.00000000000E+00  0.00000000000E+00  0.45593999997E+02  0.45594000000E+02  0.51100000000E-03 0. -1.
         11   -1    0    0    0    0 -0.00000000000E+00 -0.00000000000E+00 -0.45593999997E+02  0.45594000000E+02  0.51100000000E-03 0.  1.
    9900012    2    1    2    0    0 -0.23834652272E+02 -0.70108187651E+01 -0.19986966050E+02  0.59301936578E+02  0.49999986413E+02 0.  0.
         12    1    1    2    0    0  0.23834652272E+02  0.70108187651E+01  0.19986966050E+02  0.31886063422E+02  0.00000000000E+00 0. -1.
         11    1    3    3    0    0 -0.10456246377E+02 -0.80053664477E+01  0.61885133794E+01  0.14550487221E+02  0.51100000000E-03 0. -1.
        -11    1    3    3    0    0 -0.19895965159E+02  0.11661350349E+02 -0.21107476403E+02  0.31262790694E+02  0.51100000000E-03 0.  1.
        -12    1    3    3    0    0  0.65175592635E+01 -0.10666802666E+02 -0.50680030256E+01  0.13488658664E+02  0.00000000000E+00 0.  1.
</event>
<event>
 7    1  0.6230310E-012  0.5930194E+02  0.7816164E-02  0.1266605E+00
        -11   -1    0    0    0    0  0.00000000000E+00  0.00000000000E+00  0.45593999997E+02  0.45594000000E+02  0.51100000000E-03 0.  1.
         11   -1    0    0    0    0 -0.00000000000E+00 -0.00000000000E+00 -0.45593999997E+02  0.45594000000E+02  0.51100000000E-03 0. -1.
    9900012    2    1    2    0    0  0.71393015861E+01 -0.19288152226E+01  0.31016624205E+02  0.59301938274E+02  0.49999989507E+02 0.  0.
         12    1    1    2    0    0 -0.71393015861E+01  0.19288152226E+01 -0.31016624205E+02  0.31886061726E+02  0.00000000000E+00 0. -1.
         11    1    3    3    0    0 -0.98494127586E+01 -0.18142703844E+01  0.96909915528E+00  0.10061891579E+02  0.51100000000E-03 0. -1.
        -11    1    3    3    0    0 -0.10303809803E+02 -0.17531714154E+01  0.14219085710E+02  0.17647223723E+02  0.51100000000E-03 0.  1.
         12    1    3    3    0    0  0.27292524147E+02  0.16386265772E+01  0.15828439340E+02  0.31592822972E+02  0.00000000000E+00 0. -1.
</event>
<event>
 7    1  0.6230310E-012  0.5930196E+02  0.7816164E-02  0.1266605E+00
        -11   -1    0    0    0    0  0.00000000000E+00  0.00000000000E+00  0.45593999997E+02  0.45594000000E+02  0.51100000000E-03 0. -1.
         11   -1    0    0    0    0 -0.00000000000E+00 -0.00000000000E+00 -0.45593999997E+02  0.45594000000E+02  0.51100000000E-03 0.  1.
    9900012    2    1    2    0    0 -0.53163266785E+01  0.58166753279E+01 -0.30896967815E+02  0.59301958205E+02  0.50000025855E+02 0.  0.
         12    1    1    2    0    0  0.53163266785E+01 -0.58166753279E+01  0.30896967815E+02  0.31886041795E+02  0.00000000000E+00 0. -1.
         11    1    3    3    0    0 -0.23588917665E+01  0.89389449091E+01  0.77871272594E+01  0.12087533151E+02  0.51100000000E-03 0. -1.
        -11    1    3    3    0    0  0.11094041885E+01 -0.11361500663E+02 -0.52943131727E+01  0.12583490263E+02  0.51100000000E-03 0.  1.
         12    1    3    3    0    0 -0.40668391005E+01  0.82392310815E+01 -0.33389781902E+02  0.34630934791E+02  0.00000000000E+00 0. -1.
</event>
<event>
 7    1  0.6230310E-012  0.5930198E+02  0.7816164E-02  0.1266605E+00
        -11   -1    0    0    0    0  0.00000000000E+00  0.00000000000E+00  0.45593999997E+02  0.45594000000E+02  0.51100000000E-03 0.  1.
         11   -1    0    0    0    0 -0.00000000000E+00 -0.00000000000E+00 -0.45593999997E+02  0.45594000000E+02  0.51100000000E-03 0. -1.
    9900012    2    1    2    0    0  0.88966710361E+01  0.21626040747E+02  0.21676762175E+02  0.59301977791E+02  0.50000061577E+02 0.  0.
         12    1    1    2    0    0 -0.88966710361E+01 -0.21626040747E+02 -0.21676762175E+02  0.31886022209E+02  0.00000000000E+00 0. -1.
         11    1    3    3    0    0  0.41501787558E+01 -0.92851465969E+01 -0.66680973456E+01  0.12161474150E+02  0.51100000000E-03 0. -1.
        -11    1    3    3    0    0 -0.19270536295E+01  0.75957418148E+01  0.20021110726E+02  0.21500086148E+02  0.51100000000E-03 0.  1.
        -12    1    3    3    0    0  0.66735459097E+01  0.23315445529E+02  0.83237487940E+01  0.25640417493E+02  0.00000000000E+00 0.  1.
</event>
<event>
 7    1  0.6230310E-012  0.5930196E+02  0.7816164E-02  0.1266605E+00
        -11   -1    0    0    0    0  0.00000000000E+00  0.00000000000E+00  0.45593999997E+02  0.45594000000E+02  0.51100000000E-03 0.  1.
         11   -1    0    0    0    0 -0.00000000000E+00 -0.00000000000E+00 -0.45593999997E+02  0.45594000000E+02  0.51100000000E-03 0. -1.
    9900012    2    1    2    0    0  0.20265706602E+02 -0.18855309406E+02  0.15827129251E+02  0.59301959525E+02  0.50000028262E+02 0.  0.
         12    1    1    2    0    0 -0.20265706602E+02  0.18855309406E+02 -0.15827129251E+02  0.31886040475E+02  0.00000000000E+00 0. -1.
         11    1    3    3    0    0  0.39511762753E+01  0.77404906046E+01  0.10753801569E+02  0.13826468718E+02  0.51100000000E-03 0. -1.
        -11    1    3    3    0    0 -0.32622979937E+01 -0.10263143894E+01  0.12049355479E+02  0.12525289504E+02  0.51100000000E-03 0.  1.
         12    1    3    3    0    0  0.19576828321E+02 -0.25569485621E+02 -0.69760277982E+01  0.32950201302E+02  0.00000000000E+00 0. -1.
</event>
<event>
 7    1  0.6230310E-012  0.5930191E+02  0.7816164E-02  0.1266605E+00
        -11   -1    0    0    0    0  0.00000000000E+00  0.00000000000E+00  0.45593999997E+02  0.45594000000E+02  0.51100000000E-03 0.  1.
         11   -1    0    0    0    0 -0.00000000000E+00 -0.00000000000E+00 -0.45593999997E+02  0.45594000000E+02  0.51100000000E-03 0. -1.
    9900012    2    1    2    0    0  0.19121908773E+02  0.22795465871E+01  0.25414149469E+02  0.59301910227E+02  0.49999938356E+02 0.  0.
         12    1    1    2    0    0 -0.19121908773E+02 -0.22795465871E+01 -0.25414149469E+02  0.31886089773E+02  0.00000000000E+00 0. -1.
         11    1    3    3    0    0 -0.36834916369E+01  0.24368406931E+01 -0.82189591154E+01  0.93304658193E+01  0.51100000000E-03 0. -1.
        -11    1    3    3    0    0  0.82370834597E+01  0.38314480209E+01 -0.36149310793E+01  0.97773853779E+01  0.51100000000E-03 0.  1.
        -12    1    3    3    0    0  0.14568316950E+02 -0.39887421269E+01  0.37248039664E+02  0.40194059030E+02  0.00000000000E+00 0.  1.
</event>
<event>
 7    1  0.6230310E-012  0.5930190E+02  0.7816164E-02  0.1266605E+00
        -11   -1    0    0    0    0  0.00000000000E+00  0.00000000000E+00  0.45593999997E+02  0.45594000000E+02  0.51100000000E-03 0.  1.
         11   -1    0    0    0    0 -0.00000000000E+00 -0.00000000000E+00 -0.45593999997E+02  0.45594000000E+02  0.51100000000E-03 0. -1.
    9900012    2    1    2    0    0 -0.18660634859E+02  0.58412155562E+01  0.25186986929E+02  0.59301899532E+02  0.49999918850E+02 0.  0.
         12    1    1    2    0    0  0.18660634859E+02 -0.58412155562E+01 -0.25186986929E+02  0.31886100468E+02  0.00000000000E+00 0. -1.
         11    1    3    3    0    0 -0.16097163538E+02  0.93054483543E+01  0.26609220797E+02  0.32461680097E+02  0.51100000000E-03 0.  1.
        -11    1    3    3    0    0 -0.10424623744E+02  0.60004296713E+01  0.49231661943E+01  0.12996749673E+02  0.51100000000E-03 0. -1.
        -12    1    3    3    0    0  0.78611524225E+01 -0.94646624693E+01 -0.63454000627E+01  0.13843469761E+02  0.00000000000E+00 0.  1.
</event>
<event>
 7    1  0.6230310E-012  0.5930194E+02  0.7816164E-02  0.1266605E+00
        -11   -1    0    0    0    0  0.00000000000E+00  0.00000000000E+00  0.45593999997E+02  0.45594000000E+02  0.51100000000E-03 0. -1.
         11   -1    0    0    0    0 -0.00000000000E+00 -0.00000000000E+00 -0.45593999997E+02  0.45594000000E+02  0.51100000000E-03 0.  1.
    9900012    2    1    2    0    0  0.19811296119E+02  0.11044150755E+02 -0.22411156678E+02  0.59301942492E+02  0.49999997199E+02 0.  0.
         12    1    1    2    0    0 -0.19811296119E+02 -0.11044150755E+02  0.22411156678E+02  0.31886057508E+02  0.00000000000E+00 0. -1.
         11    1    3    3    0    0 -0.24028035643E+01 -0.16873884319E+01  0.24119735805E+01  0.37997844022E+01  0.51100000000E-03 0. -1.
        -11    1    3    3    0    0  0.12477682744E+02 -0.80388495480E+01  0.68884283962E+01  0.16363560577E+02  0.51100000000E-03 0.  1.
        -12    1    3    3    0    0  0.97364169387E+01  0.20770388735E+02 -0.31711558654E+02  0.39138597513E+02  0.00000000000E+00 0.  1.
</event>
<event>
 7    1  0.6230310E-012  0.5930185E+02  0.7816164E-02  0.1266605E+00
        -11   -1    0    0    0    0  0.00000000000E+00  0.00000000000E+00  0.45593999997E+02  0.45594000000E+02  0.51100000000E-03 0.  1.
         11   -1    0    0    0    0 -0.00000000000E+00 -0.00000000000E+00 -0.45593999997E+02  0.45594000000E+02  0.51100000000E-03 0. -1.
    9900012    2    1    2    0    0  0.64529833194E+01  0.24087897941E+02  0.19871059910E+02  0.59301845592E+02  0.49999820477E+02 0.  0.
         12    1    1    2    0    0 -0.64529833194E+01 -0.24087897941E+02 -0.19871059910E+02  0.31886154408E+02  0.00000000000E+00 0. -1.
         11    1    3    3    0    0  0.12203782486E+02  0.18484878652E+02  0.39450758011E+01  0.22498592603E+02  0.51100000000E-03 0.  1.
        -11    1    3    3    0    0 -0.54945017308E+00  0.10576675480E+02 -0.70524713828E+01  0.12724201844E+02  0.51100000000E-03 0. -1.
        -12    1    3    3    0    0 -0.52013489938E+01 -0.49736561911E+01  0.22978455492E+02  0.24079051145E+02  0.00000000000E+00 0.  1.
</event>
<event>
 7    1  0.6230310E-012  0.5930196E+02  0.7816164E-02  0.1266605E+00
        -11   -1    0    0    0    0  0.00000000000E+00  0.00000000000E+00  0.45593999997E+02  0.45594000000E+02  0.51100000000E-03 0.  1.
         11   -1    0    0    0    0 -0.00000000000E+00 -0.00000000000E+00 -0.45593999997E+02  0.45594000000E+02  0.51100000000E-03 0. -1.
    9900012    2    1    2    0    0  0.25430903712E+02 -0.45084631323E+01  0.18699263087E+02  0.59301960054E+02  0.50000029228E+02 0.  0.
         12    1    1    2    0    0 -0.25430903712E+02  0.45084631323E+01 -0.18699263087E+02  0.31886039946E+02  0.00000000000E+00 0. -1.
         11    1    3    3    0    0  0.61982820616E+01  0.10236003664E+02  0.72691305845E+01  0.14001240347E+02  0.51100000000E-03 0. -1.
        -11    1    3    3    0    0  0.26585359250E+02 -0.20844420455E+01  0.14482155655E+02  0.30345659620E+02  0.51100000000E-03 0.  1.
         12    1    3    3    0    0 -0.73527375992E+01 -0.12660024751E+02 -0.30520231522E+01  0.14955060088E+02  0.00000000000E+00 0. -1.
</event>
<event>
 7    1  0.6230310E-012  0.5930196E+02  0.7816164E-02  0.1266605E+00
        -11   -1    0    0    0    0  0.00000000000E+00  0.00000000000E+00  0.45593999997E+02  0.45594000000E+02  0.51100000000E-03 0.  1.
         11   -1    0    0    0    0 -0.00000000000E+00 -0.00000000000E+00 -0.45593999997E+02  0.45594000000E+02  0.51100000000E-03 0. -1.
    9900012    2    1    2    0    0  0.12656264035E+02 -0.39429620671E+01  0.28999857800E+02  0.59301957260E+02  0.50000024132E+02 0.  0.
         12    1    1    2    0    0 -0.12656264035E+02  0.39429620671E+01 -0.28999857800E+02  0.31886042740E+02  0.00000000000E+00 0. -1.
         11    1    3    3    0    0 -0.70734491814E+01  0.11706997040E+01 -0.59926018806E+01  0.93442762523E+01  0.51100000000E-03 0. -1.
        -11    1    3    3    0    0  0.13639753277E+02 -0.42859635724E+01 -0.13369268174E+00  0.14297909889E+02  0.51100000000E-03 0.  1.
         12    1    3    3    0    0  0.60899599397E+01 -0.82769819874E+00  0.35126152363E+02  0.35659771118E+02  0.00000000000E+00 0. -1.
</event>
<event>
 7    1  0.6230310E-012  0.5930195E+02  0.7816164E-02  0.1266605E+00
        -11   -1    0    0    0    0  0.00000000000E+00  0.00000000000E+00  0.45593999997E+02  0.45594000000E+02  0.51100000000E-03 0.  1.
         11   -1    0    0    0    0 -0.00000000000E+00 -0.00000000000E+00 -0.45593999997E+02  0.45594000000E+02  0.51100000000E-03 0. -1.
    9900012    2    1    2    0    0 -0.18430964175E+02  0.24053361209E+02  0.99224835638E+01  0.59301948097E+02  0.50000007422E+02 0.  0.
         12    1    1    2    0    0  0.18430964175E+02 -0.24053361209E+02 -0.99224835638E+01  0.31886051903E+02  0.00000000000E+00 0. -1.
         11    1    3    3    0    0  0.22645165286E+01  0.48559341245E+01  0.95582160103E+01  0.10957537355E+02  0.51100000000E-03 0. -1.
        -11    1    3    3    0    0  0.67340249898E+01  0.19700606939E+02  0.16111172022E+01  0.20881970818E+02  0.51100000000E-03 0.  1.
         12    1    3    3    0    0 -0.27429505694E+02 -0.50317985474E+00 -0.12468496487E+01  0.27462439925E+02  0.00000000000E+00 0. -1.
</event>
<event>
 7    1  0.6230310E-012  0.5930194E+02  0.7816164E-02  0.1266605E+00
        -11   -1    0    0    0    0  0.00000000000E+00  0.00000000000E+00  0.45593999997E+02  0.45594000000E+02  0.51100000000E-03 0. -1.
         11   -1    0    0    0    0 -0.00000000000E+00 -0.00000000000E+00 -0.45593999997E+02  0.45594000000E+02  0.51100000000E-03 0.  1.
    9900012    2    1    2    0    0 -0.84995839966E+01  0.24226620035E+02  0.18908958880E+02  0.59301940784E+02  0.49999994084E+02 0.  0.
         12    1    1    2    0    0  0.84995839966E+01 -0.24226620035E+02 -0.18908958880E+02  0.31886059216E+02  0.00000000000E+00 0. -1.
         11    1    3    3    0    0 -0.50872660270E+01  0.17287163174E+02  0.12289645040E+02  0.21811961436E+02  0.51100000000E-03 0. -1.
        -11    1    3    3    0    0 -0.10884360835E+02 -0.11601195994E+01  0.18367887894E+02  0.21382106871E+02  0.51100000000E-03 0.  1.
         12    1    3    3    0    0  0.74720428658E+01  0.80995764604E+01 -0.11748574054E+02  0.16107872477E+02  0.00000000000E+00 0. -1.
</event>
<event>
 7    1  0.6230310E-012  0.5930187E+02  0.7816164E-02  0.1266605E+00
        -11   -1    0    0    0    0  0.00000000000E+00  0.00000000000E+00  0.45593999997E+02  0.45594000000E+02  0.51100000000E-03 0. -1.
         11   -1    0    0    0    0 -0.00000000000E+00 -0.00000000000E+00 -0.45593999997E+02  0.45594000000E+02  0.51100000000E-03 0.  1.
    9900012    2    1    2    0    0  0.24141868522E+01  0.31415167661E+02 -0.48974005345E+01  0.59301865249E+02  0.49999856327E+02 0.  0.
         12    1    1    2    0    0 -0.24141868522E+01 -0.31415167661E+02  0.48974005345E+01  0.31886134751E+02  0.00000000000E+00 0. -1.
         11    1    3    3    0    0  0.39924047610E+01 -0.15566273742E+01  0.68598038486E+01  0.80882194369E+01  0.51100000000E-03 0. -1.
        -11    1    3    3    0    0  0.86350801996E+00  0.46946003188E+01 -0.20866291588E+02  0.21405304089E+02  0.51100000000E-03 0.  1.
        -12    1    3    3    0    0 -0.24417259288E+01  0.28277194717E+02  0.91090872050E+01  0.29808341723E+02  0.00000000000E+00 0.  1.
</event>
<event>
 7    1  0.6230310E-012  0.5930197E+02  0.7816164E-02  0.1266605E+00
        -11   -1    0    0    0    0  0.00000000000E+00  0.00000000000E+00  0.45593999997E+02  0.45594000000E+02  0.51100000000E-03 0.  1.
         11   -1    0    0    0    0 -0.00000000000E+00 -0.00000000000E+00 -0.45593999997E+02  0.45594000000E+02  0.51100000000E-03 0. -1.
    9900012    2    1    2    0    0 -0.14676538249E+02  0.20537235844E+02  0.19481788214E+02  0.59301970095E+02  0.50000047541E+02 0.  0.
         12    1    1    2    0    0  0.14676538249E+02 -0.20537235844E+02 -0.19481788214E+02  0.31886029905E+02  0.00000000000E+00 0. -1.
         11    1    3    3    0    0 -0.18219034692E+02  0.16789627009E+02  0.40953561242E+01  0.25111685372E+02  0.51100000000E-03 0. -1.
        -11    1    3    3    0    0  0.84040110766E+01  0.93887735430E-01 -0.70340507373E+01  0.10959657254E+02  0.51100000000E-03 0.  1.
        -12    1    3    3    0    0 -0.48615146338E+01  0.36537210994E+01  0.22420482827E+02  0.23230627469E+02  0.00000000000E+00 0.  1.
</event>
<event>
 7    1  0.6230310E-012  0.5930194E+02  0.7816164E-02  0.1266605E+00
        -11   -1    0    0    0    0  0.00000000000E+00  0.00000000000E+00  0.45593999997E+02  0.45594000000E+02  0.51100000000E-03 0.  1.
         11   -1    0    0    0    0 -0.00000000000E+00 -0.00000000000E+00 -0.45593999997E+02  0.45594000000E+02  0.51100000000E-03 0. -1.
    9900012    2    1    2    0    0  0.13765160177E+02 -0.15184424566E+02  0.24426921988E+02  0.59301938752E+02  0.49999990379E+02 0.  0.
         12    1    1    2    0    0 -0.13765160177E+02  0.15184424566E+02 -0.24426921988E+02  0.31886061248E+02  0.00000000000E+00 0. -1.
         11    1    3    3    0    0 -0.12158438215E+02 -0.46990291667E+01  0.62589658063E-01  0.13035045557E+02  0.51100000000E-03 0. -1.
        -11    1    3    3    0    0  0.28738209137E+01 -0.51072636293E+01  0.21666141165E+02  0.22444702307E+02  0.51100000000E-03 0.  1.
         12    1    3    3    0    0  0.23049777478E+02 -0.53781317698E+01  0.26981911650E+01  0.23822190888E+02  0.00000000000E+00 0. -1.
</event>
<event>
 7    1  0.6230310E-012  0.5930197E+02  0.7816164E-02  0.1266605E+00
        -11   -1    0    0    0    0  0.00000000000E+00  0.00000000000E+00  0.45593999997E+02  0.45594000000E+02  0.51100000000E-03 0.  1.
         11   -1    0    0    0    0 -0.00000000000E+00 -0.00000000000E+00 -0.45593999997E+02  0.45594000000E+02  0.51100000000E-03 0. -1.
    9900012    2    1    2    0    0 -0.84576162702E+01 -0.30232858913E+02 -0.55823093726E+01  0.59301965299E+02  0.50000038794E+02 0.  0.
         12    1    1    2    0    0  0.84576162702E+01  0.30232858913E+02  0.55823093726E+01  0.31886034701E+02  0.00000000000E+00 0. -1.
         11    1    3    3    0    0 -0.38807412389E+01  0.76507922156E+01 -0.49526285255E+01  0.99057207543E+01  0.51100000000E-03 0. -1.
        -11    1    3    3    0    0 -0.11610801813E+02 -0.34018440289E+01 -0.64743883326E+01  0.13722279915E+02  0.51100000000E-03 0.  1.
         12    1    3    3    0    0  0.70339267816E+01 -0.34481807099E+02  0.58447074855E+01  0.35673964630E+02  0.00000000000E+00 0. -1.
</event>
<event>
 7    1  0.6230310E-012  0.5930197E+02  0.7816164E-02  0.1266605E+00
        -11   -1    0    0    0    0  0.00000000000E+00  0.00000000000E+00  0.45593999997E+02  0.45594000000E+02  0.51100000000E-03 0. -1.
         11   -1    0    0    0    0 -0.00000000000E+00 -0.00000000000E+00 -0.45593999997E+02  0.45594000000E+02  0.51100000000E-03 0.  1.
    9900012    2    1    2    0    0  0.25635191294E+02  0.16179218903E+02 -0.98888267675E+01  0.59301967763E+02  0.50000043287E+02 0.  0.
         12    1    1    2    0    0 -0.25635191294E+02 -0.16179218903E+02  0.98888267675E+01  0.31886032237E+02  0.00000000000E+00 0. -1.
         11    1    3    3    0    0 -0.83455979564E+01  0.14733407629E+02  0.27898479430E+01  0.17161164221E+02  0.51100000000E-03 0. -1.
        -11    1    3    3    0    0 -0.35890725163E+00  0.12976314120E+01 -0.72504655526E+01  0.73744093111E+01  0.51100000000E-03 0.  1.
        -12    1    3    3    0    0  0.34339696502E+02  0.14817986147E+00 -0.54282091579E+01  0.34766394230E+02  0.00000000000E+00 0.  1.
</event>
<event>
 7    1  0.6230310E-012  0.5930195E+02  0.7816164E-02  0.1266605E+00
        -11   -1    0    0    0    0  0.00000000000E+00  0.00000000000E+00  0.45593999997E+02  0.45594000000E+02  0.51100000000E-03 0.  1.
         11   -1    0    0    0    0 -0.00000000000E+00 -0.00000000000E+00 -0.45593999997E+02  0.45594000000E+02  0.51100000000E-03 0. -1.
    9900012    2    1    2    0    0  0.12641836082E+02  0.19809220526E+02  0.21552243848E+02  0.59301945803E+02  0.50000003239E+02 0.  0.
         12    1    1    2    0    0 -0.12641836082E+02 -0.19809220526E+02 -0.21552243848E+02  0.31886054197E+02  0.00000000000E+00 0. -1.
         11    1    3    3    0    0  0.70577072746E+01  0.24872731426E+01  0.52655172379E+00  0.75016675905E+01  0.51100000000E-03 0. -1.
        -11    1    3    3    0    0 -0.56481385424E+01 -0.11293573701E+02 -0.27676540493E+01  0.12926955756E+02  0.51100000000E-03 0.  1.
         12    1    3    3    0    0  0.11232267349E+02  0.28615521084E+02  0.23793346173E+02  0.38873322457E+02  0.00000000000E+00 0. -1.
</event>
<event>
 7    1  0.6230310E-012  0.5930200E+02  0.7816164E-02  0.1266605E+00
        -11   -1    0    0    0    0  0.00000000000E+00  0.00000000000E+00  0.45593999997E+02  0.45594000000E+02  0.51100000000E-03 0. -1.
         11   -1    0    0    0    0 -0.00000000000E+00 -0.00000000000E+00 -0.45593999997E+02  0.45594000000E+02  0.51100000000E-03 0.  1.
    9900012    2    1    2    0    0  0.23475817549E+02 -0.13570564156E+02 -0.16776263554E+02  0.59301996175E+02  0.50000095104E+02 0.  0.
         12    1    1    2    0    0 -0.23475817549E+02  0.13570564156E+02  0.16776263554E+02  0.31886003825E+02  0.00000000000E+00 0. -1.
         11    1    3    3    0    0  0.14910630552E+02  0.32503070156E+01 -0.22969389581E+01  0.15432670799E+02  0.51100000000E-03 0.  1.
        -11    1    3    3    0    0  0.10946967468E+02 -0.26208287964E+02 -0.25693494292E+01  0.28518625694E+02  0.51100000000E-03 0. -1.
         12    1    3    3    0    0 -0.23817804718E+01  0.93874167916E+01 -0.11909975167E+02  0.15350699681E+02  0.00000000000E+00 0. -1.
</event>
<event>
 7    1  0.6230310E-012  0.5930193E+02  0.7816164E-02  0.1266605E+00
        -11   -1    0    0    0    0  0.00000000000E+00  0.00000000000E+00  0.45593999997E+02  0.45594000000E+02  0.51100000000E-03 0.  1.
         11   -1    0    0    0    0 -0.00000000000E+00 -0.00000000000E+00 -0.45593999997E+02  0.45594000000E+02  0.51100000000E-03 0. -1.
    9900012    2    1    2    0    0 -0.16688340084E+01 -0.18086964008E+02  0.26206837643E+02  0.59301927598E+02  0.49999970036E+02 0.  0.
         12    1    1    2    0    0  0.16688340084E+01  0.18086964008E+02 -0.26206837643E+02  0.31886072402E+02  0.00000000000E+00 0. -1.
         11    1    3    3    0    0  0.11279578099E+02  0.29100746373E+01 -0.39113802890E+01  0.12288055685E+02  0.51100000000E-03 0. -1.
        -11    1    3    3    0    0  0.78540091107E+01 -0.91938406303E+01  0.85683128143E+01  0.14819856591E+02  0.51100000000E-03 0.  1.
        -12    1    3    3    0    0 -0.20802421218E+02 -0.11803198015E+02  0.21549905118E+02  0.32194015321E+02  0.00000000000E+00 0.  1.
</event>
<event>
 7    1  0.6230310E-012  0.5930194E+02  0.7816164E-02  0.1266605E+00
        -11   -1    0    0    0    0  0.00000000000E+00  0.00000000000E+00  0.45593999997E+02  0.45594000000E+02  0.51100000000E-03 0. -1.
         11   -1    0    0    0    0 -0.00000000000E+00 -0.00000000000E+00 -0.45593999997E+02  0.45594000000E+02  0.51100000000E-03 0.  1.
    9900012    2    1    2    0    0  0.18064776963E+02  0.21705535186E+02  0.14807237972E+02  0.59301941592E+02  0.49999995557E+02 0.  0.
         12    1    1    2    0    0 -0.18064776963E+02 -0.21705535186E+02 -0.14807237972E+02  0.31886058408E+02  0.00000000000E+00 0. -1.
         11    1    3    3    0    0  0.36000833602E+01 -0.99824407022E+00  0.11457890208E+02  0.12051570010E+02  0.51100000000E-03 0. -1.
        -11    1    3    3    0    0 -0.19299428370E+01 -0.23891151790E+01 -0.12827276234E+02  0.13189828147E+02  0.51100000000E-03 0.  1.
         12    1    3    3    0    0  0.16394636440E+02  0.25092894435E+02  0.16176623998E+02  0.34060543436E+02  0.00000000000E+00 0. -1.
</event>
<event>
 7    1  0.6230310E-012  0.5930194E+02  0.7816164E-02  0.1266605E+00
        -11   -1    0    0    0    0  0.00000000000E+00  0.00000000000E+00  0.45593999997E+02  0.45594000000E+02  0.51100000000E-03 0.  1.
         11   -1    0    0    0    0 -0.00000000000E+00 -0.00000000000E+00 -0.45593999997E+02  0.45594000000E+02  0.51100000000E-03 0. -1.
    9900012    2    1    2    0    0 -0.17849807691E+02 -0.19318969890E+02  0.18024505930E+02  0.59301936489E+02  0.49999986250E+02 0.  0.
         12    1    1    2    0    0  0.17849807691E+02  0.19318969890E+02 -0.18024505930E+02  0.31886063511E+02  0.00000000000E+00 0. -1.
         11    1    3    3    0    0 -0.14876451860E+02 -0.12383438149E+02  0.20443926910E+02  0.28153374720E+02  0.51100000000E-03 0. -1.
        -11    1    3    3    0    0 -0.10445498254E+02 -0.88798975290E+01  0.96889443097E+01  0.16787991422E+02  0.51100000000E-03 0.  1.
         12    1    3    3    0    0  0.74721424219E+01  0.19443657880E+01 -0.12108365290E+02  0.14360570347E+02  0.00000000000E+00 0. -1.
</event>
<event>
 7    1  0.6230310E-012  0.5930195E+02  0.7816164E-02  0.1266605E+00
        -11   -1    0    0    0    0  0.00000000000E+00  0.00000000000E+00  0.45593999997E+02  0.45594000000E+02  0.51100000000E-03 0.  1.
         11   -1    0    0    0    0 -0.00000000000E+00 -0.00000000000E+00 -0.45593999997E+02  0.45594000000E+02  0.51100000000E-03 0. -1.
    9900012    2    1    2    0    0 -0.65361730456E+01 -0.19199093557E+01  0.31149840492E+02  0.59301950187E+02  0.50000011233E+02 0.  0.
         12    1    1    2    0    0  0.65361730456E+01  0.19199093557E+01 -0.31149840492E+02  0.31886049813E+02  0.00000000000E+00 0. -1.
         11    1    3    3    0    0  0.58486009462E+01 -0.35244580212E+01  0.15415791035E+01  0.70003145475E+01  0.51100000000E-03 0. -1.
        -11    1    3    3    0    0  0.86506977101E+01  0.14826328705E+02  0.18017242288E+02  0.24885248917E+02  0.51100000000E-03 0.  1.
         12    1    3    3    0    0 -0.21035471702E+02 -0.13221780040E+02  0.11591019100E+02  0.27416386722E+02  0.00000000000E+00 0. -1.
</event>
<event>
 7    1  0.6230310E-012  0.5930194E+02  0.7816164E-02  0.1266605E+00
        -11   -1    0    0    0    0  0.00000000000E+00  0.00000000000E+00  0.45593999997E+02  0.45594000000E+02  0.51100000000E-03 0. -1.
         11   -1    0    0    0    0 -0.00000000000E+00 -0.00000000000E+00 -0.45593999997E+02  0.45594000000E+02  0.51100000000E-03 0.  1.
    9900012    2    1    2    0    0 -0.21970665268E+02 -0.58859745313E+01 -0.22346501404E+02  0.59301937943E+02  0.49999988903E+02 0.  0.
         12    1    1    2    0    0  0.21970665268E+02  0.58859745313E+01  0.22346501404E+02  0.31886062057E+02  0.00000000000E+00 0. -1.
         11    1    3    3    0    0 -0.11375966466E+02 -0.19317010938E+02 -0.95172779687E+01  0.24354426801E+02  0.51100000000E-03 0. -1.
        -11    1    3    3    0    0 -0.11261417593E+01 -0.66572469578E+01 -0.10680752590E+02  0.12635885742E+02  0.51100000000E-03 0.  1.
        -12    1    3    3    0    0 -0.94685570427E+01  0.20088283365E+02 -0.21484708448E+01  0.22311625400E+02  0.00000000000E+00 0.  1.
</event>
<event>
 7    1  0.6230310E-012  0.5930208E+02  0.7816164E-02  0.1266604E+00
        -11   -1    0    0    0    0  0.00000000000E+00  0.00000000000E+00  0.45593999997E+02  0.45594000000E+02  0.51100000000E-03 0.  1.
         11   -1    0    0    0    0 -0.00000000000E+00 -0.00000000000E+00 -0.45593999997E+02  0.45594000000E+02  0.51100000000E-03 0. -1.
    9900012    2    1    2    0    0  0.90587273722E+01 -0.94275208095E+01  0.29082180718E+02  0.59302079509E+02  0.50000247085E+02 0.  0.
         12    1    1    2    0    0 -0.90587273722E+01  0.94275208095E+01 -0.29082180718E+02  0.31885920491E+02  0.00000000000E+00 0. -1.
         11    1    3    3    0    0 -0.10065944549E+01 -0.14928090398E+02  0.16945856631E+02  0.22605821651E+02  0.51100000000E-03 0. -1.
        -11    1    3    3    0    0 -0.27480759173E+01  0.79496664657E+01  0.19837708741E+02  0.21547245915E+02  0.51100000000E-03 0.  1.
         12    1    3    3    0    0  0.12813397744E+02 -0.24490968776E+01 -0.77013846534E+01  0.15149011943E+02  0.00000000000E+00 0. -1.
</event>
<event>
 7    1  0.6230310E-012  0.5930192E+02  0.7816164E-02  0.1266605E+00
        -11   -1    0    0    0    0  0.00000000000E+00  0.00000000000E+00  0.45593999997E+02  0.45594000000E+02  0.51100000000E-03 0. -1.
         11   -1    0    0    0    0 -0.00000000000E+00 -0.00000000000E+00 -0.45593999997E+02  0.45594000000E+02  0.51100000000E-03 0.  1.
    9900012    2    1    2    0    0 -0.14638294957E+02  0.20232530250E+02 -0.19826431082E+02  0.59301916374E+02  0.49999949566E+02 0.  0.
         12    1    1    2    0    0  0.14638294957E+02 -0.20232530250E+02  0.19826431082E+02  0.31886083626E+02  0.00000000000E+00 0. -1.
         11    1    3    3    0    0  0.12674116440E+02  0.16252999794E+02 -0.75801467629E+01  0.21960233493E+02  0.51100000000E-03 0. -1.
        -11    1    3    3    0    0 -0.25709222259E+01  0.95627229441E+01 -0.30295136333E+01  0.10355349551E+02  0.51100000000E-03 0.  1.
        -12    1    3    3    0    0 -0.24741489172E+02 -0.55831924881E+01 -0.92167706853E+01  0.26986333331E+02  0.00000000000E+00 0.  1.
</event>
<event>
 7    1  0.6230310E-012  0.5930193E+02  0.7816164E-02  0.1266605E+00
        -11   -1    0    0    0    0  0.00000000000E+00  0.00000000000E+00  0.45593999997E+02  0.45594000000E+02  0.51100000000E-03 0.  1.
         11   -1    0    0    0    0 -0.00000000000E+00 -0.00000000000E+00 -0.45593999997E+02  0.45594000000E+02  0.51100000000E-03 0. -1.
    9900012    2    1    2    0    0 -0.51455560525E+01 -0.15855888477E+01  0.31428184007E+02  0.59301927977E+02  0.49999970728E+02 0.  0.
         12    1    1    2    0    0  0.51455560525E+01  0.15855888477E+01 -0.31428184007E+02  0.31886072023E+02  0.00000000000E+00 0. -1.
         11    1    3    3    0    0  0.10965096970E+01  0.36357360486E+01  0.17577274640E+01  0.41845568737E+01  0.51100000000E-03 0. -1.
        -11    1    3    3    0    0  0.19801732596E+02 -0.40373186637E+01  0.15307022346E+02  0.25351794595E+02  0.51100000000E-03 0.  1.
         12    1    3    3    0    0 -0.26043798345E+02 -0.11840062325E+01  0.14363434196E+02  0.29765576509E+02  0.00000000000E+00 0. -1.
</event>
<event>
 7    1  0.6230310E-012  0.5930183E+02  0.7816164E-02  0.1266605E+00
        -11   -1    0    0    0    0  0.00000000000E+00  0.00000000000E+00  0.45593999997E+02  0.45594000000E+02  0.51100000000E-03 0.  1.
         11   -1    0    0    0    0 -0.00000000000E+00 -0.00000000000E+00 -0.45593999997E+02  0.45594000000E+02  0.51100000000E-03 0. -1.
    9900012    2    1    2    0    0 -0.55718968462E+01 -0.25038325362E+02  0.18941063332E+02  0.59301832913E+02  0.49999797352E+02 0.  0.
         12    1    1    2    0    0  0.55718968462E+01  0.25038325362E+02 -0.18941063332E+02  0.31886167087E+02  0.00000000000E+00 0. -1.
         11    1    3    3    0    0  0.36944561402E+01  0.42460263924E+01 -0.45433311464E+01  0.72332291864E+01  0.51100000000E-03 0. -1.
        -11    1    3    3    0    0  0.62084358343E+01 -0.12412709276E+02  0.25555944317E+02  0.29081374061E+02  0.51100000000E-03 0.  1.
         12    1    3    3    0    0 -0.15474788821E+02 -0.16871642478E+02 -0.20715498388E+01  0.22987229665E+02  0.00000000000E+00 0. -1.
</event>
<event>
 7    1  0.6230310E-012  0.5930196E+02  0.7816164E-02  0.1266605E+00
        -11   -1    0    0    0    0  0.00000000000E+00  0.00000000000E+00  0.45593999997E+02  0.45594000000E+02  0.51100000000E-03 0.  1.
         11   -1    0    0    0    0 -0.00000000000E+00 -0.00000000000E+00 -0.45593999997E+02  0.45594000000E+02  0.51100000000E-03 0. -1.
    9900012    2    1    2    0    0 -0.21120078742E+02  0.18039984386E+02  0.15659536034E+02  0.59301955537E+02  0.50000020989E+02 0.  0.
         12    1    1    2    0    0  0.21120078742E+02 -0.18039984386E+02 -0.15659536034E+02  0.31886044463E+02  0.00000000000E+00 0. -1.
         11    1    3    3    0    0 -0.53322622646E+01  0.72353322344E+01 -0.97132056677E+01  0.13233647192E+02  0.51100000000E-03 0. -1.
        -11    1    3    3    0    0  0.79457060672E+01 -0.14093860135E+00 -0.20279714847E+01  0.82016325935E+01  0.51100000000E-03 0.  1.
        -12    1    3    3    0    0 -0.23733522545E+02  0.10945590753E+02  0.27400713186E+02  0.37866675751E+02  0.00000000000E+00 0.  1.
</event>
<event>
 7    1  0.6230310E-012  0.5930196E+02  0.7816164E-02  0.1266605E+00
        -11   -1    0    0    0    0  0.00000000000E+00  0.00000000000E+00  0.45593999997E+02  0.45594000000E+02  0.51100000000E-03 0. -1.
         11   -1    0    0    0    0 -0.00000000000E+00 -0.00000000000E+00 -0.45593999997E+02  0.45594000000E+02  0.51100000000E-03 0.  1.
    9900012    2    1    2    0    0 -0.24566977971E+02  0.20228380587E+02  0.19988931369E+01  0.59301962906E+02  0.50000034430E+02 0.  0.
         12    1    1    2    0    0  0.24566977971E+02 -0.20228380587E+02 -0.19988931369E+01  0.31886037094E+02  0.00000000000E+00 0. -1.
         11    1    3    3    0    0 -0.91994145247E+00 -0.53924941817E+01  0.66595576636E+01  0.86182941648E+01  0.51100000000E-03 0. -1.
        -11    1    3    3    0    0 -0.24710257294E+01 -0.92922849138E+01 -0.32228460700E+00  0.96206234052E+01  0.51100000000E-03 0.  1.
        -12    1    3    3    0    0 -0.21176010789E+02  0.34913159683E+02 -0.43383799197E+01  0.41063045336E+02  0.00000000000E+00 0.  1.
</event>
<event>
 7    1  0.6230310E-012  0.5930194E+02  0.7816164E-02  0.1266605E+00
        -11   -1    0    0    0    0  0.00000000000E+00  0.00000000000E+00  0.45593999997E+02  0.45594000000E+02  0.51100000000E-03 0. -1.
         11   -1    0    0    0    0 -0.00000000000E+00 -0.00000000000E+00 -0.45593999997E+02  0.45594000000E+02  0.51100000000E-03 0.  1.
    9900012    2    1    2    0    0 -0.30510720882E+02  0.47060164866E+01 -0.79793522423E+01  0.59301941257E+02  0.49999994948E+02 0.  0.
         12    1    1    2    0    0  0.30510720882E+02 -0.47060164866E+01  0.79793522423E+01  0.31886058743E+02  0.00000000000E+00 0. -1.
         11    1    3    3    0    0 -0.66865927213E+01 -0.13835527074E+02  0.79142914111E+01  0.17284916558E+02  0.51100000000E-03 0. -1.
        -11    1    3    3    0    0 -0.79196363465E+00 -0.44942540636E+01 -0.68128476261E+01  0.82000255502E+01  0.51100000000E-03 0.  1.
        -12    1    3    3    0    0 -0.23032164526E+02  0.23035797624E+02 -0.90807960273E+01  0.33816999149E+02  0.00000000000E+00 0.  1.
</event>
<event>
 7    1  0.6230310E-012  0.5930193E+02  0.7816164E-02  0.1266605E+00
        -11   -1    0    0    0    0  0.00000000000E+00  0.00000000000E+00  0.45593999997E+02  0.45594000000E+02  0.51100000000E-03 0. -1.
         11   -1    0    0    0    0 -0.00000000000E+00 -0.00000000000E+00 -0.45593999997E+02  0.45594000000E+02  0.51100000000E-03 0.  1.
    9900012    2    1    2    0    0  0.16707844678E+02  0.91343449061E+01 -0.25576021333E+02  0.59301934112E+02  0.49999981915E+02 0.  0.
         12    1    1    2    0    0 -0.16707844678E+02 -0.91343449061E+01  0.25576021333E+02  0.31886065888E+02  0.00000000000E+00 0. -1.
         11    1    3    3    0    0 -0.32681864648E+01  0.58916263149E+01 -0.30678933847E+02  0.31410018874E+02  0.51100000000E-03 0. -1.
        -11    1    3    3    0    0 -0.94128587835E+00 -0.46108093650E+01 -0.82074865136E+00  0.47769457518E+01  0.51100000000E-03 0.  1.
        -12    1    3    3    0    0  0.20917317021E+02  0.78535279563E+01  0.59236611661E+01  0.23114969486E+02  0.00000000000E+00 0.  1.
</event>
<event>
 7    1  0.6230310E-012  0.5930201E+02  0.7816164E-02  0.1266605E+00
        -11   -1    0    0    0    0  0.00000000000E+00  0.00000000000E+00  0.45593999997E+02  0.45594000000E+02  0.51100000000E-03 0.  1.
         11   -1    0    0    0    0 -0.00000000000E+00 -0.00000000000E+00 -0.45593999997E+02  0.45594000000E+02  0.51100000000E-03 0. -1.
    9900012    2    1    2    0    0 -0.29450122919E+02 -0.11731717340E+02 -0.34312472498E+01  0.59302009513E+02  0.50000119429E+02 0.  0.
         12    1    1    2    0    0  0.29450122919E+02  0.11731717340E+02  0.34312472498E+01  0.31885990487E+02  0.00000000000E+00 0. -1.
         11    1    3    3    0    0 -0.76989101729E+01  0.10053756225E+02 -0.14148537039E+02  0.18987688977E+02  0.51100000000E-03 0. -1.
        -11    1    3    3    0    0 -0.21098617228E+02 -0.17241008397E+02 -0.14742808307E+01  0.27286947864E+02  0.51100000000E-03 0.  1.
        -12    1    3    3    0    0 -0.65259551775E+00 -0.45444651668E+01  0.12191570620E+02  0.13027372672E+02  0.00000000000E+00 0.  1.
</event>
<event>
 7    1  0.6230310E-012  0.5930221E+02  0.7816164E-02  0.1266604E+00
        -11   -1    0    0    0    0  0.00000000000E+00  0.00000000000E+00  0.45593999997E+02  0.45594000000E+02  0.51100000000E-03 0.  1.
         11   -1    0    0    0    0 -0.00000000000E+00 -0.00000000000E+00 -0.45593999997E+02  0.45594000000E+02  0.51100000000E-03 0. -1.
    9900012    2    1    2    0    0 -0.26646159719E+02 -0.16796223504E+02 -0.49570900505E+01  0.59302208594E+02  0.50000482504E+02 0.  0.
         12    1    1    2    0    0  0.26646159719E+02  0.16796223504E+02  0.49570900505E+01  0.31885791406E+02  0.00000000000E+00 0. -1.
         11    1    3    3    0    0  0.26680495868E+01  0.17116144808E+01 -0.23576129506E+01  0.39505001980E+01  0.51100000000E-03 0. -1.
        -11    1    3    3    0    0  0.49081069783E+01 -0.13260068619E+02  0.11243272827E+02  0.18064609546E+02  0.51100000000E-03 0.  1.
         12    1    3    3    0    0 -0.34222316284E+02 -0.52477693657E+01 -0.13842749927E+02  0.37287098851E+02  0.00000000000E+00 0. -1.
</event>
<event>
 7    1  0.6230310E-012  0.5930194E+02  0.7816164E-02  0.1266605E+00
        -11   -1    0    0    0    0  0.00000000000E+00  0.00000000000E+00  0.45593999997E+02  0.45594000000E+02  0.51100000000E-03 0.  1.
         11   -1    0    0    0    0 -0.00000000000E+00 -0.00000000000E+00 -0.45593999997E+02  0.45594000000E+02  0.51100000000E-03 0. -1.
    9900012    2    1    2    0    0 -0.16898328261E+02 -0.16137352121E+02  0.21696852809E+02  0.59301936378E+02  0.49999986048E+02 0.  0.
         12    1    1    2    0    0  0.16898328261E+02  0.16137352121E+02 -0.21696852809E+02  0.31886063622E+02  0.00000000000E+00 0. -1.
         11    1    3    3    0    0  0.22683276424E+01 -0.24550289887E+01 -0.14506449298E+02  0.14886555986E+02  0.51100000000E-03 0. -1.
        -11    1    3    3    0    0 -0.12528333602E+01  0.16339964743E+01  0.41150374142E+01  0.46014203338E+01  0.51100000000E-03 0.  1.
        -12    1    3    3    0    0 -0.17913822544E+02 -0.15316319606E+02  0.32088264694E+02  0.39813960057E+02  0.00000000000E+00 0.  1.
</event>
<event>
 7    1  0.6230310E-012  0.5930196E+02  0.7816164E-02  0.1266605E+00
        -11   -1    0    0    0    0  0.00000000000E+00  0.00000000000E+00  0.45593999997E+02  0.45594000000E+02  0.51100000000E-03 0. -1.
         11   -1    0    0    0    0 -0.00000000000E+00 -0.00000000000E+00 -0.45593999997E+02  0.45594000000E+02  0.51100000000E-03 0.  1.
    9900012    2    1    2    0    0  0.61731823028E+00  0.30030411674E+02 -0.10701069600E+02  0.59301959203E+02  0.50000027677E+02 0.  0.
         12    1    1    2    0    0 -0.61731823028E+00 -0.30030411674E+02  0.10701069600E+02  0.31886040797E+02  0.00000000000E+00 0. -1.
         11    1    3    3    0    0  0.33478652218E+01  0.11217048347E+02  0.13880233051E+02  0.18157401933E+02  0.51100000000E-03 0. -1.
        -11    1    3    3    0    0  0.98394424526E+01  0.33547941183E+01 -0.12608168183E+01  0.10471816016E+02  0.51100000000E-03 0.  1.
        -12    1    3    3    0    0 -0.12569989444E+02  0.15458569208E+02 -0.23320485832E+02  0.30672741254E+02  0.00000000000E+00 0.  1.
</event>
<event>
 7    1  0.6230310E-012  0.5930194E+02  0.7816164E-02  0.1266605E+00
        -11   -1    0    0    0    0  0.00000000000E+00  0.00000000000E+00  0.45593999997E+02  0.45594000000E+02  0.51100000000E-03 0. -1.
         11   -1    0    0    0    0 -0.00000000000E+00 -0.00000000000E+00 -0.45593999997E+02  0.45594000000E+02  0.51100000000E-03 0.  1.
    9900012    2    1    2    0    0  0.49611189099E+01  0.31343987321E+02  0.31084244431E+01  0.59301944356E+02  0.50000000598E+02 0.  0.
         12    1    1    2    0    0 -0.49611189099E+01 -0.31343987321E+02 -0.31084244431E+01  0.31886055644E+02  0.00000000000E+00 0. -1.
         11    1    3    3    0    0  0.87620691698E+01  0.12734887949E+02  0.27299678683E+01  0.15697259380E+02  0.51100000000E-03 0. -1.
        -11    1    3    3    0    0  0.16224249020E+02  0.16967228139E+02 -0.66497918840E+00  0.23485214169E+02  0.51100000000E-03 0.  1.
        -12    1    3    3    0    0 -0.20025199280E+02  0.16418712331E+01  0.10434357632E+01  0.20119470807E+02  0.00000000000E+00 0.  1.
</event>
<event>
 7    1  0.6230310E-012  0.5930193E+02  0.7816164E-02  0.1266605E+00
        -11   -1    0    0    0    0  0.00000000000E+00  0.00000000000E+00  0.45593999997E+02  0.45594000000E+02  0.51100000000E-03 0.  1.
         11   -1    0    0    0    0 -0.00000000000E+00 -0.00000000000E+00 -0.45593999997E+02  0.45594000000E+02  0.51100000000E-03 0. -1.
    9900012    2    1    2    0    0  0.14124008603E+02  0.22415085398E+02  0.17742535780E+02  0.59301933320E+02  0.49999980472E+02 0.  0.
         12    1    1    2    0    0 -0.14124008603E+02 -0.22415085398E+02 -0.17742535780E+02  0.31886066680E+02  0.00000000000E+00 0. -1.
         11    1    3    3    0    0  0.96165535083E+01  0.11999073717E+02 -0.29888744952E+01  0.15664904802E+02  0.51100000000E-03 0. -1.
        -11    1    3    3    0    0  0.14489027719E+02 -0.79095063742E+01  0.42496298463E+01  0.17045573309E+02  0.51100000000E-03 0.  1.
        -12    1    3    3    0    0 -0.99815726246E+01  0.18325518055E+02  0.16481780429E+02  0.26591455209E+02  0.00000000000E+00 0.  1.
</event>
<event>
 7    1  0.6230310E-012  0.5930183E+02  0.7816164E-02  0.1266605E+00
        -11   -1    0    0    0    0  0.00000000000E+00  0.00000000000E+00  0.45593999997E+02  0.45594000000E+02  0.51100000000E-03 0.  1.
         11   -1    0    0    0    0 -0.00000000000E+00 -0.00000000000E+00 -0.45593999997E+02  0.45594000000E+02  0.51100000000E-03 0. -1.
    9900012    2    1    2    0    0 -0.13257946852E+02 -0.28917259310E+02  0.21786502538E+01  0.59301834384E+02  0.49999800036E+02 0.  0.
         12    1    1    2    0    0  0.13257946852E+02  0.28917259310E+02 -0.21786502538E+01  0.31886165616E+02  0.00000000000E+00 0. -1.
         11    1    3    3    0    0  0.20662939851E+01  0.88398886900E+01  0.41785183529E+01  0.99936589281E+01  0.51100000000E-03 0. -1.
        -11    1    3    3    0    0 -0.29108353091E+01 -0.96611701678E+01  0.11892753018E+02  0.15596433753E+02  0.51100000000E-03 0.  1.
         12    1    3    3    0    0 -0.12413405528E+02 -0.28095977832E+02 -0.13892621117E+02  0.33711741703E+02  0.00000000000E+00 0. -1.
</event>
<event>
 7    1  0.6230310E-012  0.5930194E+02  0.7816164E-02  0.1266605E+00
        -11   -1    0    0    0    0  0.00000000000E+00  0.00000000000E+00  0.45593999997E+02  0.45594000000E+02  0.51100000000E-03 0.  1.
         11   -1    0    0    0    0 -0.00000000000E+00 -0.00000000000E+00 -0.45593999997E+02  0.45594000000E+02  0.51100000000E-03 0. -1.
    9900012    2    1    2    0    0  0.20446649664E+02  0.23936533446E+02  0.50692984032E+01  0.59301938748E+02  0.49999990371E+02 0.  0.
         12    1    1    2    0    0 -0.20446649664E+02 -0.23936533446E+02 -0.50692984032E+01  0.31886061252E+02  0.00000000000E+00 0. -1.
         11    1    3    3    0    0 -0.30677444188E+01  0.12962107345E+02 -0.12336442820E+02  0.18155305130E+02  0.51100000000E-03 0. -1.
        -11    1    3    3    0    0  0.19172075785E+01  0.82984237280E+01  0.17412962442E+02  0.19384292160E+02  0.51100000000E-03 0.  1.
        -12    1    3    3    0    0  0.21597186504E+02  0.26760023722E+01 -0.72212184531E-02  0.21762341458E+02  0.00000000000E+00 0.  1.
</event>
<event>
 7    1  0.6230310E-012  0.5930202E+02  0.7816164E-02  0.1266604E+00
        -11   -1    0    0    0    0  0.00000000000E+00  0.00000000000E+00  0.45593999997E+02  0.45594000000E+02  0.51100000000E-03 0.  1.
         11   -1    0    0    0    0 -0.00000000000E+00 -0.00000000000E+00 -0.45593999997E+02  0.45594000000E+02  0.51100000000E-03 0. -1.
    9900012    2    1    2    0    0 -0.18746490730E+02  0.11521527358E+02  0.23076809091E+02  0.59302021496E+02  0.50000141283E+02 0.  0.
         12    1    1    2    0    0  0.18746490730E+02 -0.11521527358E+02 -0.23076809091E+02  0.31885978504E+02  0.00000000000E+00 0. -1.
         11    1    3    3    0    0 -0.61719398218E+01  0.83629560393E+01 -0.14243154085E+02  0.17632337152E+02  0.51100000000E-03 0. -1.
        -11    1    3    3    0    0 -0.26931090920E+01  0.72447112992E+01  0.13417636340E+02  0.15484561459E+02  0.51100000000E-03 0.  1.
        -12    1    3    3    0    0 -0.98814418164E+01 -0.40861399810E+01  0.23902326836E+02  0.26185122885E+02  0.00000000000E+00 0.  1.
</event>
<event>
 7    1  0.6230310E-012  0.5930209E+02  0.7816164E-02  0.1266604E+00
        -11   -1    0    0    0    0  0.00000000000E+00  0.00000000000E+00  0.45593999997E+02  0.45594000000E+02  0.51100000000E-03 0. -1.
         11   -1    0    0    0    0 -0.00000000000E+00 -0.00000000000E+00 -0.45593999997E+02  0.45594000000E+02  0.51100000000E-03 0.  1.
    9900012    2    1    2    0    0  0.85166230545E+01 -0.21352902248E+02 -0.22095973209E+02  0.59302088774E+02  0.50000263981E+02 0.  0.
         12    1    1    2    0    0 -0.85166230545E+01  0.21352902248E+02  0.22095973209E+02  0.31885911226E+02  0.00000000000E+00 0. -1.
         11    1    3    3    0    0 -0.83072013793E+01  0.11888883474E+01 -0.71980949257E+01  0.11056021937E+02  0.51100000000E-03 0. -1.
        -11    1    3    3    0    0  0.99823657964E+01 -0.31664260820E+02 -0.15876481252E+02  0.36801300213E+02  0.51100000000E-03 0.  1.
         12    1    3    3    0    0  0.68414586374E+01  0.91224702246E+01  0.97860296834E+00  0.11444766623E+02  0.00000000000E+00 0. -1.
</event>
<event>
 7    1  0.6230310E-012  0.5930190E+02  0.7816164E-02  0.1266605E+00
        -11   -1    0    0    0    0  0.00000000000E+00  0.00000000000E+00  0.45593999997E+02  0.45594000000E+02  0.51100000000E-03 0.  1.
         11   -1    0    0    0    0 -0.00000000000E+00 -0.00000000000E+00 -0.45593999997E+02  0.45594000000E+02  0.51100000000E-03 0. -1.
    9900012    2    1    2    0    0 -0.19099838185E+02  0.65109482703E+01  0.24688596889E+02  0.59301904560E+02  0.49999928020E+02 0.  0.
         12    1    1    2    0    0  0.19099838185E+02 -0.65109482703E+01 -0.24688596889E+02  0.31886095440E+02  0.00000000000E+00 0. -1.
         11    1    3    3    0    0  0.18747882644E+01  0.21397179273E+01  0.43259360702E+00  0.28775616995E+01  0.51100000000E-03 0. -1.
        -11    1    3    3    0    0 -0.21077574551E+02  0.23598703289E+02  0.13587735651E+02  0.34435294485E+02  0.51100000000E-03 0.  1.
        -12    1    3    3    0    0  0.10294810129E+00 -0.19227472946E+02  0.10668267631E+02  0.21989048375E+02  0.00000000000E+00 0.  1.
</event>
<event>
 7    1  0.6230310E-012  0.5930202E+02  0.7816164E-02  0.1266605E+00
        -11   -1    0    0    0    0  0.00000000000E+00  0.00000000000E+00  0.45593999997E+02  0.45594000000E+02  0.51100000000E-03 0.  1.
         11   -1    0    0    0    0 -0.00000000000E+00 -0.00000000000E+00 -0.45593999997E+02  0.45594000000E+02  0.51100000000E-03 0. -1.
    9900012    2    1    2    0    0  0.31012316755E+02 -0.40821718462E+01  0.61877221594E+01  0.59302018393E+02  0.50000135625E+02 0.  0.
         12    1    1    2    0    0 -0.31012316755E+02  0.40821718462E+01 -0.61877221594E+01  0.31885981607E+02  0.00000000000E+00 0. -1.
         11    1    3    3    0    0  0.18553577155E+02 -0.13023471356E+02 -0.93520851378E+01  0.24521572709E+02  0.51100000000E-03 0. -1.
        -11    1    3    3    0    0  0.73143959661E+01  0.11429238322E+02 -0.42204158079E+01  0.14210551953E+02  0.51100000000E-03 0.  1.
        -12    1    3    3    0    0  0.51443436336E+01 -0.24879388115E+01  0.19760223105E+02  0.20569893731E+02  0.00000000000E+00 0.  1.
</event>
<event>
 7    1  0.6230310E-012  0.5930196E+02  0.7816164E-02  0.1266605E+00
        -11   -1    0    0    0    0  0.00000000000E+00  0.00000000000E+00  0.45593999997E+02  0.45594000000E+02  0.51100000000E-03 0. -1.
         11   -1    0    0    0    0 -0.00000000000E+00 -0.00000000000E+00 -0.45593999997E+02  0.45594000000E+02  0.51100000000E-03 0.  1.
    9900012    2    1    2    0    0 -0.14163225982E+02  0.28443601062E+02 -0.26615860593E+01  0.59301961489E+02  0.50000031845E+02 0.  0.
         12    1    1    2    0    0  0.14163225982E+02 -0.28443601062E+02  0.26615860593E+01  0.31886038511E+02  0.00000000000E+00 0. -1.
         11    1    3    3    0    0 -0.77265813138E+01  0.92179072548E+00  0.63309973467E+00  0.78070847616E+01  0.51100000000E-03 0. -1.
        -11    1    3    3    0    0  0.10235550012E+02  0.15411712631E+01 -0.15216033027E+02  0.18402971343E+02  0.51100000000E-03 0.  1.
         12    1    3    3    0    0 -0.16672194680E+02  0.25980639073E+02  0.11921347233E+02  0.33091905384E+02  0.00000000000E+00 0. -1.
</event>
<event>
 7    1  0.6230310E-012  0.5930198E+02  0.7816164E-02  0.1266605E+00
        -11   -1    0    0    0    0  0.00000000000E+00  0.00000000000E+00  0.45593999997E+02  0.45594000000E+02  0.51100000000E-03 0.  1.
         11   -1    0    0    0    0 -0.00000000000E+00 -0.00000000000E+00 -0.45593999997E+02  0.45594000000E+02  0.51100000000E-03 0. -1.
    9900012    2    1    2    0    0 -0.16704109088E+02 -0.16492163125E+02  0.21580073907E+02  0.59301979634E+02  0.50000064937E+02 0.  0.
         12    1    1    2    0    0  0.16704109088E+02  0.16492163125E+02 -0.21580073907E+02  0.31886020366E+02  0.00000000000E+00 0. -1.
         11    1    3    3    0    0 -0.16567437881E+02  0.67032777241E+01  0.15417838419E+02  0.23603467372E+02  0.51100000000E-03 0. -1.
        -11    1    3    3    0    0  0.59136192170E+01 -0.42248104810E+01  0.12791429869E+02  0.14711920140E+02  0.51100000000E-03 0.  1.
         12    1    3    3    0    0 -0.60502904242E+01 -0.18970630368E+02 -0.66291943815E+01  0.20986592122E+02  0.00000000000E+00 0. -1.
</event>
<event>
 7    1  0.6230310E-012  0.5930193E+02  0.7816164E-02  0.1266605E+00
        -11   -1    0    0    0    0  0.00000000000E+00  0.00000000000E+00  0.45593999997E+02  0.45594000000E+02  0.51100000000E-03 0. -1.
         11   -1    0    0    0    0 -0.00000000000E+00 -0.00000000000E+00 -0.45593999997E+02  0.45594000000E+02  0.51100000000E-03 0.  1.
    9900012    2    1    2    0    0 -0.27791935667E+02  0.14798548361E+02  0.50331759905E+01  0.59301928083E+02  0.49999970921E+02 0.  0.
         12    1    1    2    0    0  0.27791935667E+02 -0.14798548361E+02 -0.50331759905E+01  0.31886071917E+02  0.00000000000E+00 0. -1.
         11    1    3    3    0    0  0.88118617471E+00 -0.50495538479E+01  0.38510056309E+01  0.64112968866E+01  0.51100000000E-03 0.  1.
        -11    1    3    3    0    0  0.30041996629E+01 -0.38522606999E+01  0.11080023594E+02  0.12109172194E+02  0.51100000000E-03 0. -1.
        -12    1    3    3    0    0 -0.31677321505E+02  0.23700362909E+02 -0.98978532346E+01  0.40781459003E+02  0.00000000000E+00 0.  1.
</event>
<event>
 7    1  0.6230310E-012  0.5930196E+02  0.7816164E-02  0.1266605E+00
        -11   -1    0    0    0    0  0.00000000000E+00  0.00000000000E+00  0.45593999997E+02  0.45594000000E+02  0.51100000000E-03 0.  1.
         11   -1    0    0    0    0 -0.00000000000E+00 -0.00000000000E+00 -0.45593999997E+02  0.45594000000E+02  0.51100000000E-03 0. -1.
    9900012    2    1    2    0    0  0.67281889690E+01 -0.24524875497E+01  0.31071475703E+02  0.59301955649E+02  0.50000021194E+02 0.  0.
         12    1    1    2    0    0 -0.67281889690E+01  0.24524875497E+01 -0.31071475703E+02  0.31886044351E+02  0.00000000000E+00 0. -1.
         11    1    3    3    0    0  0.88767482054E+01  0.18539387557E+02  0.67571150575E+01  0.21637101328E+02  0.51100000000E-03 0. -1.
        -11    1    3    3    0    0 -0.37605756084E+01  0.28917268007E+01  0.29994758887E+01  0.56125634664E+01  0.51100000000E-03 0.  1.
        -12    1    3    3    0    0  0.16120163721E+01 -0.23883601908E+02  0.21314884757E+02  0.32052290855E+02  0.00000000000E+00 0.  1.
</event>
<event>
 7    1  0.6230310E-012  0.5930200E+02  0.7816164E-02  0.1266605E+00
        -11   -1    0    0    0    0  0.00000000000E+00  0.00000000000E+00  0.45593999997E+02  0.45594000000E+02  0.51100000000E-03 0.  1.
         11   -1    0    0    0    0 -0.00000000000E+00 -0.00000000000E+00 -0.45593999997E+02  0.45594000000E+02  0.51100000000E-03 0. -1.
    9900012    2    1    2    0    0 -0.56858146474E+01 -0.27060235064E+02  0.15878663645E+02  0.59302003558E+02  0.50000108570E+02 0.  0.
         12    1    1    2    0    0  0.56858146474E+01  0.27060235064E+02 -0.15878663645E+02  0.31885996442E+02  0.00000000000E+00 0. -1.
         11    1    3    3    0    0 -0.29569628065E+01 -0.21630906337E+01 -0.27780012016E+01  0.45978126393E+01  0.51100000000E-03 0. -1.
        -11    1    3    3    0    0 -0.12992731344E+02  0.88982672119E+01  0.87784539733E+01  0.18029184163E+02  0.51100000000E-03 0.  1.
        -12    1    3    3    0    0  0.10263879503E+02 -0.33795411642E+02  0.98782108730E+01  0.36675006756E+02  0.00000000000E+00 0.  1.
</event>
<event>
 7    1  0.6230310E-012  0.5930196E+02  0.7816164E-02  0.1266605E+00
        -11   -1    0    0    0    0  0.00000000000E+00  0.00000000000E+00  0.45593999997E+02  0.45594000000E+02  0.51100000000E-03 0.  1.
         11   -1    0    0    0    0 -0.00000000000E+00 -0.00000000000E+00 -0.45593999997E+02  0.45594000000E+02  0.51100000000E-03 0. -1.
    9900012    2    1    2    0    0 -0.46079997252E+01  0.25317341137E+02  0.18828658290E+02  0.59301956082E+02  0.50000021985E+02 0.  0.
         12    1    1    2    0    0  0.46079997252E+01 -0.25317341137E+02 -0.18828658290E+02  0.31886043918E+02  0.00000000000E+00 0. -1.
         11    1    3    3    0    0  0.91939360001E-01 -0.33165757618E+01  0.23969710242E+02  0.24198246569E+02  0.51100000000E-03 0. -1.
        -11    1    3    3    0    0  0.10171123990E+01  0.79153220828E+01  0.68280463273E+01  0.10502811919E+02  0.51100000000E-03 0.  1.
         12    1    3    3    0    0 -0.57170514843E+01  0.20718594816E+02 -0.11969098280E+02  0.24600897594E+02  0.00000000000E+00 0. -1.
</event>
<event>
 7    1  0.6230310E-012  0.5930195E+02  0.7816164E-02  0.1266605E+00
        -11   -1    0    0    0    0  0.00000000000E+00  0.00000000000E+00  0.45593999997E+02  0.45594000000E+02  0.51100000000E-03 0.  1.
         11   -1    0    0    0    0 -0.00000000000E+00 -0.00000000000E+00 -0.45593999997E+02  0.45594000000E+02  0.51100000000E-03 0. -1.
    9900012    2    1    2    0    0  0.29969818336E+01  0.18028285654E+01  0.31693662921E+02  0.59301947245E+02  0.50000005867E+02 0.  0.
         12    1    1    2    0    0 -0.29969818336E+01 -0.18028285654E+01 -0.31693662921E+02  0.31886052755E+02  0.00000000000E+00 0. -1.
         11    1    3    3    0    0  0.16352257858E+01 -0.78317782230E+01  0.13270657765E+02  0.15495840451E+02  0.51100000000E-03 0. -1.
        -11    1    3    3    0    0  0.12853100540E+02 -0.13679423527E+01  0.23740880657E+02  0.27031516317E+02  0.51100000000E-03 0.  1.
         12    1    3    3    0    0 -0.11491344492E+02  0.11002549141E+02 -0.53178755005E+01  0.16774590477E+02  0.00000000000E+00 0. -1.
</event>
<event>
 7    1  0.6230310E-012  0.5930194E+02  0.7816164E-02  0.1266605E+00
        -11   -1    0    0    0    0  0.00000000000E+00  0.00000000000E+00  0.45593999997E+02  0.45594000000E+02  0.51100000000E-03 0.  1.
         11   -1    0    0    0    0 -0.00000000000E+00 -0.00000000000E+00 -0.45593999997E+02  0.45594000000E+02  0.51100000000E-03 0. -1.
    9900012    2    1    2    0    0  0.11337151918E+02  0.18948479383E+02  0.23003155161E+02  0.59301936713E+02  0.49999986660E+02 0.  0.
         12    1    1    2    0    0 -0.11337151918E+02 -0.18948479383E+02 -0.23003155161E+02  0.31886063287E+02  0.00000000000E+00 0. -1.
         11    1    3    3    0    0 -0.75696276843E+01  0.15602942219E+02  0.20163160852E+01  0.17458997680E+02  0.51100000000E-03 0. -1.
        -11    1    3    3    0    0  0.47067858085E+01  0.15111367799E+02  0.30524481371E+01  0.16119079046E+02  0.51100000000E-03 0.  1.
         12    1    3    3    0    0  0.14199993794E+02 -0.11765830635E+02  0.17934390939E+02  0.25723859987E+02  0.00000000000E+00 0. -1.
</event>
<event>
 7    1  0.6230310E-012  0.5930194E+02  0.7816164E-02  0.1266605E+00
        -11   -1    0    0    0    0  0.00000000000E+00  0.00000000000E+00  0.45593999997E+02  0.45594000000E+02  0.51100000000E-03 0.  1.
         11   -1    0    0    0    0 -0.00000000000E+00 -0.00000000000E+00 -0.45593999997E+02  0.45594000000E+02  0.51100000000E-03 0. -1.
    9900012    2    1    2    0    0 -0.29210880318E+02  0.34324749834E+00  0.12779965391E+02  0.59301939359E+02  0.49999991486E+02 0.  0.
         12    1    1    2    0    0  0.29210880318E+02 -0.34324749834E+00 -0.12779965391E+02  0.31886060641E+02  0.00000000000E+00 0. -1.
         11    1    3    3    0    0 -0.25448263193E+01  0.31846942828E+01  0.12029284401E+02  0.12701263801E+02  0.51100000000E-03 0. -1.
        -11    1    3    3    0    0 -0.11707791363E+02 -0.64079622363E+01  0.18693972879E+02  0.22969522870E+02  0.51100000000E-03 0.  1.
        -12    1    3    3    0    0 -0.14958262635E+02  0.35665154518E+01 -0.17943291889E+02  0.23631152688E+02  0.00000000000E+00 0.  1.
</event>
<event>
 7    1  0.6230310E-012  0.5930195E+02  0.7816164E-02  0.1266605E+00
        -11   -1    0    0    0    0  0.00000000000E+00  0.00000000000E+00  0.45593999997E+02  0.45594000000E+02  0.51100000000E-03 0.  1.
         11   -1    0    0    0    0 -0.00000000000E+00 -0.00000000000E+00 -0.45593999997E+02  0.45594000000E+02  0.51100000000E-03 0. -1.
    9900012    2    1    2    0    0 -0.16171947228E+01 -0.42909706766E+01  0.31554596905E+02  0.59301947658E+02  0.50000006621E+02 0.  0.
         12    1    1    2    0    0  0.16171947228E+01  0.42909706766E+01 -0.31554596905E+02  0.31886052342E+02  0.00000000000E+00 0. -1.
         11    1    3    3    0    0 -0.69685939459E+01 -0.81149010238E+01 -0.24377080717E+01  0.10970658190E+02  0.51100000000E-03 0. -1.
        -11    1    3    3    0    0 -0.13806623616E+02  0.93769361795E+00  0.20454342987E+02  0.24695794627E+02  0.51100000000E-03 0.  1.
         12    1    3    3    0    0  0.19158022839E+02  0.28862367293E+01  0.13537961990E+02  0.23635494841E+02  0.00000000000E+00 0. -1.
</event>
<event>
 7    1  0.6230310E-012  0.5930196E+02  0.7816164E-02  0.1266605E+00
        -11   -1    0    0    0    0  0.00000000000E+00  0.00000000000E+00  0.45593999997E+02  0.45594000000E+02  0.51100000000E-03 0. -1.
         11   -1    0    0    0    0 -0.00000000000E+00 -0.00000000000E+00 -0.45593999997E+02  0.45594000000E+02  0.51100000000E-03 0.  1.
    9900012    2    1    2    0    0 -0.11595206694E+01  0.30377354912E+02 -0.96224376090E+01  0.59301960968E+02  0.50000030895E+02 0.  0.
         12    1    1    2    0    0  0.11595206694E+01 -0.30377354912E+02  0.96224376090E+01  0.31886039032E+02  0.00000000000E+00 0. -1.
         11    1    3    3    0    0  0.15255128559E+01  0.32288915095E+02 -0.28449262447E+01  0.32449881865E+02  0.51100000000E-03 0. -1.
        -11    1    3    3    0    0 -0.13686174330E+02  0.19723450817E+01 -0.62475320467E+01  0.15173436323E+02  0.51100000000E-03 0.  1.
        -12    1    3    3    0    0  0.11001140804E+02 -0.38839052651E+01 -0.52997931755E+00  0.11678642780E+02  0.00000000000E+00 0.  1.
</event>
<event>
 7    1  0.6230310E-012  0.5930192E+02  0.7816164E-02  0.1266605E+00
        -11   -1    0    0    0    0  0.00000000000E+00  0.00000000000E+00  0.45593999997E+02  0.45594000000E+02  0.51100000000E-03 0.  1.
         11   -1    0    0    0    0 -0.00000000000E+00 -0.00000000000E+00 -0.45593999997E+02  0.45594000000E+02  0.51100000000E-03 0. -1.
    9900012    2    1    2    0    0 -0.11515222967E+02  0.87873404070E+01  0.28406065984E+02  0.59301916890E+02  0.49999950507E+02 0.  0.
         12    1    1    2    0    0  0.11515222967E+02 -0.87873404070E+01 -0.28406065984E+02  0.31886083110E+02  0.00000000000E+00 0. -1.
         11    1    3    3    0    0  0.39317184613E+01  0.12226852636E+01  0.28254373646E+02  0.28552810714E+02  0.51100000000E-03 0. -1.
        -11    1    3    3    0    0  0.23749942705E+01  0.78487705980E+01  0.78330428340E+01  0.11340209786E+02  0.51100000000E-03 0.  1.
         12    1    3    3    0    0 -0.17821935699E+02 -0.28411545471E+00 -0.76813504953E+01  0.19408896390E+02  0.00000000000E+00 0. -1.
</event>
<event>
 7    1  0.6230310E-012  0.5930194E+02  0.7816164E-02  0.1266605E+00
        -11   -1    0    0    0    0  0.00000000000E+00  0.00000000000E+00  0.45593999997E+02  0.45594000000E+02  0.51100000000E-03 0.  1.
         11   -1    0    0    0    0 -0.00000000000E+00 -0.00000000000E+00 -0.45593999997E+02  0.45594000000E+02  0.51100000000E-03 0. -1.
    9900012    2    1    2    0    0 -0.19864576923E+02  0.21531556050E+02 -0.12590127009E+02  0.59301943167E+02  0.49999998431E+02 0.  0.
         12    1    1    2    0    0  0.19864576923E+02 -0.21531556050E+02  0.12590127009E+02  0.31886056833E+02  0.00000000000E+00 0. -1.
         11    1    3    3    0    0 -0.63460992581E+01  0.36901879134E+01  0.33110389798E+01  0.80531634788E+01  0.51100000000E-03 0.  1.
        -11    1    3    3    0    0 -0.12029753482E+01 -0.85978540706E+01 -0.19992770336E+02  0.21796355436E+02  0.51100000000E-03 0. -1.
         12    1    3    3    0    0 -0.12315502317E+02  0.26439222207E+02  0.40916043478E+01  0.29452424253E+02  0.00000000000E+00 0. -1.
</event>
<event>
 7    1  0.6230310E-012  0.5930196E+02  0.7816164E-02  0.1266605E+00
        -11   -1    0    0    0    0  0.00000000000E+00  0.00000000000E+00  0.45593999997E+02  0.45594000000E+02  0.51100000000E-03 0.  1.
         11   -1    0    0    0    0 -0.00000000000E+00 -0.00000000000E+00 -0.45593999997E+02  0.45594000000E+02  0.51100000000E-03 0. -1.
    9900012    2    1    2    0    0 -0.44709246160E+01 -0.18663202763E+02  0.25464000006E+02  0.59301959158E+02  0.50000027594E+02 0.  0.
         12    1    1    2    0    0  0.44709246160E+01  0.18663202763E+02 -0.25464000006E+02  0.31886040842E+02  0.00000000000E+00 0. -1.
         11    1    3    3    0    0  0.19629260008E+01 -0.48585844353E+01 -0.49794707520E+01  0.72286963162E+01  0.51100000000E-03 0. -1.
        -11    1    3    3    0    0  0.76724384439E+01 -0.31674770688E+01 -0.68788952092E+01  0.10780464842E+02  0.51100000000E-03 0.  1.
         12    1    3    3    0    0 -0.14106289061E+02 -0.10637141258E+02  0.37322365967E+02  0.41292797999E+02  0.00000000000E+00 0. -1.
</event>
<event>
 7    1  0.6230310E-012  0.5930194E+02  0.7816164E-02  0.1266605E+00
        -11   -1    0    0    0    0  0.00000000000E+00  0.00000000000E+00  0.45593999997E+02  0.45594000000E+02  0.51100000000E-03 0. -1.
         11   -1    0    0    0    0 -0.00000000000E+00 -0.00000000000E+00 -0.45593999997E+02  0.45594000000E+02  0.51100000000E-03 0.  1.
    9900012    2    1    2    0    0  0.23710829119E+02 -0.16030249122E+02  0.14055193096E+02  0.59301941018E+02  0.49999994511E+02 0.  0.
         12    1    1    2    0    0 -0.23710829119E+02  0.16030249122E+02 -0.14055193096E+02  0.31886058982E+02  0.00000000000E+00 0. -1.
         11    1    3    3    0    0 -0.41078724948E+01 -0.11381970105E+02 -0.79674538641E+00  0.12126774649E+02  0.51100000000E-03 0. -1.
        -11    1    3    3    0    0 -0.46804791495E+01  0.39823407456E+01  0.11933751029E+02  0.13423126937E+02  0.51100000000E-03 0.  1.
        -12    1    3    3    0    0  0.32499180764E+02 -0.86306197621E+01  0.29181874528E+01  0.33752039432E+02  0.00000000000E+00 0.  1.
</event>
<event>
 7    1  0.6230310E-012  0.5930193E+02  0.7816164E-02  0.1266605E+00
        -11   -1    0    0    0    0  0.00000000000E+00  0.00000000000E+00  0.45593999997E+02  0.45594000000E+02  0.51100000000E-03 0. -1.
         11   -1    0    0    0    0 -0.00000000000E+00 -0.00000000000E+00 -0.45593999997E+02  0.45594000000E+02  0.51100000000E-03 0.  1.
    9900012    2    1    2    0    0 -0.98357360049E+01 -0.70624902472E+01  0.29497472192E+02  0.59301931930E+02  0.49999977936E+02 0.  0.
         12    1    1    2    0    0  0.98357360049E+01  0.70624902472E+01 -0.29497472192E+02  0.31886068070E+02  0.00000000000E+00 0. -1.
         11    1    3    3    0    0 -0.33220187390E+01  0.95670844041E+01  0.18346611254E+02  0.20956217628E+02  0.51100000000E-03 0.  1.
        -11    1    3    3    0    0  0.99914651080E+01 -0.54563909387E+00  0.11568960477E+02  0.15296010715E+02  0.51100000000E-03 0. -1.
        -12    1    3    3    0    0 -0.16505182374E+02 -0.16083935557E+02 -0.41809953853E+00  0.23049703587E+02  0.00000000000E+00 0.  1.
</event>
<event>
 7    1  0.6230310E-012  0.5930193E+02  0.7816164E-02  0.1266605E+00
        -11   -1    0    0    0    0  0.00000000000E+00  0.00000000000E+00  0.45593999997E+02  0.45594000000E+02  0.51100000000E-03 0. -1.
         11   -1    0    0    0    0 -0.00000000000E+00 -0.00000000000E+00 -0.45593999997E+02  0.45594000000E+02  0.51100000000E-03 0.  1.
    9900012    2    1    2    0    0  0.21207040832E+02 -0.13292457312E+02 -0.19755844801E+02  0.59301930847E+02  0.49999975962E+02 0.  0.
         12    1    1    2    0    0 -0.21207040832E+02  0.13292457312E+02  0.19755844801E+02  0.31886069153E+02  0.00000000000E+00 0. -1.
         11    1    3    3    0    0  0.34763403388E+00  0.52923078895E+01  0.19614641524E+01  0.56547956728E+01  0.51100000000E-03 0. -1.
        -11    1    3    3    0    0 -0.10233364136E+02  0.17875657320E+01 -0.10614212986E+02  0.14851890464E+02  0.51100000000E-03 0.  1.
        -12    1    3    3    0    0  0.31092770934E+02 -0.20372330933E+02 -0.11103095968E+02  0.38795244710E+02  0.00000000000E+00 0.  1.
</event>
<event>
 7    1  0.6230310E-012  0.5930167E+02  0.7816164E-02  0.1266606E+00
        -11   -1    0    0    0    0  0.00000000000E+00  0.00000000000E+00  0.45593999997E+02  0.45594000000E+02  0.51100000000E-03 0. -1.
         11   -1    0    0    0    0 -0.00000000000E+00 -0.00000000000E+00 -0.45593999997E+02  0.45594000000E+02  0.51100000000E-03 0.  1.
    9900012    2    1    2    0    0 -0.32406581745E+01 -0.11221183058E+01 -0.31701367593E+02  0.59301674997E+02  0.49999509351E+02 0.  0.
         12    1    1    2    0    0  0.32406581745E+01  0.11221183058E+01  0.31701367593E+02  0.31886325003E+02  0.00000000000E+00 0. -1.
         11    1    3    3    0    0  0.32656187959E+01 -0.18011608691E+02 -0.13561285094E+02  0.22781368866E+02  0.51100000000E-03 0. -1.
        -11    1    3    3    0    0 -0.97060523123E+01 -0.40342275682E+01 -0.54351046113E+01  0.11833123255E+02  0.51100000000E-03 0.  1.
         12    1    3    3    0    0  0.31997753419E+01  0.20923717954E+02 -0.12704977888E+02  0.24687182877E+02  0.00000000000E+00 0. -1.
</event>
<event>
 7    1  0.6230310E-012  0.5930188E+02  0.7816164E-02  0.1266605E+00
        -11   -1    0    0    0    0  0.00000000000E+00  0.00000000000E+00  0.45593999997E+02  0.45594000000E+02  0.51100000000E-03 0.  1.
         11   -1    0    0    0    0 -0.00000000000E+00 -0.00000000000E+00 -0.45593999997E+02  0.45594000000E+02  0.51100000000E-03 0. -1.
    9900012    2    1    2    0    0 -0.99636538267E+01  0.90750931295E+01  0.28897976386E+02  0.59301878378E+02  0.49999880271E+02 0.  0.
         12    1    1    2    0    0  0.99636538267E+01 -0.90750931295E+01 -0.28897976386E+02  0.31886121622E+02  0.00000000000E+00 0. -1.
         11    1    3    3    0    0 -0.30773189072E+01 -0.37369572887E+01  0.68761355895E+01  0.84092795376E+01  0.51100000000E-03 0.  1.
        -11    1    3    3    0    0 -0.21669770738E+02 -0.51340249203E+01  0.75938693922E+01  0.23528791476E+02  0.51100000000E-03 0. -1.
         12    1    3    3    0    0  0.14783435819E+02  0.17946075338E+02  0.14427971404E+02  0.27363807365E+02  0.00000000000E+00 0. -1.
</event>
<event>
 7    1  0.6230310E-012  0.5930215E+02  0.7816164E-02  0.1266604E+00
        -11   -1    0    0    0    0  0.00000000000E+00  0.00000000000E+00  0.45593999997E+02  0.45594000000E+02  0.51100000000E-03 0.  1.
         11   -1    0    0    0    0 -0.00000000000E+00 -0.00000000000E+00 -0.45593999997E+02  0.45594000000E+02  0.51100000000E-03 0. -1.
    9900012    2    1    2    0    0  0.41502766772E+01  0.11383987173E+02  0.29493858985E+02  0.59302146110E+02  0.50000368549E+02 0.  0.
         12    1    1    2    0    0 -0.41502766772E+01 -0.11383987173E+02 -0.29493858985E+02  0.31885853890E+02  0.00000000000E+00 0. -1.
         11    1    3    3    0    0 -0.10935558293E+02  0.93634421493E+00 -0.12079857488E+01  0.11041847921E+02  0.51100000000E-03 0. -1.
        -11    1    3    3    0    0 -0.10123175909E+02  0.52635258387E+01  0.10995593570E+02  0.15845708345E+02  0.51100000000E-03 0.  1.
         12    1    3    3    0    0  0.25209010880E+02  0.51841171192E+01  0.19706251163E+02  0.32414589844E+02  0.00000000000E+00 0. -1.
</event>
<event>
 7    1  0.6230310E-012  0.5930194E+02  0.7816164E-02  0.1266605E+00
        -11   -1    0    0    0    0  0.00000000000E+00  0.00000000000E+00  0.45593999997E+02  0.45594000000E+02  0.51100000000E-03 0.  1.
         11   -1    0    0    0    0 -0.00000000000E+00 -0.00000000000E+00 -0.45593999997E+02  0.45594000000E+02  0.51100000000E-03 0. -1.
    9900012    2    1    2    0    0 -0.20230685220E+02 -0.24646300536E+02 -0.94174478161E-02  0.59301939671E+02  0.49999992055E+02 0.  0.
         12    1    1    2    0    0  0.20230685220E+02  0.24646300536E+02  0.94174478161E-02  0.31886060329E+02  0.00000000000E+00 0. -1.
         11    1    3    3    0    0 -0.26587172892E+02 -0.21733597576E+02 -0.89250693924E+01  0.35480753796E+02  0.51100000000E-03 0. -1.
        -11    1    3    3    0    0 -0.42469460800E+01 -0.28004485790E-01 -0.46932276014E+01  0.63295908902E+01  0.51100000000E-03 0.  1.
        -12    1    3    3    0    0  0.10603433753E+02 -0.28846984749E+01  0.13608879546E+02  0.17491594985E+02  0.00000000000E+00 0.  1.
</event>
<event>
 7    1  0.6230310E-012  0.5930197E+02  0.7816164E-02  0.1266605E+00
        -11   -1    0    0    0    0  0.00000000000E+00  0.00000000000E+00  0.45593999997E+02  0.45594000000E+02  0.51100000000E-03 0.  1.
         11   -1    0    0    0    0 -0.00000000000E+00 -0.00000000000E+00 -0.45593999997E+02  0.45594000000E+02  0.51100000000E-03 0. -1.
    9900012    2    1    2    0    0 -0.14527831973E+02  0.26174341056E+02  0.10980195038E+02  0.59301973050E+02  0.50000052930E+02 0.  0.
         12    1    1    2    0    0  0.14527831973E+02 -0.26174341056E+02 -0.10980195038E+02  0.31886026950E+02  0.00000000000E+00 0. -1.
         11    1    3    3    0    0  0.33483738565E+01  0.11719269284E+01  0.99754183159E+01  0.10587444973E+02  0.51100000000E-03 0. -1.
        -11    1    3    3    0    0 -0.61888367340E+01  0.31579354349E+02  0.85904575982E+01  0.33306955478E+02  0.51100000000E-03 0.  1.
         12    1    3    3    0    0 -0.11687369095E+02 -0.65769402213E+01 -0.75856808757E+01  0.15407572599E+02  0.00000000000E+00 0. -1.
</event>
<event>
 7    1  0.6230310E-012  0.5930191E+02  0.7816164E-02  0.1266605E+00
        -11   -1    0    0    0    0  0.00000000000E+00  0.00000000000E+00  0.45593999997E+02  0.45594000000E+02  0.51100000000E-03 0.  1.
         11   -1    0    0    0    0 -0.00000000000E+00 -0.00000000000E+00 -0.45593999997E+02  0.45594000000E+02  0.51100000000E-03 0. -1.
    9900012    2    1    2    0    0  0.12533088972E+02  0.21070873506E+02  0.20387812617E+02  0.59301906906E+02  0.49999932298E+02 0.  0.
         12    1    1    2    0    0 -0.12533088972E+02 -0.21070873506E+02 -0.20387812617E+02  0.31886093094E+02  0.00000000000E+00 0. -1.
         11    1    3    3    0    0  0.24140152384E+02  0.77149980259E+01  0.86126656886E+01  0.26766511954E+02  0.51100000000E-03 0. -1.
        -11    1    3    3    0    0 -0.13491872475E+00  0.17934026207E+02  0.78245914541E+01  0.19567108390E+02  0.51100000000E-03 0.  1.
         12    1    3    3    0    0 -0.11472144687E+02 -0.45781507265E+01  0.39505554748E+01  0.12968286562E+02  0.00000000000E+00 0. -1.
</event>
<event>
 7    1  0.6230310E-012  0.5930194E+02  0.7816164E-02  0.1266605E+00
        -11   -1    0    0    0    0  0.00000000000E+00  0.00000000000E+00  0.45593999997E+02  0.45594000000E+02  0.51100000000E-03 0.  1.
         11   -1    0    0    0    0 -0.00000000000E+00 -0.00000000000E+00 -0.45593999997E+02  0.45594000000E+02  0.51100000000E-03 0. -1.
    9900012    2    1    2    0    0 -0.28182824212E+02 -0.71464424253E+01  0.13091134405E+02  0.59301936902E+02  0.49999987004E+02 0.  0.
         12    1    1    2    0    0  0.28182824212E+02  0.71464424253E+01 -0.13091134405E+02  0.31886063098E+02  0.00000000000E+00 0. -1.
         11    1    3    3    0    0 -0.10482627488E+02 -0.88059699459E+01  0.13554429298E+02  0.19265335180E+02  0.51100000000E-03 0. -1.
        -11    1    3    3    0    0 -0.23866424691E+02  0.11800208382E+02  0.48002131242E+01  0.27053524571E+02  0.51100000000E-03 0.  1.
        -12    1    3    3    0    0  0.61662279675E+01 -0.10140680862E+02 -0.52635080164E+01  0.12983077152E+02  0.00000000000E+00 0.  1.
</event>
<event>
 7    1  0.6230310E-012  0.5930196E+02  0.7816164E-02  0.1266605E+00
        -11   -1    0    0    0    0  0.00000000000E+00  0.00000000000E+00  0.45593999997E+02  0.45594000000E+02  0.51100000000E-03 0. -1.
         11   -1    0    0    0    0 -0.00000000000E+00 -0.00000000000E+00 -0.45593999997E+02  0.45594000000E+02  0.51100000000E-03 0.  1.
    9900012    2    1    2    0    0  0.15748528072E+02 -0.27067085298E+02 -0.60063586197E+01  0.59301959374E+02  0.50000027987E+02 0.  0.
         12    1    1    2    0    0 -0.15748528072E+02  0.27067085298E+02  0.60063586197E+01  0.31886040626E+02  0.00000000000E+00 0. -1.
         11    1    3    3    0    0 -0.14875274047E+01  0.87782181769E+00  0.66235931151E+01  0.68450927633E+01  0.51100000000E-03 0. -1.
        -11    1    3    3    0    0  0.10409708798E+02 -0.23205897405E+02  0.10773795855E+02  0.27621556601E+02  0.51100000000E-03 0.  1.
        -12    1    3    3    0    0  0.68263466782E+01 -0.47390097106E+01 -0.23403747590E+02  0.24835310010E+02  0.00000000000E+00 0.  1.
</event>
<event>
 7    1  0.6230310E-012  0.5930193E+02  0.7816164E-02  0.1266605E+00
        -11   -1    0    0    0    0  0.00000000000E+00  0.00000000000E+00  0.45593999997E+02  0.45594000000E+02  0.51100000000E-03 0.  1.
         11   -1    0    0    0    0 -0.00000000000E+00 -0.00000000000E+00 -0.45593999997E+02  0.45594000000E+02  0.51100000000E-03 0. -1.
    9900012    2    1    2    0    0  0.60964604362E+01  0.17153883848E+02  0.26178213527E+02  0.59301930559E+02  0.49999975436E+02 0.  0.
         12    1    1    2    0    0 -0.60964604362E+01 -0.17153883848E+02 -0.26178213527E+02  0.31886069441E+02  0.00000000000E+00 0. -1.
         11    1    3    3    0    0  0.41229188122E+00 -0.55011079626E+01  0.77080722920E+00  0.55701272389E+01  0.51100000000E-03 0. -1.
        -11    1    3    3    0    0  0.23454811689E+02  0.10156006364E+02  0.15078560752E+02  0.29675505914E+02  0.51100000000E-03 0.  1.
         12    1    3    3    0    0 -0.17770643134E+02  0.12498985447E+02  0.10328845545E+02  0.24056297406E+02  0.00000000000E+00 0. -1.
</event>
<event>
 7    1  0.6230310E-012  0.5930194E+02  0.7816164E-02  0.1266605E+00
        -11   -1    0    0    0    0  0.00000000000E+00  0.00000000000E+00  0.45593999997E+02  0.45594000000E+02  0.51100000000E-03 0. -1.
         11   -1    0    0    0    0 -0.00000000000E+00 -0.00000000000E+00 -0.45593999997E+02  0.45594000000E+02  0.51100000000E-03 0.  1.
    9900012    2    1    2    0    0 -0.19572612108E+02 -0.10979199143E+02 -0.22651512999E+02  0.59301937219E+02  0.49999987582E+02 0.  0.
         12    1    1    2    0    0  0.19572612108E+02  0.10979199143E+02  0.22651512999E+02  0.31886062781E+02  0.00000000000E+00 0. -1.
         11    1    3    3    0    0 -0.10475653722E+02 -0.94328266520E+01  0.62438744489E+01  0.15417636263E+02  0.51100000000E-03 0. -1.
        -11    1    3    3    0    0  0.11846450044E+02  0.10325885651E+01 -0.94446254492E+01  0.15185702747E+02  0.51100000000E-03 0.  1.
        -12    1    3    3    0    0 -0.20943408430E+02 -0.25789610563E+01 -0.19450761999E+02  0.28698598209E+02  0.00000000000E+00 0.  1.
</event>
<event>
 7    1  0.6230310E-012  0.5930193E+02  0.7816164E-02  0.1266605E+00
        -11   -1    0    0    0    0  0.00000000000E+00  0.00000000000E+00  0.45593999997E+02  0.45594000000E+02  0.51100000000E-03 0. -1.
         11   -1    0    0    0    0 -0.00000000000E+00 -0.00000000000E+00 -0.45593999997E+02  0.45594000000E+02  0.51100000000E-03 0.  1.
    9900012    2    1    2    0    0 -0.51598940835E+01  0.24314059969E+01 -0.31371723339E+02  0.59301933022E+02  0.49999979928E+02 0.  0.
         12    1    1    2    0    0  0.51598940835E+01 -0.24314059969E+01  0.31371723339E+02  0.31886066978E+02  0.00000000000E+00 0. -1.
         11    1    3    3    0    0 -0.11264933307E+01  0.41662761395E+01 -0.83304911620E+00  0.43955449247E+01  0.51100000000E-03 0. -1.
        -11    1    3    3    0    0  0.19343585381E+01  0.21172481227E+02 -0.19249653800E+02  0.28680391838E+02  0.51100000000E-03 0.  1.
         12    1    3    3    0    0 -0.59677592910E+01 -0.22907351370E+02 -0.11289020422E+02  0.26225996260E+02  0.00000000000E+00 0. -1.
</event>
<event>
 7    1  0.6230310E-012  0.5930199E+02  0.7816164E-02  0.1266605E+00
        -11   -1    0    0    0    0  0.00000000000E+00  0.00000000000E+00  0.45593999997E+02  0.45594000000E+02  0.51100000000E-03 0.  1.
         11   -1    0    0    0    0 -0.00000000000E+00 -0.00000000000E+00 -0.45593999997E+02  0.45594000000E+02  0.51100000000E-03 0. -1.
    9900012    2    1    2    0    0  0.20596089223E+02 -0.23618558173E+02 -0.58891721933E+01  0.59301991618E+02  0.50000086792E+02 0.  0.
         12    1    1    2    0    0 -0.20596089223E+02  0.23618558173E+02  0.58891721933E+01  0.31886008382E+02  0.00000000000E+00 0. -1.
         11    1    3    3    0    0 -0.59362272885E+01 -0.22886971001E+01 -0.82703714120E+01  0.10434364973E+02  0.51100000000E-03 0. -1.
        -11    1    3    3    0    0  0.20091763338E+02 -0.29380605972E+02 -0.53334053671E+01  0.35990890158E+02  0.51100000000E-03 0.  1.
         12    1    3    3    0    0  0.64405531739E+01  0.80507448995E+01  0.77146045857E+01  0.12876736486E+02  0.00000000000E+00 0. -1.
</event>
<event>
 7    1  0.6230310E-012  0.5930194E+02  0.7816164E-02  0.1266605E+00
        -11   -1    0    0    0    0  0.00000000000E+00  0.00000000000E+00  0.45593999997E+02  0.45594000000E+02  0.51100000000E-03 0.  1.
         11   -1    0    0    0    0 -0.00000000000E+00 -0.00000000000E+00 -0.45593999997E+02  0.45594000000E+02  0.51100000000E-03 0. -1.
    9900012    2    1    2    0    0  0.21480088266E+02  0.20200740121E+02  0.12134934480E+02  0.59301941476E+02  0.49999995346E+02 0.  0.
         12    1    1    2    0    0 -0.21480088266E+02 -0.20200740121E+02 -0.12134934480E+02  0.31886058524E+02  0.00000000000E+00 0. -1.
         11    1    3    3    0    0  0.23575503485E+01  0.17271562475E+02  0.60700808700E+01  0.18458353014E+02  0.51100000000E-03 0. -1.
        -11    1    3    3    0    0 -0.85665648337E+01  0.66137498564E+01  0.70098894647E+01  0.12894427897E+02  0.51100000000E-03 0.  1.
        -12    1    3    3    0    0  0.27689102751E+02 -0.36845722102E+01 -0.94503585441E+00  0.27949160566E+02  0.00000000000E+00 0.  1.
</event>
<event>
 7    1  0.6230310E-012  0.5930194E+02  0.7816164E-02  0.1266605E+00
        -11   -1    0    0    0    0  0.00000000000E+00  0.00000000000E+00  0.45593999997E+02  0.45594000000E+02  0.51100000000E-03 0.  1.
         11   -1    0    0    0    0 -0.00000000000E+00 -0.00000000000E+00 -0.45593999997E+02  0.45594000000E+02  0.51100000000E-03 0. -1.
    9900012    2    1    2    0    0  0.21318326886E+02  0.20749144687E+02  0.11477048407E+02  0.59301941814E+02  0.49999995963E+02 0.  0.
         12    1    1    2    0    0 -0.21318326886E+02 -0.20749144687E+02 -0.11477048407E+02  0.31886058186E+02  0.00000000000E+00 0. -1.
         11    1    3    3    0    0  0.62315997313E+01  0.90626567838E+01 -0.49410622836E+01  0.12057308155E+02  0.51100000000E-03 0. -1.
        -11    1    3    3    0    0  0.17301317024E+02 -0.10012341718E+02  0.75294879635E-01  0.19989703025E+02  0.51100000000E-03 0.  1.
        -12    1    3    3    0    0 -0.22145898693E+01  0.21698829621E+02  0.16342815811E+02  0.27254930634E+02  0.00000000000E+00 0.  1.
</event>
<event>
 7    1  0.6230310E-012  0.5930192E+02  0.7816164E-02  0.1266605E+00
        -11   -1    0    0    0    0  0.00000000000E+00  0.00000000000E+00  0.45593999997E+02  0.45594000000E+02  0.51100000000E-03 0.  1.
         11   -1    0    0    0    0 -0.00000000000E+00 -0.00000000000E+00 -0.45593999997E+02  0.45594000000E+02  0.51100000000E-03 0. -1.
    9900012    2    1    2    0    0 -0.30428781127E+02 -0.94383165939E+01  0.13150228142E+01  0.59301924261E+02  0.49999963951E+02 0.  0.
         12    1    1    2    0    0  0.30428781127E+02  0.94383165939E+01 -0.13150228142E+01  0.31886075739E+02  0.00000000000E+00 0. -1.
         11    1    3    3    0    0 -0.20370487443E+01 -0.40699431953E+01 -0.27227407608E+01  0.53035198417E+01  0.51100000000E-03 0. -1.
        -11    1    3    3    0    0 -0.28644533035E+02 -0.20838933858E+02  0.10914956593E+02  0.37066247649E+02  0.51100000000E-03 0.  1.
         12    1    3    3    0    0  0.25280065227E+00  0.15470560459E+02 -0.68771930182E+01  0.16932156770E+02  0.00000000000E+00 0. -1.
</event>
<event>
 7    1  0.6230310E-012  0.5930195E+02  0.7816164E-02  0.1266605E+00
        -11   -1    0    0    0    0  0.00000000000E+00  0.00000000000E+00  0.45593999997E+02  0.45594000000E+02  0.51100000000E-03 0. -1.
         11   -1    0    0    0    0 -0.00000000000E+00 -0.00000000000E+00 -0.45593999997E+02  0.45594000000E+02  0.51100000000E-03 0.  1.
    9900012    2    1    2    0    0 -0.62799844054E+01 -0.22920205038E+02 -0.21259026019E+02  0.59301949910E+02  0.50000010727E+02 0.  0.
         12    1    1    2    0    0  0.62799844054E+01  0.22920205038E+02  0.21259026019E+02  0.31886050090E+02  0.00000000000E+00 0. -1.
         11    1    3    3    0    0 -0.86575758086E+01  0.88010511060E+01 -0.26391534212E+01  0.12624470305E+02  0.51100000000E-03 0. -1.
        -11    1    3    3    0    0  0.86105705586E+01  0.16231531046E+01 -0.24474944801E+01  0.90976250108E+01  0.51100000000E-03 0.  1.
        -12    1    3    3    0    0 -0.62329791554E+01 -0.33344409248E+02 -0.16172378117E+02  0.37579854593E+02  0.00000000000E+00 0.  1.
</event>
<event>
 7    1  0.6230310E-012  0.5930193E+02  0.7816164E-02  0.1266605E+00
        -11   -1    0    0    0    0  0.00000000000E+00  0.00000000000E+00  0.45593999997E+02  0.45594000000E+02  0.51100000000E-03 0.  1.
         11   -1    0    0    0    0 -0.00000000000E+00 -0.00000000000E+00 -0.45593999997E+02  0.45594000000E+02  0.51100000000E-03 0. -1.
    9900012    2    1    2    0    0 -0.91336624397E+01  0.25123775857E+02  0.17380847348E+02  0.59301925337E+02  0.49999965913E+02 0.  0.
         12    1    1    2    0    0  0.91336624397E+01 -0.25123775857E+02 -0.17380847348E+02  0.31886074663E+02  0.00000000000E+00 0. -1.
         11    1    3    3    0    0  0.25183561499E+01 -0.79719182923E+01  0.77084782138E+00  0.83957016134E+01  0.51100000000E-03 0. -1.
        -11    1    3    3    0    0 -0.10815999246E+02  0.47862924854E+01  0.19110239529E+02  0.22474334041E+02  0.51100000000E-03 0.  1.
        -12    1    3    3    0    0 -0.83601934314E+00  0.28309401664E+02 -0.25002400024E+01  0.28431889683E+02  0.00000000000E+00 0.  1.
</event>
<event>
 7    1  0.6230310E-012  0.5930193E+02  0.7816164E-02  0.1266605E+00
        -11   -1    0    0    0    0  0.00000000000E+00  0.00000000000E+00  0.45593999997E+02  0.45594000000E+02  0.51100000000E-03 0. -1.
         11   -1    0    0    0    0 -0.00000000000E+00 -0.00000000000E+00 -0.45593999997E+02  0.45594000000E+02  0.51100000000E-03 0.  1.
    9900012    2    1    2    0    0 -0.75393114985E+01 -0.10240571972E+02 -0.29240570829E+02  0.59301929145E+02  0.49999972857E+02 0.  0.
         12    1    1    2    0    0  0.75393114985E+01  0.10240571972E+02  0.29240570829E+02  0.31886070855E+02  0.00000000000E+00 0. -1.
         11    1    3    3    0    0 -0.21233747186E+02 -0.57565618360E+00 -0.79606427535E+01  0.22684250769E+02  0.51100000000E-03 0. -1.
        -11    1    3    3    0    0 -0.65193883380E+01 -0.32617273036E+01 -0.11490130391E+01  0.73798049114E+01  0.51100000000E-03 0.  1.
        -12    1    3    3    0    0  0.20213824026E+02 -0.64031884847E+01 -0.20130915036E+02  0.29237873465E+02  0.00000000000E+00 0.  1.
</event>
<event>
 7    1  0.6230310E-012  0.5930195E+02  0.7816164E-02  0.1266605E+00
        -11   -1    0    0    0    0  0.00000000000E+00  0.00000000000E+00  0.45593999997E+02  0.45594000000E+02  0.51100000000E-03 0. -1.
         11   -1    0    0    0    0 -0.00000000000E+00 -0.00000000000E+00 -0.45593999997E+02  0.45594000000E+02  0.51100000000E-03 0.  1.
    9900012    2    1    2    0    0  0.98707573581E+01  0.16951281352E+02 -0.25138466082E+02  0.59301948704E+02  0.50000008528E+02 0.  0.
         12    1    1    2    0    0 -0.98707573581E+01 -0.16951281352E+02  0.25138466082E+02  0.31886051296E+02  0.00000000000E+00 0. -1.
         11    1    3    3    0    0  0.17670197229E+02 -0.36668445757E+00 -0.62229492223E+01  0.18737540524E+02  0.51100000000E-03 0. -1.
        -11    1    3    3    0    0 -0.11441095523E+01 -0.87295034052E+01 -0.28910435639E+01  0.92666795304E+01  0.51100000000E-03 0.  1.
         12    1    3    3    0    0 -0.66553303189E+01  0.26047469215E+02 -0.16024473296E+02  0.31297728649E+02  0.00000000000E+00 0. -1.
</event>
<event>
 7    1  0.6230310E-012  0.5930193E+02  0.7816164E-02  0.1266605E+00
        -11   -1    0    0    0    0  0.00000000000E+00  0.00000000000E+00  0.45593999997E+02  0.45594000000E+02  0.51100000000E-03 0. -1.
         11   -1    0    0    0    0 -0.00000000000E+00 -0.00000000000E+00 -0.45593999997E+02  0.45594000000E+02  0.51100000000E-03 0.  1.
    9900012    2    1    2    0    0  0.23616404317E+02 -0.17979693987E+02 -0.11649779529E+02  0.59301932325E+02  0.49999978657E+02 0.  0.
         12    1    1    2    0    0 -0.23616404317E+02  0.17979693987E+02  0.11649779529E+02  0.31886067675E+02  0.00000000000E+00 0. -1.
         11    1    3    3    0    0 -0.14223337382E+02  0.41767246992E+00 -0.39611910535E+01  0.14770538629E+02  0.51100000000E-03 0. -1.
        -11    1    3    3    0    0  0.23973801083E+01  0.11094125103E+01 -0.26861465560E+01  0.37674409196E+01  0.51100000000E-03 0.  1.
        -12    1    3    3    0    0  0.35442361590E+02 -0.19506778967E+02 -0.50024419199E+01  0.40763952776E+02  0.00000000000E+00 0.  1.
</event>
<event>
 7    1  0.6230310E-012  0.5930195E+02  0.7816164E-02  0.1266605E+00
        -11   -1    0    0    0    0  0.00000000000E+00  0.00000000000E+00  0.45593999997E+02  0.45594000000E+02  0.51100000000E-03 0.  1.
         11   -1    0    0    0    0 -0.00000000000E+00 -0.00000000000E+00 -0.45593999997E+02  0.45594000000E+02  0.51100000000E-03 0. -1.
    9900012    2    1    2    0    0 -0.16488800298E+01  0.64085259955E+01  0.31191859953E+02  0.59301950729E+02  0.50000012221E+02 0.  0.
         12    1    1    2    0    0  0.16488800298E+01 -0.64085259955E+01 -0.31191859953E+02  0.31886049271E+02  0.00000000000E+00 0. -1.
         11    1    3    3    0    0 -0.33053561791E+01 -0.76444046811E+01  0.11592633187E+02  0.14274153105E+02  0.51100000000E-03 0.  1.
        -11    1    3    3    0    0 -0.13848702059E+02 -0.13450234774E+01  0.18499842255E+02  0.23148213767E+02  0.51100000000E-03 0. -1.
         12    1    3    3    0    0  0.15505178209E+02  0.15397954154E+02  0.10993845112E+01  0.21879583856E+02  0.00000000000E+00 0. -1.
</event>
<event>
 7    1  0.6230310E-012  0.5930189E+02  0.7816164E-02  0.1266605E+00
        -11   -1    0    0    0    0  0.00000000000E+00  0.00000000000E+00  0.45593999997E+02  0.45594000000E+02  0.51100000000E-03 0.  1.
         11   -1    0    0    0    0 -0.00000000000E+00 -0.00000000000E+00 -0.45593999997E+02  0.45594000000E+02  0.51100000000E-03 0. -1.
    9900012    2    1    2    0    0 -0.28316131790E+02  0.13751957887E+02 -0.50798151985E+01  0.59301887228E+02  0.49999896410E+02 0.  0.
         12    1    1    2    0    0  0.28316131790E+02 -0.13751957887E+02  0.50798151985E+01  0.31886112772E+02  0.00000000000E+00 0. -1.
         11    1    3    3    0    0  0.61218123172E+01 -0.56224780878E+01  0.88090691048E+01  0.12111504640E+02  0.51100000000E-03 0. -1.
        -11    1    3    3    0    0 -0.80676424913E+01 -0.48720898872E+00  0.46534111296E+01  0.93262244970E+01  0.51100000000E-03 0.  1.
         12    1    3    3    0    0 -0.26370301616E+02  0.19861644963E+02 -0.18542295433E+02  0.37864158090E+02  0.00000000000E+00 0. -1.
</event>
<event>
 7    1  0.6230310E-012  0.5930194E+02  0.7816164E-02  0.1266605E+00
        -11   -1    0    0    0    0  0.00000000000E+00  0.00000000000E+00  0.45593999997E+02  0.45594000000E+02  0.51100000000E-03 0. -1.
         11   -1    0    0    0    0 -0.00000000000E+00 -0.00000000000E+00 -0.45593999997E+02  0.45594000000E+02  0.51100000000E-03 0.  1.
    9900012    2    1    2    0    0  0.30624626884E+01  0.11714170836E+02 -0.29497799119E+02  0.59301943033E+02  0.49999998185E+02 0.  0.
         12    1    1    2    0    0 -0.30624626884E+01 -0.11714170836E+02  0.29497799119E+02  0.31886056967E+02  0.00000000000E+00 0. -1.
         11    1    3    3    0    0 -0.10257328486E+02 -0.23935241175E+01  0.33370532369E+01  0.11048876410E+02  0.51100000000E-03 0. -1.
        -11    1    3    3    0    0 -0.39601757560E+01  0.74058177268E+01  0.21438118111E+01  0.86674712324E+01  0.51100000000E-03 0.  1.
        -12    1    3    3    0    0  0.17279966930E+02  0.67018772265E+01 -0.34978664167E+02  0.39585595390E+02  0.00000000000E+00 0.  1.
</event>
<event>
 7    1  0.6230310E-012  0.5930193E+02  0.7816164E-02  0.1266605E+00
        -11   -1    0    0    0    0  0.00000000000E+00  0.00000000000E+00  0.45593999997E+02  0.45594000000E+02  0.51100000000E-03 0.  1.
         11   -1    0    0    0    0 -0.00000000000E+00 -0.00000000000E+00 -0.45593999997E+02  0.45594000000E+02  0.51100000000E-03 0. -1.
    9900012    2    1    2    0    0 -0.31487608366E+02  0.24659556403E+01 -0.43784975125E+01  0.59301926892E+02  0.49999968748E+02 0.  0.
         12    1    1    2    0    0  0.31487608366E+02 -0.24659556403E+01  0.43784975125E+01  0.31886073108E+02  0.00000000000E+00 0. -1.
         11    1    3    3    0    0 -0.18310742902E+02  0.15165035548E+02 -0.21045811585E+02  0.31751973078E+02  0.51100000000E-03 0. -1.
        -11    1    3    3    0    0  0.14754762773E+01 -0.17362043863E+01 -0.63543163631E+00  0.23654195276E+01  0.51100000000E-03 0.  1.
        -12    1    3    3    0    0 -0.14652341741E+02 -0.10962875521E+02  0.17302745708E+02  0.25184534286E+02  0.00000000000E+00 0.  1.
</event>
<event>
 7    1  0.6230310E-012  0.5930195E+02  0.7816164E-02  0.1266605E+00
        -11   -1    0    0    0    0  0.00000000000E+00  0.00000000000E+00  0.45593999997E+02  0.45594000000E+02  0.51100000000E-03 0.  1.
         11   -1    0    0    0    0 -0.00000000000E+00 -0.00000000000E+00 -0.45593999997E+02  0.45594000000E+02  0.51100000000E-03 0. -1.
    9900012    2    1    2    0    0 -0.23299074554E+02 -0.21759541477E+02 -0.62898510664E+00  0.59301950658E+02  0.50000012093E+02 0.  0.
         12    1    1    2    0    0  0.23299074554E+02  0.21759541477E+02  0.62898510664E+00  0.31886049342E+02  0.00000000000E+00 0. -1.
         11    1    3    3    0    0 -0.42842672506E+01 -0.17363271730E+02 -0.14580500985E+02  0.23074426543E+02  0.51100000000E-03 0. -1.
        -11    1    3    3    0    0  0.45762453522E+00 -0.12367499050E+02  0.46181122699E+01  0.13209519831E+02  0.51100000000E-03 0.  1.
         12    1    3    3    0    0 -0.19472431839E+02  0.79712293034E+01  0.93334036086E+01  0.23018004284E+02  0.00000000000E+00 0. -1.
</event>
<event>
 7    1  0.6230310E-012  0.5930194E+02  0.7816164E-02  0.1266605E+00
        -11   -1    0    0    0    0  0.00000000000E+00  0.00000000000E+00  0.45593999997E+02  0.45594000000E+02  0.51100000000E-03 0. -1.
         11   -1    0    0    0    0 -0.00000000000E+00 -0.00000000000E+00 -0.45593999997E+02  0.45594000000E+02  0.51100000000E-03 0.  1.
    9900012    2    1    2    0    0  0.25249004482E+02 -0.43248612476E+01 -0.18986947301E+02  0.59301940037E+02  0.49999992721E+02 0.  0.
         12    1    1    2    0    0 -0.25249004482E+02  0.43248612476E+01  0.18986947301E+02  0.31886059963E+02  0.00000000000E+00 0. -1.
         11    1    3    3    0    0 -0.32006539886E+01 -0.10359811278E+01  0.39899752201E+01  0.52189410200E+01  0.51100000000E-03 0. -1.
        -11    1    3    3    0    0  0.46759913133E+01 -0.13168372167E+02  0.60994456501E+01  0.15247103259E+02  0.51100000000E-03 0.  1.
         12    1    3    3    0    0  0.23773667158E+02  0.98794920476E+01 -0.29076368171E+02  0.38835895757E+02  0.00000000000E+00 0. -1.
</event>
<event>
 7    1  0.6230310E-012  0.5930192E+02  0.7816164E-02  0.1266605E+00
        -11   -1    0    0    0    0  0.00000000000E+00  0.00000000000E+00  0.45593999997E+02  0.45594000000E+02  0.51100000000E-03 0.  1.
         11   -1    0    0    0    0 -0.00000000000E+00 -0.00000000000E+00 -0.45593999997E+02  0.45594000000E+02  0.51100000000E-03 0. -1.
    9900012    2    1    2    0    0  0.27547988115E+02  0.69202394757E+01  0.14489335853E+02  0.59301918129E+02  0.49999952768E+02 0.  0.
         12    1    1    2    0    0 -0.27547988115E+02 -0.69202394757E+01 -0.14489335853E+02  0.31886081871E+02  0.00000000000E+00 0. -1.
         11    1    3    3    0    0  0.11022196498E+02 -0.27352027079E+01 -0.61311767118E+01  0.12905869890E+02  0.51100000000E-03 0. -1.
        -11    1    3    3    0    0  0.11826216987E+02 -0.13248969248E+02  0.12192615831E+02  0.21541923670E+02  0.51100000000E-03 0.  1.
         12    1    3    3    0    0  0.46995746306E+01  0.22904411432E+02  0.84278967337E+01  0.24854124569E+02  0.00000000000E+00 0. -1.
</event>
<event>
 7    1  0.6230310E-012  0.5930194E+02  0.7816164E-02  0.1266605E+00
        -11   -1    0    0    0    0  0.00000000000E+00  0.00000000000E+00  0.45593999997E+02  0.45594000000E+02  0.51100000000E-03 0.  1.
         11   -1    0    0    0    0 -0.00000000000E+00 -0.00000000000E+00 -0.45593999997E+02  0.45594000000E+02  0.51100000000E-03 0. -1.
    9900012    2    1    2    0    0  0.27719650332E+02  0.59414524366E+01  0.14595917070E+02  0.59301942440E+02  0.49999997105E+02 0.  0.
         12    1    1    2    0    0 -0.27719650332E+02 -0.59414524366E+01 -0.14595917070E+02  0.31886057560E+02  0.00000000000E+00 0. -1.
         11    1    3    3    0    0  0.12044490543E+02  0.64108674428E+01 -0.19922464865E-01  0.13644389725E+02  0.51100000000E-03 0. -1.
        -11    1    3    3    0    0  0.24587949826E+02  0.71419283691E+01  0.20258604804E+02  0.32649433170E+02  0.51100000000E-03 0.  1.
        -12    1    3    3    0    0 -0.89127900367E+01 -0.76113433753E+01 -0.56427652692E+01  0.13008119545E+02  0.00000000000E+00 0.  1.
</event>
<event>
 7    1  0.6230310E-012  0.5930196E+02  0.7816164E-02  0.1266605E+00
        -11   -1    0    0    0    0  0.00000000000E+00  0.00000000000E+00  0.45593999997E+02  0.45594000000E+02  0.51100000000E-03 0. -1.
         11   -1    0    0    0    0 -0.00000000000E+00 -0.00000000000E+00 -0.45593999997E+02  0.45594000000E+02  0.51100000000E-03 0.  1.
    9900012    2    1    2    0    0  0.13320698719E+02 -0.20092093871E+02 -0.20870706522E+02  0.59301958521E+02  0.50000026432E+02 0.  0.
         12    1    1    2    0    0 -0.13320698719E+02  0.20092093871E+02  0.20870706522E+02  0.31886041479E+02  0.00000000000E+00 0. -1.
         11    1    3    3    0    0 -0.26857657511E+01 -0.25071382796E+01 -0.14564972204E+02  0.15021234822E+02  0.51100000000E-03 0. -1.
        -11    1    3    3    0    0 -0.29167325832E+01 -0.88010333585E+01 -0.18084498920E+02  0.20322761097E+02  0.51100000000E-03 0.  1.
        -12    1    3    3    0    0  0.18923197053E+02 -0.87839222324E+01  0.11778764602E+02  0.23957962602E+02  0.00000000000E+00 0.  1.
</event>
<event>
 7    1  0.6230310E-012  0.5930174E+02  0.7816164E-02  0.1266605E+00
        -11   -1    0    0    0    0  0.00000000000E+00  0.00000000000E+00  0.45593999997E+02  0.45594000000E+02  0.51100000000E-03 0. -1.
         11   -1    0    0    0    0 -0.00000000000E+00 -0.00000000000E+00 -0.45593999997E+02  0.45594000000E+02  0.51100000000E-03 0.  1.
    9900012    2    1    2    0    0  0.16959782954E+02 -0.36688332691E+01 -0.26751428117E+02  0.59301741491E+02  0.49999630620E+02 0.  0.
         12    1    1    2    0    0 -0.16959782954E+02  0.36688332691E+01  0.26751428117E+02  0.31886258509E+02  0.00000000000E+00 0. -1.
         11    1    3    3    0    0  0.72742871604E+01  0.96188960293E+01 -0.24603474783E+02  0.27400171280E+02  0.51100000000E-03 0. -1.
        -11    1    3    3    0    0 -0.70229537643E+01 -0.70643107610E+01 -0.83765480832E+01  0.13015103694E+02  0.51100000000E-03 0.  1.
         12    1    3    3    0    0  0.16708449558E+02 -0.62234185374E+01  0.62285947496E+01  0.18886466517E+02  0.00000000000E+00 0. -1.
</event>
<event>
 7    1  0.6230310E-012  0.5930197E+02  0.7816164E-02  0.1266605E+00
        -11   -1    0    0    0    0  0.00000000000E+00  0.00000000000E+00  0.45593999997E+02  0.45594000000E+02  0.51100000000E-03 0.  1.
         11   -1    0    0    0    0 -0.00000000000E+00 -0.00000000000E+00 -0.45593999997E+02  0.45594000000E+02  0.51100000000E-03 0. -1.
    9900012    2    1    2    0    0 -0.53635892398E+01  0.21973023248E+02  0.22475257265E+02  0.59301968116E+02  0.50000043931E+02 0.  0.
         12    1    1    2    0    0  0.53635892398E+01 -0.21973023248E+02 -0.22475257265E+02  0.31886031884E+02  0.00000000000E+00 0. -1.
         11    1    3    3    0    0  0.26984597202E+01  0.22382361834E+02 -0.10527395001E+01  0.22569006775E+02  0.51100000000E-03 0. -1.
        -11    1    3    3    0    0 -0.74325409896E+01  0.12337746860E+02  0.17362153099E+02  0.22558967699E+02  0.51100000000E-03 0.  1.
        -12    1    3    3    0    0 -0.62950797040E+00 -0.12747085445E+02  0.61658436663E+01  0.14173993642E+02  0.00000000000E+00 0.  1.
</event>
<event>
 7    1  0.6230310E-012  0.5930199E+02  0.7816164E-02  0.1266605E+00
        -11   -1    0    0    0    0  0.00000000000E+00  0.00000000000E+00  0.45593999997E+02  0.45594000000E+02  0.51100000000E-03 0. -1.
         11   -1    0    0    0    0 -0.00000000000E+00 -0.00000000000E+00 -0.45593999997E+02  0.45594000000E+02  0.51100000000E-03 0.  1.
    9900012    2    1    2    0    0  0.10013945166E+02 -0.24344000268E+02 -0.17994676767E+02  0.59301986784E+02  0.50000077977E+02 0.  0.
         12    1    1    2    0    0 -0.10013945166E+02  0.24344000268E+02  0.17994676767E+02  0.31886013216E+02  0.00000000000E+00 0. -1.
         11    1    3    3    0    0 -0.97906362881E+01 -0.35083093414E+01 -0.81321025997E+00  0.10431975103E+02  0.51100000000E-03 0. -1.
        -11    1    3    3    0    0  0.13708339345E+02  0.79292216156E+01 -0.25970488049E+01  0.16047921541E+02  0.51100000000E-03 0.  1.
        -12    1    3    3    0    0  0.60962421091E+01 -0.28764912542E+02 -0.14584417702E+02  0.32822090140E+02  0.00000000000E+00 0.  1.
</event>
<event>
 7    1  0.6230310E-012  0.5930195E+02  0.7816164E-02  0.1266605E+00
        -11   -1    0    0    0    0  0.00000000000E+00  0.00000000000E+00  0.45593999997E+02  0.45594000000E+02  0.51100000000E-03 0.  1.
         11   -1    0    0    0    0 -0.00000000000E+00 -0.00000000000E+00 -0.45593999997E+02  0.45594000000E+02  0.51100000000E-03 0. -1.
    9900012    2    1    2    0    0  0.20724275104E+02 -0.10785872793E+02  0.21699988877E+02  0.59301950578E+02  0.50000011946E+02 0.  0.
         12    1    1    2    0    0 -0.20724275104E+02  0.10785872793E+02 -0.21699988877E+02  0.31886049422E+02  0.00000000000E+00 0. -1.
         11    1    3    3    0    0  0.26836579355E+02  0.11250958645E+02  0.14010808650E+02  0.32296885627E+02  0.51100000000E-03 0. -1.
        -11    1    3    3    0    0  0.36885850836E+01 -0.72737384327E+01  0.27984686990E+01  0.86223174395E+01  0.51100000000E-03 0.  1.
        -12    1    3    3    0    0 -0.98008893350E+01 -0.14763093005E+02  0.48907115273E+01  0.18382747511E+02  0.00000000000E+00 0.  1.
</event>
<event>
 7    1  0.6230310E-012  0.5930194E+02  0.7816164E-02  0.1266605E+00
        -11   -1    0    0    0    0  0.00000000000E+00  0.00000000000E+00  0.45593999997E+02  0.45594000000E+02  0.51100000000E-03 0.  1.
         11   -1    0    0    0    0 -0.00000000000E+00 -0.00000000000E+00 -0.45593999997E+02  0.45594000000E+02  0.51100000000E-03 0. -1.
    9900012    2    1    2    0    0  0.25233238211E+02  0.53900997032E+01  0.18733696760E+02  0.59301939100E+02  0.49999991014E+02 0.  0.
         12    1    1    2    0    0 -0.25233238211E+02 -0.53900997032E+01 -0.18733696760E+02  0.31886060900E+02  0.00000000000E+00 0. -1.
         11    1    3    3    0    0  0.21971420620E+02 -0.11872652649E+02  0.54544823637E+00  0.24980006386E+02  0.51100000000E-03 0. -1.
        -11    1    3    3    0    0 -0.71521859687E+01  0.62820294538E+01 -0.13430932148E+01  0.96136131519E+01  0.51100000000E-03 0.  1.
        -12    1    3    3    0    0  0.10414003559E+02  0.10980722899E+02  0.19531341738E+02  0.24708319563E+02  0.00000000000E+00 0.  1.
</event>
<event>
 7    1  0.6230310E-012  0.5930196E+02  0.7816164E-02  0.1266605E+00
        -11   -1    0    0    0    0  0.00000000000E+00  0.00000000000E+00  0.45593999997E+02  0.45594000000E+02  0.51100000000E-03 0. -1.
         11   -1    0    0    0    0 -0.00000000000E+00 -0.00000000000E+00 -0.45593999997E+02  0.45594000000E+02  0.51100000000E-03 0.  1.
    9900012    2    1    2    0    0  0.81245036782E+01 -0.28543577386E+02 -0.11660888325E+02  0.59301957811E+02  0.50000025137E+02 0.  0.
         12    1    1    2    0    0 -0.81245036782E+01  0.28543577386E+02  0.11660888325E+02  0.31886042189E+02  0.00000000000E+00 0. -1.
         11    1    3    3    0    0  0.12193265933E+02 -0.15833213247E+02 -0.60385416143E+00  0.19993274268E+02  0.51100000000E-03 0. -1.
        -11    1    3    3    0    0  0.30520119292E+01 -0.15999282686E+02  0.84028113141E+01  0.18327549251E+02  0.51100000000E-03 0.  1.
        -12    1    3    3    0    0 -0.71207741841E+01  0.32889185473E+01 -0.19459845477E+02  0.20981134292E+02  0.00000000000E+00 0.  1.
</event>
<event>
 7    1  0.6230310E-012  0.5930194E+02  0.7816164E-02  0.1266605E+00
        -11   -1    0    0    0    0  0.00000000000E+00  0.00000000000E+00  0.45593999997E+02  0.45594000000E+02  0.51100000000E-03 0. -1.
         11   -1    0    0    0    0 -0.00000000000E+00 -0.00000000000E+00 -0.45593999997E+02  0.45594000000E+02  0.51100000000E-03 0.  1.
    9900012    2    1    2    0    0  0.20761429908E+02 -0.15213023202E+02 -0.18821463270E+02  0.59301944640E+02  0.50000001117E+02 0.  0.
         12    1    1    2    0    0 -0.20761429908E+02  0.15213023202E+02  0.18821463270E+02  0.31886055360E+02  0.00000000000E+00 0. -1.
         11    1    3    3    0    0  0.88129150341E+01  0.10488590549E+02  0.63134792526E+01  0.15084363548E+02  0.51100000000E-03 0. -1.
        -11    1    3    3    0    0  0.10412680135E+02 -0.16411696084E+01 -0.18551536739E+01  0.10703221043E+02  0.51100000000E-03 0.  1.
        -12    1    3    3    0    0  0.15358347390E+01 -0.24060444143E+02 -0.23279788849E+02  0.33514360049E+02  0.00000000000E+00 0.  1.
</event>
<event>
 7    1  0.6230310E-012  0.5930192E+02  0.7816164E-02  0.1266605E+00
        -11   -1    0    0    0    0  0.00000000000E+00  0.00000000000E+00  0.45593999997E+02  0.45594000000E+02  0.51100000000E-03 0.  1.
         11   -1    0    0    0    0 -0.00000000000E+00 -0.00000000000E+00 -0.45593999997E+02  0.45594000000E+02  0.51100000000E-03 0. -1.
    9900012    2    1    2    0    0  0.12276768798E+02 -0.87600158094E+01  0.28093861926E+02  0.59301921423E+02  0.49999958775E+02 0.  0.
         12    1    1    2    0    0 -0.12276768798E+02  0.87600158094E+01 -0.28093861926E+02  0.31886078577E+02  0.00000000000E+00 0. -1.
         11    1    3    3    0    0 -0.11530656025E+01  0.41062796849E+01  0.80640022560E+01  0.91224572227E+01  0.51100000000E-03 0. -1.
        -11    1    3    3    0    0  0.71480310701E+01  0.75015891370E+01  0.26046539947E+02  0.28031953754E+02  0.51100000000E-03 0.  1.
         12    1    3    3    0    0  0.62818033303E+01 -0.20367884631E+02 -0.60166802771E+01  0.22147510447E+02  0.00000000000E+00 0. -1.
</event>
<event>
 7    1  0.6230310E-012  0.5930195E+02  0.7816164E-02  0.1266605E+00
        -11   -1    0    0    0    0  0.00000000000E+00  0.00000000000E+00  0.45593999997E+02  0.45594000000E+02  0.51100000000E-03 0.  1.
         11   -1    0    0    0    0 -0.00000000000E+00 -0.00000000000E+00 -0.45593999997E+02  0.45594000000E+02  0.51100000000E-03 0. -1.
    9900012    2    1    2    0    0  0.16544338606E+02 -0.25732064634E+02  0.89925593082E+01  0.59301946417E+02  0.50000004357E+02 0.  0.
         12    1    1    2    0    0 -0.16544338606E+02  0.25732064634E+02 -0.89925593082E+01  0.31886053583E+02  0.00000000000E+00 0. -1.
         11    1    3    3    0    0  0.42651755410E+01 -0.31536200108E+02 -0.40721161006E+01  0.32082795536E+02  0.51100000000E-03 0. -1.
        -11    1    3    3    0    0  0.54114329574E+01 -0.34492667187E+01 -0.32908071520E+01  0.72118277518E+01  0.51100000000E-03 0.  1.
         12    1    3    3    0    0  0.68677301072E+01  0.92534021928E+01  0.16355482561E+02  0.20007323128E+02  0.00000000000E+00 0. -1.
</event>
<event>
 7    1  0.6230310E-012  0.5930196E+02  0.7816164E-02  0.1266605E+00
        -11   -1    0    0    0    0  0.00000000000E+00  0.00000000000E+00  0.45593999997E+02  0.45594000000E+02  0.51100000000E-03 0. -1.
         11   -1    0    0    0    0 -0.00000000000E+00 -0.00000000000E+00 -0.45593999997E+02  0.45594000000E+02  0.51100000000E-03 0.  1.
    9900012    2    1    2    0    0  0.45753965504E+01 -0.16557188608E+02 -0.26863441576E+02  0.59301964788E+02  0.50000037862E+02 0.  0.
         12    1    1    2    0    0 -0.45753965504E+01  0.16557188608E+02  0.26863441576E+02  0.31886035212E+02  0.00000000000E+00 0. -1.
         11    1    3    3    0    0  0.98534336439E+01  0.92535125907E+01 -0.70386431493E+00  0.13535622449E+02  0.51100000000E-03 0. -1.
        -11    1    3    3    0    0 -0.58709747908E+01  0.42059629381E+01 -0.75294175061E+01  0.10433148972E+02  0.51100000000E-03 0.  1.
        -12    1    3    3    0    0  0.59293769721E+00 -0.30016664137E+02 -0.18630159755E+02  0.35333193367E+02  0.00000000000E+00 0.  1.
</event>
<event>
 7    1  0.6230310E-012  0.5930193E+02  0.7816164E-02  0.1266605E+00
        -11   -1    0    0    0    0  0.00000000000E+00  0.00000000000E+00  0.45593999997E+02  0.45594000000E+02  0.51100000000E-03 0.  1.
         11   -1    0    0    0    0 -0.00000000000E+00 -0.00000000000E+00 -0.45593999997E+02  0.45594000000E+02  0.51100000000E-03 0. -1.
    9900012    2    1    2    0    0  0.12564387677E+02  0.27494950148E+02  0.10143229719E+02  0.59301933599E+02  0.49999980981E+02 0.  0.
         12    1    1    2    0    0 -0.12564387677E+02 -0.27494950148E+02 -0.10143229719E+02  0.31886066401E+02  0.00000000000E+00 0. -1.
         11    1    3    3    0    0  0.15442305954E+01 -0.31958434422E+01 -0.75891834519E+01  0.83781721853E+01  0.51100000000E-03 0. -1.
        -11    1    3    3    0    0  0.20250785406E+02  0.66185879736E+01  0.38756660900E+01  0.21654579290E+02  0.51100000000E-03 0.  1.
         12    1    3    3    0    0 -0.92306283244E+01  0.24072205617E+02  0.13856747081E+02  0.29269182124E+02  0.00000000000E+00 0. -1.
</event>
<event>
 7    1  0.6230310E-012  0.5930201E+02  0.7816164E-02  0.1266605E+00
        -11   -1    0    0    0    0  0.00000000000E+00  0.00000000000E+00  0.45593999997E+02  0.45594000000E+02  0.51100000000E-03 0.  1.
         11   -1    0    0    0    0 -0.00000000000E+00 -0.00000000000E+00 -0.45593999997E+02  0.45594000000E+02  0.51100000000E-03 0. -1.
    9900012    2    1    2    0    0  0.76858732334E+01  0.30752523804E+02  0.34534257405E+01  0.59302007510E+02  0.50000115777E+02 0.  0.
         12    1    1    2    0    0 -0.76858732334E+01 -0.30752523804E+02 -0.34534257405E+01  0.31885992490E+02  0.00000000000E+00 0. -1.
         11    1    3    3    0    0  0.64692749515E+01  0.57163191980E+01  0.17117891553E+02  0.19171594483E+02  0.51100000000E-03 0. -1.
        -11    1    3    3    0    0  0.70763251933E+01  0.14821166841E+02  0.57687331098E+01  0.17407459513E+02  0.51100000000E-03 0.  1.
         12    1    3    3    0    0 -0.58597269114E+01  0.10215037766E+02 -0.19433198922E+02  0.22722953513E+02  0.00000000000E+00 0. -1.
</event>
<event>
 7    1  0.6230310E-012  0.5930197E+02  0.7816164E-02  0.1266605E+00
        -11   -1    0    0    0    0  0.00000000000E+00  0.00000000000E+00  0.45593999997E+02  0.45594000000E+02  0.51100000000E-03 0.  1.
         11   -1    0    0    0    0 -0.00000000000E+00 -0.00000000000E+00 -0.45593999997E+02  0.45594000000E+02  0.51100000000E-03 0. -1.
    9900012    2    1    2    0    0 -0.63431037046E+01 -0.22195414875E+02 -0.21996539156E+02  0.59301966366E+02  0.50000040740E+02 0.  0.
         12    1    1    2    0    0  0.63431037046E+01  0.22195414875E+02  0.21996539156E+02  0.31886033634E+02  0.00000000000E+00 0. -1.
         11    1    3    3    0    0  0.53917186940E+01 -0.13354761806E+01 -0.50938890306E+01  0.75366990667E+01  0.51100000000E-03 0. -1.
        -11    1    3    3    0    0 -0.13263763104E+02  0.86246483600E+01 -0.15590286963E+02  0.22211911644E+02  0.51100000000E-03 0.  1.
        -12    1    3    3    0    0  0.15289407058E+01 -0.29484587054E+02 -0.13123631619E+01  0.29553355655E+02  0.00000000000E+00 0.  1.
</event>
<event>
 7    1  0.6230310E-012  0.5930182E+02  0.7816164E-02  0.1266605E+00
        -11   -1    0    0    0    0  0.00000000000E+00  0.00000000000E+00  0.45593999997E+02  0.45594000000E+02  0.51100000000E-03 0.  1.
         11   -1    0    0    0    0 -0.00000000000E+00 -0.00000000000E+00 -0.45593999997E+02  0.45594000000E+02  0.51100000000E-03 0. -1.
    9900012    2    1    2    0    0 -0.67762458706E+01 -0.11495277449E+02  0.28959788920E+02  0.59301822964E+02  0.49999779207E+02 0.  0.
         12    1    1    2    0    0  0.67762458706E+01  0.11495277449E+02 -0.28959788920E+02  0.31886177036E+02  0.00000000000E+00 0. -1.
         11    1    3    3    0    0 -0.51529413762E+01  0.32197736523E+01  0.93762005561E+01  0.11172863748E+02  0.51100000000E-03 0. -1.
        -11    1    3    3    0    0  0.65127103998E+01  0.13197618419E+02  0.86237158557E+01  0.17057579081E+02  0.51100000000E-03 0.  1.
         12    1    3    3    0    0 -0.81360148942E+01 -0.27912669520E+02  0.10959872508E+02  0.31071380135E+02  0.00000000000E+00 0. -1.
</event>
<event>
 7    1  0.6230310E-012  0.5930184E+02  0.7816164E-02  0.1266605E+00
        -11   -1    0    0    0    0  0.00000000000E+00  0.00000000000E+00  0.45593999997E+02  0.45594000000E+02  0.51100000000E-03 0.  1.
         11   -1    0    0    0    0 -0.00000000000E+00 -0.00000000000E+00 -0.45593999997E+02  0.45594000000E+02  0.51100000000E-03 0. -1.
    9900012    2    1    2    0    0  0.30747262618E+02 -0.41125423582E+01  0.73769778763E+01  0.59301843666E+02  0.49999816965E+02 0.  0.
         12    1    1    2    0    0 -0.30747262618E+02  0.41125423582E+01 -0.73769778763E+01  0.31886156334E+02  0.00000000000E+00 0. -1.
         11    1    3    3    0    0  0.19521022732E+01  0.14462642454E+02 -0.52073566776E+01  0.15495008676E+02  0.51100000000E-03 0. -1.
        -11    1    3    3    0    0  0.18604617234E+02  0.10673280542E+01  0.60783651374E+00  0.18645118318E+02  0.51100000000E-03 0.  1.
        -12    1    3    3    0    0  0.10190543111E+02 -0.19642512867E+02  0.11976498040E+02  0.25161716673E+02  0.00000000000E+00 0.  1.
</event>
<event>
 7    1  0.6230310E-012  0.5930195E+02  0.7816164E-02  0.1266605E+00
        -11   -1    0    0    0    0  0.00000000000E+00  0.00000000000E+00  0.45593999997E+02  0.45594000000E+02  0.51100000000E-03 0.  1.
         11   -1    0    0    0    0 -0.00000000000E+00 -0.00000000000E+00 -0.45593999997E+02  0.45594000000E+02  0.51100000000E-03 0. -1.
    9900012    2    1    2    0    0  0.22506958833E+02 -0.17405156319E+02  0.14395059398E+02  0.59301946662E+02  0.50000004805E+02 0.  0.
         12    1    1    2    0    0 -0.22506958833E+02  0.17405156319E+02 -0.14395059398E+02  0.31886053338E+02  0.00000000000E+00 0. -1.
         11    1    3    3    0    0 -0.86118800800E+00 -0.18095209806E+01  0.63483564554E+01  0.66571496085E+01  0.51100000000E-03 0. -1.
        -11    1    3    3    0    0  0.19814654577E+02 -0.20998725383E+02  0.22635478482E+02  0.36686944409E+02  0.51100000000E-03 0.  1.
        -12    1    3    3    0    0  0.35534922634E+01  0.54030900451E+01 -0.14588775539E+02  0.15957852645E+02  0.00000000000E+00 0.  1.
</event>
<event>
 7    1  0.6230310E-012  0.5930194E+02  0.7816164E-02  0.1266605E+00
        -11   -1    0    0    0    0  0.00000000000E+00  0.00000000000E+00  0.45593999997E+02  0.45594000000E+02  0.51100000000E-03 0. -1.
         11   -1    0    0    0    0 -0.00000000000E+00 -0.00000000000E+00 -0.45593999997E+02  0.45594000000E+02  0.51100000000E-03 0.  1.
    9900012    2    1    2    0    0 -0.24665094437E+02 -0.16200789873E+02 -0.12078418077E+02  0.59301942556E+02  0.49999997316E+02 0.  0.
         12    1    1    2    0    0  0.24665094437E+02  0.16200789873E+02  0.12078418077E+02  0.31886057444E+02  0.00000000000E+00 0. -1.
         11    1    3    3    0    0 -0.17601809621E+02 -0.17865073894E+02  0.95935656855E+01  0.26851835505E+02  0.51100000000E-03 0. -1.
        -11    1    3    3    0    0 -0.11778138995E+02 -0.62406674529E+01 -0.68084877236E+01  0.14967497913E+02  0.51100000000E-03 0.  1.
         12    1    3    3    0    0  0.47148541796E+01  0.79049514737E+01 -0.14863496039E+02  0.17482609137E+02  0.00000000000E+00 0. -1.
</event>
<event>
 7    1  0.6230310E-012  0.5930194E+02  0.7816164E-02  0.1266605E+00
        -11   -1    0    0    0    0  0.00000000000E+00  0.00000000000E+00  0.45593999997E+02  0.45594000000E+02  0.51100000000E-03 0.  1.
         11   -1    0    0    0    0 -0.00000000000E+00 -0.00000000000E+00 -0.45593999997E+02  0.45594000000E+02  0.51100000000E-03 0. -1.
    9900012    2    1    2    0    0  0.29916112554E+02  0.94365503363E-01  0.11033497910E+02  0.59301940800E+02  0.49999994113E+02 0.  0.
         12    1    1    2    0    0 -0.29916112554E+02 -0.94365503363E-01 -0.11033497910E+02  0.31886059200E+02  0.00000000000E+00 0. -1.
         11    1    3    3    0    0 -0.32285856786E+01 -0.16671211883E+02 -0.41896588754E+00  0.16986129748E+02  0.51100000000E-03 0. -1.
        -11    1    3    3    0    0  0.44460767425E+01 -0.34394700501E+01  0.20140616921E+01  0.59710968328E+01  0.51100000000E-03 0.  1.
        -12    1    3    3    0    0  0.28698621490E+02  0.20205047436E+02  0.94384021058E+01  0.36344714219E+02  0.00000000000E+00 0.  1.
</event>
<event>
 7    1  0.6230310E-012  0.5930194E+02  0.7816164E-02  0.1266605E+00
        -11   -1    0    0    0    0  0.00000000000E+00  0.00000000000E+00  0.45593999997E+02  0.45594000000E+02  0.51100000000E-03 0. -1.
         11   -1    0    0    0    0 -0.00000000000E+00 -0.00000000000E+00 -0.45593999997E+02  0.45594000000E+02  0.51100000000E-03 0.  1.
    9900012    2    1    2    0    0  0.18475305925E+02  0.11537684196E+02 -0.23286599224E+02  0.59301940522E+02  0.49999993606E+02 0.  0.
         12    1    1    2    0    0 -0.18475305925E+02 -0.11537684196E+02  0.23286599224E+02  0.31886059478E+02  0.00000000000E+00 0. -1.
         11    1    3    3    0    0  0.42457993846E+01 -0.15759751092E+02  0.23239597361E+01  0.16486277810E+02  0.51100000000E-03 0. -1.
        -11    1    3    3    0    0 -0.39198486205E+00  0.10768826088E+02 -0.29218340673E+01  0.11165051815E+02  0.51100000000E-03 0.  1.
        -12    1    3    3    0    0  0.14621491403E+02  0.16528609199E+02 -0.22688724893E+02  0.31650610897E+02  0.00000000000E+00 0.  1.
</event>
<event>
 7    1  0.6230310E-012  0.5930196E+02  0.7816164E-02  0.1266605E+00
        -11   -1    0    0    0    0  0.00000000000E+00  0.00000000000E+00  0.45593999997E+02  0.45594000000E+02  0.51100000000E-03 0.  1.
         11   -1    0    0    0    0 -0.00000000000E+00 -0.00000000000E+00 -0.45593999997E+02  0.45594000000E+02  0.51100000000E-03 0. -1.
    9900012    2    1    2    0    0  0.13684002000E+02  0.30632051756E+01  0.28637111771E+02  0.59301963758E+02  0.50000035983E+02 0.  0.
         12    1    1    2    0    0 -0.13684002000E+02 -0.30632051756E+01 -0.28637111771E+02  0.31886036242E+02  0.00000000000E+00 0. -1.
         11    1    3    3    0    0 -0.34545237298E+01 -0.36264530260E+01 -0.14162048312E+01  0.52048565911E+01  0.51100000000E-03 0. -1.
        -11    1    3    3    0    0  0.10846706452E+02  0.65958412020E+01 -0.83415292954E+01  0.15190038619E+02  0.51100000000E-03 0.  1.
        -12    1    3    3    0    0  0.62918192780E+01  0.93816999580E-01  0.38394845897E+02  0.38907068547E+02  0.00000000000E+00 0.  1.
</event>
<event>
 7    1  0.6230310E-012  0.5930195E+02  0.7816164E-02  0.1266605E+00
        -11   -1    0    0    0    0  0.00000000000E+00  0.00000000000E+00  0.45593999997E+02  0.45594000000E+02  0.51100000000E-03 0. -1.
         11   -1    0    0    0    0 -0.00000000000E+00 -0.00000000000E+00 -0.45593999997E+02  0.45594000000E+02  0.51100000000E-03 0.  1.
    9900012    2    1    2    0    0  0.18144986956E+02 -0.12682876506E+02 -0.22948300103E+02  0.59301946847E+02  0.50000005141E+02 0.  0.
         12    1    1    2    0    0 -0.18144986956E+02  0.12682876506E+02  0.22948300103E+02  0.31886053153E+02  0.00000000000E+00 0. -1.
         11    1    3    3    0    0  0.17078486680E+02  0.30364310107E+01 -0.11847126689E+02  0.21005928487E+02  0.51100000000E-03 0. -1.
        -11    1    3    3    0    0  0.63397961530E+01  0.91678337313E+01 -0.23350604302E+01  0.11388358005E+02  0.51100000000E-03 0.  1.
        -12    1    3    3    0    0 -0.52732958771E+01 -0.24887141248E+02 -0.87661129840E+01  0.26907660355E+02  0.00000000000E+00 0.  1.
</event>
<event>
 7    1  0.6230310E-012  0.5930194E+02  0.7816164E-02  0.1266605E+00
        -11   -1    0    0    0    0  0.00000000000E+00  0.00000000000E+00  0.45593999997E+02  0.45594000000E+02  0.51100000000E-03 0.  1.
         11   -1    0    0    0    0 -0.00000000000E+00 -0.00000000000E+00 -0.45593999997E+02  0.45594000000E+02  0.51100000000E-03 0. -1.
    9900012    2    1    2    0    0  0.96924913869E+00 -0.76714753863E+01  0.30934280069E+02  0.59301942516E+02  0.49999997243E+02 0.  0.
         12    1    1    2    0    0 -0.96924913869E+00  0.76714753863E+01 -0.30934280069E+02  0.31886057484E+02  0.00000000000E+00 0. -1.
         11    1    3    3    0    0  0.32783392139E+01 -0.13079421975E+02  0.20273480759E+01  0.13635575811E+02  0.51100000000E-03 0. -1.
        -11    1    3    3    0    0 -0.12673913804E+02  0.10665646542E+02  0.29710911415E+02  0.34016501358E+02  0.51100000000E-03 0.  1.
         12    1    3    3    0    0  0.10364823728E+02 -0.52576999527E+01 -0.80397942192E+00  0.11649865348E+02  0.00000000000E+00 0. -1.
</event>
<event>
 7    1  0.6230310E-012  0.5930221E+02  0.7816164E-02  0.1266604E+00
        -11   -1    0    0    0    0  0.00000000000E+00  0.00000000000E+00  0.45593999997E+02  0.45594000000E+02  0.51100000000E-03 0.  1.
         11   -1    0    0    0    0 -0.00000000000E+00 -0.00000000000E+00 -0.45593999997E+02  0.45594000000E+02  0.51100000000E-03 0. -1.
    9900012    2    1    2    0    0  0.25388254612E+02  0.25865165371E+01  0.19116747118E+02  0.59302210682E+02  0.50000486311E+02 0.  0.
         12    1    1    2    0    0 -0.25388254612E+02 -0.25865165371E+01 -0.19116747118E+02  0.31885789318E+02  0.00000000000E+00 0. -1.
         11    1    3    3    0    0  0.93884602185E+01 -0.71359820064E+01  0.10889278940E+02  0.16051224893E+02  0.51100000000E-03 0.  1.
        -11    1    3    3    0    0  0.19036244836E+02  0.10328196857E+02  0.20964906567E+02  0.30142620580E+02  0.51100000000E-03 0. -1.
        -12    1    3    3    0    0 -0.30364504428E+01 -0.60569831378E+00 -0.12737438389E+02  0.13108365209E+02  0.00000000000E+00 0.  1.
</event>
<event>
 7    1  0.6230310E-012  0.5930188E+02  0.7816164E-02  0.1266605E+00
        -11   -1    0    0    0    0  0.00000000000E+00  0.00000000000E+00  0.45593999997E+02  0.45594000000E+02  0.51100000000E-03 0.  1.
         11   -1    0    0    0    0 -0.00000000000E+00 -0.00000000000E+00 -0.45593999997E+02  0.45594000000E+02  0.51100000000E-03 0. -1.
    9900012    2    1    2    0    0  0.26993617206E+02 -0.10910904208E+02  0.13000822840E+02  0.59301880841E+02  0.49999884762E+02 0.  0.
         12    1    1    2    0    0 -0.26993617206E+02  0.10910904208E+02 -0.13000822840E+02  0.31886119159E+02  0.00000000000E+00 0. -1.
         11    1    3    3    0    0  0.66097488923E+01  0.73135513754E+01 -0.68688264883E+01  0.12014890417E+02  0.51100000000E-03 0. -1.
        -11    1    3    3    0    0 -0.87143513094E+01 -0.46671210012E+01  0.72910673166E+00  0.99122920695E+01  0.51100000000E-03 0.  1.
        -12    1    3    3    0    0  0.29098219623E+02 -0.13557334582E+02  0.19140542597E+02  0.37374698355E+02  0.00000000000E+00 0.  1.
</event>
<event>
 7    1  0.6230310E-012  0.5930194E+02  0.7816164E-02  0.1266605E+00
        -11   -1    0    0    0    0  0.00000000000E+00  0.00000000000E+00  0.45593999997E+02  0.45594000000E+02  0.51100000000E-03 0.  1.
         11   -1    0    0    0    0 -0.00000000000E+00 -0.00000000000E+00 -0.45593999997E+02  0.45594000000E+02  0.51100000000E-03 0. -1.
    9900012    2    1    2    0    0 -0.45229982226E+01  0.30663268008E+02  0.74851263719E+01  0.59301942942E+02  0.49999998021E+02 0.  0.
         12    1    1    2    0    0  0.45229982226E+01 -0.30663268008E+02 -0.74851263719E+01  0.31886057058E+02  0.00000000000E+00 0. -1.
         11    1    3    3    0    0 -0.91162063078E+01  0.16176871148E+02 -0.16206402282E+02  0.24646376057E+02  0.51100000000E-03 0. -1.
        -11    1    3    3    0    0  0.53011819896E+00 -0.47363480085E+01  0.87806029820E+01  0.99906459626E+01  0.51100000000E-03 0.  1.
        -12    1    3    3    0    0  0.40630898862E+01  0.19222744869E+02  0.14910925672E+02  0.24664920922E+02  0.00000000000E+00 0.  1.
</event>
<event>
 7    1  0.6230310E-012  0.5930193E+02  0.7816164E-02  0.1266605E+00
        -11   -1    0    0    0    0  0.00000000000E+00  0.00000000000E+00  0.45593999997E+02  0.45594000000E+02  0.51100000000E-03 0.  1.
         11   -1    0    0    0    0 -0.00000000000E+00 -0.00000000000E+00 -0.45593999997E+02  0.45594000000E+02  0.51100000000E-03 0. -1.
    9900012    2    1    2    0    0 -0.96003552924E+01 -0.27747922616E+02  0.12434123313E+02  0.59301930097E+02  0.49999974594E+02 0.  0.
         12    1    1    2    0    0  0.96003552924E+01  0.27747922616E+02 -0.12434123313E+02  0.31886069903E+02  0.00000000000E+00 0. -1.
         11    1    3    3    0    0  0.89294785622E+00 -0.49112925588E+00  0.10157179838E+02  0.10208176446E+02  0.51100000000E-03 0. -1.
        -11    1    3    3    0    0 -0.12556761146E+02 -0.10290291048E+02  0.19130340742E+02  0.25090481810E+02  0.51100000000E-03 0.  1.
         12    1    3    3    0    0  0.20634579971E+01 -0.16966502313E+02 -0.16853397267E+02  0.24003271841E+02  0.00000000000E+00 0. -1.
</event>
<event>
 7    1  0.6230310E-012  0.5930196E+02  0.7816164E-02  0.1266605E+00
        -11   -1    0    0    0    0  0.00000000000E+00  0.00000000000E+00  0.45593999997E+02  0.45594000000E+02  0.51100000000E-03 0.  1.
         11   -1    0    0    0    0 -0.00000000000E+00 -0.00000000000E+00 -0.45593999997E+02  0.45594000000E+02  0.51100000000E-03 0. -1.
    9900012    2    1    2    0    0  0.20210438969E+02  0.15072841751E+02  0.19520949301E+02  0.59301955038E+02  0.50000020079E+02 0.  0.
         12    1    1    2    0    0 -0.20210438969E+02 -0.15072841751E+02 -0.19520949301E+02  0.31886044962E+02  0.00000000000E+00 0. -1.
         11    1    3    3    0    0 -0.54408461904E+01 -0.32994736329E+01  0.31363623114E+01  0.70940892531E+01  0.51100000000E-03 0. -1.
        -11    1    3    3    0    0 -0.96658442899E+00  0.17068039749E+02  0.18846125710E+02  0.25444620667E+02  0.51100000000E-03 0.  1.
         12    1    3    3    0    0  0.26617869588E+02  0.13042756344E+01 -0.24615387209E+01  0.26763245117E+02  0.00000000000E+00 0. -1.
</event>
<event>
 7    1  0.6230310E-012  0.5930197E+02  0.7816164E-02  0.1266605E+00
        -11   -1    0    0    0    0  0.00000000000E+00  0.00000000000E+00  0.45593999997E+02  0.45594000000E+02  0.51100000000E-03 0.  1.
         11   -1    0    0    0    0 -0.00000000000E+00 -0.00000000000E+00 -0.45593999997E+02  0.45594000000E+02  0.51100000000E-03 0. -1.
    9900012    2    1    2    0    0 -0.41756536656E+01 -0.30816236556E+02  0.70457576750E+01  0.59301965123E+02  0.50000038472E+02 0.  0.
         12    1    1    2    0    0  0.41756536656E+01  0.30816236556E+02 -0.70457576750E+01  0.31886034877E+02  0.00000000000E+00 0. -1.
         11    1    3    3    0    0 -0.30958962887E+00  0.29536354146E+01 -0.74991588212E+01  0.80658038153E+01  0.51100000000E-03 0. -1.
        -11    1    3    3    0    0 -0.92670816146E+01 -0.10283665417E+02 -0.98152247508E+01  0.16969714589E+02  0.51100000000E-03 0.  1.
        -12    1    3    3    0    0  0.54010175778E+01 -0.23486206553E+02  0.24360141247E+02  0.34266446718E+02  0.00000000000E+00 0.  1.
</event>
<event>
 7    1  0.6230310E-012  0.5930196E+02  0.7816164E-02  0.1266605E+00
        -11   -1    0    0    0    0  0.00000000000E+00  0.00000000000E+00  0.45593999997E+02  0.45594000000E+02  0.51100000000E-03 0. -1.
         11   -1    0    0    0    0 -0.00000000000E+00 -0.00000000000E+00 -0.45593999997E+02  0.45594000000E+02  0.51100000000E-03 0.  1.
    9900012    2    1    2    0    0 -0.12543359169E+02  0.28842243396E+02  0.52448813946E+01  0.59301958474E+02  0.50000026347E+02 0.  0.
         12    1    1    2    0    0  0.12543359169E+02 -0.28842243396E+02 -0.52448813946E+01  0.31886041526E+02  0.00000000000E+00 0. -1.
         11    1    3    3    0    0  0.96010782905E+01  0.22791431458E+02  0.96262178302E+01  0.26538540318E+02  0.51100000000E-03 0. -1.
        -11    1    3    3    0    0 -0.81871935274E+01  0.10405421807E+02 -0.10515522152E+02  0.16907961061E+02  0.51100000000E-03 0.  1.
         12    1    3    3    0    0 -0.13957243932E+02 -0.43546098699E+01  0.61341857165E+01  0.15855457095E+02  0.00000000000E+00 0. -1.
</event>
<event>
 7    1  0.6230310E-012  0.5930189E+02  0.7816164E-02  0.1266605E+00
        -11   -1    0    0    0    0  0.00000000000E+00  0.00000000000E+00  0.45593999997E+02  0.45594000000E+02  0.51100000000E-03 0.  1.
         11   -1    0    0    0    0 -0.00000000000E+00 -0.00000000000E+00 -0.45593999997E+02  0.45594000000E+02  0.51100000000E-03 0. -1.
    9900012    2    1    2    0    0  0.26520891781E+02  0.14414730521E+02 -0.10275307079E+02  0.59301888722E+02  0.49999899136E+02 0.  0.
         12    1    1    2    0    0 -0.26520891781E+02 -0.14414730521E+02  0.10275307079E+02  0.31886111278E+02  0.00000000000E+00 0. -1.
         11    1    3    3    0    0  0.16113857692E+01  0.22474309138E+01 -0.23822079742E+02  0.23982055652E+02  0.51100000000E-03 0. -1.
        -11    1    3    3    0    0  0.18849655816E+02  0.43936712423E+00  0.47100203646E+01  0.19434167334E+02  0.51100000000E-03 0.  1.
        -12    1    3    3    0    0  0.60598501953E+01  0.11727932483E+02  0.88367522984E+01  0.15885665737E+02  0.00000000000E+00 0.  1.
</event>
<event>
 7    1  0.6230310E-012  0.5930196E+02  0.7816164E-02  0.1266605E+00
        -11   -1    0    0    0    0  0.00000000000E+00  0.00000000000E+00  0.45593999997E+02  0.45594000000E+02  0.51100000000E-03 0.  1.
         11   -1    0    0    0    0 -0.00000000000E+00 -0.00000000000E+00 -0.45593999997E+02  0.45594000000E+02  0.51100000000E-03 0. -1.
    9900012    2    1    2    0    0 -0.20689007962E+02  0.11941438808E+02  0.21120768095E+02  0.59301955150E+02  0.50000020284E+02 0.  0.
         12    1    1    2    0    0  0.20689007962E+02 -0.11941438808E+02 -0.21120768095E+02  0.31886044850E+02  0.00000000000E+00 0. -1.
         11    1    3    3    0    0 -0.12085758071E+02  0.13097077103E+02 -0.10421757439E+02  0.20644902643E+02  0.51100000000E-03 0. -1.
        -11    1    3    3    0    0  0.98361107617E+00 -0.37898955740E+01 -0.14681600897E+01  0.41816615742E+01  0.51100000000E-03 0.  1.
        -12    1    3    3    0    0 -0.95868609677E+01  0.26342572791E+01  0.33010685623E+02  0.34475390933E+02  0.00000000000E+00 0.  1.
</event>
<event>
 7    1  0.6230310E-012  0.5930194E+02  0.7816164E-02  0.1266605E+00
        -11   -1    0    0    0    0  0.00000000000E+00  0.00000000000E+00  0.45593999997E+02  0.45594000000E+02  0.51100000000E-03 0. -1.
         11   -1    0    0    0    0 -0.00000000000E+00 -0.00000000000E+00 -0.45593999997E+02  0.45594000000E+02  0.51100000000E-03 0.  1.
    9900012    2    1    2    0    0 -0.36686663078E+01 -0.18491337798E+02 -0.25716383209E+02  0.59301936408E+02  0.49999986103E+02 0.  0.
         12    1    1    2    0    0  0.36686663078E+01  0.18491337798E+02  0.25716383209E+02  0.31886063592E+02  0.00000000000E+00 0. -1.
         11    1    3    3    0    0  0.12258744785E+02  0.77785915214E+01  0.34508699875E+01  0.14922862115E+02  0.51100000000E-03 0. -1.
        -11    1    3    3    0    0 -0.46630205068E+01 -0.22754602776E+01 -0.11237620691E+02  0.12377624925E+02  0.51100000000E-03 0.  1.
        -12    1    3    3    0    0 -0.11264390586E+02 -0.23994469042E+02 -0.17929632506E+02  0.32001449368E+02  0.00000000000E+00 0.  1.
</event>
<event>
 7    1  0.6230310E-012  0.5930194E+02  0.7816164E-02  0.1266605E+00
        -11   -1    0    0    0    0  0.00000000000E+00  0.00000000000E+00  0.45593999997E+02  0.45594000000E+02  0.51100000000E-03 0.  1.
         11   -1    0    0    0    0 -0.00000000000E+00 -0.00000000000E+00 -0.45593999997E+02  0.45594000000E+02  0.51100000000E-03 0. -1.
    9900012    2    1    2    0    0 -0.26542120828E+02 -0.15710699074E+02 -0.80876938404E+01  0.59301936664E+02  0.49999986570E+02 0.  0.
         12    1    1    2    0    0  0.26542120828E+02  0.15710699074E+02  0.80876938404E+01  0.31886063336E+02  0.00000000000E+00 0. -1.
         11    1    3    3    0    0 -0.82573668804E+01  0.13858663019E+02  0.30019615107E+01  0.16409095699E+02  0.51100000000E-03 0. -1.
        -11    1    3    3    0    0 -0.12145654929E+02 -0.60856855603E+01  0.41835421399E+01  0.14214588544E+02  0.51100000000E-03 0.  1.
         12    1    3    3    0    0 -0.61390990185E+01 -0.23483676533E+02 -0.15273197491E+02  0.28678252420E+02  0.00000000000E+00 0. -1.
</event>
<event>
 7    1  0.6230310E-012  0.5930190E+02  0.7816164E-02  0.1266605E+00
        -11   -1    0    0    0    0  0.00000000000E+00  0.00000000000E+00  0.45593999997E+02  0.45594000000E+02  0.51100000000E-03 0.  1.
         11   -1    0    0    0    0 -0.00000000000E+00 -0.00000000000E+00 -0.45593999997E+02  0.45594000000E+02  0.51100000000E-03 0. -1.
    9900012    2    1    2    0    0  0.12665296852E+02 -0.20154761864E+00  0.29262145425E+02  0.59301897688E+02  0.49999915487E+02 0.  0.
         12    1    1    2    0    0 -0.12665296852E+02  0.20154761864E+00 -0.29262145425E+02  0.31886102312E+02  0.00000000000E+00 0. -1.
         11    1    3    3    0    0  0.16480002374E+02 -0.63437229659E+01  0.10255431298E+01  0.17688556705E+02  0.51100000000E-03 0. -1.
        -11    1    3    3    0    0 -0.66847964777E+01 -0.73286917213E+01 -0.30294130049E+00  0.99241120503E+01  0.51100000000E-03 0.  1.
        -12    1    3    3    0    0  0.28700909557E+01  0.13470867069E+02  0.28539543596E+02  0.31689228932E+02  0.00000000000E+00 0.  1.
</event>
<event>
 7    1  0.6230310E-012  0.5930195E+02  0.7816164E-02  0.1266605E+00
        -11   -1    0    0    0    0  0.00000000000E+00  0.00000000000E+00  0.45593999997E+02  0.45594000000E+02  0.51100000000E-03 0.  1.
         11   -1    0    0    0    0 -0.00000000000E+00 -0.00000000000E+00 -0.45593999997E+02  0.45594000000E+02  0.51100000000E-03 0. -1.
    9900012    2    1    2    0    0  0.19591765772E+02  0.21258228531E+02  0.13452540702E+02  0.59301946345E+02  0.50000004226E+02 0.  0.
         12    1    1    2    0    0 -0.19591765772E+02 -0.21258228531E+02 -0.13452540702E+02  0.31886053655E+02  0.00000000000E+00 0. -1.
         11    1    3    3    0    0  0.76586430351E+01  0.12211774571E+02 -0.46173779448E+01  0.15136129977E+02  0.51100000000E-03 0. -1.
        -11    1    3    3    0    0  0.19389577038E+02  0.11261110194E+01 -0.37534389263E+01  0.19781610849E+02  0.51100000000E-03 0.  1.
        -12    1    3    3    0    0 -0.74564543013E+01  0.79203429401E+01  0.21823357573E+02  0.24384205519E+02  0.00000000000E+00 0.  1.
</event>
<event>
 7    1  0.6230310E-012  0.5930193E+02  0.7816164E-02  0.1266605E+00
        -11   -1    0    0    0    0  0.00000000000E+00  0.00000000000E+00  0.45593999997E+02  0.45594000000E+02  0.51100000000E-03 0.  1.
         11   -1    0    0    0    0 -0.00000000000E+00 -0.00000000000E+00 -0.45593999997E+02  0.45594000000E+02  0.51100000000E-03 0. -1.
    9900012    2    1    2    0    0  0.25059572400E+02 -0.19256381741E+02 -0.42344847693E+01  0.59301933013E+02  0.49999979912E+02 0.  0.
         12    1    1    2    0    0 -0.25059572400E+02  0.19256381741E+02  0.42344847693E+01  0.31886066987E+02  0.00000000000E+00 0. -1.
         11    1    3    3    0    0 -0.78948964819E+01 -0.58284186408E+01 -0.32690723252E+01  0.10343436974E+02  0.51100000000E-03 0. -1.
        -11    1    3    3    0    0  0.11231474872E+02 -0.19657801065E+02  0.88655879016E+01  0.24314066291E+02  0.51100000000E-03 0.  1.
        -12    1    3    3    0    0  0.21722994010E+02  0.62298379645E+01 -0.98310003458E+01  0.24644429748E+02  0.00000000000E+00 0.  1.
</event>
<event>
 7    1  0.6230310E-012  0.5930194E+02  0.7816164E-02  0.1266605E+00
        -11   -1    0    0    0    0  0.00000000000E+00  0.00000000000E+00  0.45593999997E+02  0.45594000000E+02  0.51100000000E-03 0.  1.
         11   -1    0    0    0    0 -0.00000000000E+00 -0.00000000000E+00 -0.45593999997E+02  0.45594000000E+02  0.51100000000E-03 0. -1.
    9900012    2    1    2    0    0 -0.63142337773E+01 -0.86877009968E+01  0.30022908730E+02  0.59301941206E+02  0.49999994853E+02 0.  0.
         12    1    1    2    0    0  0.63142337773E+01  0.86877009968E+01 -0.30022908730E+02  0.31886058794E+02  0.00000000000E+00 0. -1.
         11    1    3    3    0    0  0.29808331490E+01 -0.27616044096E+01 -0.32039426086E+01  0.51746568657E+01  0.51100000000E-03 0. -1.
        -11    1    3    3    0    0  0.17196546810E+01 -0.22639250132E+02  0.17140057931E+02  0.28447749382E+02  0.51100000000E-03 0.  1.
        -12    1    3    3    0    0 -0.11014721607E+02  0.16713153545E+02  0.16086793408E+02  0.25679534958E+02  0.00000000000E+00 0.  1.
</event>
<event>
 7    1  0.6230310E-012  0.5930195E+02  0.7816164E-02  0.1266605E+00
        -11   -1    0    0    0    0  0.00000000000E+00  0.00000000000E+00  0.45593999997E+02  0.45594000000E+02  0.51100000000E-03 0.  1.
         11   -1    0    0    0    0 -0.00000000000E+00 -0.00000000000E+00 -0.45593999997E+02  0.45594000000E+02  0.51100000000E-03 0. -1.
    9900012    2    1    2    0    0 -0.95269410323E+01  0.55151354039E+00  0.30424548380E+02  0.59301954201E+02  0.50000018553E+02 0.  0.
         12    1    1    2    0    0  0.95269410323E+01 -0.55151354039E+00 -0.30424548380E+02  0.31886045799E+02  0.00000000000E+00 0. -1.
         11    1    3    3    0    0  0.62470703739E+01  0.89979139279E+01  0.48799679297E+01  0.11991765115E+02  0.51100000000E-03 0. -1.
        -11    1    3    3    0    0  0.53347347904E+01 -0.43175658894E+01  0.24860662008E+02  0.25790565838E+02  0.51100000000E-03 0.  1.
         12    1    3    3    0    0 -0.21108746197E+02 -0.41288344981E+01  0.68391844193E+00  0.21519623248E+02  0.00000000000E+00 0. -1.
</event>
<event>
 7    1  0.6230310E-012  0.5930194E+02  0.7816164E-02  0.1266605E+00
        -11   -1    0    0    0    0  0.00000000000E+00  0.00000000000E+00  0.45593999997E+02  0.45594000000E+02  0.51100000000E-03 0.  1.
         11   -1    0    0    0    0 -0.00000000000E+00 -0.00000000000E+00 -0.45593999997E+02  0.45594000000E+02  0.51100000000E-03 0. -1.
    9900012    2    1    2    0    0  0.21818670173E+02 -0.67322219166E+01  0.22256319160E+02  0.59301938427E+02  0.49999989786E+02 0.  0.
         12    1    1    2    0    0 -0.21818670173E+02  0.67322219166E+01 -0.22256319160E+02  0.31886061573E+02  0.00000000000E+00 0. -1.
         11    1    3    3    0    0  0.38280249665E+01  0.32305835331E+01  0.60734397062E+01  0.78725545558E+01  0.51100000000E-03 0. -1.
        -11    1    3    3    0    0 -0.10786294312E+02  0.91091752979E+01  0.67012314952E+01  0.15627786900E+02  0.51100000000E-03 0.  1.
        -12    1    3    3    0    0  0.28776939518E+02 -0.19071980748E+02  0.94816479589E+01  0.35801596971E+02  0.00000000000E+00 0.  1.
</event>
<event>
 7    1  0.6230310E-012  0.5930193E+02  0.7816164E-02  0.1266605E+00
        -11   -1    0    0    0    0  0.00000000000E+00  0.00000000000E+00  0.45593999997E+02  0.45594000000E+02  0.51100000000E-03 0. -1.
         11   -1    0    0    0    0 -0.00000000000E+00 -0.00000000000E+00 -0.45593999997E+02  0.45594000000E+02  0.51100000000E-03 0.  1.
    9900012    2    1    2    0    0  0.28320444128E+02  0.89738732892E+01 -0.11582029953E+02  0.59301931330E+02  0.49999976842E+02 0.  0.
         12    1    1    2    0    0 -0.28320444128E+02 -0.89738732892E+01  0.11582029953E+02  0.31886068670E+02  0.00000000000E+00 0. -1.
         11    1    3    3    0    0  0.24261476671E+02 -0.56317737307E+01  0.20150341338E+01  0.24987926853E+02  0.51100000000E-03 0. -1.
        -11    1    3    3    0    0  0.13151751504E+02  0.13197732280E+02 -0.92642050552E+00  0.18654944658E+02  0.51100000000E-03 0.  1.
        -12    1    3    3    0    0 -0.90927840471E+01  0.14079147397E+01 -0.12670643581E+02  0.15659059819E+02  0.00000000000E+00 0.  1.
</event>
<event>
 7    1  0.6230310E-012  0.5930195E+02  0.7816164E-02  0.1266605E+00
        -11   -1    0    0    0    0  0.00000000000E+00  0.00000000000E+00  0.45593999997E+02  0.45594000000E+02  0.51100000000E-03 0. -1.
         11   -1    0    0    0    0 -0.00000000000E+00 -0.00000000000E+00 -0.45593999997E+02  0.45594000000E+02  0.51100000000E-03 0.  1.
    9900012    2    1    2    0    0 -0.10364066725E+02  0.22172761088E+02  0.20437102020E+02  0.59301947370E+02  0.50000006096E+02 0.  0.
         12    1    1    2    0    0  0.10364066725E+02 -0.22172761088E+02 -0.20437102020E+02  0.31886052630E+02  0.00000000000E+00 0. -1.
         11    1    3    3    0    0  0.44523676881E+01  0.81175197772E+01  0.10177056428E+00  0.92589450194E+01  0.51100000000E-03 0.  1.
        -11    1    3    3    0    0 -0.24564634793E+02  0.21012256278E+02  0.20099102590E+02  0.38064552034E+02  0.51100000000E-03 0. -1.
         12    1    3    3    0    0  0.97482003800E+01 -0.69570149672E+01  0.23622886594E+00  0.11978450316E+02  0.00000000000E+00 0. -1.
</event>
<event>
 7    1  0.6230310E-012  0.5930194E+02  0.7816164E-02  0.1266605E+00
        -11   -1    0    0    0    0  0.00000000000E+00  0.00000000000E+00  0.45593999997E+02  0.45594000000E+02  0.51100000000E-03 0. -1.
         11   -1    0    0    0    0 -0.00000000000E+00 -0.00000000000E+00 -0.45593999997E+02  0.45594000000E+02  0.51100000000E-03 0.  1.
    9900012    2    1    2    0    0  0.28432094009E+02 -0.14034681769E+02  0.33711013939E+01  0.59301943695E+02  0.49999999393E+02 0.  0.
         12    1    1    2    0    0 -0.28432094009E+02  0.14034681769E+02 -0.33711013939E+01  0.31886056305E+02  0.00000000000E+00 0. -1.
         11    1    3    3    0    0  0.72567341608E+01  0.88370467163E+01 -0.69512198440E+01  0.13381817624E+02  0.51100000000E-03 0. -1.
        -11    1    3    3    0    0 -0.73323300499E+01 -0.10221558576E+02  0.74012092012E+01  0.14595246541E+02  0.51100000000E-03 0.  1.
        -12    1    3    3    0    0  0.28507689898E+02 -0.12650169909E+02  0.29211120368E+01  0.31324879530E+02  0.00000000000E+00 0.  1.
</event>
<event>
 7    1  0.6230310E-012  0.5930193E+02  0.7816164E-02  0.1266605E+00
        -11   -1    0    0    0    0  0.00000000000E+00  0.00000000000E+00  0.45593999997E+02  0.45594000000E+02  0.51100000000E-03 0.  1.
         11   -1    0    0    0    0 -0.00000000000E+00 -0.00000000000E+00 -0.45593999997E+02  0.45594000000E+02  0.51100000000E-03 0. -1.
    9900012    2    1    2    0    0  0.46063249453E+00 -0.28631311755E+02 -0.14027013989E+02  0.59301932250E+02  0.49999978521E+02 0.  0.
         12    1    1    2    0    0 -0.46063249453E+00  0.28631311755E+02  0.14027013989E+02  0.31886067750E+02  0.00000000000E+00 0. -1.
         11    1    3    3    0    0 -0.70863090551E+01 -0.60152587212E+01 -0.11125232417E+02  0.14497238016E+02  0.51100000000E-03 0. -1.
        -11    1    3    3    0    0  0.11444797205E+02  0.31563427430E+01 -0.12301637456E+02  0.17096086304E+02  0.51100000000E-03 0.  1.
        -12    1    3    3    0    0 -0.38978556553E+01 -0.25772395776E+02  0.93998558840E+01  0.27708607930E+02  0.00000000000E+00 0.  1.
</event>
<event>
 7    1  0.6230310E-012  0.5930166E+02  0.7816164E-02  0.1266606E+00
        -11   -1    0    0    0    0  0.00000000000E+00  0.00000000000E+00  0.45593999997E+02  0.45594000000E+02  0.51100000000E-03 0.  1.
         11   -1    0    0    0    0 -0.00000000000E+00 -0.00000000000E+00 -0.45593999997E+02  0.45594000000E+02  0.51100000000E-03 0. -1.
    9900012    2    1    2    0    0 -0.98535213944E+01 -0.25548078134E+02  0.16338382752E+02  0.59301656040E+02  0.49999474776E+02 0.  0.
         12    1    1    2    0    0  0.98535213944E+01  0.25548078134E+02 -0.16338382752E+02  0.31886343960E+02  0.00000000000E+00 0. -1.
         11    1    3    3    0    0  0.97894238522E+01 -0.84630564490E+01 -0.15301370439E+01  0.13030635574E+02  0.51100000000E-03 0. -1.
        -11    1    3    3    0    0  0.89847717840E+01 -0.30012628853E+01  0.92109826220E+01  0.13212717512E+02  0.51100000000E-03 0.  1.
        -12    1    3    3    0    0 -0.28627717031E+02 -0.14083758800E+02  0.86575371737E+01  0.33058302954E+02  0.00000000000E+00 0.  1.
</event>
<event>
 7    1  0.7480671E-012  0.5930193E+02  0.7816164E-02  0.1266605E+00
        -11   -1    0    0    0    0  0.00000000000E+00  0.00000000000E+00  0.45593999997E+02  0.45594000000E+02  0.51100000000E-03 0. -1.
         11   -1    0    0    0    0 -0.00000000000E+00 -0.00000000000E+00 -0.45593999997E+02  0.45594000000E+02  0.51100000000E-03 0.  1.
    9900012    2    1    2    0    0  0.28274113403E+02 -0.64842764675E+01 -0.13238201170E+02  0.59301932506E+02  0.49999978987E+02 0.  0.
         12    1    1    2    0    0 -0.28274113403E+02  0.64842764675E+01  0.13238201170E+02  0.31886067494E+02  0.00000000000E+00 0. -1.
         11    1    3    3    0    0 -0.11668867332E+01  0.31968987777E+01  0.94194001526E+01  0.10015332543E+02  0.51100000000E-03 0. -1.
        -11    1    3    3    0    0 -0.25457251136E+01  0.40033686347E+01 -0.11993687205E+02  0.12897914940E+02  0.51100000000E-03 0.  1.
        -12    1    3    3    0    0  0.31986725250E+02 -0.13684543880E+02 -0.10663914117E+02  0.36388685023E+02  0.00000000000E+00 0.  1.
</event>
<event>
 7    1  0.6230310E-012  0.5930194E+02  0.7816164E-02  0.1266605E+00
        -11   -1    0    0    0    0  0.00000000000E+00  0.00000000000E+00  0.45593999997E+02  0.45594000000E+02  0.51100000000E-03 0.  1.
         11   -1    0    0    0    0 -0.00000000000E+00 -0.00000000000E+00 -0.45593999997E+02  0.45594000000E+02  0.51100000000E-03 0. -1.
    9900012    2    1    2    0    0  0.20638057053E+02 -0.13932025525E+02  0.19917073360E+02  0.59301944343E+02  0.50000000575E+02 0.  0.
         12    1    1    2    0    0 -0.20638057053E+02  0.13932025525E+02 -0.19917073360E+02  0.31886055657E+02  0.00000000000E+00 0. -1.
         11    1    3    3    0    0  0.58764680279E+01 -0.19777916108E+02  0.95417577371E+01  0.22732003498E+02  0.51100000000E-03 0. -1.
        -11    1    3    3    0    0  0.18445144976E+02 -0.80030855630E+01  0.94307232123E+01  0.22208360864E+02  0.51100000000E-03 0.  1.
         12    1    3    3    0    0 -0.36835559510E+01  0.13848976146E+02  0.94459241076E+00  0.14361579981E+02  0.00000000000E+00 0. -1.
</event>
<event>
 7    1  0.6230310E-012  0.5930206E+02  0.7816164E-02  0.1266604E+00
        -11   -1    0    0    0    0  0.00000000000E+00  0.00000000000E+00  0.45593999997E+02  0.45594000000E+02  0.51100000000E-03 0. -1.
         11   -1    0    0    0    0 -0.00000000000E+00 -0.00000000000E+00 -0.45593999997E+02  0.45594000000E+02  0.51100000000E-03 0.  1.
    9900012    2    1    2    0    0  0.28849421622E+02 -0.27600137643E+01 -0.13296856274E+02  0.59302059671E+02  0.50000210905E+02 0.  0.
         12    1    1    2    0    0 -0.28849421622E+02  0.27600137643E+01  0.13296856274E+02  0.31885940329E+02  0.00000000000E+00 0. -1.
         11    1    3    3    0    0  0.37950365991E+01 -0.23153630253E+01  0.16005598439E+02  0.16611513790E+02  0.51100000000E-03 0. -1.
        -11    1    3    3    0    0  0.75343131323E+01 -0.56588955189E+01 -0.16860176392E+01  0.95724410999E+01  0.51100000000E-03 0.  1.
         12    1    3    3    0    0  0.17520071890E+02  0.52142447799E+01 -0.27616437074E+02  0.33118104781E+02  0.00000000000E+00 0. -1.
</event>
<event>
 7    1  0.6230310E-012  0.5930180E+02  0.7816164E-02  0.1266605E+00
        -11   -1    0    0    0    0  0.00000000000E+00  0.00000000000E+00  0.45593999997E+02  0.45594000000E+02  0.51100000000E-03 0.  1.
         11   -1    0    0    0    0 -0.00000000000E+00 -0.00000000000E+00 -0.45593999997E+02  0.45594000000E+02  0.51100000000E-03 0. -1.
    9900012    2    1    2    0    0  0.15248450611E+02 -0.26835509042E+02 -0.80043680350E+01  0.59301800804E+02  0.49999738793E+02 0.  0.
         12    1    1    2    0    0 -0.15248450611E+02  0.26835509042E+02  0.80043680350E+01  0.31886199196E+02  0.00000000000E+00 0. -1.
         11    1    3    3    0    0  0.62445121790E+00 -0.15041328912E+02 -0.25940657284E+02  0.29992485981E+02  0.51100000000E-03 0. -1.
        -11    1    3    3    0    0  0.21912580197E+01 -0.10294646346E+02  0.66428566842E+01  0.12446240408E+02  0.51100000000E-03 0.  1.
        -12    1    3    3    0    0  0.12432741373E+02 -0.14995337832E+01  0.11293432565E+02  0.16863074414E+02  0.00000000000E+00 0.  1.
</event>
<event>
 7    1  0.6230310E-012  0.5930204E+02  0.7816164E-02  0.1266604E+00
        -11   -1    0    0    0    0  0.00000000000E+00  0.00000000000E+00  0.45593999997E+02  0.45594000000E+02  0.51100000000E-03 0.  1.
         11   -1    0    0    0    0 -0.00000000000E+00 -0.00000000000E+00 -0.45593999997E+02  0.45594000000E+02  0.51100000000E-03 0. -1.
    9900012    2    1    2    0    0 -0.83935360060E+00 -0.18293919983E+02  0.26102542782E+02  0.59302035023E+02  0.50000165954E+02 0.  0.
         12    1    1    2    0    0  0.83935360060E+00  0.18293919983E+02 -0.26102542782E+02  0.31885964977E+02  0.00000000000E+00 0. -1.
         11    1    3    3    0    0  0.81508265084E+01 -0.55381385758E+01 -0.10191925288E+02  0.14176822387E+02  0.51100000000E-03 0. -1.
        -11    1    3    3    0    0 -0.70083634912E+01  0.14927987238E+01  0.12910792114E+01  0.72809678372E+01  0.51100000000E-03 0.  1.
        -12    1    3    3    0    0 -0.19818166178E+01 -0.14248580131E+02  0.35003388858E+02  0.37844244799E+02  0.00000000000E+00 0.  1.
</event>
<event>
 7    1  0.6230310E-012  0.5930197E+02  0.7816164E-02  0.1266605E+00
        -11   -1    0    0    0    0  0.00000000000E+00  0.00000000000E+00  0.45593999997E+02  0.45594000000E+02  0.51100000000E-03 0. -1.
         11   -1    0    0    0    0 -0.00000000000E+00 -0.00000000000E+00 -0.45593999997E+02  0.45594000000E+02  0.51100000000E-03 0.  1.
    9900012    2    1    2    0    0 -0.86731467356E+01 -0.21690545245E+02 -0.21702901372E+02  0.59301966141E+02  0.50000040329E+02 0.  0.
         12    1    1    2    0    0  0.86731467356E+01  0.21690545245E+02  0.21702901372E+02  0.31886033859E+02  0.00000000000E+00 0. -1.
         11    1    3    3    0    0 -0.24869502105E+01  0.68465080316E+01 -0.10381639537E+01  0.73578106956E+01  0.51100000000E-03 0. -1.
        -11    1    3    3    0    0 -0.75945740655E+01  0.13276645002E+01 -0.20654217532E+02  0.22046245721E+02  0.51100000000E-03 0.  1.
         12    1    3    3    0    0  0.14083775404E+01 -0.29864717777E+02 -0.10519885700E-01  0.29897909724E+02  0.00000000000E+00 0. -1.
</event>
<event>
 7    1  0.6230310E-012  0.5930194E+02  0.7816164E-02  0.1266605E+00
        -11   -1    0    0    0    0  0.00000000000E+00  0.00000000000E+00  0.45593999997E+02  0.45594000000E+02  0.51100000000E-03 0.  1.
         11   -1    0    0    0    0 -0.00000000000E+00 -0.00000000000E+00 -0.45593999997E+02  0.45594000000E+02  0.51100000000E-03 0. -1.
    9900012    2    1    2    0    0 -0.30777088205E+02  0.59104548933E+01  0.58786185907E+01  0.59301940476E+02  0.49999993523E+02 0.  0.
         12    1    1    2    0    0  0.30777088205E+02 -0.59104548933E+01 -0.58786185907E+01  0.31886059524E+02  0.00000000000E+00 0. -1.
         11    1    3    3    0    0 -0.40484339516E+01 -0.12659165854E+02  0.60366846363E+00  0.13304462164E+02  0.51100000000E-03 0. -1.
        -11    1    3    3    0    0 -0.17008490628E+02 -0.66920502502E+01 -0.65073226279E+00  0.18289224771E+02  0.51100000000E-03 0.  1.
         12    1    3    3    0    0 -0.97201636253E+01  0.25261670998E+02  0.59256823899E+01  0.27708253541E+02  0.00000000000E+00 0. -1.
</event>
<event>
 7    1  0.6230310E-012  0.5930195E+02  0.7816164E-02  0.1266605E+00
        -11   -1    0    0    0    0  0.00000000000E+00  0.00000000000E+00  0.45593999997E+02  0.45594000000E+02  0.51100000000E-03 0.  1.
         11   -1    0    0    0    0 -0.00000000000E+00 -0.00000000000E+00 -0.45593999997E+02  0.45594000000E+02  0.51100000000E-03 0. -1.
    9900012    2    1    2    0    0  0.29100680824E+01 -0.28864430349E+02  0.13232389440E+02  0.59301953429E+02  0.50000017146E+02 0.  0.
         12    1    1    2    0    0 -0.29100680824E+01  0.28864430349E+02 -0.13232389440E+02  0.31886046571E+02  0.00000000000E+00 0. -1.
         11    1    3    3    0    0  0.15521239047E+02 -0.11194325577E+02 -0.65140473688E+01  0.20215207149E+02  0.51100000000E-03 0. -1.
        -11    1    3    3    0    0  0.60365920896E+01 -0.13242009384E+02  0.79920322720E+01  0.16603127316E+02  0.51100000000E-03 0.  1.
        -12    1    3    3    0    0 -0.18647763055E+02 -0.44280953886E+01  0.11754404537E+02  0.22483618964E+02  0.00000000000E+00 0.  1.
</event>
<event>
 7    1  0.6230310E-012  0.5930196E+02  0.7816164E-02  0.1266605E+00
        -11   -1    0    0    0    0  0.00000000000E+00  0.00000000000E+00  0.45593999997E+02  0.45594000000E+02  0.51100000000E-03 0. -1.
         11   -1    0    0    0    0 -0.00000000000E+00 -0.00000000000E+00 -0.45593999997E+02  0.45594000000E+02  0.51100000000E-03 0.  1.
    9900012    2    1    2    0    0 -0.15548232528E+02 -0.24926402816E+02 -0.12395423608E+02  0.59301958877E+02  0.50000027081E+02 0.  0.
         12    1    1    2    0    0  0.15548232528E+02  0.24926402816E+02  0.12395423608E+02  0.31886041123E+02  0.00000000000E+00 0. -1.
         11    1    3    3    0    0  0.15161678131E+01 -0.38802677507E+00 -0.20267770669E+02  0.20328105120E+02  0.51100000000E-03 0. -1.
        -11    1    3    3    0    0  0.51798687493E+01 -0.67586435282E+00 -0.62989086859E+00  0.52616153081E+01  0.51100000000E-03 0.  1.
        -12    1    3    3    0    0 -0.22244269090E+02 -0.23862511688E+02  0.85022379293E+01  0.33712238449E+02  0.00000000000E+00 0.  1.
</event>
<event>
 7    1  0.6230310E-012  0.5930194E+02  0.7816164E-02  0.1266605E+00
        -11   -1    0    0    0    0  0.00000000000E+00  0.00000000000E+00  0.45593999997E+02  0.45594000000E+02  0.51100000000E-03 0.  1.
         11   -1    0    0    0    0 -0.00000000000E+00 -0.00000000000E+00 -0.45593999997E+02  0.45594000000E+02  0.51100000000E-03 0. -1.
    9900012    2    1    2    0    0  0.13207402412E+02 -0.20990608212E+02  0.20041944599E+02  0.59301942626E+02  0.49999997443E+02 0.  0.
         12    1    1    2    0    0 -0.13207402412E+02  0.20990608212E+02 -0.20041944599E+02  0.31886057374E+02  0.00000000000E+00 0. -1.
         11    1    3    3    0    0 -0.43584824334E+01 -0.41327297272E+01  0.13945751694E+01  0.61660898700E+01  0.51100000000E-03 0. -1.
        -11    1    3    3    0    0 -0.48127832814E+01  0.35740088509E+01 -0.98548022529E+01  0.11534884043E+02  0.51100000000E-03 0.  1.
        -12    1    3    3    0    0  0.22378668126E+02 -0.20431887336E+02  0.28502171683E+02  0.41600968713E+02  0.00000000000E+00 0.  1.
</event>
<event>
 7    1  0.6230310E-012  0.5930206E+02  0.7816164E-02  0.1266604E+00
        -11   -1    0    0    0    0  0.00000000000E+00  0.00000000000E+00  0.45593999997E+02  0.45594000000E+02  0.51100000000E-03 0.  1.
         11   -1    0    0    0    0 -0.00000000000E+00 -0.00000000000E+00 -0.45593999997E+02  0.45594000000E+02  0.51100000000E-03 0. -1.
    9900012    2    1    2    0    0  0.33150860001E+01  0.24990621855E+02  0.19524147230E+02  0.59302057942E+02  0.50000207751E+02 0.  0.
         12    1    1    2    0    0 -0.33150860001E+01 -0.24990621855E+02 -0.19524147230E+02  0.31885942058E+02  0.00000000000E+00 0. -1.
         11    1    3    3    0    0 -0.50984587796E+01  0.11745238159E+02  0.86534813357E+01  0.15454049334E+02  0.51100000000E-03 0. -1.
        -11    1    3    3    0    0 -0.46669479055E+01  0.85019421694E+01  0.23270393801E+02  0.25210605929E+02  0.51100000000E-03 0.  1.
         12    1    3    3    0    0  0.13080492685E+02  0.47434415269E+01 -0.12399727907E+02  0.18637402678E+02  0.00000000000E+00 0. -1.
</event>
<event>
 7    1  0.6230310E-012  0.5930196E+02  0.7816164E-02  0.1266605E+00
        -11   -1    0    0    0    0  0.00000000000E+00  0.00000000000E+00  0.45593999997E+02  0.45594000000E+02  0.51100000000E-03 0.  1.
         11   -1    0    0    0    0 -0.00000000000E+00 -0.00000000000E+00 -0.45593999997E+02  0.45594000000E+02  0.51100000000E-03 0. -1.
    9900012    2    1    2    0    0 -0.12634789210E+02  0.13994998050E+02  0.25714232812E+02  0.59301958572E+02  0.50000026525E+02 0.  0.
         12    1    1    2    0    0  0.12634789210E+02 -0.13994998050E+02 -0.25714232812E+02  0.31886041428E+02  0.00000000000E+00 0. -1.
         11    1    3    3    0    0 -0.17856125675E+02 -0.48064991602E+00  0.97862118021E+01  0.20367675129E+02  0.51100000000E-03 0. -1.
        -11    1    3    3    0    0 -0.25970722893E+01  0.19361720082E+02  0.20775985955E+02  0.28517759058E+02  0.51100000000E-03 0.  1.
         12    1    3    3    0    0  0.78184087538E+01 -0.48860721161E+01 -0.48479649447E+01  0.10416524385E+02  0.00000000000E+00 0. -1.
</event>
<event>
 7    1  0.6230310E-012  0.5930197E+02  0.7816164E-02  0.1266605E+00
        -11   -1    0    0    0    0  0.00000000000E+00  0.00000000000E+00  0.45593999997E+02  0.45594000000E+02  0.51100000000E-03 0.  1.
         11   -1    0    0    0    0 -0.00000000000E+00 -0.00000000000E+00 -0.45593999997E+02  0.45594000000E+02  0.51100000000E-03 0. -1.
    9900012    2    1    2    0    0  0.78439859752E+01 -0.24844167696E+02  0.18383633210E+02  0.59301972425E+02  0.50000051790E+02 0.  0.
         12    1    1    2    0    0 -0.78439859752E+01  0.24844167696E+02 -0.18383633210E+02  0.31886027575E+02  0.00000000000E+00 0. -1.
         11    1    3    3    0    0  0.19451714445E+02 -0.17057329049E+02  0.28033499684E+02  0.38147067697E+02  0.51100000000E-03 0.  1.
        -11    1    3    3    0    0 -0.46968908769E+01 -0.91101859188E+01 -0.14530393707E+01  0.10352178276E+02  0.51100000000E-03 0. -1.
        -12    1    3    3    0    0 -0.69108375928E+01  0.13233472718E+01 -0.81968271031E+01  0.10802726452E+02  0.00000000000E+00 0.  1.
</event>
<event>
 7    1  0.6230310E-012  0.5930193E+02  0.7816164E-02  0.1266605E+00
        -11   -1    0    0    0    0  0.00000000000E+00  0.00000000000E+00  0.45593999997E+02  0.45594000000E+02  0.51100000000E-03 0.  1.
         11   -1    0    0    0    0 -0.00000000000E+00 -0.00000000000E+00 -0.45593999997E+02  0.45594000000E+02  0.51100000000E-03 0. -1.
    9900012    2    1    2    0    0 -0.14154109936E+01 -0.10125084899E+02  0.30202664033E+02  0.59301927066E+02  0.49999969066E+02 0.  0.
         12    1    1    2    0    0  0.14154109936E+01  0.10125084899E+02 -0.30202664033E+02  0.31886072934E+02  0.00000000000E+00 0. -1.
         11    1    3    3    0    0  0.90894950474E+01  0.78380164472E+00  0.72627483748E+00  0.91520894137E+01  0.51100000000E-03 0. -1.
        -11    1    3    3    0    0  0.16341195636E+01  0.60234681262E+01 -0.62244153437E+01  0.88145256053E+01  0.51100000000E-03 0.  1.
        -12    1    3    3    0    0 -0.12139025605E+02 -0.16932354670E+02  0.35700804539E+02  0.41335312047E+02  0.00000000000E+00 0.  1.
</event>
<event>
 7    1  0.6230310E-012  0.5930194E+02  0.7816164E-02  0.1266605E+00
        -11   -1    0    0    0    0  0.00000000000E+00  0.00000000000E+00  0.45593999997E+02  0.45594000000E+02  0.51100000000E-03 0. -1.
         11   -1    0    0    0    0 -0.00000000000E+00 -0.00000000000E+00 -0.45593999997E+02  0.45594000000E+02  0.51100000000E-03 0.  1.
    9900012    2    1    2    0    0  0.39289651036E+01 -0.15868083847E+02 -0.27376781060E+02  0.59301937324E+02  0.49999987773E+02 0.  0.
         12    1    1    2    0    0 -0.39289651036E+01  0.15868083847E+02  0.27376781060E+02  0.31886062676E+02  0.00000000000E+00 0. -1.
         11    1    3    3    0    0  0.48212018632E+01 -0.10226588634E+02 -0.13236237744E+02  0.17407615930E+02  0.51100000000E-03 0. -1.
        -11    1    3    3    0    0  0.16033527895E+02 -0.11037258161E+02 -0.45743562001E+00  0.19470601739E+02  0.51100000000E-03 0.  1.
         12    1    3    3    0    0 -0.16925764654E+02  0.53957629474E+01 -0.13683107697E+02  0.22423719655E+02  0.00000000000E+00 0. -1.
</event>
<event>
 7    1  0.6230310E-012  0.5930196E+02  0.7816164E-02  0.1266605E+00
        -11   -1    0    0    0    0  0.00000000000E+00  0.00000000000E+00  0.45593999997E+02  0.45594000000E+02  0.51100000000E-03 0. -1.
         11   -1    0    0    0    0 -0.00000000000E+00 -0.00000000000E+00 -0.45593999997E+02  0.45594000000E+02  0.51100000000E-03 0.  1.
    9900012    2    1    2    0    0  0.15903272328E+02 -0.76454984481E+00 -0.27626453406E+02  0.59301960186E+02  0.50000029469E+02 0.  0.
         12    1    1    2    0    0 -0.15903272328E+02  0.76454984481E+00  0.27626453406E+02  0.31886039814E+02  0.00000000000E+00 0. -1.
         11    1    3    3    0    0 -0.14329680401E+02  0.91914085120E+01 -0.27399145788E+01  0.17243226583E+02  0.51100000000E-03 0. -1.
        -11    1    3    3    0    0  0.50814528534E+00 -0.34316826399E+01 -0.23478963202E+01  0.41889467368E+01  0.51100000000E-03 0.  1.
        -12    1    3    3    0    0  0.29724807444E+02 -0.65242757169E+01 -0.22538642507E+02  0.37869786866E+02  0.00000000000E+00 0.  1.
</event>
<event>
 7    1  0.6230310E-012  0.5930195E+02  0.7816164E-02  0.1266605E+00
        -11   -1    0    0    0    0  0.00000000000E+00  0.00000000000E+00  0.45593999997E+02  0.45594000000E+02  0.51100000000E-03 0. -1.
         11   -1    0    0    0    0 -0.00000000000E+00 -0.00000000000E+00 -0.45593999997E+02  0.45594000000E+02  0.51100000000E-03 0.  1.
    9900012    2    1    2    0    0 -0.15328195404E+02 -0.88905057415E+01 -0.26508976095E+02  0.59301945364E+02  0.50000002436E+02 0.  0.
         12    1    1    2    0    0  0.15328195404E+02  0.88905057415E+01  0.26508976095E+02  0.31886054636E+02  0.00000000000E+00 0. -1.
         11    1    3    3    0    0 -0.16369909060E+02 -0.66012138386E+01 -0.20624114482E+02  0.27145976594E+02  0.51100000000E-03 0. -1.
        -11    1    3    3    0    0 -0.64287699494E+01 -0.12756587382E+02 -0.11288708565E+02  0.18206991680E+02  0.51100000000E-03 0.  1.
        -12    1    3    3    0    0  0.74704836060E+01  0.10467295480E+02  0.54038469527E+01  0.13948977090E+02  0.00000000000E+00 0.  1.
</event>
<event>
 7    1  0.6230310E-012  0.5930196E+02  0.7816164E-02  0.1266605E+00
        -11   -1    0    0    0    0  0.00000000000E+00  0.00000000000E+00  0.45593999997E+02  0.45594000000E+02  0.51100000000E-03 0.  1.
         11   -1    0    0    0    0 -0.00000000000E+00 -0.00000000000E+00 -0.45593999997E+02  0.45594000000E+02  0.51100000000E-03 0. -1.
    9900012    2    1    2    0    0  0.16652058008E+02 -0.25062207863E+01  0.27076690659E+02  0.59301963000E+02  0.50000034600E+02 0.  0.
         12    1    1    2    0    0 -0.16652058008E+02  0.25062207863E+01 -0.27076690659E+02  0.31886037000E+02  0.00000000000E+00 0. -1.
         11    1    3    3    0    0  0.38199543201E+01 -0.36347859627E+01  0.31515342045E+00  0.52823330018E+01  0.51100000000E-03 0. -1.
        -11    1    3    3    0    0  0.70789544417E+00  0.43456870181E+01 -0.12262560625E+02  0.13029063856E+02  0.51100000000E-03 0.  1.
        -12    1    3    3    0    0  0.12124208244E+02 -0.32171218417E+01  0.39024097864E+02  0.40990566141E+02  0.00000000000E+00 0.  1.
</event>
<event>
 7    1  0.6230310E-012  0.5930193E+02  0.7816164E-02  0.1266605E+00
        -11   -1    0    0    0    0  0.00000000000E+00  0.00000000000E+00  0.45593999997E+02  0.45594000000E+02  0.51100000000E-03 0. -1.
         11   -1    0    0    0    0 -0.00000000000E+00 -0.00000000000E+00 -0.45593999997E+02  0.45594000000E+02  0.51100000000E-03 0.  1.
    9900012    2    1    2    0    0  0.23347795343E+02  0.21704693014E+02  0.71280047619E+00  0.59301932028E+02  0.49999978115E+02 0.  0.
         12    1    1    2    0    0 -0.23347795343E+02 -0.21704693014E+02 -0.71280047619E+00  0.31886067972E+02  0.00000000000E+00 0. -1.
         11    1    3    3    0    0  0.28287894735E+01  0.60662330040E+01 -0.10789064620E+02  0.12696658946E+02  0.51100000000E-03 0. -1.
        -11    1    3    3    0    0  0.16667974039E+02  0.27564953101E+02  0.53855943431E+01  0.32659648264E+02  0.51100000000E-03 0.  1.
         12    1    3    3    0    0  0.38510318304E+01 -0.11926493091E+02  0.61162707536E+01  0.13945624817E+02  0.00000000000E+00 0. -1.
</event>
<event>
 7    1  0.6230310E-012  0.5930195E+02  0.7816164E-02  0.1266605E+00
        -11   -1    0    0    0    0  0.00000000000E+00  0.00000000000E+00  0.45593999997E+02  0.45594000000E+02  0.51100000000E-03 0. -1.
         11   -1    0    0    0    0 -0.00000000000E+00 -0.00000000000E+00 -0.45593999997E+02  0.45594000000E+02  0.51100000000E-03 0.  1.
    9900012    2    1    2    0    0  0.17209115505E+02 -0.25691145960E+02 -0.77802214667E+01  0.59301945317E+02  0.50000002351E+02 0.  0.
         12    1    1    2    0    0 -0.17209115505E+02  0.25691145960E+02  0.77802214667E+01  0.31886054683E+02  0.00000000000E+00 0. -1.
         11    1    3    3    0    0 -0.44538527273E+01 -0.13848286687E+02  0.92178699588E+01  0.17221526504E+02  0.51100000000E-03 0. -1.
        -11    1    3    3    0    0 -0.21768958759E+01  0.73575322604E+01 -0.52306347689E+01  0.92861023559E+01  0.51100000000E-03 0.  1.
         12    1    3    3    0    0  0.23839864108E+02 -0.19200391533E+02 -0.11767456657E+02  0.32794316457E+02  0.00000000000E+00 0. -1.
</event>
<event>
 7    1  0.6230310E-012  0.5930195E+02  0.7816164E-02  0.1266605E+00
        -11   -1    0    0    0    0  0.00000000000E+00  0.00000000000E+00  0.45593999997E+02  0.45594000000E+02  0.51100000000E-03 0.  1.
         11   -1    0    0    0    0 -0.00000000000E+00 -0.00000000000E+00 -0.45593999997E+02  0.45594000000E+02  0.51100000000E-03 0. -1.
    9900012    2    1    2    0    0  0.21457217240E+02  0.22926983763E+02  0.55372973602E+01  0.59301946337E+02  0.50000004211E+02 0.  0.
         12    1    1    2    0    0 -0.21457217240E+02 -0.22926983763E+02 -0.55372973602E+01  0.31886053663E+02  0.00000000000E+00 0. -1.
         11    1    3    3    0    0  0.12061079033E+02  0.79305818700E+01 -0.77956453735E+01  0.16405360200E+02  0.51100000000E-03 0. -1.
        -11    1    3    3    0    0  0.23455220706E+02  0.12166604218E+02  0.90448881491E+01  0.27928187167E+02  0.51100000000E-03 0.  1.
        -12    1    3    3    0    0 -0.14059082499E+02  0.28297976748E+01  0.42880545845E+01  0.14968398969E+02  0.00000000000E+00 0.  1.
</event>
<event>
 7    1  0.6230310E-012  0.5930195E+02  0.7816164E-02  0.1266605E+00
        -11   -1    0    0    0    0  0.00000000000E+00  0.00000000000E+00  0.45593999997E+02  0.45594000000E+02  0.51100000000E-03 0.  1.
         11   -1    0    0    0    0 -0.00000000000E+00 -0.00000000000E+00 -0.45593999997E+02  0.45594000000E+02  0.51100000000E-03 0. -1.
    9900012    2    1    2    0    0 -0.11281150581E+02  0.24589234517E+02 -0.16876771740E+02  0.59301949179E+02  0.50000009396E+02 0.  0.
         12    1    1    2    0    0  0.11281150581E+02 -0.24589234517E+02  0.16876771740E+02  0.31886050821E+02  0.00000000000E+00 0. -1.
         11    1    3    3    0    0 -0.61826347330E+01 -0.17933881579E+01 -0.91104297664E+01  0.11155319095E+02  0.51100000000E-03 0. -1.
        -11    1    3    3    0    0 -0.12704767516E+02  0.92806843609E+00  0.99931368119E+01  0.16190590238E+02  0.51100000000E-03 0.  1.
         12    1    3    3    0    0  0.76062516677E+01  0.25454554239E+02 -0.17759478786E+02  0.31956039846E+02  0.00000000000E+00 0. -1.
</event>
<event>
 7    1  0.6230310E-012  0.5930195E+02  0.7816164E-02  0.1266605E+00
        -11   -1    0    0    0    0  0.00000000000E+00  0.00000000000E+00  0.45593999997E+02  0.45594000000E+02  0.51100000000E-03 0.  1.
         11   -1    0    0    0    0 -0.00000000000E+00 -0.00000000000E+00 -0.45593999997E+02  0.45594000000E+02  0.51100000000E-03 0. -1.
    9900012    2    1    2    0    0 -0.10361266365E+02 -0.29345031496E+02 -0.69450397390E+01  0.59301948329E+02  0.50000007844E+02 0.  0.
         12    1    1    2    0    0  0.10361266365E+02  0.29345031496E+02  0.69450397390E+01  0.31886051671E+02  0.00000000000E+00 0. -1.
         11    1    3    3    0    0 -0.21133747900E+02 -0.11524319220E+02  0.73910116134E+01  0.25180792020E+02  0.51100000000E-03 0. -1.
        -11    1    3    3    0    0  0.64576207836E+00  0.45476829367E+01  0.15829125571E+01  0.48583990345E+01  0.51100000000E-03 0.  1.
         12    1    3    3    0    0  0.10126719457E+02 -0.22368395213E+02 -0.15918963910E+02  0.29262757275E+02  0.00000000000E+00 0. -1.
</event>
<event>
 7    1  0.6230310E-012  0.5930196E+02  0.7816164E-02  0.1266605E+00
        -11   -1    0    0    0    0  0.00000000000E+00  0.00000000000E+00  0.45593999997E+02  0.45594000000E+02  0.51100000000E-03 0.  1.
         11   -1    0    0    0    0 -0.00000000000E+00 -0.00000000000E+00 -0.45593999997E+02  0.45594000000E+02  0.51100000000E-03 0. -1.
    9900012    2    1    2    0    0 -0.12777423441E+01 -0.92500446102E+01  0.30488094303E+02  0.59301955325E+02  0.50000020604E+02 0.  0.
         12    1    1    2    0    0  0.12777423441E+01  0.92500446102E+01 -0.30488094303E+02  0.31886044675E+02  0.00000000000E+00 0. -1.
         11    1    3    3    0    0  0.76174399769E+01  0.36221693637E+01  0.26502217685E+02  0.27812102495E+02  0.51100000000E-03 0.  1.
        -11    1    3    3    0    0  0.79785902004E+01 -0.36985880413E+01  0.79772670733E+01  0.11873257569E+02  0.51100000000E-03 0. -1.
        -12    1    3    3    0    0 -0.16873772521E+02 -0.91736259326E+01 -0.39913904557E+01  0.19616595261E+02  0.00000000000E+00 0.  1.
</event>
<event>
 7    1  0.6230310E-012  0.5930194E+02  0.7816164E-02  0.1266605E+00
        -11   -1    0    0    0    0  0.00000000000E+00  0.00000000000E+00  0.45593999997E+02  0.45594000000E+02  0.51100000000E-03 0. -1.
         11   -1    0    0    0    0 -0.00000000000E+00 -0.00000000000E+00 -0.45593999997E+02  0.45594000000E+02  0.51100000000E-03 0.  1.
    9900012    2    1    2    0    0 -0.27528591713E+02 -0.16086931911E+02 -0.32857109472E+00  0.59301941934E+02  0.49999996182E+02 0.  0.
         12    1    1    2    0    0  0.27528591713E+02  0.16086931911E+02  0.32857109472E+00  0.31886058066E+02  0.00000000000E+00 0. -1.
         11    1    3    3    0    0 -0.75403039873E+01  0.41337711714E+01  0.33523746305E+01  0.92294455003E+01  0.51100000000E-03 0.  1.
        -11    1    3    3    0    0  0.11475256476E+02 -0.34237440455E+01 -0.76127173331E+01  0.14190031710E+02  0.51100000000E-03 0. -1.
         12    1    3    3    0    0 -0.31463544202E+02 -0.16796959037E+02  0.39317716078E+01  0.35882464723E+02  0.00000000000E+00 0. -1.
</event>
<event>
 7    1  0.6230310E-012  0.5930195E+02  0.7816164E-02  0.1266605E+00
        -11   -1    0    0    0    0  0.00000000000E+00  0.00000000000E+00  0.45593999997E+02  0.45594000000E+02  0.51100000000E-03 0.  1.
         11   -1    0    0    0    0 -0.00000000000E+00 -0.00000000000E+00 -0.45593999997E+02  0.45594000000E+02  0.51100000000E-03 0. -1.
    9900012    2    1    2    0    0 -0.31562583308E+02  0.13791560350E+01 -0.43152269013E+01  0.59301954155E+02  0.50000018470E+02 0.  0.
         12    1    1    2    0    0  0.31562583308E+02 -0.13791560350E+01  0.43152269013E+01  0.31886045845E+02  0.00000000000E+00 0. -1.
         11    1    3    3    0    0 -0.66907508974E+01 -0.73820941378E+01 -0.12582265057E+02  0.16049138782E+02  0.51100000000E-03 0. -1.
        -11    1    3    3    0    0 -0.30816376981E+02  0.11942273867E+02  0.12452018938E+02  0.35317414561E+02  0.51100000000E-03 0.  1.
         12    1    3    3    0    0  0.59445445706E+01 -0.31810236947E+01 -0.41849807829E+01  0.79354008122E+01  0.00000000000E+00 0. -1.
</event>
<event>
 7    1  0.6230310E-012  0.5930193E+02  0.7816164E-02  0.1266605E+00
        -11   -1    0    0    0    0  0.00000000000E+00  0.00000000000E+00  0.45593999997E+02  0.45594000000E+02  0.51100000000E-03 0. -1.
         11   -1    0    0    0    0 -0.00000000000E+00 -0.00000000000E+00 -0.45593999997E+02  0.45594000000E+02  0.51100000000E-03 0.  1.
    9900012    2    1    2    0    0  0.41434598426E+00 -0.29571000882E+02 -0.11920805636E+02  0.59301931212E+02  0.49999976627E+02 0.  0.
         12    1    1    2    0    0 -0.41434598426E+00  0.29571000882E+02  0.11920805636E+02  0.31886068788E+02  0.00000000000E+00 0. -1.
         11    1    3    3    0    0  0.15138713836E+01 -0.91084569276E+01 -0.20230516462E+02  0.22238021287E+02  0.51100000000E-03 0. -1.
        -11    1    3    3    0    0 -0.14429631476E+02 -0.15400047205E+02  0.12189440145E+01  0.21139099868E+02  0.51100000000E-03 0.  1.
         12    1    3    3    0    0  0.13330106077E+02 -0.50624967493E+01  0.70907668119E+01  0.15924810057E+02  0.00000000000E+00 0. -1.
</event>
<event>
 7    1  0.6230310E-012  0.5930194E+02  0.7816164E-02  0.1266605E+00
        -11   -1    0    0    0    0  0.00000000000E+00  0.00000000000E+00  0.45593999997E+02  0.45594000000E+02  0.51100000000E-03 0.  1.
         11   -1    0    0    0    0 -0.00000000000E+00 -0.00000000000E+00 -0.45593999997E+02  0.45594000000E+02  0.51100000000E-03 0. -1.
    9900012    2    1    2    0    0  0.18007590371E+02  0.83495166880E+01  0.24954624619E+02  0.59301936747E+02  0.49999986722E+02 0.  0.
         12    1    1    2    0    0 -0.18007590371E+02 -0.83495166880E+01 -0.24954624619E+02  0.31886063253E+02  0.00000000000E+00 0. -1.
         11    1    3    3    0    0  0.69049482630E+01  0.21095949143E+02 -0.17785726794E+01  0.22268378967E+02  0.51100000000E-03 0. -1.
        -11    1    3    3    0    0  0.10482899910E+02 -0.53727181378E+01  0.29746140682E+01  0.12149305323E+02  0.51100000000E-03 0.  1.
        -12    1    3    3    0    0  0.61974219781E+00 -0.73737143176E+01  0.23758583231E+02  0.24884252457E+02  0.00000000000E+00 0.  1.
</event>
<event>
 7    1  0.6230310E-012  0.5930196E+02  0.7816164E-02  0.1266605E+00
        -11   -1    0    0    0    0  0.00000000000E+00  0.00000000000E+00  0.45593999997E+02  0.45594000000E+02  0.51100000000E-03 0. -1.
         11   -1    0    0    0    0 -0.00000000000E+00 -0.00000000000E+00 -0.45593999997E+02  0.45594000000E+02  0.51100000000E-03 0.  1.
    9900012    2    1    2    0    0  0.12933548722E+02  0.27665745620E+02 -0.91678534674E+01  0.59301957592E+02  0.50000024738E+02 0.  0.
         12    1    1    2    0    0 -0.12933548722E+02 -0.27665745620E+02  0.91678534674E+01  0.31886042408E+02  0.00000000000E+00 0. -1.
         11    1    3    3    0    0  0.33084761440E+01  0.18785911377E+01 -0.48440060134E+01  0.61595059524E+01  0.51100000000E-03 0. -1.
        -11    1    3    3    0    0  0.23079168200E+02  0.30573319364E+02 -0.30462639060E+00  0.38307553553E+02  0.51100000000E-03 0.  1.
         12    1    3    3    0    0 -0.13454095622E+02 -0.47861648819E+01 -0.40192210634E+01  0.14834898087E+02  0.00000000000E+00 0. -1.
</event>
<event>
 7    1  0.6230310E-012  0.5930194E+02  0.7816164E-02  0.1266605E+00
        -11   -1    0    0    0    0  0.00000000000E+00  0.00000000000E+00  0.45593999997E+02  0.45594000000E+02  0.51100000000E-03 0. -1.
         11   -1    0    0    0    0 -0.00000000000E+00 -0.00000000000E+00 -0.45593999997E+02  0.45594000000E+02  0.51100000000E-03 0.  1.
    9900012    2    1    2    0    0 -0.20067869029E+02 -0.11253229216E+02 -0.22076372783E+02  0.59301940814E+02  0.49999994139E+02 0.  0.
         12    1    1    2    0    0  0.20067869029E+02  0.11253229216E+02  0.22076372783E+02  0.31886059186E+02  0.00000000000E+00 0. -1.
         11    1    3    3    0    0 -0.96424291441E+01  0.15678347383E+02 -0.12244323808E+02  0.22106797195E+02  0.51100000000E-03 0. -1.
        -11    1    3    3    0    0 -0.14792997606E+02 -0.11509214757E+02 -0.98344371811E+01  0.21166269332E+02  0.51100000000E-03 0.  1.
        -12    1    3    3    0    0  0.43675577211E+01 -0.15422361841E+02  0.23882055691E-02  0.16028874287E+02  0.00000000000E+00 0.  1.
</event>
<event>
 7    1  0.6230310E-012  0.5930193E+02  0.7816164E-02  0.1266605E+00
        -11   -1    0    0    0    0  0.00000000000E+00  0.00000000000E+00  0.45593999997E+02  0.45594000000E+02  0.51100000000E-03 0.  1.
         11   -1    0    0    0    0 -0.00000000000E+00 -0.00000000000E+00 -0.45593999997E+02  0.45594000000E+02  0.51100000000E-03 0. -1.
    9900012    2    1    2    0    0 -0.23951615078E+02 -0.18927701484E+02  0.92078091521E+01  0.59301929410E+02  0.49999973340E+02 0.  0.
         12    1    1    2    0    0  0.23951615078E+02  0.18927701484E+02 -0.92078091521E+01  0.31886070590E+02  0.00000000000E+00 0. -1.
         11    1    3    3    0    0 -0.17737311863E+01 -0.16407002022E+02 -0.25566741896E+01  0.16699473670E+02  0.51100000000E-03 0. -1.
        -11    1    3    3    0    0 -0.16813375210E+01 -0.15198229362E+02  0.10342354382E+02  0.18460156175E+02  0.51100000000E-03 0.  1.
        -12    1    3    3    0    0 -0.20496546371E+02  0.12677529900E+02  0.14221289598E+01  0.24142299565E+02  0.00000000000E+00 0.  1.
</event>
<event>
 7    1  0.6230310E-012  0.5930194E+02  0.7816164E-02  0.1266605E+00
        -11   -1    0    0    0    0  0.00000000000E+00  0.00000000000E+00  0.45593999997E+02  0.45594000000E+02  0.51100000000E-03 0.  1.
         11   -1    0    0    0    0 -0.00000000000E+00 -0.00000000000E+00 -0.45593999997E+02  0.45594000000E+02  0.51100000000E-03 0. -1.
    9900012    2    1    2    0    0 -0.25345270964E+02 -0.16921706526E+02 -0.93804993168E+01  0.59301942241E+02  0.49999996742E+02 0.  0.
         12    1    1    2    0    0  0.25345270964E+02  0.16921706526E+02  0.93804993168E+01  0.31886057759E+02  0.00000000000E+00 0. -1.
         11    1    3    3    0    0  0.33225043949E+00  0.12379073660E+02 -0.28029190165E+01  0.12696779525E+02  0.51100000000E-03 0. -1.
        -11    1    3    3    0    0 -0.21044686499E+02 -0.10757668249E+02  0.51384336759E+01  0.24186974943E+02  0.51100000000E-03 0.  1.
        -12    1    3    3    0    0 -0.46328349047E+01 -0.18543111937E+02 -0.11716013976E+02  0.22418187774E+02  0.00000000000E+00 0.  1.
</event>
<event>
 7    1  0.6230310E-012  0.5930183E+02  0.7816164E-02  0.1266605E+00
        -11   -1    0    0    0    0  0.00000000000E+00  0.00000000000E+00  0.45593999997E+02  0.45594000000E+02  0.51100000000E-03 0.  1.
         11   -1    0    0    0    0 -0.00000000000E+00 -0.00000000000E+00 -0.45593999997E+02  0.45594000000E+02  0.51100000000E-03 0. -1.
    9900012    2    1    2    0    0  0.25937777570E+02 -0.39063331746E+01 -0.18130079779E+02  0.59301834710E+02  0.49999800630E+02 0.  0.
         12    1    1    2    0    0 -0.25937777570E+02  0.39063331746E+01  0.18130079779E+02  0.31886165290E+02  0.00000000000E+00 0. -1.
         11    1    3    3    0    0  0.25141094179E+02  0.51904658736E+01 -0.88528814998E+01  0.27154908647E+02  0.51100000000E-03 0. -1.
        -11    1    3    3    0    0  0.13579506641E+02 -0.81417354762E+01  0.78234480189E+00  0.15852536732E+02  0.51100000000E-03 0.  1.
        -12    1    3    3    0    0 -0.12782823250E+02 -0.95506357208E+00 -0.10059543081E+02  0.16294389331E+02  0.00000000000E+00 0.  1.
</event>
<event>
 7    1  0.6230310E-012  0.5930199E+02  0.7816164E-02  0.1266605E+00
        -11   -1    0    0    0    0  0.00000000000E+00  0.00000000000E+00  0.45593999997E+02  0.45594000000E+02  0.51100000000E-03 0.  1.
         11   -1    0    0    0    0 -0.00000000000E+00 -0.00000000000E+00 -0.45593999997E+02  0.45594000000E+02  0.51100000000E-03 0. -1.
    9900012    2    1    2    0    0  0.12944212250E+01 -0.16956808128E+02  0.26972371204E+02  0.59301989329E+02  0.50000082618E+02 0.  0.
         12    1    1    2    0    0 -0.12944212250E+01  0.16956808128E+02 -0.26972371204E+02  0.31886010671E+02  0.00000000000E+00 0. -1.
         11    1    3    3    0    0  0.73511709528E+00  0.96946403805E+01  0.68358156051E+00  0.97464728627E+01  0.51100000000E-03 0. -1.
        -11    1    3    3    0    0 -0.52539020938E+01 -0.44620107896E+01 -0.65433481640E+01  0.95041271537E+01  0.51100000000E-03 0.  1.
         12    1    3    3    0    0  0.58132062235E+01 -0.22189437719E+02  0.32832137807E+02  0.40051389312E+02  0.00000000000E+00 0. -1.
</event>
<event>
 7    1  0.6230310E-012  0.5930198E+02  0.7816164E-02  0.1266605E+00
        -11   -1    0    0    0    0  0.00000000000E+00  0.00000000000E+00  0.45593999997E+02  0.45594000000E+02  0.51100000000E-03 0. -1.
         11   -1    0    0    0    0 -0.00000000000E+00 -0.00000000000E+00 -0.45593999997E+02  0.45594000000E+02  0.51100000000E-03 0.  1.
    9900012    2    1    2    0    0  0.22768645338E+01  0.77156982169E+01 -0.30854532424E+02  0.59301979832E+02  0.50000065298E+02 0.  0.
         12    1    1    2    0    0 -0.22768645338E+01 -0.77156982169E+01  0.30854532424E+02  0.31886020168E+02  0.00000000000E+00 0. -1.
         11    1    3    3    0    0  0.14746679482E+00  0.38376933001E+01 -0.18798897529E+02  0.19187188040E+02  0.51100000000E-03 0. -1.
        -11    1    3    3    0    0  0.67661259299E+00  0.16976375917E+02 -0.18775760556E+02  0.25321617811E+02  0.51100000000E-03 0.  1.
         12    1    3    3    0    0  0.14527851460E+01 -0.13098371000E+02  0.67201256606E+01  0.14793173981E+02  0.00000000000E+00 0. -1.
</event>
<event>
 7    1  0.6230310E-012  0.5930191E+02  0.7816164E-02  0.1266605E+00
        -11   -1    0    0    0    0  0.00000000000E+00  0.00000000000E+00  0.45593999997E+02  0.45594000000E+02  0.51100000000E-03 0.  1.
         11   -1    0    0    0    0 -0.00000000000E+00 -0.00000000000E+00 -0.45593999997E+02  0.45594000000E+02  0.51100000000E-03 0. -1.
    9900012    2    1    2    0    0 -0.18892766017E+00  0.27296794357E+01  0.31768475140E+02  0.59301908107E+02  0.49999934489E+02 0.  0.
         12    1    1    2    0    0  0.18892766017E+00 -0.27296794357E+01 -0.31768475140E+02  0.31886091893E+02  0.00000000000E+00 0. -1.
         11    1    3    3    0    0  0.12239706429E+02 -0.12225946740E+02  0.76782438442E+01  0.18927218917E+02  0.51100000000E-03 0. -1.
        -11    1    3    3    0    0 -0.56969012730E+01 -0.71690058479E+01  0.53225825072E+01  0.10591468915E+02  0.51100000000E-03 0.  1.
        -12    1    3    3    0    0 -0.67317328159E+01  0.22124632024E+02  0.18767648789E+02  0.29783220275E+02  0.00000000000E+00 0.  1.
</event>
<event>
 7    1  0.6230310E-012  0.5930192E+02  0.7816164E-02  0.1266605E+00
        -11   -1    0    0    0    0  0.00000000000E+00  0.00000000000E+00  0.45593999997E+02  0.45594000000E+02  0.51100000000E-03 0. -1.
         11   -1    0    0    0    0 -0.00000000000E+00 -0.00000000000E+00 -0.45593999997E+02  0.45594000000E+02  0.51100000000E-03 0.  1.
    9900012    2    1    2    0    0  0.39072147215E+01  0.16639419432E+02 -0.26918130001E+02  0.59301916379E+02  0.49999949576E+02 0.  0.
         12    1    1    2    0    0 -0.39072147215E+01 -0.16639419432E+02  0.26918130001E+02  0.31886083621E+02  0.00000000000E+00 0. -1.
         11    1    3    3    0    0 -0.11191265508E+01 -0.74079499684E+01 -0.55896762188E+01  0.93474406906E+01  0.51100000000E-03 0. -1.
        -11    1    3    3    0    0  0.28495719261E+01  0.16158576550E+02  0.88802884229E+01  0.18656880206E+02  0.51100000000E-03 0.  1.
         12    1    3    3    0    0  0.21767693462E+01  0.78887928511E+01 -0.30208742205E+02  0.31297595483E+02  0.00000000000E+00 0. -1.
</event>
<event>
 7    1  0.6230310E-012  0.5930206E+02  0.7816164E-02  0.1266604E+00
        -11   -1    0    0    0    0  0.00000000000E+00  0.00000000000E+00  0.45593999997E+02  0.45594000000E+02  0.51100000000E-03 0.  1.
         11   -1    0    0    0    0 -0.00000000000E+00 -0.00000000000E+00 -0.45593999997E+02  0.45594000000E+02  0.51100000000E-03 0. -1.
    9900012    2    1    2    0    0 -0.19686800722E+02 -0.98118499283E+01  0.23083984558E+02  0.59302064781E+02  0.50000220225E+02 0.  0.
         12    1    1    2    0    0  0.19686800722E+02  0.98118499283E+01 -0.23083984558E+02  0.31885935219E+02  0.00000000000E+00 0. -1.
         11    1    3    3    0    0  0.92667660216E+01 -0.22814544685E+01 -0.71112060532E+01  0.11901564552E+02  0.51100000000E-03 0. -1.
        -11    1    3    3    0    0  0.31426055974E+01 -0.20563632578E+01  0.48778818546E+01  0.61561620704E+01  0.51100000000E-03 0.  1.
        -12    1    3    3    0    0 -0.32096172341E+02 -0.54740322020E+01  0.25317308756E+02  0.41244338159E+02  0.00000000000E+00 0.  1.
</event>
<event>
 7    1  0.6230310E-012  0.5930200E+02  0.7816164E-02  0.1266605E+00
        -11   -1    0    0    0    0  0.00000000000E+00  0.00000000000E+00  0.45593999997E+02  0.45594000000E+02  0.51100000000E-03 0.  1.
         11   -1    0    0    0    0 -0.00000000000E+00 -0.00000000000E+00 -0.45593999997E+02  0.45594000000E+02  0.51100000000E-03 0. -1.
    9900012    2    1    2    0    0 -0.13500330635E+02 -0.82492778961E+01  0.27684059888E+02  0.59302004878E+02  0.50000110976E+02 0.  0.
         12    1    1    2    0    0  0.13500330635E+02  0.82492778961E+01 -0.27684059888E+02  0.31885995122E+02  0.00000000000E+00 0. -1.
         11    1    3    3    0    0 -0.18226410352E+02 -0.35737274636E+01  0.76698669492E+01  0.20094785931E+02  0.51100000000E-03 0. -1.
        -11    1    3    3    0    0 -0.72208729567E+01  0.76406635456E+01  0.19367018025E+02  0.22036382033E+02  0.51100000000E-03 0.  1.
         12    1    3    3    0    0  0.11946952674E+02 -0.12316213978E+02  0.64717491348E+00  0.17170836914E+02  0.00000000000E+00 0. -1.
</event>
<event>
 7    1  0.6230310E-012  0.5930194E+02  0.7816164E-02  0.1266605E+00
        -11   -1    0    0    0    0  0.00000000000E+00  0.00000000000E+00  0.45593999997E+02  0.45594000000E+02  0.51100000000E-03 0.  1.
         11   -1    0    0    0    0 -0.00000000000E+00 -0.00000000000E+00 -0.45593999997E+02  0.45594000000E+02  0.51100000000E-03 0. -1.
    9900012    2    1    2    0    0  0.28592171031E+02  0.14112800270E+02 -0.19324937375E+00  0.59301941588E+02  0.49999995551E+02 0.  0.
         12    1    1    2    0    0 -0.28592171031E+02 -0.14112800270E+02  0.19324937375E+00  0.31886058412E+02  0.00000000000E+00 0. -1.
         11    1    3    3    0    0  0.21137593978E+02  0.20392308514E+02 -0.18550790553E+02  0.34738680979E+02  0.51100000000E-03 0. -1.
        -11    1    3    3    0    0  0.28244606204E+01  0.34562248201E+01  0.18160938199E+01  0.48188447607E+01  0.51100000000E-03 0.  1.
        -12    1    3    3    0    0  0.46301164320E+01 -0.97357330644E+01  0.16541447359E+02  0.19744415849E+02  0.00000000000E+00 0.  1.
</event>
<event>
 7    1  0.6230310E-012  0.5930194E+02  0.7816164E-02  0.1266605E+00
        -11   -1    0    0    0    0  0.00000000000E+00  0.00000000000E+00  0.45593999997E+02  0.45594000000E+02  0.51100000000E-03 0.  1.
         11   -1    0    0    0    0 -0.00000000000E+00 -0.00000000000E+00 -0.45593999997E+02  0.45594000000E+02  0.51100000000E-03 0. -1.
    9900012    2    1    2    0    0 -0.28268223806E+02  0.10396422040E+02 -0.10466253454E+02  0.59301944588E+02  0.50000001022E+02 0.  0.
         12    1    1    2    0    0  0.28268223806E+02 -0.10396422040E+02  0.10466253454E+02  0.31886055412E+02  0.00000000000E+00 0. -1.
         11    1    3    3    0    0  0.74063493659E+01 -0.36060574713E+01  0.80391444725E+01  0.11510234816E+02  0.51100000000E-03 0. -1.
        -11    1    3    3    0    0  0.18594731109E+01 -0.13428779538E+01 -0.42129078742E+01  0.47968275419E+01  0.51100000000E-03 0.  1.
        -12    1    3    3    0    0 -0.37534046283E+02  0.15345357465E+02 -0.14292490052E+02  0.42994882230E+02  0.00000000000E+00 0.  1.
</event>
<event>
 7    1  0.6230310E-012  0.5930194E+02  0.7816164E-02  0.1266605E+00
        -11   -1    0    0    0    0  0.00000000000E+00  0.00000000000E+00  0.45593999997E+02  0.45594000000E+02  0.51100000000E-03 0. -1.
         11   -1    0    0    0    0 -0.00000000000E+00 -0.00000000000E+00 -0.45593999997E+02  0.45594000000E+02  0.51100000000E-03 0.  1.
    9900012    2    1    2    0    0  0.13533468038E+01 -0.31379395756E+02 -0.54975440063E+01  0.59301936968E+02  0.49999987125E+02 0.  0.
         12    1    1    2    0    0 -0.13533468038E+01  0.31379395756E+02  0.54975440063E+01  0.31886063032E+02  0.00000000000E+00 0. -1.
         11    1    3    3    0    0  0.13368515889E+02 -0.13968515251E+02 -0.14264256871E+02  0.24027185847E+02  0.51100000000E-03 0. -1.
        -11    1    3    3    0    0  0.84067829444E+01 -0.22561063276E+01  0.29153921897E+01  0.91795167148E+01  0.51100000000E-03 0.  1.
         12    1    3    3    0    0 -0.20421952029E+02 -0.15154774177E+02  0.58513206755E+01  0.26095234406E+02  0.00000000000E+00 0. -1.
</event>
<event>
 7    1  0.6230310E-012  0.5930195E+02  0.7816164E-02  0.1266605E+00
        -11   -1    0    0    0    0  0.00000000000E+00  0.00000000000E+00  0.45593999997E+02  0.45594000000E+02  0.51100000000E-03 0.  1.
         11   -1    0    0    0    0 -0.00000000000E+00 -0.00000000000E+00 -0.45593999997E+02  0.45594000000E+02  0.51100000000E-03 0. -1.
    9900012    2    1    2    0    0  0.14986654990E+02  0.27377802465E+02  0.65250432636E+01  0.59301951559E+02  0.50000013735E+02 0.  0.
         12    1    1    2    0    0 -0.14986654990E+02 -0.27377802465E+02 -0.65250432636E+01  0.31886048441E+02  0.00000000000E+00 0. -1.
         11    1    3    3    0    0 -0.16894359919E+01 -0.28344442750E+01 -0.98779830202E+01  0.10414548340E+02  0.51100000000E-03 0. -1.
        -11    1    3    3    0    0  0.12485236137E+02  0.42123381536E+01 -0.58425327078E+01  0.14413885764E+02  0.51100000000E-03 0.  1.
        -12    1    3    3    0    0  0.41908548448E+01  0.25999908587E+02  0.22245558992E+02  0.34473517455E+02  0.00000000000E+00 0.  1.
</event>
<event>
 7    1  0.6230310E-012  0.5930194E+02  0.7816164E-02  0.1266605E+00
        -11   -1    0    0    0    0  0.00000000000E+00  0.00000000000E+00  0.45593999997E+02  0.45594000000E+02  0.51100000000E-03 0.  1.
         11   -1    0    0    0    0 -0.00000000000E+00 -0.00000000000E+00 -0.45593999997E+02  0.45594000000E+02  0.51100000000E-03 0. -1.
    9900012    2    1    2    0    0 -0.30729650349E+02  0.58815533195E+01  0.61495293645E+01  0.59301940484E+02  0.49999993537E+02 0.  0.
         12    1    1    2    0    0  0.30729650349E+02 -0.58815533195E+01 -0.61495293645E+01  0.31886059516E+02  0.00000000000E+00 0. -1.
         11    1    3    3    0    0  0.66151787729E+00 -0.14953954639E+01 -0.43969322540E+01  0.46911434643E+01  0.51100000000E-03 0. -1.
        -11    1    3    3    0    0 -0.25374312717E+01 -0.16089095489E+02  0.16582164960E+01  0.16372148097E+02  0.51100000000E-03 0.  1.
         12    1    3    3    0    0 -0.28853736955E+02  0.23466044272E+02  0.88882451225E+01  0.38238648923E+02  0.00000000000E+00 0. -1.
</event>
<event>
 7    1  0.6230310E-012  0.5930194E+02  0.7816164E-02  0.1266605E+00
        -11   -1    0    0    0    0  0.00000000000E+00  0.00000000000E+00  0.45593999997E+02  0.45594000000E+02  0.51100000000E-03 0.  1.
         11   -1    0    0    0    0 -0.00000000000E+00 -0.00000000000E+00 -0.45593999997E+02  0.45594000000E+02  0.51100000000E-03 0. -1.
    9900012    2    1    2    0    0 -0.16144652300E+02 -0.69346564188E+01  0.26607919019E+02  0.59301943297E+02  0.49999998667E+02 0.  0.
         12    1    1    2    0    0  0.16144652300E+02  0.69346564188E+01 -0.26607919019E+02  0.31886056703E+02  0.00000000000E+00 0. -1.
         11    1    3    3    0    0  0.10872457584E+02  0.12432319266E+02  0.58426793251E+01  0.17518841234E+02  0.51100000000E-03 0. -1.
        -11    1    3    3    0    0 -0.12930825658E+02 -0.36094750066E+01  0.21060169278E+01  0.13589329254E+02  0.51100000000E-03 0.  1.
        -12    1    3    3    0    0 -0.14086284226E+02 -0.15757500678E+02  0.18659222767E+02  0.28193772808E+02  0.00000000000E+00 0.  1.
</event>
<event>
 7    1  0.6230310E-012  0.5930196E+02  0.7816164E-02  0.1266605E+00
        -11   -1    0    0    0    0  0.00000000000E+00  0.00000000000E+00  0.45593999997E+02  0.45594000000E+02  0.51100000000E-03 0.  1.
         11   -1    0    0    0    0 -0.00000000000E+00 -0.00000000000E+00 -0.45593999997E+02  0.45594000000E+02  0.51100000000E-03 0. -1.
    9900012    2    1    2    0    0  0.21654376514E+01 -0.86568113550E+01  0.30611929134E+02  0.59301957468E+02  0.50000024511E+02 0.  0.
         12    1    1    2    0    0 -0.21654376514E+01  0.86568113550E+01 -0.30611929134E+02  0.31886042532E+02  0.00000000000E+00 0. -1.
         11    1    3    3    0    0  0.69440037447E+01 -0.76591926417E+01 -0.53177258747E+01  0.11625860341E+02  0.51100000000E-03 0. -1.
        -11    1    3    3    0    0 -0.55266761905E+01  0.12304001215E+02  0.57043451192E+01  0.14644867671E+02  0.51100000000E-03 0.  1.
        -12    1    3    3    0    0  0.74811009724E+00 -0.13301619928E+02  0.30225309890E+02  0.33031229456E+02  0.00000000000E+00 0.  1.
</event>
<event>
 7    1  0.6230310E-012  0.5930198E+02  0.7816164E-02  0.1266605E+00
        -11   -1    0    0    0    0  0.00000000000E+00  0.00000000000E+00  0.45593999997E+02  0.45594000000E+02  0.51100000000E-03 0.  1.
         11   -1    0    0    0    0 -0.00000000000E+00 -0.00000000000E+00 -0.45593999997E+02  0.45594000000E+02  0.51100000000E-03 0. -1.
    9900012    2    1    2    0    0 -0.23311359926E+02 -0.14414329799E+02  0.16294973445E+02  0.59301975401E+02  0.50000057217E+02 0.  0.
         12    1    1    2    0    0  0.23311359926E+02  0.14414329799E+02 -0.16294973445E+02  0.31886024599E+02  0.00000000000E+00 0. -1.
         11    1    3    3    0    0 -0.88320298511E+01 -0.71175105213E+01 -0.24678957652E+01  0.11608368407E+02  0.51100000000E-03 0. -1.
        -11    1    3    3    0    0  0.36914056714E+01 -0.20779221732E+02  0.10796334078E+02  0.23705766417E+02  0.51100000000E-03 0.  1.
        -12    1    3    3    0    0 -0.18170735746E+02  0.13482402455E+02  0.79665351314E+01  0.23987840576E+02  0.00000000000E+00 0.  1.
</event>
<event>
 7    1  0.6230310E-012  0.5930193E+02  0.7816164E-02  0.1266605E+00
        -11   -1    0    0    0    0  0.00000000000E+00  0.00000000000E+00  0.45593999997E+02  0.45594000000E+02  0.51100000000E-03 0.  1.
         11   -1    0    0    0    0 -0.00000000000E+00 -0.00000000000E+00 -0.45593999997E+02  0.45594000000E+02  0.51100000000E-03 0. -1.
    9900012    2    1    2    0    0  0.83564552314E+01 -0.30668555296E+02 -0.25160936163E+01  0.59301931646E+02  0.49999977418E+02 0.  0.
         12    1    1    2    0    0 -0.83564552314E+01  0.30668555296E+02  0.25160936163E+01  0.31886068354E+02  0.00000000000E+00 0. -1.
         11    1    3    3    0    0  0.18974393395E+02 -0.19780953255E+02 -0.52420998340E+01  0.27906868819E+02  0.51100000000E-03 0. -1.
        -11    1    3    3    0    0  0.15400446449E+01 -0.10181288194E+02  0.12200596018E+02  0.15965115416E+02  0.51100000000E-03 0.  1.
         12    1    3    3    0    0 -0.12157982808E+02 -0.70631384746E+00 -0.94745897999E+01  0.15429947411E+02  0.00000000000E+00 0. -1.
</event>
<event>
 7    1  0.6230310E-012  0.5930194E+02  0.7816164E-02  0.1266605E+00
        -11   -1    0    0    0    0  0.00000000000E+00  0.00000000000E+00  0.45593999997E+02  0.45594000000E+02  0.51100000000E-03 0. -1.
         11   -1    0    0    0    0 -0.00000000000E+00 -0.00000000000E+00 -0.45593999997E+02  0.45594000000E+02  0.51100000000E-03 0.  1.
    9900012    2    1    2    0    0  0.11540289394E+02  0.46081498608E+00 -0.29720868449E+02  0.59301942684E+02  0.49999997550E+02 0.  0.
         12    1    1    2    0    0 -0.11540289394E+02 -0.46081498608E+00  0.29720868449E+02  0.31886057316E+02  0.00000000000E+00 0. -1.
         11    1    3    3    0    0  0.11399426260E+02 -0.64879336192E+01 -0.85529002805E+01  0.15658617601E+02  0.51100000000E-03 0.  1.
        -11    1    3    3    0    0 -0.15202552750E+02  0.10318168453E+02 -0.14468150393E+01  0.18430287149E+02  0.51100000000E-03 0. -1.
         12    1    3    3    0    0  0.15343415885E+02 -0.33694198480E+01 -0.19721153130E+02  0.25213037934E+02  0.00000000000E+00 0. -1.
</event>
<event>
 7    1  0.6230310E-012  0.5930193E+02  0.7816164E-02  0.1266605E+00
        -11   -1    0    0    0    0  0.00000000000E+00  0.00000000000E+00  0.45593999997E+02  0.45594000000E+02  0.51100000000E-03 0.  1.
         11   -1    0    0    0    0 -0.00000000000E+00 -0.00000000000E+00 -0.45593999997E+02  0.45594000000E+02  0.51100000000E-03 0. -1.
    9900012    2    1    2    0    0 -0.30880401479E+01 -0.23836618808E+02  0.20952359094E+02  0.59301925614E+02  0.49999966418E+02 0.  0.
         12    1    1    2    0    0  0.30880401479E+01  0.23836618808E+02 -0.20952359094E+02  0.31886074386E+02  0.00000000000E+00 0. -1.
         11    1    3    3    0    0 -0.14199084287E+01 -0.60734882685E+01 -0.61151427519E+01  0.87348938648E+01  0.51100000000E-03 0. -1.
        -11    1    3    3    0    0  0.14785954381E+02  0.93024717684E+00  0.15249011580E+01  0.14893459322E+02  0.51100000000E-03 0.  1.
        -12    1    3    3    0    0 -0.16454086100E+02 -0.18693377716E+02  0.25542600688E+02  0.35673572427E+02  0.00000000000E+00 0.  1.
</event>
<event>
 7    1  0.6230310E-012  0.5930195E+02  0.7816164E-02  0.1266605E+00
        -11   -1    0    0    0    0  0.00000000000E+00  0.00000000000E+00  0.45593999997E+02  0.45594000000E+02  0.51100000000E-03 0.  1.
         11   -1    0    0    0    0 -0.00000000000E+00 -0.00000000000E+00 -0.45593999997E+02  0.45594000000E+02  0.51100000000E-03 0. -1.
    9900012    2    1    2    0    0 -0.13407670515E+02 -0.12904906901E+02  0.25892430762E+02  0.59301949421E+02  0.50000009836E+02 0.  0.
         12    1    1    2    0    0  0.13407670515E+02  0.12904906901E+02 -0.25892430762E+02  0.31886050579E+02  0.00000000000E+00 0. -1.
         11    1    3    3    0    0 -0.15168956850E+02 -0.10110366678E+02  0.10068409912E+02  0.20825216558E+02  0.51100000000E-03 0. -1.
        -11    1    3    3    0    0 -0.14610468228E+02 -0.11306744970E+01  0.16422125999E+02  0.22009780309E+02  0.51100000000E-03 0.  1.
         12    1    3    3    0    0  0.16371754563E+02 -0.16638657258E+01 -0.59810514994E+00  0.16466952553E+02  0.00000000000E+00 0. -1.
</event>
<event>
 7    1  0.6230310E-012  0.5930195E+02  0.7816164E-02  0.1266605E+00
        -11   -1    0    0    0    0  0.00000000000E+00  0.00000000000E+00  0.45593999997E+02  0.45594000000E+02  0.51100000000E-03 0. -1.
         11   -1    0    0    0    0 -0.00000000000E+00 -0.00000000000E+00 -0.45593999997E+02  0.45594000000E+02  0.51100000000E-03 0.  1.
    9900012    2    1    2    0    0  0.48886328587E+01 -0.10635151384E+01 -0.31491119498E+02  0.59301946576E+02  0.50000004648E+02 0.  0.
         12    1    1    2    0    0 -0.48886328587E+01  0.10635151384E+01  0.31491119498E+02  0.31886053424E+02  0.00000000000E+00 0. -1.
         11    1    3    3    0    0  0.66072166561E-01 -0.26257033557E+01 -0.34135987908E+01  0.43071267231E+01  0.51100000000E-03 0. -1.
        -11    1    3    3    0    0  0.87671676106E+01  0.80969180043E+01 -0.39496225267E+02  0.41259848760E+02  0.51100000000E-03 0.  1.
         12    1    3    3    0    0 -0.39446069184E+01 -0.65347297870E+01  0.11418704559E+02  0.13734971094E+02  0.00000000000E+00 0. -1.
</event>
<event>
 7    1  0.6230310E-012  0.5930195E+02  0.7816164E-02  0.1266605E+00
        -11   -1    0    0    0    0  0.00000000000E+00  0.00000000000E+00  0.45593999997E+02  0.45594000000E+02  0.51100000000E-03 0. -1.
         11   -1    0    0    0    0 -0.00000000000E+00 -0.00000000000E+00 -0.45593999997E+02  0.45594000000E+02  0.51100000000E-03 0.  1.
    9900012    2    1    2    0    0  0.14630161886E+02  0.26574450842E+02  0.98222690489E+01  0.59301952211E+02  0.50000014924E+02 0.  0.
         12    1    1    2    0    0 -0.14630161886E+02 -0.26574450842E+02 -0.98222690489E+01  0.31886047789E+02  0.00000000000E+00 0. -1.
         11    1    3    3    0    0  0.70751775830E+01  0.23200060211E+02  0.94394615445E+01  0.26026993029E+02  0.51100000000E-03 0. -1.
        -11    1    3    3    0    0 -0.19159636428E+01  0.16670720672E+02 -0.14743251878E+01  0.16845102535E+02  0.51100000000E-03 0.  1.
         12    1    3    3    0    0  0.94709479461E+01 -0.13296330042E+02  0.18571326921E+01  0.16429856646E+02  0.00000000000E+00 0. -1.
</event>
<event>
 7    1  0.6230310E-012  0.5930194E+02  0.7816164E-02  0.1266605E+00
        -11   -1    0    0    0    0  0.00000000000E+00  0.00000000000E+00  0.45593999997E+02  0.45594000000E+02  0.51100000000E-03 0.  1.
         11   -1    0    0    0    0 -0.00000000000E+00 -0.00000000000E+00 -0.45593999997E+02  0.45594000000E+02  0.51100000000E-03 0. -1.
    9900012    2    1    2    0    0 -0.24122577983E+02 -0.60368492668E+00  0.20843647187E+02  0.59301939847E+02  0.49999992375E+02 0.  0.
         12    1    1    2    0    0  0.24122577983E+02  0.60368492668E+00 -0.20843647187E+02  0.31886060153E+02  0.00000000000E+00 0. -1.
         11    1    3    3    0    0 -0.39875386564E+01  0.81922307005E+01  0.13125657659E+02  0.15977984780E+02  0.51100000000E-03 0. -1.
        -11    1    3    3    0    0 -0.15414409355E+02 -0.61731136735E+01  0.22283435257E+02  0.27789617401E+02  0.51100000000E-03 0.  1.
         12    1    3    3    0    0 -0.47206299722E+01 -0.26228019536E+01 -0.14565445729E+02  0.15534337666E+02  0.00000000000E+00 0. -1.
</event>
<event>
 7    1  0.6230310E-012  0.5930195E+02  0.7816164E-02  0.1266605E+00
        -11   -1    0    0    0    0  0.00000000000E+00  0.00000000000E+00  0.45593999997E+02  0.45594000000E+02  0.51100000000E-03 0. -1.
         11   -1    0    0    0    0 -0.00000000000E+00 -0.00000000000E+00 -0.45593999997E+02  0.45594000000E+02  0.51100000000E-03 0.  1.
    9900012    2    1    2    0    0 -0.30459404047E+02  0.91989633639E+01  0.20793998092E+01  0.59301950928E+02  0.50000012585E+02 0.  0.
         12    1    1    2    0    0  0.30459404047E+02 -0.91989633639E+01 -0.20793998092E+01  0.31886049072E+02  0.00000000000E+00 0. -1.
         11    1    3    3    0    0 -0.50053231525E+01 -0.99587755791E+01  0.10139195156E+02  0.15067639151E+02  0.51100000000E-03 0. -1.
        -11    1    3    3    0    0  0.45641746824E+01  0.69294254613E+01 -0.84166104593E+01  0.11818966099E+02  0.51100000000E-03 0.  1.
         12    1    3    3    0    0 -0.30018255576E+02  0.12228313482E+02  0.35681511217E+00  0.32415345679E+02  0.00000000000E+00 0. -1.
</event>
<event>
 7    1  0.6230310E-012  0.5930207E+02  0.7816164E-02  0.1266604E+00
        -11   -1    0    0    0    0  0.00000000000E+00  0.00000000000E+00  0.45593999997E+02  0.45594000000E+02  0.51100000000E-03 0.  1.
         11   -1    0    0    0    0 -0.00000000000E+00 -0.00000000000E+00 -0.45593999997E+02  0.45594000000E+02  0.51100000000E-03 0. -1.
    9900012    2    1    2    0    0  0.10924364071E+02  0.12473154528E+02  0.27235839089E+02  0.59302074498E+02  0.50000237946E+02 0.  0.
         12    1    1    2    0    0 -0.10924364071E+02 -0.12473154528E+02 -0.27235839089E+02  0.31885925502E+02  0.00000000000E+00 0. -1.
         11    1    3    3    0    0  0.40145487390E+01  0.16942293852E+02  0.71975505962E+01  0.18840452685E+02  0.51100000000E-03 0. -1.
        -11    1    3    3    0    0  0.13506139803E+02  0.74081362906E+01 -0.97897922040E+00  0.15435501166E+02  0.51100000000E-03 0.  1.
        -12    1    3    3    0    0 -0.65963244705E+01 -0.11877275614E+02  0.21017267713E+02  0.25026120647E+02  0.00000000000E+00 0.  1.
</event>
<event>
 7    1  0.6230310E-012  0.5930194E+02  0.7816164E-02  0.1266605E+00
        -11   -1    0    0    0    0  0.00000000000E+00  0.00000000000E+00  0.45593999997E+02  0.45594000000E+02  0.51100000000E-03 0. -1.
         11   -1    0    0    0    0 -0.00000000000E+00 -0.00000000000E+00 -0.45593999997E+02  0.45594000000E+02  0.51100000000E-03 0.  1.
    9900012    2    1    2    0    0  0.13583459472E+02 -0.27373210996E+02 -0.91059343213E+01  0.59301935782E+02  0.49999984961E+02 0.  0.
         12    1    1    2    0    0 -0.13583459472E+02  0.27373210996E+02  0.91059343213E+01  0.31886064218E+02  0.00000000000E+00 0. -1.
         11    1    3    3    0    0  0.23174123724E+02 -0.21351565679E+02  0.85075575002E+01  0.32639054860E+02  0.51100000000E-03 0. -1.
        -11    1    3    3    0    0 -0.31397255479E+01 -0.95737881514E+00  0.30192898917E+01  0.44598836782E+01  0.51100000000E-03 0.  1.
        -12    1    3    3    0    0 -0.64509387036E+01 -0.50642665020E+01 -0.20632781713E+02  0.22202997243E+02  0.00000000000E+00 0.  1.
</event>
<event>
 7    1  0.6230310E-012  0.5930194E+02  0.7816164E-02  0.1266605E+00
        -11   -1    0    0    0    0  0.00000000000E+00  0.00000000000E+00  0.45593999997E+02  0.45594000000E+02  0.51100000000E-03 0.  1.
         11   -1    0    0    0    0 -0.00000000000E+00 -0.00000000000E+00 -0.45593999997E+02  0.45594000000E+02  0.51100000000E-03 0. -1.
    9900012    2    1    2    0    0 -0.23338390289E+02  0.16919995087E+02  0.13629159426E+02  0.59301942205E+02  0.49999996676E+02 0.  0.
         12    1    1    2    0    0  0.23338390289E+02 -0.16919995087E+02 -0.13629159426E+02  0.31886057795E+02  0.00000000000E+00 0. -1.
         11    1    3    3    0    0 -0.17817421622E+02 -0.90902047066E+00 -0.61548429572E+01  0.18872438199E+02  0.51100000000E-03 0. -1.
        -11    1    3    3    0    0  0.37963078604E+01 -0.50745166445E+01  0.13505769233E+02  0.14918729014E+02  0.51100000000E-03 0.  1.
        -12    1    3    3    0    0 -0.93172765271E+01  0.22903532203E+02  0.62782331502E+01  0.25510774993E+02  0.00000000000E+00 0.  1.
</event>
<event>
 7    1  0.6230310E-012  0.5930193E+02  0.7816164E-02  0.1266605E+00
        -11   -1    0    0    0    0  0.00000000000E+00  0.00000000000E+00  0.45593999997E+02  0.45594000000E+02  0.51100000000E-03 0.  1.
         11   -1    0    0    0    0 -0.00000000000E+00 -0.00000000000E+00 -0.45593999997E+02  0.45594000000E+02  0.51100000000E-03 0. -1.
    9900012    2    1    2    0    0 -0.31855969497E+02  0.10429899625E+00  0.13812003600E+01  0.59301931171E+02  0.49999976553E+02 0.  0.
         12    1    1    2    0    0  0.31855969497E+02 -0.10429899625E+00 -0.13812003600E+01  0.31886068829E+02  0.00000000000E+00 0. -1.
         11    1    3    3    0    0 -0.10246428039E+02  0.12073184840E+02 -0.16892643521E+02  0.23154102986E+02  0.51100000000E-03 0. -1.
        -11    1    3    3    0    0 -0.82891067961E+01 -0.56217192476E+01 -0.28203384417E+01  0.10405158719E+02  0.51100000000E-03 0.  1.
        -12    1    3    3    0    0 -0.13320434663E+02 -0.63471665957E+01  0.21094182323E+02  0.25742669466E+02  0.00000000000E+00 0.  1.
</event>
<event>
 7    1  0.6230310E-012  0.5930195E+02  0.7816164E-02  0.1266605E+00
        -11   -1    0    0    0    0  0.00000000000E+00  0.00000000000E+00  0.45593999997E+02  0.45594000000E+02  0.51100000000E-03 0. -1.
         11   -1    0    0    0    0 -0.00000000000E+00 -0.00000000000E+00 -0.45593999997E+02  0.45594000000E+02  0.51100000000E-03 0.  1.
    9900012    2    1    2    0    0 -0.95777973644E+00 -0.18790608533E+02 -0.25743269062E+02  0.59301949554E+02  0.50000010079E+02 0.  0.
         12    1    1    2    0    0  0.95777973644E+00  0.18790608533E+02  0.25743269062E+02  0.31886050446E+02  0.00000000000E+00 0. -1.
         11    1    3    3    0    0 -0.11592090764E+01 -0.16957363145E+02 -0.41163268264E+01  0.17488284002E+02  0.51100000000E-03 0. -1.
        -11    1    3    3    0    0 -0.31776809075E+01 -0.18498520958E+02 -0.11896483263E+02  0.22222044188E+02  0.51100000000E-03 0.  1.
         12    1    3    3    0    0  0.33791102474E+01  0.16665275570E+02 -0.97304589717E+01  0.19591621365E+02  0.00000000000E+00 0. -1.
</event>
<event>
 7    1  0.6230310E-012  0.5930179E+02  0.7816164E-02  0.1266605E+00
        -11   -1    0    0    0    0  0.00000000000E+00  0.00000000000E+00  0.45593999997E+02  0.45594000000E+02  0.51100000000E-03 0.  1.
         11   -1    0    0    0    0 -0.00000000000E+00 -0.00000000000E+00 -0.45593999997E+02  0.45594000000E+02  0.51100000000E-03 0. -1.
    9900012    2    1    2    0    0 -0.79426417352E+01  0.12508078957E+02  0.28234602104E+02  0.59301790553E+02  0.49999720098E+02 0.  0.
         12    1    1    2    0    0  0.79426417352E+01 -0.12508078957E+02 -0.28234602104E+02  0.31886209447E+02  0.00000000000E+00 0. -1.
         11    1    3    3    0    0 -0.54118126589E+01 -0.61110262569E+01  0.43372475327E+01  0.92435964099E+01  0.51100000000E-03 0. -1.
        -11    1    3    3    0    0 -0.20173777133E+02  0.16791044593E+02  0.14096852743E+02  0.29793316698E+02  0.51100000000E-03 0.  1.
         12    1    3    3    0    0  0.17642948057E+02  0.18280606208E+01  0.98005018280E+01  0.20264877445E+02  0.00000000000E+00 0. -1.
</event>
<event>
 7    1  0.6230310E-012  0.5930194E+02  0.7816164E-02  0.1266605E+00
        -11   -1    0    0    0    0  0.00000000000E+00  0.00000000000E+00  0.45593999997E+02  0.45594000000E+02  0.51100000000E-03 0.  1.
         11   -1    0    0    0    0 -0.00000000000E+00 -0.00000000000E+00 -0.45593999997E+02  0.45594000000E+02  0.51100000000E-03 0. -1.
    9900012    2    1    2    0    0  0.24523210535E+02 -0.78410489791E+01  0.18810920152E+02  0.59301943157E+02  0.49999998412E+02 0.  0.
         12    1    1    2    0    0 -0.24523210535E+02  0.78410489791E+01 -0.18810920152E+02  0.31886056843E+02  0.00000000000E+00 0. -1.
         11    1    3    3    0    0 -0.66911676872E+01 -0.39417911057E+01 -0.72646897136E+01  0.10634150602E+02  0.51100000000E-03 0. -1.
        -11    1    3    3    0    0  0.97456801466E+01  0.23731633629E+01 -0.43273220028E+01  0.10924097301E+02  0.51100000000E-03 0.  1.
        -12    1    3    3    0    0  0.21468698075E+02 -0.62724212363E+01  0.30402931868E+02  0.37743695254E+02  0.00000000000E+00 0.  1.
</event>
<event>
 7    1  0.6230310E-012  0.5930194E+02  0.7816164E-02  0.1266605E+00
        -11   -1    0    0    0    0  0.00000000000E+00  0.00000000000E+00  0.45593999997E+02  0.45594000000E+02  0.51100000000E-03 0.  1.
         11   -1    0    0    0    0 -0.00000000000E+00 -0.00000000000E+00 -0.45593999997E+02  0.45594000000E+02  0.51100000000E-03 0. -1.
    9900012    2    1    2    0    0 -0.23597976080E+02 -0.23647092176E+01 -0.21313474301E+02  0.59301944873E+02  0.50000001542E+02 0.  0.
         12    1    1    2    0    0  0.23597976080E+02  0.23647092176E+01  0.21313474301E+02  0.31886055127E+02  0.00000000000E+00 0. -1.
         11    1    3    3    0    0  0.58226406962E+01 -0.30406549008E+01 -0.93232460356E+01  0.11404895607E+02  0.51100000000E-03 0. -1.
        -11    1    3    3    0    0 -0.32701288014E+01 -0.90363190022E+01 -0.17025582456E+02  0.19550428684E+02  0.51100000000E-03 0.  1.
        -12    1    3    3    0    0 -0.26150487974E+02  0.97122646854E+01  0.50353541905E+01  0.28346620582E+02  0.00000000000E+00 0.  1.
</event>
<event>
 7    1  0.6230310E-012  0.5930193E+02  0.7816164E-02  0.1266605E+00
        -11   -1    0    0    0    0  0.00000000000E+00  0.00000000000E+00  0.45593999997E+02  0.45594000000E+02  0.51100000000E-03 0.  1.
         11   -1    0    0    0    0 -0.00000000000E+00 -0.00000000000E+00 -0.45593999997E+02  0.45594000000E+02  0.51100000000E-03 0. -1.
    9900012    2    1    2    0    0 -0.14019952648E+01 -0.35961496766E+01  0.31651592623E+02  0.59301934096E+02  0.49999981888E+02 0.  0.
         12    1    1    2    0    0  0.14019952648E+01  0.35961496766E+01 -0.31651592623E+02  0.31886065904E+02  0.00000000000E+00 0. -1.
         11    1    3    3    0    0 -0.10790150894E+02 -0.99034242692E+01 -0.53349213799E+01  0.15587384481E+02  0.51100000000E-03 0. -1.
        -11    1    3    3    0    0 -0.36605058593E+01  0.69020993233E+01  0.52985978439E+01  0.94399903383E+01  0.51100000000E-03 0.  1.
        -12    1    3    3    0    0  0.13048661489E+02 -0.59482473062E+00  0.31687916159E+02  0.34274559277E+02  0.00000000000E+00 0.  1.
</event>
<event>
 7    1  0.6230310E-012  0.5930192E+02  0.7816164E-02  0.1266605E+00
        -11   -1    0    0    0    0  0.00000000000E+00  0.00000000000E+00  0.45593999997E+02  0.45594000000E+02  0.51100000000E-03 0. -1.
         11   -1    0    0    0    0 -0.00000000000E+00 -0.00000000000E+00 -0.45593999997E+02  0.45594000000E+02  0.51100000000E-03 0.  1.
    9900012    2    1    2    0    0  0.11715933125E+02  0.95561169314E+00 -0.29640272591E+02  0.59301920875E+02  0.49999957776E+02 0.  0.
         12    1    1    2    0    0 -0.11715933125E+02 -0.95561169314E+00  0.29640272591E+02  0.31886079125E+02  0.00000000000E+00 0. -1.
         11    1    3    3    0    0  0.11638878251E+02 -0.61578645699E+01 -0.95468701662E+01  0.16264240321E+02  0.51100000000E-03 0. -1.
        -11    1    3    3    0    0  0.36684801137E+01  0.15974658031E+02  0.42088242419E+01  0.16922223474E+02  0.51100000000E-03 0.  1.
        -12    1    3    3    0    0 -0.35914252398E+01 -0.88611817676E+01 -0.24302226666E+02  0.26115457080E+02  0.00000000000E+00 0.  1.
</event>
<event>
 7    1  0.6230310E-012  0.5930194E+02  0.7816164E-02  0.1266605E+00
        -11   -1    0    0    0    0  0.00000000000E+00  0.00000000000E+00  0.45593999997E+02  0.45594000000E+02  0.51100000000E-03 0.  1.
         11   -1    0    0    0    0 -0.00000000000E+00 -0.00000000000E+00 -0.45593999997E+02  0.45594000000E+02  0.51100000000E-03 0. -1.
    9900012    2    1    2    0    0  0.66074717443E+01 -0.11367397596E+02  0.29048998455E+02  0.59301941570E+02  0.49999995518E+02 0.  0.
         12    1    1    2    0    0 -0.66074717443E+01  0.11367397596E+02 -0.29048998455E+02  0.31886058430E+02  0.00000000000E+00 0. -1.
         11    1    3    3    0    0  0.34561701555E+01 -0.99533427394E+00 -0.88428484822E+01  0.95462962451E+01  0.51100000000E-03 0. -1.
        -11    1    3    3    0    0 -0.48283144251E+00 -0.17788287950E+02  0.94691977698E+01  0.20157430914E+02  0.51100000000E-03 0.  1.
         12    1    3    3    0    0  0.36341330314E+01  0.74162246287E+01  0.28422649167E+02  0.29598214411E+02  0.00000000000E+00 0. -1.
</event>
<event>
 7    1  0.6230310E-012  0.5930195E+02  0.7816164E-02  0.1266605E+00
        -11   -1    0    0    0    0  0.00000000000E+00  0.00000000000E+00  0.45593999997E+02  0.45594000000E+02  0.51100000000E-03 0. -1.
         11   -1    0    0    0    0 -0.00000000000E+00 -0.00000000000E+00 -0.45593999997E+02  0.45594000000E+02  0.51100000000E-03 0.  1.
    9900012    2    1    2    0    0 -0.16806049589E+02 -0.20283576635E+02  0.17968115626E+02  0.59301953475E+02  0.50000017229E+02 0.  0.
         12    1    1    2    0    0  0.16806049589E+02  0.20283576635E+02 -0.17968115626E+02  0.31886046525E+02  0.00000000000E+00 0. -1.
         11    1    3    3    0    0  0.54038793666E+01  0.68963962477E+01  0.32168201644E+01  0.93332805403E+01  0.51100000000E-03 0. -1.
        -11    1    3    3    0    0  0.30565869766E+01 -0.75955086571E+01 -0.74323095187E+01  0.11057743927E+02  0.51100000000E-03 0.  1.
        -12    1    3    3    0    0 -0.25266515932E+02 -0.19584464225E+02  0.22183604980E+02  0.38910929008E+02  0.00000000000E+00 0.  1.
</event>
<event>
 7    1  0.6230310E-012  0.5930198E+02  0.7816164E-02  0.1266605E+00
        -11   -1    0    0    0    0  0.00000000000E+00  0.00000000000E+00  0.45593999997E+02  0.45594000000E+02  0.51100000000E-03 0.  1.
         11   -1    0    0    0    0 -0.00000000000E+00 -0.00000000000E+00 -0.45593999997E+02  0.45594000000E+02  0.51100000000E-03 0. -1.
    9900012    2    1    2    0    0  0.27346338827E+02 -0.14483217141E+02 -0.76897716965E+01  0.59301977753E+02  0.50000061506E+02 0.  0.
         12    1    1    2    0    0 -0.27346338827E+02  0.14483217141E+02  0.76897716965E+01  0.31886022247E+02  0.00000000000E+00 0. -1.
         11    1    3    3    0    0  0.20120304417E+01 -0.16619222021E+02 -0.70444034604E+01  0.18162335407E+02  0.51100000000E-03 0. -1.
        -11    1    3    3    0    0  0.14790702020E+01  0.71944247932E+01  0.11694381529E+02  0.13809632739E+02  0.51100000000E-03 0.  1.
        -12    1    3    3    0    0  0.23855238184E+02 -0.50584199131E+01 -0.12339749765E+02  0.27330009607E+02  0.00000000000E+00 0.  1.
</event>
<event>
 7    1  0.6230310E-012  0.5930213E+02  0.7816164E-02  0.1266604E+00
        -11   -1    0    0    0    0  0.00000000000E+00  0.00000000000E+00  0.45593999997E+02  0.45594000000E+02  0.51100000000E-03 0. -1.
         11   -1    0    0    0    0 -0.00000000000E+00 -0.00000000000E+00 -0.45593999997E+02  0.45594000000E+02  0.51100000000E-03 0.  1.
    9900012    2    1    2    0    0 -0.57426658605E+01  0.21125157491E+02 -0.23183138915E+02  0.59302134477E+02  0.50000347333E+02 0.  0.
         12    1    1    2    0    0  0.57426658605E+01 -0.21125157491E+02  0.23183138915E+02  0.31885865523E+02  0.00000000000E+00 0. -1.
         11    1    3    3    0    0 -0.11117946365E+02  0.14641284288E+02 -0.12308805262E+02  0.22124254207E+02  0.51100000000E-03 0. -1.
        -11    1    3    3    0    0 -0.63258427846E+01 -0.77732800952E+01 -0.15225171139E+02  0.18227616598E+02  0.51100000000E-03 0.  1.
        -12    1    3    3    0    0  0.11701123289E+02  0.14257153298E+02  0.43508374864E+01  0.18950263672E+02  0.00000000000E+00 0.  1.
</event>
<event>
 7    1  0.6230310E-012  0.5930193E+02  0.7816164E-02  0.1266605E+00
        -11   -1    0    0    0    0  0.00000000000E+00  0.00000000000E+00  0.45593999997E+02  0.45594000000E+02  0.51100000000E-03 0. -1.
         11   -1    0    0    0    0 -0.00000000000E+00 -0.00000000000E+00 -0.45593999997E+02  0.45594000000E+02  0.51100000000E-03 0.  1.
    9900012    2    1    2    0    0  0.96148558787E+01  0.13329672894E+02 -0.27323902438E+02  0.59301932862E+02  0.49999979637E+02 0.  0.
         12    1    1    2    0    0 -0.96148558787E+01 -0.13329672894E+02  0.27323902438E+02  0.31886067138E+02  0.00000000000E+00 0. -1.
         11    1    3    3    0    0 -0.16314763262E+02  0.86312677752E+00 -0.18439487738E+02  0.24635973625E+02  0.51100000000E-03 0. -1.
        -11    1    3    3    0    0  0.62160348976E+00  0.57614672343E+01  0.22488230307E+01  0.62159553469E+01  0.51100000000E-03 0.  1.
        -12    1    3    3    0    0  0.25308015651E+02  0.67050788826E+01 -0.11133237731E+02  0.28450003891E+02  0.00000000000E+00 0.  1.
</event>
<event>
 7    1  0.6230310E-012  0.5930198E+02  0.7816164E-02  0.1266605E+00
        -11   -1    0    0    0    0  0.00000000000E+00  0.00000000000E+00  0.45593999997E+02  0.45594000000E+02  0.51100000000E-03 0.  1.
         11   -1    0    0    0    0 -0.00000000000E+00 -0.00000000000E+00 -0.45593999997E+02  0.45594000000E+02  0.51100000000E-03 0. -1.
    9900012    2    1    2    0    0  0.81260824250E+01 -0.26776380052E+02  0.15287585044E+02  0.59301984244E+02  0.50000073346E+02 0.  0.
         12    1    1    2    0    0 -0.81260824250E+01  0.26776380052E+02 -0.15287585044E+02  0.31886015756E+02  0.00000000000E+00 0. -1.
         11    1    3    3    0    0  0.11494934561E+02 -0.60898898387E+01 -0.87831701451E+01  0.15695998116E+02  0.51100000000E-03 0. -1.
        -11    1    3    3    0    0  0.76190203339E+01 -0.16115069368E+02  0.12508248178E+01  0.17869233183E+02  0.51100000000E-03 0.  1.
        -12    1    3    3    0    0 -0.10987872470E+02 -0.45714208458E+01  0.22819930372E+02  0.25736752945E+02  0.00000000000E+00 0.  1.
</event>
<event>
 7    1  0.6230310E-012  0.5930192E+02  0.7816164E-02  0.1266605E+00
        -11   -1    0    0    0    0  0.00000000000E+00  0.00000000000E+00  0.45593999997E+02  0.45594000000E+02  0.51100000000E-03 0.  1.
         11   -1    0    0    0    0 -0.00000000000E+00 -0.00000000000E+00 -0.45593999997E+02  0.45594000000E+02  0.51100000000E-03 0. -1.
    9900012    2    1    2    0    0  0.20021205975E+01 -0.28494194719E+02 -0.14170202818E+02  0.59301917339E+02  0.49999951325E+02 0.  0.
         12    1    1    2    0    0 -0.20021205975E+01  0.28494194719E+02  0.14170202818E+02  0.31886082661E+02  0.00000000000E+00 0. -1.
         11    1    3    3    0    0  0.11930518910E+02 -0.98315201159E-01 -0.75387460534E+01  0.14113101702E+02  0.51100000000E-03 0. -1.
        -11    1    3    3    0    0  0.22454032705E+01  0.67304253041E+01 -0.34141446264E+01  0.78738074914E+01  0.51100000000E-03 0.  1.
        -12    1    3    3    0    0 -0.12173801583E+02 -0.35126304822E+02 -0.32173121379E+01  0.37315008145E+02  0.00000000000E+00 0.  1.
</event>
<event>
 7    1  0.6230310E-012  0.5930194E+02  0.7816164E-02  0.1266605E+00
        -11   -1    0    0    0    0  0.00000000000E+00  0.00000000000E+00  0.45593999997E+02  0.45594000000E+02  0.51100000000E-03 0.  1.
         11   -1    0    0    0    0 -0.00000000000E+00 -0.00000000000E+00 -0.45593999997E+02  0.45594000000E+02  0.51100000000E-03 0. -1.
    9900012    2    1    2    0    0 -0.52033693205E+01  0.11998331649E+02  0.29080677855E+02  0.59301939736E+02  0.49999992173E+02 0.  0.
         12    1    1    2    0    0  0.52033693205E+01 -0.11998331649E+02 -0.29080677855E+02  0.31886060264E+02  0.00000000000E+00 0. -1.
         11    1    3    3    0    0 -0.22647345320E+01  0.13270811595E+02  0.17001099940E+01  0.13569592372E+02  0.51100000000E-03 0. -1.
        -11    1    3    3    0    0  0.11408001803E+02  0.12060296469E+02  0.90526702729E+01  0.18908836437E+02  0.51100000000E-03 0.  1.
         12    1    3    3    0    0 -0.14346636592E+02 -0.13332776415E+02  0.18327897588E+02  0.26823510927E+02  0.00000000000E+00 0. -1.
</event>
<event>
 7    1  0.6230310E-012  0.5930194E+02  0.7816164E-02  0.1266605E+00
        -11   -1    0    0    0    0  0.00000000000E+00  0.00000000000E+00  0.45593999997E+02  0.45594000000E+02  0.51100000000E-03 0.  1.
         11   -1    0    0    0    0 -0.00000000000E+00 -0.00000000000E+00 -0.45593999997E+02  0.45594000000E+02  0.51100000000E-03 0. -1.
    9900012    2    1    2    0    0  0.16728284312E+02 -0.98318100597E+01  0.25302582481E+02  0.59301942463E+02  0.49999997146E+02 0.  0.
         12    1    1    2    0    0 -0.16728284312E+02  0.98318100597E+01 -0.25302582481E+02  0.31886057537E+02  0.00000000000E+00 0. -1.
         11    1    3    3    0    0  0.11975853915E+01  0.27380886834E+01 -0.40122710635E+01  0.50029650965E+01  0.51100000000E-03 0. -1.
        -11    1    3    3    0    0 -0.63854914785E+01  0.53667345887E+01  0.24099777648E+02  0.25502463107E+02  0.51100000000E-03 0.  1.
         12    1    3    3    0    0  0.21916190399E+02 -0.17936633332E+02  0.52150758961E+01  0.28796514259E+02  0.00000000000E+00 0. -1.
</event>
<event>
 7    1  0.6230310E-012  0.5930194E+02  0.7816164E-02  0.1266605E+00
        -11   -1    0    0    0    0  0.00000000000E+00  0.00000000000E+00  0.45593999997E+02  0.45594000000E+02  0.51100000000E-03 0.  1.
         11   -1    0    0    0    0 -0.00000000000E+00 -0.00000000000E+00 -0.45593999997E+02  0.45594000000E+02  0.51100000000E-03 0. -1.
    9900012    2    1    2    0    0 -0.10688002690E+02  0.15251699326E+02  0.25881900500E+02  0.59301944939E+02  0.50000001663E+02 0.  0.
         12    1    1    2    0    0  0.10688002690E+02 -0.15251699326E+02 -0.25881900500E+02  0.31886055061E+02  0.00000000000E+00 0. -1.
         11    1    3    3    0    0 -0.83763131136E+01  0.59066011752E+01  0.12337209387E+02  0.16039242331E+02  0.51100000000E-03 0. -1.
        -11    1    3    3    0    0  0.18619196791E+02  0.58911763784E+01  0.92912151383E+01  0.21626537570E+02  0.51100000000E-03 0.  1.
         12    1    3    3    0    0 -0.20930886367E+02  0.34539217725E+01  0.42534759748E+01  0.21636165039E+02  0.00000000000E+00 0. -1.
</event>
<event>
 7    1  0.6230310E-012  0.5930199E+02  0.7816164E-02  0.1266605E+00
        -11   -1    0    0    0    0  0.00000000000E+00  0.00000000000E+00  0.45593999997E+02  0.45594000000E+02  0.51100000000E-03 0.  1.
         11   -1    0    0    0    0 -0.00000000000E+00 -0.00000000000E+00 -0.45593999997E+02  0.45594000000E+02  0.51100000000E-03 0. -1.
    9900012    2    1    2    0    0 -0.55444816383E+01 -0.39955798752E+01  0.31145014804E+02  0.59301986102E+02  0.50000076734E+02 0.  0.
         12    1    1    2    0    0  0.55444816383E+01  0.39955798752E+01 -0.31145014804E+02  0.31886013898E+02  0.00000000000E+00 0. -1.
         11    1    3    3    0    0 -0.87360991172E+00 -0.10434585653E+02 -0.57275897048E+01  0.11935202391E+02  0.51100000000E-03 0. -1.
        -11    1    3    3    0    0  0.14007036964E+01 -0.10677229679E+02  0.19270190993E+02  0.22074996390E+02  0.51100000000E-03 0.  1.
         12    1    3    3    0    0 -0.60715754229E+01  0.17116235456E+02  0.17602413515E+02  0.25291787321E+02  0.00000000000E+00 0. -1.
</event>
<event>
 7    1  0.6230310E-012  0.5930195E+02  0.7816164E-02  0.1266605E+00
        -11   -1    0    0    0    0  0.00000000000E+00  0.00000000000E+00  0.45593999997E+02  0.45594000000E+02  0.51100000000E-03 0. -1.
         11   -1    0    0    0    0 -0.00000000000E+00 -0.00000000000E+00 -0.45593999997E+02  0.45594000000E+02  0.51100000000E-03 0.  1.
    9900012    2    1    2    0    0 -0.12253822294E+01  0.29395200532E+02 -0.12293943903E+02  0.59301946111E+02  0.50000003800E+02 0.  0.
         12    1    1    2    0    0  0.12253822294E+01 -0.29395200532E+02  0.12293943903E+02  0.31886053889E+02  0.00000000000E+00 0. -1.
         11    1    3    3    0    0  0.33785353479E+01  0.17560740500E+01  0.86391961576E+01  0.94410808532E+01  0.51100000000E-03 0. -1.
        -11    1    3    3    0    0  0.71790132722E+01 -0.50004320524E+01  0.10051759653E+01  0.88064142110E+01  0.51100000000E-03 0.  1.
        -12    1    3    3    0    0 -0.11782930850E+02  0.32639558534E+02 -0.21938316026E+02  0.41054451047E+02  0.00000000000E+00 0.  1.
</event>
<event>
 7    1  0.6230310E-012  0.5930206E+02  0.7816164E-02  0.1266604E+00
        -11   -1    0    0    0    0  0.00000000000E+00  0.00000000000E+00  0.45593999997E+02  0.45594000000E+02  0.51100000000E-03 0. -1.
         11   -1    0    0    0    0 -0.00000000000E+00 -0.00000000000E+00 -0.45593999997E+02  0.45594000000E+02  0.51100000000E-03 0.  1.
    9900012    2    1    2    0    0  0.13368149466E+02 -0.28944567229E+02  0.46637097273E+00  0.59302064321E+02  0.50000219385E+02 0.  0.
         12    1    1    2    0    0 -0.13368149466E+02  0.28944567229E+02 -0.46637097273E+00  0.31885935679E+02  0.00000000000E+00 0. -1.
         11    1    3    3    0    0  0.11718705999E+02  0.80756130493E+01 -0.89695230860E+01  0.16822483201E+02  0.51100000000E-03 0. -1.
        -11    1    3    3    0    0 -0.16164428765E+01 -0.26208607336E+01 -0.43056552929E+01  0.52934361544E+01  0.51100000000E-03 0.  1.
        -12    1    3    3    0    0  0.32658863441E+01 -0.34399319545E+02  0.13741549352E+02  0.37186144965E+02  0.00000000000E+00 0.  1.
</event>
<event>
 7    1  0.6230310E-012  0.5930194E+02  0.7816164E-02  0.1266605E+00
        -11   -1    0    0    0    0  0.00000000000E+00  0.00000000000E+00  0.45593999997E+02  0.45594000000E+02  0.51100000000E-03 0. -1.
         11   -1    0    0    0    0 -0.00000000000E+00 -0.00000000000E+00 -0.45593999997E+02  0.45594000000E+02  0.51100000000E-03 0.  1.
    9900012    2    1    2    0    0 -0.57784548644E+01  0.26945579812E+02 -0.16039516342E+02  0.59301938837E+02  0.49999990533E+02 0.  0.
         12    1    1    2    0    0  0.57784548644E+01 -0.26945579812E+02  0.16039516342E+02  0.31886061163E+02  0.00000000000E+00 0. -1.
         11    1    3    3    0    0  0.16258202180E+01  0.11033169762E+02 -0.85003871031E+01  0.14022507177E+02  0.51100000000E-03 0. -1.
        -11    1    3    3    0    0  0.14934892861E+02  0.10435226721E+02 -0.12045622013E+02  0.21841290975E+02  0.51100000000E-03 0.  1.
         12    1    3    3    0    0 -0.22339167944E+02  0.54771833293E+01  0.45064927743E+01  0.23438140685E+02  0.00000000000E+00 0. -1.
</event>
<event>
 7    1  0.6230310E-012  0.5930194E+02  0.7816164E-02  0.1266605E+00
        -11   -1    0    0    0    0  0.00000000000E+00  0.00000000000E+00  0.45593999997E+02  0.45594000000E+02  0.51100000000E-03 0. -1.
         11   -1    0    0    0    0 -0.00000000000E+00 -0.00000000000E+00 -0.45593999997E+02  0.45594000000E+02  0.51100000000E-03 0.  1.
    9900012    2    1    2    0    0 -0.14905903075E+02 -0.18733324332E+02 -0.21061748897E+02  0.59301942646E+02  0.49999997480E+02 0.  0.
         12    1    1    2    0    0  0.14905903075E+02  0.18733324332E+02  0.21061748897E+02  0.31886057354E+02  0.00000000000E+00 0. -1.
         11    1    3    3    0    0 -0.53023177819E+01  0.11098405737E+02 -0.66948874961E+00  0.12318173534E+02  0.51100000000E-03 0. -1.
        -11    1    3    3    0    0 -0.17496294485E+02 -0.11408638757E+02 -0.44067796157E+01  0.21347062230E+02  0.51100000000E-03 0.  1.
        -12    1    3    3    0    0  0.78927091926E+01 -0.18423091312E+02 -0.15985480532E+02  0.25636706881E+02  0.00000000000E+00 0.  1.
</event>
<event>
 7    1  0.6230310E-012  0.5930194E+02  0.7816164E-02  0.1266605E+00
        -11   -1    0    0    0    0  0.00000000000E+00  0.00000000000E+00  0.45593999997E+02  0.45594000000E+02  0.51100000000E-03 0.  1.
         11   -1    0    0    0    0 -0.00000000000E+00 -0.00000000000E+00 -0.45593999997E+02  0.45594000000E+02  0.51100000000E-03 0. -1.
    9900012    2    1    2    0    0  0.25075594076E+02  0.17451067663E+02  0.91321232785E+01  0.59301939466E+02  0.49999991680E+02 0.  0.
         12    1    1    2    0    0 -0.25075594076E+02 -0.17451067663E+02 -0.91321232785E+01  0.31886060534E+02  0.00000000000E+00 0. -1.
         11    1    3    3    0    0  0.58411730188E+01  0.15415437596E+02 -0.37543288814E+01  0.16907099223E+02  0.51100000000E-03 0. -1.
        -11    1    3    3    0    0  0.66114461431E+01  0.18331780293E+02  0.37385273204E+01  0.19842932636E+02  0.51100000000E-03 0.  1.
        -12    1    3    3    0    0  0.12622974914E+02 -0.16296150226E+02  0.91479248395E+01  0.22551907607E+02  0.00000000000E+00 0.  1.
</event>
<event>
 7    1  0.6230310E-012  0.5930196E+02  0.7816164E-02  0.1266605E+00
        -11   -1    0    0    0    0  0.00000000000E+00  0.00000000000E+00  0.45593999997E+02  0.45594000000E+02  0.51100000000E-03 0. -1.
         11   -1    0    0    0    0 -0.00000000000E+00 -0.00000000000E+00 -0.45593999997E+02  0.45594000000E+02  0.51100000000E-03 0.  1.
    9900012    2    1    2    0    0  0.19904051728E+02  0.24666278752E+02 -0.34818136583E+01  0.59301959026E+02  0.50000027353E+02 0.  0.
         12    1    1    2    0    0 -0.19904051728E+02 -0.24666278752E+02  0.34818136583E+01  0.31886040974E+02  0.00000000000E+00 0. -1.
         11    1    3    3    0    0 -0.89119801731E+01  0.31313498885E+01  0.10228901722E+01  0.95013181873E+01  0.51100000000E-03 0. -1.
        -11    1    3    3    0    0 -0.39051219069E+01  0.70683322277E+01 -0.10789007414E+02  0.13476423072E+02  0.51100000000E-03 0.  1.
         12    1    3    3    0    0  0.32721153808E+02  0.14466596635E+02  0.62843035835E+01  0.36324217766E+02  0.00000000000E+00 0. -1.
</event>
<event>
 7    1  0.6230310E-012  0.5930197E+02  0.7816164E-02  0.1266605E+00
        -11   -1    0    0    0    0  0.00000000000E+00  0.00000000000E+00  0.45593999997E+02  0.45594000000E+02  0.51100000000E-03 0. -1.
         11   -1    0    0    0    0 -0.00000000000E+00 -0.00000000000E+00 -0.45593999997E+02  0.45594000000E+02  0.51100000000E-03 0.  1.
    9900012    2    1    2    0    0  0.56100588273E+01 -0.28955865436E+02 -0.12116266622E+02  0.59301971398E+02  0.50000049916E+02 0.  0.
         12    1    1    2    0    0 -0.56100588273E+01  0.28955865436E+02  0.12116266622E+02  0.31886028602E+02  0.00000000000E+00 0. -1.
         11    1    3    3    0    0 -0.84460510068E+01  0.59347756779E+01 -0.21198984242E+01  0.10538088515E+02  0.51100000000E-03 0. -1.
        -11    1    3    3    0    0 -0.46402439202E+01 -0.26880135295E+02 -0.73629444399E+01  0.28253964115E+02  0.51100000000E-03 0.  1.
         12    1    3    3    0    0  0.18696353754E+02 -0.80105058184E+01 -0.26334237583E+01  0.20509918768E+02  0.00000000000E+00 0. -1.
</event>
<event>
 7    1  0.6230310E-012  0.5930190E+02  0.7816164E-02  0.1266605E+00
        -11   -1    0    0    0    0  0.00000000000E+00  0.00000000000E+00  0.45593999997E+02  0.45594000000E+02  0.51100000000E-03 0.  1.
         11   -1    0    0    0    0 -0.00000000000E+00 -0.00000000000E+00 -0.45593999997E+02  0.45594000000E+02  0.51100000000E-03 0. -1.
    9900012    2    1    2    0    0  0.40490609252E+01  0.31431857081E+02  0.35166067450E+01  0.59301904959E+02  0.49999928749E+02 0.  0.
         12    1    1    2    0    0 -0.40490609252E+01 -0.31431857081E+02 -0.35166067450E+01  0.31886095041E+02  0.00000000000E+00 0. -1.
         11    1    3    3    0    0  0.21157582005E+02  0.10175810353E+02  0.54456133905E+01  0.24100728165E+02  0.51100000000E-03 0. -1.
        -11    1    3    3    0    0 -0.98369477150E+00 -0.35501632924E+01  0.35450307346E+01  0.51125881877E+01  0.51100000000E-03 0.  1.
        -12    1    3    3    0    0 -0.16124826309E+02  0.24806210021E+02 -0.54740373801E+01  0.30088588606E+02  0.00000000000E+00 0.  1.
</event>
<event>
 7    1  0.6230310E-012  0.5930216E+02  0.7816164E-02  0.1266604E+00
        -11   -1    0    0    0    0  0.00000000000E+00  0.00000000000E+00  0.45593999997E+02  0.45594000000E+02  0.51100000000E-03 0. -1.
         11   -1    0    0    0    0 -0.00000000000E+00 -0.00000000000E+00 -0.45593999997E+02  0.45594000000E+02  0.51100000000E-03 0.  1.
    9900012    2    1    2    0    0 -0.23650177353E+02 -0.20917785324E+02 -0.44521835428E+01  0.59302163489E+02  0.50000400243E+02 0.  0.
         12    1    1    2    0    0  0.23650177353E+02  0.20917785324E+02  0.44521835428E+01  0.31885836511E+02  0.00000000000E+00 0. -1.
         11    1    3    3    0    0 -0.54128939624E+01  0.96863268252E+00 -0.11647237691E+02  0.12880054985E+02  0.51100000000E-03 0.  1.
        -11    1    3    3    0    0 -0.17059138451E+02  0.40483600046E+01  0.10205160447E+02  0.20286663684E+02  0.51100000000E-03 0. -1.
         12    1    3    3    0    0 -0.11781449399E+01 -0.25934778011E+02 -0.30101062981E+01  0.26135444820E+02  0.00000000000E+00 0. -1.
</event>
<event>
 7    1  0.6230310E-012  0.5930195E+02  0.7816164E-02  0.1266605E+00
        -11   -1    0    0    0    0  0.00000000000E+00  0.00000000000E+00  0.45593999997E+02  0.45594000000E+02  0.51100000000E-03 0.  1.
         11   -1    0    0    0    0 -0.00000000000E+00 -0.00000000000E+00 -0.45593999997E+02  0.45594000000E+02  0.51100000000E-03 0. -1.
    9900012    2    1    2    0    0  0.42071863305E-01 -0.31860576352E+02  0.12736308340E+01  0.59301949272E+02  0.50000009564E+02 0.  0.
         12    1    1    2    0    0 -0.42071863305E-01  0.31860576352E+02 -0.12736308340E+01  0.31886050728E+02  0.00000000000E+00 0. -1.
         11    1    3    3    0    0  0.54222881286E+01 -0.30769347418E+01 -0.83205700729E+01  0.10397144923E+02  0.51100000000E-03 0. -1.
        -11    1    3    3    0    0  0.47773065150E+01  0.63652436882E+01  0.94006948804E+01  0.12317144525E+02  0.51100000000E-03 0.  1.
        -12    1    3    3    0    0 -0.10157522780E+02 -0.35148885299E+02  0.19350602655E+00  0.36587659824E+02  0.00000000000E+00 0.  1.
</event>
<event>
 7    1  0.6230310E-012  0.5930194E+02  0.7816164E-02  0.1266605E+00
        -11   -1    0    0    0    0  0.00000000000E+00  0.00000000000E+00  0.45593999997E+02  0.45594000000E+02  0.51100000000E-03 0. -1.
         11   -1    0    0    0    0 -0.00000000000E+00 -0.00000000000E+00 -0.45593999997E+02  0.45594000000E+02  0.51100000000E-03 0.  1.
    9900012    2    1    2    0    0 -0.33624438843E+01  0.27420442821E+02 -0.15922756113E+02  0.59301939165E+02  0.49999991131E+02 0.  0.
         12    1    1    2    0    0  0.33624438843E+01 -0.27420442821E+02  0.15922756113E+02  0.31886060835E+02  0.00000000000E+00 0. -1.
         11    1    3    3    0    0 -0.34206561525E+01 -0.10470094102E+02  0.73094737095E+01  0.13219385961E+02  0.51100000000E-03 0. -1.
        -11    1    3    3    0    0  0.25002272542E+01  0.11193975016E+01 -0.50417471110E+00  0.27853867756E+01  0.51100000000E-03 0.  1.
         12    1    3    3    0    0 -0.24420149860E+01  0.36771139422E+02 -0.22728055111E+02  0.43297166428E+02  0.00000000000E+00 0. -1.
</event>
<event>
 7    1  0.6230310E-012  0.5930195E+02  0.7816164E-02  0.1266605E+00
        -11   -1    0    0    0    0  0.00000000000E+00  0.00000000000E+00  0.45593999997E+02  0.45594000000E+02  0.51100000000E-03 0. -1.
         11   -1    0    0    0    0 -0.00000000000E+00 -0.00000000000E+00 -0.45593999997E+02  0.45594000000E+02  0.51100000000E-03 0.  1.
    9900012    2    1    2    0    0  0.21044843879E+02 -0.23059175291E+02  0.64891409412E+01  0.59301953379E+02  0.50000017054E+02 0.  0.
         12    1    1    2    0    0 -0.21044843879E+02  0.23059175291E+02 -0.64891409412E+01  0.31886046621E+02  0.00000000000E+00 0. -1.
         11    1    3    3    0    0 -0.15397469304E+02 -0.10725203642E+02  0.14833882171E+00  0.18765235378E+02  0.51100000000E-03 0. -1.
        -11    1    3    3    0    0  0.30411382613E+01  0.18820699308E+01  0.16347938532E+01  0.39323352289E+01  0.51100000000E-03 0.  1.
        -12    1    3    3    0    0  0.33401174921E+02 -0.14216041579E+02  0.47060082662E+01  0.36604382772E+02  0.00000000000E+00 0.  1.
</event>
<event>
 7    1  0.6230310E-012  0.5930192E+02  0.7816164E-02  0.1266605E+00
        -11   -1    0    0    0    0  0.00000000000E+00  0.00000000000E+00  0.45593999997E+02  0.45594000000E+02  0.51100000000E-03 0. -1.
         11   -1    0    0    0    0 -0.00000000000E+00 -0.00000000000E+00 -0.45593999997E+02  0.45594000000E+02  0.51100000000E-03 0.  1.
    9900012    2    1    2    0    0  0.19452748012E+02  0.25248408907E+02 -0.91132818850E+00  0.59301920332E+02  0.49999956784E+02 0.  0.
         12    1    1    2    0    0 -0.19452748012E+02 -0.25248408907E+02  0.91132818850E+00  0.31886079668E+02  0.00000000000E+00 0. -1.
         11    1    3    3    0    0  0.97241262436E+01  0.16747046458E+02  0.97484914013E+01  0.21680758315E+02  0.51100000000E-03 0. -1.
        -11    1    3    3    0    0  0.16475976385E+01  0.12187664538E+02 -0.20785798313E+02  0.24151669852E+02  0.51100000000E-03 0.  1.
         12    1    3    3    0    0  0.80810241295E+01 -0.36863020885E+01  0.10125978723E+02  0.13469492165E+02  0.00000000000E+00 0. -1.
</event>
<event>
 7    1  0.6230310E-012  0.5930180E+02  0.7816164E-02  0.1266605E+00
        -11   -1    0    0    0    0  0.00000000000E+00  0.00000000000E+00  0.45593999997E+02  0.45594000000E+02  0.51100000000E-03 0.  1.
         11   -1    0    0    0    0 -0.00000000000E+00 -0.00000000000E+00 -0.45593999997E+02  0.45594000000E+02  0.51100000000E-03 0. -1.
    9900012    2    1    2    0    0  0.95175264534E+01 -0.28305320926E+02 -0.11178341259E+02  0.59301798975E+02  0.49999735458E+02 0.  0.
         12    1    1    2    0    0 -0.95175264534E+01  0.28305320926E+02  0.11178341259E+02  0.31886201025E+02  0.00000000000E+00 0. -1.
         11    1    3    3    0    0  0.21179827482E+02 -0.66898871998E+01 -0.33496661398E+01  0.22462411857E+02  0.51100000000E-03 0. -1.
        -11    1    3    3    0    0  0.26621350241E+01 -0.14168643185E+02 -0.13477437777E+02  0.19735215780E+02  0.51100000000E-03 0.  1.
        -12    1    3    3    0    0 -0.14324436053E+02 -0.74467905405E+01  0.56487626574E+01  0.17104171338E+02  0.00000000000E+00 0.  1.
</event>
<event>
 7    1  0.6230310E-012  0.5930193E+02  0.7816164E-02  0.1266605E+00
        -11   -1    0    0    0    0  0.00000000000E+00  0.00000000000E+00  0.45593999997E+02  0.45594000000E+02  0.51100000000E-03 0. -1.
         11   -1    0    0    0    0 -0.00000000000E+00 -0.00000000000E+00 -0.45593999997E+02  0.45594000000E+02  0.51100000000E-03 0.  1.
    9900012    2    1    2    0    0 -0.15513917302E+02 -0.26847808140E+02  0.74320108209E+01  0.59301933815E+02  0.49999981374E+02 0.  0.
         12    1    1    2    0    0  0.15513917302E+02  0.26847808140E+02 -0.74320108209E+01  0.31886066185E+02  0.00000000000E+00 0. -1.
         11    1    3    3    0    0 -0.15444478859E+02 -0.72152140405E+01  0.25766910242E+01  0.17240376381E+02  0.51100000000E-03 0. -1.
        -11    1    3    3    0    0 -0.37636804361E+01 -0.28696267217E+02  0.10470264327E+02  0.30777710733E+02  0.51100000000E-03 0.  1.
        -12    1    3    3    0    0  0.36942419930E+01  0.90636731177E+01 -0.56149445305E+01  0.11283846701E+02  0.00000000000E+00 0.  1.
</event>
<event>
 7    1  0.6230310E-012  0.5930195E+02  0.7816164E-02  0.1266605E+00
        -11   -1    0    0    0    0  0.00000000000E+00  0.00000000000E+00  0.45593999997E+02  0.45594000000E+02  0.51100000000E-03 0.  1.
         11   -1    0    0    0    0 -0.00000000000E+00 -0.00000000000E+00 -0.45593999997E+02  0.45594000000E+02  0.51100000000E-03 0. -1.
    9900012    2    1    2    0    0  0.26561549042E+01  0.69638418411E+01  0.31002744943E+02  0.59301945900E+02  0.50000003415E+02 0.  0.
         12    1    1    2    0    0 -0.26561549042E+01 -0.69638418411E+01 -0.31002744943E+02  0.31886054100E+02  0.00000000000E+00 0. -1.
         11    1    3    3    0    0  0.12810189638E+01 -0.17047142284E+01 -0.23027911362E+01  0.31384562231E+01  0.51100000000E-03 0. -1.
        -11    1    3    3    0    0  0.10192802771E+02  0.40112116804E+01 -0.80685788656E+01  0.13604595277E+02  0.51100000000E-03 0.  1.
        -12    1    3    3    0    0 -0.88176668307E+01  0.46573443890E+01  0.41374114945E+02  0.42558894400E+02  0.00000000000E+00 0.  1.
</event>
<event>
 7    1  0.6230310E-012  0.5930195E+02  0.7816164E-02  0.1266605E+00
        -11   -1    0    0    0    0  0.00000000000E+00  0.00000000000E+00  0.45593999997E+02  0.45594000000E+02  0.51100000000E-03 0.  1.
         11   -1    0    0    0    0 -0.00000000000E+00 -0.00000000000E+00 -0.45593999997E+02  0.45594000000E+02  0.51100000000E-03 0. -1.
    9900012    2    1    2    0    0 -0.21018154812E+02  0.21569802659E+02  0.10473816409E+02  0.59301952133E+02  0.50000014782E+02 0.  0.
         12    1    1    2    0    0  0.21018154812E+02 -0.21569802659E+02 -0.10473816409E+02  0.31886047867E+02  0.00000000000E+00 0. -1.
         11    1    3    3    0    0 -0.17215965193E+02  0.19632552424E+02  0.95277715488E+01  0.27795773117E+02  0.51100000000E-03 0.  1.
        -11    1    3    3    0    0 -0.15712952146E+01 -0.67876346206E+01  0.14005484590E+02  0.15642715597E+02  0.51100000000E-03 0. -1.
        -12    1    3    3    0    0 -0.22308944037E+01  0.87248848553E+01 -0.13059439730E+02  0.15863463419E+02  0.00000000000E+00 0.  1.
</event>
<event>
 7    1  0.6230310E-012  0.5930196E+02  0.7816164E-02  0.1266605E+00
        -11   -1    0    0    0    0  0.00000000000E+00  0.00000000000E+00  0.45593999997E+02  0.45594000000E+02  0.51100000000E-03 0. -1.
         11   -1    0    0    0    0 -0.00000000000E+00 -0.00000000000E+00 -0.45593999997E+02  0.45594000000E+02  0.51100000000E-03 0.  1.
    9900012    2    1    2    0    0  0.24599460175E+02  0.10326454730E+02 -0.17462829810E+02  0.59301960215E+02  0.50000029522E+02 0.  0.
         12    1    1    2    0    0 -0.24599460175E+02 -0.10326454730E+02  0.17462829810E+02  0.31886039785E+02  0.00000000000E+00 0. -1.
         11    1    3    3    0    0 -0.97017116948E+01  0.12334490435E+02 -0.33126793502E+01  0.16038600589E+02  0.51100000000E-03 0. -1.
        -11    1    3    3    0    0  0.17847672785E+02  0.94651025308E+01 -0.10861549880E+02  0.22936888538E+02  0.51100000000E-03 0.  1.
        -12    1    3    3    0    0  0.16453499085E+02 -0.11473138236E+02 -0.32886005801E+01  0.20326471088E+02  0.00000000000E+00 0.  1.
</event>
<event>
 7    1  0.6230310E-012  0.5930196E+02  0.7816164E-02  0.1266605E+00
        -11   -1    0    0    0    0  0.00000000000E+00  0.00000000000E+00  0.45593999997E+02  0.45594000000E+02  0.51100000000E-03 0.  1.
         11   -1    0    0    0    0 -0.00000000000E+00 -0.00000000000E+00 -0.45593999997E+02  0.45594000000E+02  0.51100000000E-03 0. -1.
    9900012    2    1    2    0    0  0.72107235514E+00 -0.17344540862E+02  0.26746336604E+02  0.59301959719E+02  0.50000028617E+02 0.  0.
         12    1    1    2    0    0 -0.72107235514E+00  0.17344540862E+02 -0.26746336604E+02  0.31886040281E+02  0.00000000000E+00 0. -1.
         11    1    3    3    0    0 -0.53215792206E+01  0.11977362004E+02  0.14747548832E+02  0.19729840415E+02  0.51100000000E-03 0. -1.
        -11    1    3    3    0    0 -0.79746116427E+01 -0.11880721647E+02  0.27639367593E+00  0.14311616660E+02  0.51100000000E-03 0.  1.
        -12    1    3    3    0    0  0.14017263218E+02 -0.17441181220E+02  0.11722394097E+02  0.25260502644E+02  0.00000000000E+00 0.  1.
</event>
<event>
 7    1  0.6230310E-012  0.5930179E+02  0.7816164E-02  0.1266605E+00
        -11   -1    0    0    0    0  0.00000000000E+00  0.00000000000E+00  0.45593999997E+02  0.45594000000E+02  0.51100000000E-03 0. -1.
         11   -1    0    0    0    0 -0.00000000000E+00 -0.00000000000E+00 -0.45593999997E+02  0.45594000000E+02  0.51100000000E-03 0.  1.
    9900012    2    1    2    0    0 -0.12991600639E+02 -0.11370993237E+02 -0.26807627857E+02  0.59301794743E+02  0.49999727740E+02 0.  0.
         12    1    1    2    0    0  0.12991600639E+02  0.11370993237E+02  0.26807627857E+02  0.31886205257E+02  0.00000000000E+00 0. -1.
         11    1    3    3    0    0 -0.65796140073E+01 -0.91508939630E+01 -0.76580513092E-01  0.11271026823E+02  0.51100000000E-03 0. -1.
        -11    1    3    3    0    0 -0.15349374622E+02  0.12647854918E+02 -0.55427333343E+01  0.20646874543E+02  0.51100000000E-03 0.  1.
         12    1    3    3    0    0  0.89373879908E+01 -0.14867954192E+02 -0.21188314009E+02  0.27383893377E+02  0.00000000000E+00 0. -1.
</event>
<event>
 7    1  0.6230310E-012  0.5930195E+02  0.7816164E-02  0.1266605E+00
        -11   -1    0    0    0    0  0.00000000000E+00  0.00000000000E+00  0.45593999997E+02  0.45594000000E+02  0.51100000000E-03 0. -1.
         11   -1    0    0    0    0 -0.00000000000E+00 -0.00000000000E+00 -0.45593999997E+02  0.45594000000E+02  0.51100000000E-03 0.  1.
    9900012    2    1    2    0    0  0.12681321566E+02 -0.64700387184E+01 -0.28531435204E+02  0.59301951131E+02  0.50000012955E+02 0.  0.
         12    1    1    2    0    0 -0.12681321566E+02  0.64700387184E+01  0.28531435204E+02  0.31886048869E+02  0.00000000000E+00 0. -1.
         11    1    3    3    0    0 -0.10784769531E+02  0.36841166267E+00 -0.39446055481E+01  0.11489425320E+02  0.51100000000E-03 0.  1.
        -11    1    3    3    0    0  0.17176679286E+01 -0.15481448156E+02 -0.27761854912E+01  0.15821909691E+02  0.51100000000E-03 0. -1.
         12    1    3    3    0    0  0.21748423169E+02  0.86429977751E+01 -0.21810644164E+02  0.31990616120E+02  0.00000000000E+00 0. -1.
</event>
<event>
 7    1  0.6230310E-012  0.5930185E+02  0.7816164E-02  0.1266605E+00
        -11   -1    0    0    0    0  0.00000000000E+00  0.00000000000E+00  0.45593999997E+02  0.45594000000E+02  0.51100000000E-03 0.  1.
         11   -1    0    0    0    0 -0.00000000000E+00 -0.00000000000E+00 -0.45593999997E+02  0.45594000000E+02  0.51100000000E-03 0. -1.
    9900012    2    1    2    0    0  0.17723674111E+02  0.18441733844E+02  0.19039449807E+02  0.59301845949E+02  0.49999821128E+02 0.  0.
         12    1    1    2    0    0 -0.17723674111E+02 -0.18441733844E+02 -0.19039449807E+02  0.31886154051E+02  0.00000000000E+00 0. -1.
         11    1    3    3    0    0  0.19284844377E+02 -0.96607949582E+00 -0.14383064110E+01  0.19362521990E+02  0.51100000000E-03 0.  1.
        -11    1    3    3    0    0  0.11569730109E+02  0.61895733132E+01  0.16155611849E+02  0.20812814973E+02  0.51100000000E-03 0. -1.
         12    1    3    3    0    0 -0.13130900375E+02  0.13218240027E+02  0.43221443685E+01  0.19126508986E+02  0.00000000000E+00 0. -1.
</event>
<event>
 7    1  0.6230310E-012  0.5930197E+02  0.7816164E-02  0.1266605E+00
        -11   -1    0    0    0    0  0.00000000000E+00  0.00000000000E+00  0.45593999997E+02  0.45594000000E+02  0.51100000000E-03 0. -1.
         11   -1    0    0    0    0 -0.00000000000E+00 -0.00000000000E+00 -0.45593999997E+02  0.45594000000E+02  0.51100000000E-03 0.  1.
    9900012    2    1    2    0    0 -0.13107949380E+01  0.30697732228E+02 -0.85234828270E+01  0.59301973173E+02  0.50000053153E+02 0.  0.
         12    1    1    2    0    0  0.13107949380E+01 -0.30697732228E+02  0.85234828270E+01  0.31886026827E+02  0.00000000000E+00 0. -1.
         11    1    3    3    0    0 -0.34497668170E+01 -0.96965004075E-01  0.47612801630E+01  0.58804831736E+01  0.51100000000E-03 0. -1.
        -11    1    3    3    0    0  0.13248842697E+02  0.22409628779E+02  0.86591518483E+01  0.27435455269E+02  0.51100000000E-03 0.  1.
         12    1    3    3    0    0 -0.11109870818E+02  0.83850684540E+01 -0.21943914838E+02  0.25986034730E+02  0.00000000000E+00 0. -1.
</event>
<event>
 7    1  0.6230310E-012  0.5930193E+02  0.7816164E-02  0.1266605E+00
        -11   -1    0    0    0    0  0.00000000000E+00  0.00000000000E+00  0.45593999997E+02  0.45594000000E+02  0.51100000000E-03 0.  1.
         11   -1    0    0    0    0 -0.00000000000E+00 -0.00000000000E+00 -0.45593999997E+02  0.45594000000E+02  0.51100000000E-03 0. -1.
    9900012    2    1    2    0    0 -0.29552408756E+02 -0.92134348226E+01  0.76478239108E+01  0.59301930078E+02  0.49999974558E+02 0.  0.
         12    1    1    2    0    0  0.29552408756E+02  0.92134348226E+01 -0.76478239108E+01  0.31886069922E+02  0.00000000000E+00 0. -1.
         11    1    3    3    0    0 -0.17907478032E+02  0.14273105144E+02 -0.21716638730E+01  0.23002509083E+02  0.51100000000E-03 0. -1.
        -11    1    3    3    0    0 -0.31433136210E+01 -0.26200654634E+01  0.12922416536E+02  0.13554852007E+02  0.51100000000E-03 0.  1.
        -12    1    3    3    0    0 -0.85016171036E+01 -0.20866474503E+02 -0.31029287522E+01  0.22744568987E+02  0.00000000000E+00 0.  1.
</event>
<event>
 7    1  0.6230310E-012  0.5930195E+02  0.7816164E-02  0.1266605E+00
        -11   -1    0    0    0    0  0.00000000000E+00  0.00000000000E+00  0.45593999997E+02  0.45594000000E+02  0.51100000000E-03 0.  1.
         11   -1    0    0    0    0 -0.00000000000E+00 -0.00000000000E+00 -0.45593999997E+02  0.45594000000E+02  0.51100000000E-03 0. -1.
    9900012    2    1    2    0    0  0.63789835193E+00 -0.10922635544E+02  0.29950114733E+02  0.59301948911E+02  0.50000008905E+02 0.  0.
         12    1    1    2    0    0 -0.63789835193E+00  0.10922635544E+02 -0.29950114733E+02  0.31886051089E+02  0.00000000000E+00 0. -1.
         11    1    3    3    0    0 -0.14101586537E+02  0.27452884609E+01  0.65188886866E+01  0.15776161179E+02  0.51100000000E-03 0. -1.
        -11    1    3    3    0    0  0.36805770182E+01 -0.20283242681E+02  0.53057894570E+01  0.21286333241E+02  0.51100000000E-03 0.  1.
        -12    1    3    3    0    0  0.11058907870E+02  0.66153186759E+01  0.18125436590E+02  0.22239454491E+02  0.00000000000E+00 0.  1.
</event>
<event>
 7    1  0.6230310E-012  0.5930195E+02  0.7816164E-02  0.1266605E+00
        -11   -1    0    0    0    0  0.00000000000E+00  0.00000000000E+00  0.45593999997E+02  0.45594000000E+02  0.51100000000E-03 0.  1.
         11   -1    0    0    0    0 -0.00000000000E+00 -0.00000000000E+00 -0.45593999997E+02  0.45594000000E+02  0.51100000000E-03 0. -1.
    9900012    2    1    2    0    0 -0.20181035256E+02 -0.24672693086E+02 -0.83901809707E+00  0.59301954157E+02  0.50000018474E+02 0.  0.
         12    1    1    2    0    0  0.20181035256E+02  0.24672693086E+02  0.83901809707E+00  0.31886045843E+02  0.00000000000E+00 0. -1.
         11    1    3    3    0    0 -0.20438760055E+02  0.87783227315E+01 -0.73403404131E+01  0.23423971913E+02  0.51100000000E-03 0. -1.
        -11    1    3    3    0    0 -0.35832667063E+01 -0.49245386405E+01 -0.90347032359E+00  0.61568774551E+01  0.51100000000E-03 0.  1.
        -12    1    3    3    0    0  0.38409915049E+01 -0.28526477176E+02  0.74047926396E+01  0.29721104789E+02  0.00000000000E+00 0.  1.
</event>
<event>
 7    1  0.6230310E-012  0.5930194E+02  0.7816164E-02  0.1266605E+00
        -11   -1    0    0    0    0  0.00000000000E+00  0.00000000000E+00  0.45593999997E+02  0.45594000000E+02  0.51100000000E-03 0. -1.
         11   -1    0    0    0    0 -0.00000000000E+00 -0.00000000000E+00 -0.45593999997E+02  0.45594000000E+02  0.51100000000E-03 0.  1.
    9900012    2    1    2    0    0  0.20624916836E+02 -0.50221042803E+01 -0.23793109645E+02  0.59301940469E+02  0.49999993509E+02 0.  0.
         12    1    1    2    0    0 -0.20624916836E+02  0.50221042803E+01  0.23793109645E+02  0.31886059531E+02  0.00000000000E+00 0. -1.
         11    1    3    3    0    0  0.66916457227E+01  0.40604878398E+01  0.33330504773E+01  0.85073444576E+01  0.51100000000E-03 0. -1.
        -11    1    3    3    0    0 -0.10598516111E+01  0.14734912127E+02 -0.84684221279E+01  0.17028067842E+02  0.51100000000E-03 0.  1.
         12    1    3    3    0    0  0.14993122724E+02 -0.23817504247E+02 -0.18657737994E+02  0.33766528169E+02  0.00000000000E+00 0. -1.
</event>
<event>
 7    1  0.6230310E-012  0.5930193E+02  0.7816164E-02  0.1266605E+00
        -11   -1    0    0    0    0  0.00000000000E+00  0.00000000000E+00  0.45593999997E+02  0.45594000000E+02  0.51100000000E-03 0.  1.
         11   -1    0    0    0    0 -0.00000000000E+00 -0.00000000000E+00 -0.45593999997E+02  0.45594000000E+02  0.51100000000E-03 0. -1.
    9900012    2    1    2    0    0 -0.17701800232E+01  0.30693991593E+02  0.84537937700E+01  0.59301932724E+02  0.49999979385E+02 0.  0.
         12    1    1    2    0    0  0.17701800232E+01 -0.30693991593E+02 -0.84537937700E+01  0.31886067276E+02  0.00000000000E+00 0. -1.
         11    1    3    3    0    0  0.58910509788E+01  0.13368458510E+02 -0.51045973616E+01  0.15475046981E+02  0.51100000000E-03 0. -1.
        -11    1    3    3    0    0 -0.77253600608E+01  0.16761869014E+02 -0.95024648714E+01  0.20759052960E+02  0.51100000000E-03 0.  1.
         12    1    3    3    0    0  0.64129058815E-01  0.56366406908E+00  0.23060856003E+02  0.23067832783E+02  0.00000000000E+00 0. -1.
</event>
<event>
 7    1  0.6230310E-012  0.5930192E+02  0.7816164E-02  0.1266605E+00
        -11   -1    0    0    0    0  0.00000000000E+00  0.00000000000E+00  0.45593999997E+02  0.45594000000E+02  0.51100000000E-03 0. -1.
         11   -1    0    0    0    0 -0.00000000000E+00 -0.00000000000E+00 -0.45593999997E+02  0.45594000000E+02  0.51100000000E-03 0.  1.
    9900012    2    1    2    0    0  0.44532103628E+01  0.31547833386E+02  0.12748300418E+01  0.59301920506E+02  0.49999957102E+02 0.  0.
         12    1    1    2    0    0 -0.44532103628E+01 -0.31547833386E+02 -0.12748300418E+01  0.31886079494E+02  0.00000000000E+00 0. -1.
         11    1    3    3    0    0 -0.99486224104E+01  0.87334036696E+01  0.18277719151E+02  0.22568173279E+02  0.51100000000E-03 0. -1.
        -11    1    3    3    0    0  0.19520059083E+01  0.14415183466E+02 -0.69387907973E+00  0.14563286369E+02  0.51100000000E-03 0.  1.
        -12    1    3    3    0    0  0.12449826865E+02  0.83992462504E+01 -0.16309010029E+02  0.22170460859E+02  0.00000000000E+00 0.  1.
</event>
<event>
 7    1  0.6230310E-012  0.5930197E+02  0.7816164E-02  0.1266605E+00
        -11   -1    0    0    0    0  0.00000000000E+00  0.00000000000E+00  0.45593999997E+02  0.45594000000E+02  0.51100000000E-03 0. -1.
         11   -1    0    0    0    0 -0.00000000000E+00 -0.00000000000E+00 -0.45593999997E+02  0.45594000000E+02  0.51100000000E-03 0.  1.
    9900012    2    1    2    0    0  0.28588270136E+02  0.13975983478E+02  0.20252476458E+01  0.59301969648E+02  0.50000046725E+02 0.  0.
         12    1    1    2    0    0 -0.28588270136E+02 -0.13975983478E+02 -0.20252476458E+01  0.31886030352E+02  0.00000000000E+00 0. -1.
         11    1    3    3    0    0 -0.73885573640E+01 -0.29171052743E+01 -0.97058612469E+00  0.80026446122E+01  0.51100000000E-03 0. -1.
        -11    1    3    3    0    0  0.12283562131E+02  0.17528014034E+02 -0.10695628439E+02  0.23927257313E+02  0.51100000000E-03 0.  1.
         12    1    3    3    0    0  0.23693265369E+02 -0.63492528111E+00  0.13691462209E+02  0.27372067722E+02  0.00000000000E+00 0. -1.
</event>
<event>
 7    1  0.6230310E-012  0.5930194E+02  0.7816164E-02  0.1266605E+00
        -11   -1    0    0    0    0  0.00000000000E+00  0.00000000000E+00  0.45593999997E+02  0.45594000000E+02  0.51100000000E-03 0.  1.
         11   -1    0    0    0    0 -0.00000000000E+00 -0.00000000000E+00 -0.45593999997E+02  0.45594000000E+02  0.51100000000E-03 0. -1.
    9900012    2    1    2    0    0  0.18726516774E+01  0.30549304901E+02  0.89416841282E+01  0.59301943968E+02  0.49999999890E+02 0.  0.
         12    1    1    2    0    0 -0.18726516774E+01 -0.30549304901E+02 -0.89416841282E+01  0.31886056032E+02  0.00000000000E+00 0. -1.
         11    1    3    3    0    0 -0.51926921890E+01 -0.48655644461E+01  0.20658567500E+01  0.74098268483E+01  0.51100000000E-03 0. -1.
        -11    1    3    3    0    0  0.10564961772E+02 -0.25066088077E+01 -0.50648300737E+01  0.11981402626E+02  0.51100000000E-03 0.  1.
        -12    1    3    3    0    0 -0.34996179057E+01  0.37921478155E+02  0.11940657452E+02  0.39910714493E+02  0.00000000000E+00 0.  1.
</event>
<event>
 7    1  0.6230310E-012  0.5930178E+02  0.7816164E-02  0.1266605E+00
        -11   -1    0    0    0    0  0.00000000000E+00  0.00000000000E+00  0.45593999997E+02  0.45594000000E+02  0.51100000000E-03 0.  1.
         11   -1    0    0    0    0 -0.00000000000E+00 -0.00000000000E+00 -0.45593999997E+02  0.45594000000E+02  0.51100000000E-03 0. -1.
    9900012    2    1    2    0    0 -0.20944762786E+02  0.23605110285E+02  0.45657966282E+01  0.59301783251E+02  0.49999706780E+02 0.  0.
         12    1    1    2    0    0  0.20944762786E+02 -0.23605110285E+02 -0.45657966282E+01  0.31886216749E+02  0.00000000000E+00 0. -1.
         11    1    3    3    0    0 -0.96970405330E+01  0.41789303695E+00 -0.21602860346E+01  0.99435439206E+01  0.51100000000E-03 0. -1.
        -11    1    3    3    0    0 -0.22134270898E+02  0.42986355619E+01  0.13802856678E+02  0.26437153187E+02  0.51100000000E-03 0.  1.
        -12    1    3    3    0    0  0.10886548645E+02  0.18888581686E+02 -0.70767740153E+01  0.22921086143E+02  0.00000000000E+00 0.  1.
</event>
<event>
 7    1  0.6230310E-012  0.5930191E+02  0.7816164E-02  0.1266605E+00
        -11   -1    0    0    0    0  0.00000000000E+00  0.00000000000E+00  0.45593999997E+02  0.45594000000E+02  0.51100000000E-03 0.  1.
         11   -1    0    0    0    0 -0.00000000000E+00 -0.00000000000E+00 -0.45593999997E+02  0.45594000000E+02  0.51100000000E-03 0. -1.
    9900012    2    1    2    0    0 -0.20295897583E+02 -0.24554488906E+02 -0.13697684040E+01  0.59301911346E+02  0.49999940397E+02 0.  0.
         12    1    1    2    0    0  0.20295897583E+02  0.24554488906E+02  0.13697684040E+01  0.31886088654E+02  0.00000000000E+00 0. -1.
         11    1    3    3    0    0 -0.24895178077E+01  0.96382220316E+01 -0.12635622962E+01  0.10034421397E+02  0.51100000000E-03 0. -1.
        -11    1    3    3    0    0 -0.26120359417E+01 -0.23125108163E+02 -0.12824054545E+02  0.26571596387E+02  0.51100000000E-03 0.  1.
         12    1    3    3    0    0 -0.15194343834E+02 -0.11067602774E+02  0.12717848437E+02  0.22695893562E+02  0.00000000000E+00 0. -1.
</event>
<event>
 7    1  0.6230310E-012  0.5930187E+02  0.7816164E-02  0.1266605E+00
        -11   -1    0    0    0    0  0.00000000000E+00  0.00000000000E+00  0.45593999997E+02  0.45594000000E+02  0.51100000000E-03 0.  1.
         11   -1    0    0    0    0 -0.00000000000E+00 -0.00000000000E+00 -0.45593999997E+02  0.45594000000E+02  0.51100000000E-03 0. -1.
    9900012    2    1    2    0    0 -0.12289708479E+02  0.23657571037E+02  0.17493081058E+02  0.59301866858E+02  0.49999859261E+02 0.  0.
         12    1    1    2    0    0  0.12289708479E+02 -0.23657571037E+02 -0.17493081058E+02  0.31886133142E+02  0.00000000000E+00 0. -1.
         11    1    3    3    0    0 -0.55733245164E+01  0.22029518682E+02  0.37219985530E+01  0.23026396006E+02  0.51100000000E-03 0. -1.
        -11    1    3    3    0    0 -0.53794686772E+01  0.15786948200E+02  0.14407212510E+02  0.22039378151E+02  0.51100000000E-03 0.  1.
         12    1    3    3    0    0 -0.13369152852E+01 -0.14158895845E+02 -0.63613000470E+00  0.14236092702E+02  0.00000000000E+00 0. -1.
</event>
<event>
 7    1  0.6230310E-012  0.5930195E+02  0.7816164E-02  0.1266605E+00
        -11   -1    0    0    0    0  0.00000000000E+00  0.00000000000E+00  0.45593999997E+02  0.45594000000E+02  0.51100000000E-03 0.  1.
         11   -1    0    0    0    0 -0.00000000000E+00 -0.00000000000E+00 -0.45593999997E+02  0.45594000000E+02  0.51100000000E-03 0. -1.
    9900012    2    1    2    0    0 -0.22109069102E+02  0.81951271785E+01 -0.21465073173E+02  0.59301946429E+02  0.50000004379E+02 0.  0.
         12    1    1    2    0    0  0.22109069102E+02 -0.81951271785E+01  0.21465073173E+02  0.31886053571E+02  0.00000000000E+00 0. -1.
         11    1    3    3    0    0 -0.15926957793E+01  0.28109282814E+01 -0.30685170017E+01  0.44557596994E+01  0.51100000000E-03 0.  1.
        -11    1    3    3    0    0 -0.10775122679E+02  0.92423850573E+01  0.14517486027E+02  0.20304737159E+02  0.51100000000E-03 0. -1.
         12    1    3    3    0    0 -0.97412506432E+01 -0.38581861601E+01 -0.32914042199E+02  0.34541449570E+02  0.00000000000E+00 0. -1.
</event>
<event>
 7    1  0.6230310E-012  0.5930194E+02  0.7816164E-02  0.1266605E+00
        -11   -1    0    0    0    0  0.00000000000E+00  0.00000000000E+00  0.45593999997E+02  0.45594000000E+02  0.51100000000E-03 0.  1.
         11   -1    0    0    0    0 -0.00000000000E+00 -0.00000000000E+00 -0.45593999997E+02  0.45594000000E+02  0.51100000000E-03 0. -1.
    9900012    2    1    2    0    0 -0.19871565193E+02 -0.17503051989E+02  0.17761888674E+02  0.59301943151E+02  0.49999998401E+02 0.  0.
         12    1    1    2    0    0  0.19871565193E+02  0.17503051989E+02 -0.17761888674E+02  0.31886056849E+02  0.00000000000E+00 0. -1.
         11    1    3    3    0    0  0.49772886702E+00 -0.22442611326E+01  0.94103506302E+01  0.96870605088E+01  0.51100000000E-03 0. -1.
        -11    1    3    3    0    0 -0.13341681426E+02 -0.25794471831E+02  0.17577814466E+02  0.33946057237E+02  0.51100000000E-03 0.  1.
         12    1    3    3    0    0 -0.70276126338E+01  0.10535680975E+02 -0.92262764226E+01  0.15668825405E+02  0.00000000000E+00 0. -1.
</event>
<event>
 7    1  0.6230310E-012  0.5930193E+02  0.7816164E-02  0.1266605E+00
        -11   -1    0    0    0    0  0.00000000000E+00  0.00000000000E+00  0.45593999997E+02  0.45594000000E+02  0.51100000000E-03 0.  1.
         11   -1    0    0    0    0 -0.00000000000E+00 -0.00000000000E+00 -0.45593999997E+02  0.45594000000E+02  0.51100000000E-03 0. -1.
    9900012    2    1    2    0    0  0.14896829382E+02  0.60520989702E+01  0.27535028654E+02  0.59301933599E+02  0.49999980980E+02 0.  0.
         12    1    1    2    0    0 -0.14896829382E+02 -0.60520989702E+01 -0.27535028654E+02  0.31886066401E+02  0.00000000000E+00 0. -1.
         11    1    3    3    0    0  0.16838101850E+02  0.64063339789E+01  0.77848505211E-01  0.18015794449E+02  0.51100000000E-03 0. -1.
        -11    1    3    3    0    0  0.62424238604E+01  0.41421075815E+01 -0.39858083907E+01  0.84859636847E+01  0.51100000000E-03 0.  1.
        -12    1    3    3    0    0 -0.81836963285E+01 -0.44963425902E+01  0.31442988539E+02  0.32800175465E+02  0.00000000000E+00 0.  1.
</event>
<event>
 7    1  0.6230310E-012  0.5930192E+02  0.7816164E-02  0.1266605E+00
        -11   -1    0    0    0    0  0.00000000000E+00  0.00000000000E+00  0.45593999997E+02  0.45594000000E+02  0.51100000000E-03 0.  1.
         11   -1    0    0    0    0 -0.00000000000E+00 -0.00000000000E+00 -0.45593999997E+02  0.45594000000E+02  0.51100000000E-03 0. -1.
    9900012    2    1    2    0    0  0.30701529181E+02  0.43669709202E+01 -0.74207683203E+01  0.59301919471E+02  0.49999955214E+02 0.  0.
         12    1    1    2    0    0 -0.30701529181E+02 -0.43669709202E+01  0.74207683203E+01  0.31886080529E+02  0.00000000000E+00 0. -1.
         11    1    3    3    0    0  0.27814647902E+02 -0.17199062600E+02 -0.21078401997E+01  0.32770495614E+02  0.51100000000E-03 0.  1.
        -11    1    3    3    0    0 -0.90213007111E+00  0.10929729168E+02 -0.94796561417E+01  0.14496092548E+02  0.51100000000E-03 0. -1.
        -12    1    3    3    0    0  0.37890113499E+01  0.10636304353E+02  0.41667280211E+01  0.12035331308E+02  0.00000000000E+00 0.  1.
</event>
<event>
 7    1  0.6230310E-012  0.5930200E+02  0.7816164E-02  0.1266605E+00
        -11   -1    0    0    0    0  0.00000000000E+00  0.00000000000E+00  0.45593999997E+02  0.45594000000E+02  0.51100000000E-03 0.  1.
         11   -1    0    0    0    0 -0.00000000000E+00 -0.00000000000E+00 -0.45593999997E+02  0.45594000000E+02  0.51100000000E-03 0. -1.
    9900012    2    1    2    0    0  0.50320629108E+01 -0.12650303494E+02  0.28833407313E+02  0.59301996599E+02  0.50000095877E+02 0.  0.
         12    1    1    2    0    0 -0.50320629108E+01  0.12650303494E+02 -0.28833407313E+02  0.31886003401E+02  0.00000000000E+00 0. -1.
         11    1    3    3    0    0  0.42114388256E+01 -0.51454149018E+01  0.38201855716E+01  0.76684633113E+01  0.51100000000E-03 0. -1.
        -11    1    3    3    0    0  0.11002467713E+02 -0.19823111202E+02  0.27302888645E+02  0.35488839966E+02  0.51100000000E-03 0.  1.
         12    1    3    3    0    0 -0.10181843628E+02  0.12318222610E+02 -0.22896669032E+01  0.16144693322E+02  0.00000000000E+00 0. -1.
</event>
<event>
 7    1  0.6230310E-012  0.5930195E+02  0.7816164E-02  0.1266605E+00
        -11   -1    0    0    0    0  0.00000000000E+00  0.00000000000E+00  0.45593999997E+02  0.45594000000E+02  0.51100000000E-03 0.  1.
         11   -1    0    0    0    0 -0.00000000000E+00 -0.00000000000E+00 -0.45593999997E+02  0.45594000000E+02  0.51100000000E-03 0. -1.
    9900012    2    1    2    0    0  0.79150568997E+01 -0.16969518749E+02  0.25809060812E+02  0.59301947998E+02  0.50000007241E+02 0.  0.
         12    1    1    2    0    0 -0.79150568997E+01  0.16969518749E+02 -0.25809060812E+02  0.31886052002E+02  0.00000000000E+00 0. -1.
         11    1    3    3    0    0 -0.90452345741E+01 -0.61822836707E+01  0.26458796164E+02  0.28637471861E+02  0.51100000000E-03 0. -1.
        -11    1    3    3    0    0 -0.52790746500E+01 -0.42419624886E+01  0.26022328521E+01  0.72549631972E+01  0.51100000000E-03 0.  1.
        -12    1    3    3    0    0  0.22239366124E+02 -0.65452725893E+01 -0.32519682045E+01  0.23409512939E+02  0.00000000000E+00 0.  1.
</event>
<event>
 7    1  0.6230310E-012  0.5930194E+02  0.7816164E-02  0.1266605E+00
        -11   -1    0    0    0    0  0.00000000000E+00  0.00000000000E+00  0.45593999997E+02  0.45594000000E+02  0.51100000000E-03 0. -1.
         11   -1    0    0    0    0 -0.00000000000E+00 -0.00000000000E+00 -0.45593999997E+02  0.45594000000E+02  0.51100000000E-03 0.  1.
    9900012    2    1    2    0    0  0.30383941350E+02  0.62099721754E+01 -0.74143977685E+01  0.59301938145E+02  0.49999989271E+02 0.  0.
         12    1    1    2    0    0 -0.30383941350E+02 -0.62099721754E+01  0.74143977685E+01  0.31886061855E+02  0.00000000000E+00 0. -1.
         11    1    3    3    0    0  0.65306091929E+00 -0.63458956970E+01 -0.58944195730E+01  0.86856815004E+01  0.51100000000E-03 0. -1.
        -11    1    3    3    0    0  0.33825593001E+02 -0.32463786231E+01  0.15044364475E+01  0.34014306480E+02  0.51100000000E-03 0.  1.
         12    1    3    3    0    0 -0.40947125699E+01  0.15802246496E+02 -0.30244146429E+01  0.16601950165E+02  0.00000000000E+00 0. -1.
</event>
<event>
 7    1  0.6230310E-012  0.5930194E+02  0.7816164E-02  0.1266605E+00
        -11   -1    0    0    0    0  0.00000000000E+00  0.00000000000E+00  0.45593999997E+02  0.45594000000E+02  0.51100000000E-03 0.  1.
         11   -1    0    0    0    0 -0.00000000000E+00 -0.00000000000E+00 -0.45593999997E+02  0.45594000000E+02  0.51100000000E-03 0. -1.
    9900012    2    1    2    0    0 -0.68997699124E+01 -0.26309301118E+02 -0.16641361656E+02  0.59301936148E+02  0.49999985630E+02 0.  0.
         12    1    1    2    0    0  0.68997699124E+01  0.26309301118E+02  0.16641361656E+02  0.31886063852E+02  0.00000000000E+00 0. -1.
         11    1    3    3    0    0  0.28923614866E+01  0.70450979365E+01 -0.38565560368E+01  0.85365206396E+01  0.51100000000E-03 0.  1.
        -11    1    3    3    0    0  0.32100356733E+01 -0.14963836628E+02 -0.21690358637E+02  0.26546042901E+02  0.51100000000E-03 0. -1.
        -12    1    3    3    0    0 -0.13002167072E+02 -0.18390562427E+02  0.89055530173E+01  0.24219372608E+02  0.00000000000E+00 0.  1.
</event>
<event>
 7    1  0.6230310E-012  0.5930193E+02  0.7816164E-02  0.1266605E+00
        -11   -1    0    0    0    0  0.00000000000E+00  0.00000000000E+00  0.45593999997E+02  0.45594000000E+02  0.51100000000E-03 0.  1.
         11   -1    0    0    0    0 -0.00000000000E+00 -0.00000000000E+00 -0.45593999997E+02  0.45594000000E+02  0.51100000000E-03 0. -1.
    9900012    2    1    2    0    0  0.11433788004E+02  0.28389231904E+02  0.89465756202E+01  0.59301933897E+02  0.49999981523E+02 0.  0.
         12    1    1    2    0    0 -0.11433788004E+02 -0.28389231904E+02 -0.89465756202E+01  0.31886066103E+02  0.00000000000E+00 0. -1.
         11    1    3    3    0    0 -0.98647584145E+01  0.11355548404E+02 -0.12883758140E+02  0.19805382152E+02  0.51100000000E-03 0. -1.
        -11    1    3    3    0    0  0.30752343384E+00  0.10577229115E+02  0.44059317149E+01  0.11462311327E+02  0.51100000000E-03 0.  1.
         12    1    3    3    0    0  0.20991022984E+02  0.64564543851E+01  0.17424402045E+02  0.28034240418E+02  0.00000000000E+00 0. -1.
</event>
<event>
 7    1  0.6230310E-012  0.5930194E+02  0.7816164E-02  0.1266605E+00
        -11   -1    0    0    0    0  0.00000000000E+00  0.00000000000E+00  0.45593999997E+02  0.45594000000E+02  0.51100000000E-03 0. -1.
         11   -1    0    0    0    0 -0.00000000000E+00 -0.00000000000E+00 -0.45593999997E+02  0.45594000000E+02  0.51100000000E-03 0.  1.
    9900012    2    1    2    0    0 -0.14640586439E+02 -0.23373845883E+02 -0.16001165829E+02  0.59301941126E+02  0.49999994707E+02 0.  0.
         12    1    1    2    0    0  0.14640586439E+02  0.23373845883E+02  0.16001165829E+02  0.31886058874E+02  0.00000000000E+00 0. -1.
         11    1    3    3    0    0  0.60755178485E+01 -0.10448328269E+02  0.68531512246E+01  0.13894069336E+02  0.51100000000E-03 0. -1.
        -11    1    3    3    0    0 -0.22704022270E+02 -0.20880065025E+02 -0.19824026919E+02  0.36666630418E+02  0.51100000000E-03 0.  1.
         12    1    3    3    0    0  0.19879179819E+01  0.79545474111E+01 -0.30302901350E+01  0.87412413718E+01  0.00000000000E+00 0. -1.
</event>
<event>
 7    1  0.6230310E-012  0.5930195E+02  0.7816164E-02  0.1266605E+00
        -11   -1    0    0    0    0  0.00000000000E+00  0.00000000000E+00  0.45593999997E+02  0.45594000000E+02  0.51100000000E-03 0. -1.
         11   -1    0    0    0    0 -0.00000000000E+00 -0.00000000000E+00 -0.45593999997E+02  0.45594000000E+02  0.51100000000E-03 0.  1.
    9900012    2    1    2    0    0  0.29053710616E+02 -0.60615907640E+01  0.11655857022E+02  0.59301953113E+02  0.50000016570E+02 0.  0.
         12    1    1    2    0    0 -0.29053710616E+02  0.60615907640E+01 -0.11655857022E+02  0.31886046887E+02  0.00000000000E+00 0. -1.
         11    1    3    3    0    0  0.11603255792E+02  0.11621349188E+02  0.18034185900E+02  0.24391046784E+02  0.51100000000E-03 0. -1.
        -11    1    3    3    0    0  0.12894541530E+02 -0.87140649316E+00  0.52698265386E+01  0.13957063536E+02  0.51100000000E-03 0.  1.
        -12    1    3    3    0    0  0.45559132938E+01 -0.16811533459E+02 -0.11648155416E+02  0.20953842793E+02  0.00000000000E+00 0.  1.
</event>
<event>
 7    1  0.6230310E-012  0.5930191E+02  0.7816164E-02  0.1266605E+00
        -11   -1    0    0    0    0  0.00000000000E+00  0.00000000000E+00  0.45593999997E+02  0.45594000000E+02  0.51100000000E-03 0.  1.
         11   -1    0    0    0    0 -0.00000000000E+00 -0.00000000000E+00 -0.45593999997E+02  0.45594000000E+02  0.51100000000E-03 0. -1.
    9900012    2    1    2    0    0 -0.19589032470E+01  0.16151076849E+02  0.27423132983E+02  0.59301908864E+02  0.49999935871E+02 0.  0.
         12    1    1    2    0    0  0.19589032470E+01 -0.16151076849E+02 -0.27423132983E+02  0.31886091136E+02  0.00000000000E+00 0. -1.
         11    1    3    3    0    0  0.32933802586E+01 -0.85464062677E+01 -0.50143295615E+01  0.10441786956E+02  0.51100000000E-03 0. -1.
        -11    1    3    3    0    0 -0.72105231659E+01  0.68118434595E+01  0.28857747493E+02  0.30514954470E+02  0.51100000000E-03 0.  1.
        -12    1    3    3    0    0  0.19582396603E+01  0.17885639657E+02  0.35797150511E+01  0.18345167439E+02  0.00000000000E+00 0.  1.
</event>
<event>
 7    1  0.6230310E-012  0.5930196E+02  0.7816164E-02  0.1266605E+00
        -11   -1    0    0    0    0  0.00000000000E+00  0.00000000000E+00  0.45593999997E+02  0.45594000000E+02  0.51100000000E-03 0.  1.
         11   -1    0    0    0    0 -0.00000000000E+00 -0.00000000000E+00 -0.45593999997E+02  0.45594000000E+02  0.51100000000E-03 0. -1.
    9900012    2    1    2    0    0  0.83824749221E+01 -0.17130392628E+02  0.25553929514E+02  0.59301959935E+02  0.50000029011E+02 0.  0.
         12    1    1    2    0    0 -0.83824749221E+01  0.17130392628E+02 -0.25553929514E+02  0.31886040065E+02  0.00000000000E+00 0. -1.
         11    1    3    3    0    0  0.13134053607E+01 -0.47173659324E+01  0.15614531595E+02  0.16364356760E+02  0.51100000000E-03 0. -1.
        -11    1    3    3    0    0  0.15464395921E+02 -0.77095826720E+01  0.21701463792E+02  0.27740561227E+02  0.51100000000E-03 0.  1.
         12    1    3    3    0    0 -0.83953263600E+01 -0.47034440239E+01 -0.11762065873E+02  0.15197041948E+02  0.00000000000E+00 0. -1.
</event>
<event>
 7    1  0.6230310E-012  0.5930189E+02  0.7816164E-02  0.1266605E+00
        -11   -1    0    0    0    0  0.00000000000E+00  0.00000000000E+00  0.45593999997E+02  0.45594000000E+02  0.51100000000E-03 0.  1.
         11   -1    0    0    0    0 -0.00000000000E+00 -0.00000000000E+00 -0.45593999997E+02  0.45594000000E+02  0.51100000000E-03 0. -1.
    9900012    2    1    2    0    0 -0.12599773281E+02  0.15062974762E+02  0.25121232788E+02  0.59301892803E+02  0.49999906578E+02 0.  0.
         12    1    1    2    0    0  0.12599773281E+02 -0.15062974762E+02 -0.25121232788E+02  0.31886107197E+02  0.00000000000E+00 0. -1.
         11    1    3    3    0    0 -0.17335313309E+02  0.64187360074E+01 -0.83457166294E+01  0.20282116402E+02  0.51100000000E-03 0. -1.
        -11    1    3    3    0    0  0.50287663948E+01  0.44091384497E+01  0.16071220764E+01  0.68783599028E+01  0.51100000000E-03 0.  1.
        -12    1    3    3    0    0 -0.29322636736E+00  0.42351003052E+01  0.31859827341E+02  0.32141416498E+02  0.00000000000E+00 0.  1.
</event>
<event>
 7    1  0.6230310E-012  0.5930192E+02  0.7816164E-02  0.1266605E+00
        -11   -1    0    0    0    0  0.00000000000E+00  0.00000000000E+00  0.45593999997E+02  0.45594000000E+02  0.51100000000E-03 0.  1.
         11   -1    0    0    0    0 -0.00000000000E+00 -0.00000000000E+00 -0.45593999997E+02  0.45594000000E+02  0.51100000000E-03 0. -1.
    9900012    2    1    2    0    0 -0.27628947643E+02 -0.98320396554E+01  0.12517748767E+02  0.59301924892E+02  0.49999965101E+02 0.  0.
         12    1    1    2    0    0  0.27628947643E+02  0.98320396554E+01 -0.12517748767E+02  0.31886075108E+02  0.00000000000E+00 0. -1.
         11    1    3    3    0    0  0.47829510173E+00  0.48432054569E+01  0.85013845059E+01  0.97958636209E+01  0.51100000000E-03 0. -1.
        -11    1    3    3    0    0 -0.43913555194E+01  0.50287417856E+01  0.15283972092E+02  0.16678490652E+02  0.51100000000E-03 0.  1.
        -12    1    3    3    0    0 -0.23715887225E+02 -0.19703986898E+02 -0.11267607831E+02  0.32827570619E+02  0.00000000000E+00 0.  1.
</event>
<event>
 7    1  0.6230310E-012  0.5930194E+02  0.7816164E-02  0.1266605E+00
        -11   -1    0    0    0    0  0.00000000000E+00  0.00000000000E+00  0.45593999997E+02  0.45594000000E+02  0.51100000000E-03 0.  1.
         11   -1    0    0    0    0 -0.00000000000E+00 -0.00000000000E+00 -0.45593999997E+02  0.45594000000E+02  0.51100000000E-03 0. -1.
    9900012    2    1    2    0    0  0.21482981007E+02  0.14896245652E+02  0.18256628996E+02  0.59301935492E+02  0.49999984433E+02 0.  0.
         12    1    1    2    0    0 -0.21482981007E+02 -0.14896245652E+02 -0.18256628996E+02  0.31886064508E+02  0.00000000000E+00 0. -1.
         11    1    3    3    0    0  0.78345708662E+01  0.34636653106E+01 -0.46863383367E+01  0.97641817532E+01  0.51100000000E-03 0. -1.
        -11    1    3    3    0    0  0.24695007853E+02  0.10907555747E+00  0.42648648435E+01  0.25060813689E+02  0.51100000000E-03 0.  1.
         12    1    3    3    0    0 -0.11046597712E+02  0.11323504784E+02  0.18678102489E+02  0.24476940050E+02  0.00000000000E+00 0. -1.
</event>
<event>
 7    1  0.6230310E-012  0.5930195E+02  0.7816164E-02  0.1266605E+00
        -11   -1    0    0    0    0  0.00000000000E+00  0.00000000000E+00  0.45593999997E+02  0.45594000000E+02  0.51100000000E-03 0.  1.
         11   -1    0    0    0    0 -0.00000000000E+00 -0.00000000000E+00 -0.45593999997E+02  0.45594000000E+02  0.51100000000E-03 0. -1.
    9900012    2    1    2    0    0  0.26017425061E+02  0.18326302225E+02 -0.19900409275E+01  0.59301952535E+02  0.50000015515E+02 0.  0.
         12    1    1    2    0    0 -0.26017425061E+02 -0.18326302225E+02  0.19900409275E+01  0.31886047465E+02  0.00000000000E+00 0. -1.
         11    1    3    3    0    0  0.14143112042E+02  0.17325282074E+02  0.70570454665E+01  0.23451970240E+02  0.51100000000E-03 0. -1.
        -11    1    3    3    0    0  0.14182157068E+02  0.56473687128E+01  0.85552081047E+01  0.17499083932E+02  0.51100000000E-03 0.  1.
         12    1    3    3    0    0 -0.23078440487E+01 -0.46463485612E+01 -0.17602294499E+02  0.18350898363E+02  0.00000000000E+00 0. -1.
</event>
<event>
 7    1  0.6230310E-012  0.5930194E+02  0.7816164E-02  0.1266605E+00
        -11   -1    0    0    0    0  0.00000000000E+00  0.00000000000E+00  0.45593999997E+02  0.45594000000E+02  0.51100000000E-03 0.  1.
         11   -1    0    0    0    0 -0.00000000000E+00 -0.00000000000E+00 -0.45593999997E+02  0.45594000000E+02  0.51100000000E-03 0. -1.
    9900012    2    1    2    0    0 -0.70902518980E+01 -0.18553891488E+01  0.31032351636E+02  0.59301937387E+02  0.49999987889E+02 0.  0.
         12    1    1    2    0    0  0.70902518980E+01  0.18553891488E+01 -0.31032351636E+02  0.31886062613E+02  0.00000000000E+00 0. -1.
         11    1    3    3    0    0  0.18020763578E+02 -0.41762009949E+01  0.16655688722E+02  0.24891776588E+02  0.51100000000E-03 0. -1.
        -11    1    3    3    0    0 -0.63966122172E+00  0.63513636237E+01  0.39479875391E+01  0.75057039795E+01  0.51100000000E-03 0.  1.
        -12    1    3    3    0    0 -0.24471354254E+02 -0.40305517776E+01  0.10428675376E+02  0.26904456819E+02  0.00000000000E+00 0.  1.
</event>
<event>
 7    1  0.6230310E-012  0.5930190E+02  0.7816164E-02  0.1266605E+00
        -11   -1    0    0    0    0  0.00000000000E+00  0.00000000000E+00  0.45593999997E+02  0.45594000000E+02  0.51100000000E-03 0.  1.
         11   -1    0    0    0    0 -0.00000000000E+00 -0.00000000000E+00 -0.45593999997E+02  0.45594000000E+02  0.51100000000E-03 0. -1.
    9900012    2    1    2    0    0  0.23010834454E+02 -0.62256908571E+01  0.21177004626E+02  0.59301901872E+02  0.49999923118E+02 0.  0.
         12    1    1    2    0    0 -0.23010834454E+02  0.62256908571E+01 -0.21177004626E+02  0.31886098128E+02  0.00000000000E+00 0. -1.
         11    1    3    3    0    0  0.97351132847E+01  0.35867133187E+01 -0.45205676703E+01  0.11316911037E+02  0.51100000000E-03 0. -1.
        -11    1    3    3    0    0  0.25460126426E+02 -0.11558912277E+02  0.15307072575E+02  0.31876840523E+02  0.51100000000E-03 0.  1.
         12    1    3    3    0    0 -0.12184405257E+02  0.17465081014E+01  0.10390499722E+02  0.16108150312E+02  0.00000000000E+00 0. -1.
</event>
<event>
 7    1  0.6230310E-012  0.5930191E+02  0.7816164E-02  0.1266605E+00
        -11   -1    0    0    0    0  0.00000000000E+00  0.00000000000E+00  0.45593999997E+02  0.45594000000E+02  0.51100000000E-03 0.  1.
         11   -1    0    0    0    0 -0.00000000000E+00 -0.00000000000E+00 -0.45593999997E+02  0.45594000000E+02  0.51100000000E-03 0. -1.
    9900012    2    1    2    0    0 -0.24691777877E+02  0.19115462948E+02  0.64527555483E+01  0.59301907850E+02  0.49999934020E+02 0.  0.
         12    1    1    2    0    0  0.24691777877E+02 -0.19115462948E+02 -0.64527555483E+01  0.31886092150E+02  0.00000000000E+00 0. -1.
         11    1    3    3    0    0 -0.13430209957E+02  0.59362546191E+00 -0.10723282263E+02  0.17196270335E+02  0.51100000000E-03 0. -1.
        -11    1    3    3    0    0 -0.18602051266E+02  0.10851660486E+01  0.13031017875E+02  0.22738102906E+02  0.51100000000E-03 0.  1.
        -12    1    3    3    0    0  0.73404833460E+01  0.17436671437E+02  0.41450199359E+01  0.19367534609E+02  0.00000000000E+00 0.  1.
</event>
<event>
 7    1  0.6230310E-012  0.5930194E+02  0.7816164E-02  0.1266605E+00
        -11   -1    0    0    0    0  0.00000000000E+00  0.00000000000E+00  0.45593999997E+02  0.45594000000E+02  0.51100000000E-03 0. -1.
         11   -1    0    0    0    0 -0.00000000000E+00 -0.00000000000E+00 -0.45593999997E+02  0.45594000000E+02  0.51100000000E-03 0.  1.
    9900012    2    1    2    0    0 -0.39565937216E+01  0.27680732296E+02 -0.15324595301E+02  0.59301940421E+02  0.49999993422E+02 0.  0.
         12    1    1    2    0    0  0.39565937216E+01 -0.27680732296E+02  0.15324595301E+02  0.31886059579E+02  0.00000000000E+00 0. -1.
         11    1    3    3    0    0 -0.45396216406E+01 -0.19686943770E+01  0.58081398589E+01  0.76300990211E+01  0.51100000000E-03 0. -1.
        -11    1    3    3    0    0 -0.13213814908E+02  0.20041342621E+02  0.82142953943E+00  0.24019472626E+02  0.51100000000E-03 0.  1.
         12    1    3    3    0    0  0.13796842827E+02  0.96080840525E+01 -0.21954164700E+02  0.27652368774E+02  0.00000000000E+00 0. -1.
</event>
<event>
 7    1  0.6230310E-012  0.5930194E+02  0.7816164E-02  0.1266605E+00
        -11   -1    0    0    0    0  0.00000000000E+00  0.00000000000E+00  0.45593999997E+02  0.45594000000E+02  0.51100000000E-03 0.  1.
         11   -1    0    0    0    0 -0.00000000000E+00 -0.00000000000E+00 -0.45593999997E+02  0.45594000000E+02  0.51100000000E-03 0. -1.
    9900012    2    1    2    0    0 -0.15165027708E+02 -0.11663034943E+02  0.25509144032E+02  0.59301939116E+02  0.49999991041E+02 0.  0.
         12    1    1    2    0    0  0.15165027708E+02  0.11663034943E+02 -0.25509144032E+02  0.31886060884E+02  0.00000000000E+00 0. -1.
         11    1    3    3    0    0  0.62564806064E+00 -0.30531312658E+01  0.20568365709E+01  0.37341160885E+01  0.51100000000E-03 0. -1.
        -11    1    3    3    0    0  0.30861228183E+01  0.15255467994E+02 -0.22635280090E+01  0.15728223583E+02  0.51100000000E-03 0.  1.
         12    1    3    3    0    0 -0.18876798587E+02 -0.23865371672E+02  0.25715835471E+02  0.39839599444E+02  0.00000000000E+00 0. -1.
</event>
<event>
 7    1  0.6230310E-012  0.5930197E+02  0.7816164E-02  0.1266605E+00
        -11   -1    0    0    0    0  0.00000000000E+00  0.00000000000E+00  0.45593999997E+02  0.45594000000E+02  0.51100000000E-03 0.  1.
         11   -1    0    0    0    0 -0.00000000000E+00 -0.00000000000E+00 -0.45593999997E+02  0.45594000000E+02  0.51100000000E-03 0. -1.
    9900012    2    1    2    0    0 -0.13754843718E+02 -0.23535972171E+01  0.28670262752E+02  0.59301966822E+02  0.50000041571E+02 0.  0.
         12    1    1    2    0    0  0.13754843718E+02  0.23535972171E+01 -0.28670262752E+02  0.31886033178E+02  0.00000000000E+00 0. -1.
         11    1    3    3    0    0 -0.79948907439E+01 -0.17432059912E+02  0.15973561181E+02  0.24958959270E+02  0.51100000000E-03 0. -1.
        -11    1    3    3    0    0  0.53104374855E+01  0.58017878521E+01  0.17447528012E+02  0.19138383489E+02  0.51100000000E-03 0.  1.
        -12    1    3    3    0    0 -0.11070390459E+02  0.92766748425E+01 -0.47508264403E+01  0.15204624064E+02  0.00000000000E+00 0.  1.
</event>
<event>
 7    1  0.6230310E-012  0.5930195E+02  0.7816164E-02  0.1266605E+00
        -11   -1    0    0    0    0  0.00000000000E+00  0.00000000000E+00  0.45593999997E+02  0.45594000000E+02  0.51100000000E-03 0. -1.
         11   -1    0    0    0    0 -0.00000000000E+00 -0.00000000000E+00 -0.45593999997E+02  0.45594000000E+02  0.51100000000E-03 0.  1.
    9900012    2    1    2    0    0  0.31804278188E+02  0.20907663346E+01 -0.91478785892E+00  0.59301948947E+02  0.50000008972E+02 0.  0.
         12    1    1    2    0    0 -0.31804278188E+02 -0.20907663346E+01  0.91478785892E+00  0.31886051053E+02  0.00000000000E+00 0. -1.
         11    1    3    3    0    0  0.16023843262E+01  0.77901764233E+00  0.13812715826E+02  0.13927154152E+02  0.51100000000E-03 0. -1.
        -11    1    3    3    0    0  0.30691096690E+02 -0.61375859392E+01 -0.29592266552E+01  0.31438358734E+02  0.51100000000E-03 0.  1.
         12    1    3    3    0    0 -0.48920282831E+00  0.74493346315E+01 -0.11768277030E+02  0.13936436062E+02  0.00000000000E+00 0. -1.
</event>
<event>
 7    1  0.6230310E-012  0.5930195E+02  0.7816164E-02  0.1266605E+00
        -11   -1    0    0    0    0  0.00000000000E+00  0.00000000000E+00  0.45593999997E+02  0.45594000000E+02  0.51100000000E-03 0.  1.
         11   -1    0    0    0    0 -0.00000000000E+00 -0.00000000000E+00 -0.45593999997E+02  0.45594000000E+02  0.51100000000E-03 0. -1.
    9900012    2    1    2    0    0  0.22237441535E+02 -0.18472816648E+01  0.22777269661E+02  0.59301948680E+02  0.50000008485E+02 0.  0.
         12    1    1    2    0    0 -0.22237441535E+02  0.18472816648E+01 -0.22777269661E+02  0.31886051320E+02  0.00000000000E+00 0. -1.
         11    1    3    3    0    0  0.26990216755E+00  0.39814102085E+01 -0.89344740001E+01  0.97851571448E+01  0.51100000000E-03 0. -1.
        -11    1    3    3    0    0  0.17995216104E+02 -0.14445669709E+02  0.87631564223E+01  0.24683964161E+02  0.51100000000E-03 0.  1.
        -12    1    3    3    0    0  0.39723232635E+01  0.86169778358E+01  0.22948587239E+02  0.24832827374E+02  0.00000000000E+00 0.  1.
</event>
<event>
 7    1  0.6230310E-012  0.5930184E+02  0.7816164E-02  0.1266605E+00
        -11   -1    0    0    0    0  0.00000000000E+00  0.00000000000E+00  0.45593999997E+02  0.45594000000E+02  0.51100000000E-03 0.  1.
         11   -1    0    0    0    0 -0.00000000000E+00 -0.00000000000E+00 -0.45593999997E+02  0.45594000000E+02  0.51100000000E-03 0. -1.
    9900012    2    1    2    0    0  0.45474682749E+01  0.21614658947E+02  0.22996829082E+02  0.59301841609E+02  0.49999813212E+02 0.  0.
         12    1    1    2    0    0 -0.45474682749E+01 -0.21614658947E+02 -0.22996829082E+02  0.31886158391E+02  0.00000000000E+00 0. -1.
         11    1    3    3    0    0  0.22417572060E+01  0.96363993896E+01  0.12066712138E+02  0.15604204902E+02  0.51100000000E-03 0. -1.
        -11    1    3    3    0    0  0.15591828529E+02  0.21058306451E+02  0.73133863163E+01  0.27203731493E+02  0.51100000000E-03 0.  1.
         12    1    3    3    0    0 -0.13286117460E+02 -0.90800468932E+01  0.36167306280E+01  0.16493905213E+02  0.00000000000E+00 0. -1.
</event>
<event>
 7    1  0.6230310E-012  0.5930194E+02  0.7816164E-02  0.1266605E+00
        -11   -1    0    0    0    0  0.00000000000E+00  0.00000000000E+00  0.45593999997E+02  0.45594000000E+02  0.51100000000E-03 0.  1.
         11   -1    0    0    0    0 -0.00000000000E+00 -0.00000000000E+00 -0.45593999997E+02  0.45594000000E+02  0.51100000000E-03 0. -1.
    9900012    2    1    2    0    0  0.22454855734E+01 -0.31231893270E+02 -0.60205614385E+01  0.59301944698E+02  0.50000001223E+02 0.  0.
         12    1    1    2    0    0 -0.22454855734E+01  0.31231893270E+02  0.60205614385E+01  0.31886055302E+02  0.00000000000E+00 0. -1.
         11    1    3    3    0    0  0.23988929247E+01 -0.59154412143E+01  0.63579705437E+01  0.90094906470E+01  0.51100000000E-03 0. -1.
        -11    1    3    3    0    0  0.10699837354E+02  0.34653558044E+01  0.76358905621E+01  0.13594191230E+02  0.51100000000E-03 0.  1.
         12    1    3    3    0    0 -0.10853244706E+02 -0.28781807860E+02 -0.20014422544E+02  0.36698262821E+02  0.00000000000E+00 0. -1.
</event>
<event>
 7    1  0.6230310E-012  0.5930196E+02  0.7816164E-02  0.1266605E+00
        -11   -1    0    0    0    0  0.00000000000E+00  0.00000000000E+00  0.45593999997E+02  0.45594000000E+02  0.51100000000E-03 0. -1.
         11   -1    0    0    0    0 -0.00000000000E+00 -0.00000000000E+00 -0.45593999997E+02  0.45594000000E+02  0.51100000000E-03 0.  1.
    9900012    2    1    2    0    0 -0.68937299851E+01  0.29463196163E+02 -0.10055646501E+02  0.59301961240E+02  0.50000031391E+02 0.  0.
         12    1    1    2    0    0  0.68937299851E+01 -0.29463196163E+02  0.10055646501E+02  0.31886038760E+02  0.00000000000E+00 0. -1.
         11    1    3    3    0    0 -0.12705625868E+00  0.52329359585E+01  0.11125368186E+01  0.53514017297E+01  0.51100000000E-03 0. -1.
        -11    1    3    3    0    0  0.16383843404E+02  0.23353507787E+02 -0.11558606855E+02  0.30780156649E+02  0.51100000000E-03 0.  1.
         12    1    3    3    0    0 -0.23150517130E+02  0.87675241758E+00  0.39042353498E+00  0.23170402861E+02  0.00000000000E+00 0. -1.
</event>
<event>
 7    1  0.6230310E-012  0.5930193E+02  0.7816164E-02  0.1266605E+00
        -11   -1    0    0    0    0  0.00000000000E+00  0.00000000000E+00  0.45593999997E+02  0.45594000000E+02  0.51100000000E-03 0. -1.
         11   -1    0    0    0    0 -0.00000000000E+00 -0.00000000000E+00 -0.45593999997E+02  0.45594000000E+02  0.51100000000E-03 0.  1.
    9900012    2    1    2    0    0  0.11969929588E+02 -0.26218729779E+02 -0.13638934635E+02  0.59301928691E+02  0.49999972029E+02 0.  0.
         12    1    1    2    0    0 -0.11969929588E+02  0.26218729779E+02  0.13638934635E+02  0.31886071309E+02  0.00000000000E+00 0. -1.
         11    1    3    3    0    0  0.16205445934E+02 -0.13445045968E+02 -0.49793024483E+01  0.21637448836E+02  0.51100000000E-03 0. -1.
        -11    1    3    3    0    0  0.82974426045E+01 -0.17387350561E+01 -0.17001655037E+02  0.18998079578E+02  0.51100000000E-03 0.  1.
         12    1    3    3    0    0 -0.12532958951E+02 -0.11034948755E+02  0.83420228501E+01  0.18666400277E+02  0.00000000000E+00 0. -1.
</event>
<event>
 7    1  0.6230310E-012  0.5930191E+02  0.7816164E-02  0.1266605E+00
        -11   -1    0    0    0    0  0.00000000000E+00  0.00000000000E+00  0.45593999997E+02  0.45594000000E+02  0.51100000000E-03 0. -1.
         11   -1    0    0    0    0 -0.00000000000E+00 -0.00000000000E+00 -0.45593999997E+02  0.45594000000E+02  0.51100000000E-03 0.  1.
    9900012    2    1    2    0    0 -0.14025299662E+02 -0.13539352847E+02 -0.25232909443E+02  0.59301908595E+02  0.49999935379E+02 0.  0.
         12    1    1    2    0    0  0.14025299662E+02  0.13539352847E+02  0.25232909443E+02  0.31886091405E+02  0.00000000000E+00 0. -1.
         11    1    3    3    0    0  0.96133961652E+01  0.51733977894E+00 -0.22680080728E+02  0.24638812641E+02  0.51100000000E-03 0. -1.
        -11    1    3    3    0    0 -0.31236265742E+01 -0.13093863452E+02 -0.40874896177E+01  0.14068186618E+02  0.51100000000E-03 0.  1.
         12    1    3    3    0    0 -0.20515069253E+02 -0.96282917433E+00  0.15346609029E+01  0.20594909336E+02  0.00000000000E+00 0. -1.
</event>
<event>
 7    1  0.6230310E-012  0.5930196E+02  0.7816164E-02  0.1266605E+00
        -11   -1    0    0    0    0  0.00000000000E+00  0.00000000000E+00  0.45593999997E+02  0.45594000000E+02  0.51100000000E-03 0.  1.
         11   -1    0    0    0    0 -0.00000000000E+00 -0.00000000000E+00 -0.45593999997E+02  0.45594000000E+02  0.51100000000E-03 0. -1.
    9900012    2    1    2    0    0 -0.22044832005E+02 -0.61909807147E+01  0.22190470340E+02  0.59301955494E+02  0.50000020912E+02 0.  0.
         12    1    1    2    0    0  0.22044832005E+02  0.61909807147E+01 -0.22190470340E+02  0.31886044506E+02  0.00000000000E+00 0. -1.
         11    1    3    3    0    0  0.43810120903E+01 -0.14734741177E+02  0.86457195902E+01  0.17636732464E+02  0.51100000000E-03 0. -1.
        -11    1    3    3    0    0 -0.47824340534E+01  0.11138593912E+01  0.17734387016E+02  0.18401653223E+02  0.51100000000E-03 0.  1.
        -12    1    3    3    0    0 -0.21643410042E+02  0.74299010715E+01 -0.41896362666E+01  0.23263569808E+02  0.00000000000E+00 0.  1.
</event>
<event>
 7    1  0.6230310E-012  0.5930195E+02  0.7816164E-02  0.1266605E+00
        -11   -1    0    0    0    0  0.00000000000E+00  0.00000000000E+00  0.45593999997E+02  0.45594000000E+02  0.51100000000E-03 0.  1.
         11   -1    0    0    0    0 -0.00000000000E+00 -0.00000000000E+00 -0.45593999997E+02  0.45594000000E+02  0.51100000000E-03 0. -1.
    9900012    2    1    2    0    0  0.86285360465E+01 -0.25338309872E+02 -0.17327388798E+02  0.59301953145E+02  0.50000016628E+02 0.  0.
         12    1    1    2    0    0 -0.86285360465E+01  0.25338309872E+02  0.17327388798E+02  0.31886046855E+02  0.00000000000E+00 0. -1.
         11    1    3    3    0    0 -0.73709172593E+01 -0.18619419375E+01  0.68941293546E+01  0.10262858707E+02  0.51100000000E-03 0. -1.
        -11    1    3    3    0    0  0.14230157471E+02 -0.20813735577E+02 -0.61880283068E+00  0.25220862149E+02  0.51100000000E-03 0.  1.
         12    1    3    3    0    0  0.17692958348E+01 -0.26626323576E+01 -0.23602715322E+02  0.23818232289E+02  0.00000000000E+00 0. -1.
</event>
<event>
 7    1  0.6230310E-012  0.5930193E+02  0.7816164E-02  0.1266605E+00
        -11   -1    0    0    0    0  0.00000000000E+00  0.00000000000E+00  0.45593999997E+02  0.45594000000E+02  0.51100000000E-03 0. -1.
         11   -1    0    0    0    0 -0.00000000000E+00 -0.00000000000E+00 -0.45593999997E+02  0.45594000000E+02  0.51100000000E-03 0.  1.
    9900012    2    1    2    0    0 -0.93490595722E+01 -0.29666504457E+02 -0.70153423986E+01  0.59301930462E+02  0.49999975260E+02 0.  0.
         12    1    1    2    0    0  0.93490595722E+01  0.29666504457E+02  0.70153423986E+01  0.31886069538E+02  0.00000000000E+00 0. -1.
         11    1    3    3    0    0  0.11210930821E+02 -0.12274403069E+02  0.79535579994E+01  0.18428375557E+02  0.51100000000E-03 0. -1.
        -11    1    3    3    0    0 -0.36310734983E+01  0.48164795366E+01 -0.11165578203E+02  0.12690677947E+02  0.51100000000E-03 0.  1.
         12    1    3    3    0    0 -0.16928916895E+02 -0.22208580925E+02 -0.38033221945E+01  0.28182876958E+02  0.00000000000E+00 0. -1.
</event>
<event>
 7    1  0.6230310E-012  0.5930199E+02  0.7816164E-02  0.1266605E+00
        -11   -1    0    0    0    0  0.00000000000E+00  0.00000000000E+00  0.45593999997E+02  0.45594000000E+02  0.51100000000E-03 0. -1.
         11   -1    0    0    0    0 -0.00000000000E+00 -0.00000000000E+00 -0.45593999997E+02  0.45594000000E+02  0.51100000000E-03 0.  1.
    9900012    2    1    2    0    0  0.34416233228E+01  0.20950614913E+01 -0.31630418388E+02  0.59301993333E+02  0.50000089922E+02 0.  0.
         12    1    1    2    0    0 -0.34416233228E+01 -0.20950614913E+01  0.31630418388E+02  0.31886006667E+02  0.00000000000E+00 0. -1.
         11    1    3    3    0    0 -0.26809700833E+01 -0.92745688586E+01 -0.95678012639E+01  0.13592205464E+02  0.51100000000E-03 0. -1.
        -11    1    3    3    0    0 -0.13365715970E+02  0.54610729568E+01  0.15585471370E+01  0.14522215763E+02  0.51100000000E-03 0.  1.
        -12    1    3    3    0    0  0.19488309376E+02  0.59085573931E+01 -0.23621164261E+02  0.31187572106E+02  0.00000000000E+00 0.  1.
</event>
<event>
 7    1  0.6230310E-012  0.5930187E+02  0.7816164E-02  0.1266605E+00
        -11   -1    0    0    0    0  0.00000000000E+00  0.00000000000E+00  0.45593999997E+02  0.45594000000E+02  0.51100000000E-03 0.  1.
         11   -1    0    0    0    0 -0.00000000000E+00 -0.00000000000E+00 -0.45593999997E+02  0.45594000000E+02  0.51100000000E-03 0. -1.
    9900012    2    1    2    0    0  0.30779629886E+02  0.35909076513E+01  0.75130039642E+01  0.59301867242E+02  0.49999859961E+02 0.  0.
         12    1    1    2    0    0 -0.30779629886E+02 -0.35909076513E+01 -0.75130039642E+01  0.31886132758E+02  0.00000000000E+00 0. -1.
         11    1    3    3    0    0  0.60347874936E+01  0.24025891719E+01 -0.73326394005E+01  0.97958509412E+01  0.51100000000E-03 0. -1.
        -11    1    3    3    0    0  0.10056577222E+02  0.19754295465E+02  0.12406214321E+01  0.22201488161E+02  0.51100000000E-03 0.  1.
         12    1    3    3    0    0  0.14688265171E+02 -0.18565976986E+02  0.13605021933E+02  0.27304528140E+02  0.00000000000E+00 0. -1.
</event>
<event>
 7    1  0.6230310E-012  0.5930195E+02  0.7816164E-02  0.1266605E+00
        -11   -1    0    0    0    0  0.00000000000E+00  0.00000000000E+00  0.45593999997E+02  0.45594000000E+02  0.51100000000E-03 0. -1.
         11   -1    0    0    0    0 -0.00000000000E+00 -0.00000000000E+00 -0.45593999997E+02  0.45594000000E+02  0.51100000000E-03 0.  1.
    9900012    2    1    2    0    0  0.24887489142E+02  0.12423326376E+02 -0.15588270417E+02  0.59301947742E+02  0.50000006773E+02 0.  0.
         12    1    1    2    0    0 -0.24887489142E+02 -0.12423326376E+02  0.15588270417E+02  0.31886052258E+02  0.00000000000E+00 0. -1.
         11    1    3    3    0    0 -0.36496990785E+01  0.10993529791E+02  0.77657095933E+01  0.13945760874E+02  0.51100000000E-03 0. -1.
        -11    1    3    3    0    0  0.55481921316E+01 -0.11173345522E+02 -0.54781438792E+01  0.13624835658E+02  0.51100000000E-03 0.  1.
        -12    1    3    3    0    0  0.22988996089E+02  0.12603142107E+02 -0.17875836131E+02  0.31731351209E+02  0.00000000000E+00 0.  1.
</event>
<event>
 7    1  0.6230310E-012  0.5930195E+02  0.7816164E-02  0.1266605E+00
        -11   -1    0    0    0    0  0.00000000000E+00  0.00000000000E+00  0.45593999997E+02  0.45594000000E+02  0.51100000000E-03 0.  1.
         11   -1    0    0    0    0 -0.00000000000E+00 -0.00000000000E+00 -0.45593999997E+02  0.45594000000E+02  0.51100000000E-03 0. -1.
    9900012    2    1    2    0    0  0.19764152344E+02  0.24943719368E+02 -0.19771255229E+01  0.59301954790E+02  0.50000019629E+02 0.  0.
         12    1    1    2    0    0 -0.19764152344E+02 -0.24943719368E+02  0.19771255229E+01  0.31886045210E+02  0.00000000000E+00 0. -1.
         11    1    3    3    0    0  0.25140375307E+01 -0.10690042531E+02 -0.85157637164E+01  0.13896604835E+02  0.51100000000E-03 0. -1.
        -11    1    3    3    0    0 -0.42626732781E+00  0.19155605625E+01 -0.52065902566E+01  0.55641404066E+01  0.51100000000E-03 0.  1.
        -12    1    3    3    0    0  0.17676382141E+02  0.33718201336E+02  0.11745228450E+02  0.39841209548E+02  0.00000000000E+00 0.  1.
</event>
<event>
 7    1  0.6230310E-012  0.5930193E+02  0.7816164E-02  0.1266605E+00
        -11   -1    0    0    0    0  0.00000000000E+00  0.00000000000E+00  0.45593999997E+02  0.45594000000E+02  0.51100000000E-03 0.  1.
         11   -1    0    0    0    0 -0.00000000000E+00 -0.00000000000E+00 -0.45593999997E+02  0.45594000000E+02  0.51100000000E-03 0. -1.
    9900012    2    1    2    0    0  0.16900403270E+02 -0.24670854789E+02 -0.11065575939E+02  0.59301926589E+02  0.49999968196E+02 0.  0.
         12    1    1    2    0    0 -0.16900403270E+02  0.24670854789E+02  0.11065575939E+02  0.31886073411E+02  0.00000000000E+00 0. -1.
         11    1    3    3    0    0 -0.13497646401E+02 -0.17741221340E+02 -0.71046899330E+01  0.23396880397E+02  0.51100000000E-03 0. -1.
        -11    1    3    3    0    0 -0.43112184037E+00 -0.22223085129E+01  0.31877232654E+01  0.39097443709E+01  0.51100000000E-03 0.  1.
        -12    1    3    3    0    0  0.30829171511E+02 -0.47073249362E+01 -0.71486092710E+01  0.31995301821E+02  0.00000000000E+00 0.  1.
</event>
<event>
 7    1  0.6230310E-012  0.5930196E+02  0.7816164E-02  0.1266605E+00
        -11   -1    0    0    0    0  0.00000000000E+00  0.00000000000E+00  0.45593999997E+02  0.45594000000E+02  0.51100000000E-03 0.  1.
         11   -1    0    0    0    0 -0.00000000000E+00 -0.00000000000E+00 -0.45593999997E+02  0.45594000000E+02  0.51100000000E-03 0. -1.
    9900012    2    1    2    0    0  0.10122051213E+02  0.12569421007E+02  0.27500427533E+02  0.59301956349E+02  0.50000022471E+02 0.  0.
         12    1    1    2    0    0 -0.10122051213E+02 -0.12569421007E+02 -0.27500427533E+02  0.31886043651E+02  0.00000000000E+00 0. -1.
         11    1    3    3    0    0  0.66617255481E+01  0.94598594484E+01  0.36275369867E+01  0.12125450627E+02  0.51100000000E-03 0. -1.
        -11    1    3    3    0    0  0.21719931220E+02  0.51032532101E+01  0.12550411439E+02  0.25599051410E+02  0.51100000000E-03 0.  1.
        -12    1    3    3    0    0 -0.18259605556E+02 -0.19936916514E+01  0.11322479107E+02  0.21577454312E+02  0.00000000000E+00 0.  1.
</event>
<event>
 7    1  0.6230310E-012  0.5930194E+02  0.7816164E-02  0.1266605E+00
        -11   -1    0    0    0    0  0.00000000000E+00  0.00000000000E+00  0.45593999997E+02  0.45594000000E+02  0.51100000000E-03 0.  1.
         11   -1    0    0    0    0 -0.00000000000E+00 -0.00000000000E+00 -0.45593999997E+02  0.45594000000E+02  0.51100000000E-03 0. -1.
    9900012    2    1    2    0    0 -0.23449756328E+02  0.20205617982E+02  0.76526369270E+01  0.59301938439E+02  0.49999989808E+02 0.  0.
         12    1    1    2    0    0  0.23449756328E+02 -0.20205617982E+02 -0.76526369270E+01  0.31886061561E+02  0.00000000000E+00 0. -1.
         11    1    3    3    0    0 -0.31429750117E+02  0.18098064128E+02 -0.10223284996E+02  0.37681357114E+02  0.51100000000E-03 0. -1.
        -11    1    3    3    0    0  0.21544347768E+01  0.20155922606E+01  0.14156235442E+00  0.29536827064E+01  0.51100000000E-03 0.  1.
        -12    1    3    3    0    0  0.58255590118E+01  0.91961593658E-01  0.17734359569E+02  0.18666898619E+02  0.00000000000E+00 0.  1.
</event>
<event>
 7    1  0.6230310E-012  0.5930194E+02  0.7816164E-02  0.1266605E+00
        -11   -1    0    0    0    0  0.00000000000E+00  0.00000000000E+00  0.45593999997E+02  0.45594000000E+02  0.51100000000E-03 0.  1.
         11   -1    0    0    0    0 -0.00000000000E+00 -0.00000000000E+00 -0.45593999997E+02  0.45594000000E+02  0.51100000000E-03 0. -1.
    9900012    2    1    2    0    0  0.18772130959E+02 -0.23550424984E+02  0.10474035532E+02  0.59301939755E+02  0.49999992207E+02 0.  0.
         12    1    1    2    0    0 -0.18772130959E+02  0.23550424984E+02 -0.10474035532E+02  0.31886060245E+02  0.00000000000E+00 0. -1.
         11    1    3    3    0    0  0.17783867810E+02  0.52721311911E+01 -0.56463229970E+01  0.19389231166E+02  0.51100000000E-03 0. -1.
        -11    1    3    3    0    0 -0.68566359138E+00 -0.50055430697E+01 -0.56656763840E+01  0.75911451793E+01  0.51100000000E-03 0.  1.
        -12    1    3    3    0    0  0.16739267405E+01 -0.23817013105E+02  0.21786034913E+02  0.32321563409E+02  0.00000000000E+00 0.  1.
</event>
<event>
 7    1  0.6230310E-012  0.5930187E+02  0.7816164E-02  0.1266605E+00
        -11   -1    0    0    0    0  0.00000000000E+00  0.00000000000E+00  0.45593999997E+02  0.45594000000E+02  0.51100000000E-03 0.  1.
         11   -1    0    0    0    0 -0.00000000000E+00 -0.00000000000E+00 -0.45593999997E+02  0.45594000000E+02  0.51100000000E-03 0. -1.
    9900012    2    1    2    0    0 -0.78939766014E+01  0.24723262449E+02  0.18524874087E+02  0.59301866138E+02  0.49999857948E+02 0.  0.
         12    1    1    2    0    0  0.78939766014E+01 -0.24723262449E+02 -0.18524874087E+02  0.31886133862E+02  0.00000000000E+00 0. -1.
         11    1    3    3    0    0 -0.22799003083E+01 -0.11850479375E+02 -0.50671157215E+01  0.13088447915E+02  0.51100000000E-03 0. -1.
        -11    1    3    3    0    0 -0.93345257522E+01  0.14292200081E+02  0.87332435247E+01  0.19174720256E+02  0.51100000000E-03 0.  1.
        -12    1    3    3    0    0  0.37204494591E+01  0.22281541743E+02  0.14858746284E+02  0.27038697967E+02  0.00000000000E+00 0.  1.
</event>
<event>
 7    1  0.6230310E-012  0.5930198E+02  0.7816164E-02  0.1266605E+00
        -11   -1    0    0    0    0  0.00000000000E+00  0.00000000000E+00  0.45593999997E+02  0.45594000000E+02  0.51100000000E-03 0.  1.
         11   -1    0    0    0    0 -0.00000000000E+00 -0.00000000000E+00 -0.45593999997E+02  0.45594000000E+02  0.51100000000E-03 0. -1.
    9900012    2    1    2    0    0 -0.10441190558E+02  0.26979375483E+02  0.13409442244E+02  0.59301979505E+02  0.50000064701E+02 0.  0.
         12    1    1    2    0    0  0.10441190558E+02 -0.26979375483E+02 -0.13409442244E+02  0.31886020495E+02  0.00000000000E+00 0. -1.
         11    1    3    3    0    0 -0.84120436509E+01  0.21552185510E+02  0.13417371743E+02  0.26744813393E+02  0.51100000000E-03 0.  1.
        -11    1    3    3    0    0  0.56779128312E+01  0.13218597807E+02  0.10156148773E+02  0.17610149922E+02  0.51100000000E-03 0. -1.
         12    1    3    3    0    0 -0.77070597387E+01 -0.77914078350E+01 -0.10164078272E+02  0.14947016190E+02  0.00000000000E+00 0. -1.
</event>
<event>
 7    1  0.6230310E-012  0.5930200E+02  0.7816164E-02  0.1266605E+00
        -11   -1    0    0    0    0  0.00000000000E+00  0.00000000000E+00  0.45593999997E+02  0.45594000000E+02  0.51100000000E-03 0.  1.
         11   -1    0    0    0    0 -0.00000000000E+00 -0.00000000000E+00 -0.45593999997E+02  0.45594000000E+02  0.51100000000E-03 0. -1.
    9900012    2    1    2    0    0 -0.58930482147E+01 -0.15083015709E+01  0.31300380440E+02  0.59302002970E+02  0.50000107496E+02 0.  0.
         12    1    1    2    0    0  0.58930482147E+01  0.15083015709E+01 -0.31300380440E+02  0.31885997030E+02  0.00000000000E+00 0. -1.
         11    1    3    3    0    0 -0.73554231922E+01  0.49639764918E+00  0.78033101151E+01  0.10735003958E+02  0.51100000000E-03 0.  1.
        -11    1    3    3    0    0  0.98362591873E+01  0.13815543139E+02  0.25426527234E+02  0.30563532428E+02  0.51100000000E-03 0. -1.
        -12    1    3    3    0    0 -0.83738842098E+01 -0.15820242359E+02 -0.19294569090E+01  0.18003466584E+02  0.00000000000E+00 0.  1.
</event>
<event>
 7    1  0.6230310E-012  0.5930195E+02  0.7816164E-02  0.1266605E+00
        -11   -1    0    0    0    0  0.00000000000E+00  0.00000000000E+00  0.45593999997E+02  0.45594000000E+02  0.51100000000E-03 0.  1.
         11   -1    0    0    0    0 -0.00000000000E+00 -0.00000000000E+00 -0.45593999997E+02  0.45594000000E+02  0.51100000000E-03 0. -1.
    9900012    2    1    2    0    0  0.90448124089E+01 -0.20625384849E+02  0.22572212878E+02  0.59301954057E+02  0.50000018291E+02 0.  0.
         12    1    1    2    0    0 -0.90448124089E+01  0.20625384849E+02 -0.22572212878E+02  0.31886045943E+02  0.00000000000E+00 0. -1.
         11    1    3    3    0    0 -0.30683304114E+01 -0.56116420944E+01 -0.42171642136E+00  0.64096040057E+01  0.51100000000E-03 0. -1.
        -11    1    3    3    0    0 -0.17089985802E+01 -0.67623633227E+01  0.33138613068E+02  0.33864700060E+02  0.51100000000E-03 0.  1.
         12    1    3    3    0    0  0.13822141400E+02 -0.82513794317E+01 -0.10144683769E+02  0.19027649991E+02  0.00000000000E+00 0. -1.
</event>
<event>
 7    1  0.6230310E-012  0.5930195E+02  0.7816164E-02  0.1266605E+00
        -11   -1    0    0    0    0  0.00000000000E+00  0.00000000000E+00  0.45593999997E+02  0.45594000000E+02  0.51100000000E-03 0.  1.
         11   -1    0    0    0    0 -0.00000000000E+00 -0.00000000000E+00 -0.45593999997E+02  0.45594000000E+02  0.51100000000E-03 0. -1.
    9900012    2    1    2    0    0  0.22650102509E+02 -0.27632126177E+01  0.22272354351E+02  0.59301948880E+02  0.50000008850E+02 0.  0.
         12    1    1    2    0    0 -0.22650102509E+02  0.27632126177E+01 -0.22272354351E+02  0.31886051120E+02  0.00000000000E+00 0. -1.
         11    1    3    3    0    0 -0.29044367810E+01  0.85023937341E+01 -0.52771026729E+01  0.10419897557E+02  0.51100000000E-03 0. -1.
        -11    1    3    3    0    0  0.12556793405E+02 -0.86774658480E+01 -0.30236992220E+01  0.15560020289E+02  0.51100000000E-03 0.  1.
         12    1    3    3    0    0  0.12997745885E+02 -0.25881405038E+01  0.30573156246E+02  0.33322031034E+02  0.00000000000E+00 0. -1.
</event>
<event>
 7    1  0.6230310E-012  0.5930199E+02  0.7816164E-02  0.1266605E+00
        -11   -1    0    0    0    0  0.00000000000E+00  0.00000000000E+00  0.45593999997E+02  0.45594000000E+02  0.51100000000E-03 0.  1.
         11   -1    0    0    0    0 -0.00000000000E+00 -0.00000000000E+00 -0.45593999997E+02  0.45594000000E+02  0.51100000000E-03 0. -1.
    9900012    2    1    2    0    0  0.20271058905E+02  0.87770037211E+01  0.22994908739E+02  0.59301992860E+02  0.50000089057E+02 0.  0.
         12    1    1    2    0    0 -0.20271058905E+02 -0.87770037211E+01 -0.22994908739E+02  0.31886007140E+02  0.00000000000E+00 0. -1.
         11    1    3    3    0    0 -0.38013218655E+01  0.12280463309E+02  0.99047141484E+00  0.12893442554E+02  0.51100000000E-03 0. -1.
        -11    1    3    3    0    0  0.39881156147E+01  0.11799632910E+02  0.16314183212E+02  0.20525325262E+02  0.51100000000E-03 0.  1.
        -12    1    3    3    0    0  0.20084265156E+02 -0.15303092497E+02  0.56902541119E+01  0.25883225044E+02  0.00000000000E+00 0.  1.
</event>
<event>
 7    1  0.6230310E-012  0.5930190E+02  0.7816164E-02  0.1266605E+00
        -11   -1    0    0    0    0  0.00000000000E+00  0.00000000000E+00  0.45593999997E+02  0.45594000000E+02  0.51100000000E-03 0.  1.
         11   -1    0    0    0    0 -0.00000000000E+00 -0.00000000000E+00 -0.45593999997E+02  0.45594000000E+02  0.51100000000E-03 0. -1.
    9900012    2    1    2    0    0 -0.23248254807E+02  0.19720294781E+02 -0.93462326842E+01  0.59301898902E+02  0.49999917702E+02 0.  0.
         12    1    1    2    0    0  0.23248254807E+02 -0.19720294781E+02  0.93462326842E+01  0.31886101098E+02  0.00000000000E+00 0. -1.
         11    1    3    3    0    0 -0.19578395400E+02  0.19605571424E+01 -0.20724849107E+02  0.28577556255E+02  0.51100000000E-03 0. -1.
        -11    1    3    3    0    0 -0.19290431277E+01 -0.51789712786E+01  0.19110535024E+01  0.58476556536E+01  0.51100000000E-03 0.  1.
         12    1    3    3    0    0 -0.17408162796E+01  0.22938708918E+02  0.94675629206E+01  0.24876686994E+02  0.00000000000E+00 0. -1.
</event>
<event>
 7    1  0.6230310E-012  0.5930194E+02  0.7816164E-02  0.1266605E+00
        -11   -1    0    0    0    0  0.00000000000E+00  0.00000000000E+00  0.45593999997E+02  0.45594000000E+02  0.51100000000E-03 0. -1.
         11   -1    0    0    0    0 -0.00000000000E+00 -0.00000000000E+00 -0.45593999997E+02  0.45594000000E+02  0.51100000000E-03 0.  1.
    9900012    2    1    2    0    0  0.19905113713E+02  0.52597726793E+01 -0.24348353378E+02  0.59301936072E+02  0.49999985491E+02 0.  0.
         12    1    1    2    0    0 -0.19905113713E+02 -0.52597726793E+01  0.24348353378E+02  0.31886063928E+02  0.00000000000E+00 0. -1.
         11    1    3    3    0    0 -0.19760530029E+01 -0.21796233278E+01  0.54010198453E+01  0.61503299873E+01  0.51100000000E-03 0. -1.
        -11    1    3    3    0    0  0.70598770148E+01 -0.47402237860E+01  0.74445216841E+01  0.11301879860E+02  0.51100000000E-03 0.  1.
         12    1    3    3    0    0  0.14821289701E+02  0.12179619793E+02 -0.37193894908E+02  0.41849726225E+02  0.00000000000E+00 0. -1.
</event>
<event>
 7    1  0.6230310E-012  0.5930194E+02  0.7816164E-02  0.1266605E+00
        -11   -1    0    0    0    0  0.00000000000E+00  0.00000000000E+00  0.45593999997E+02  0.45594000000E+02  0.51100000000E-03 0.  1.
         11   -1    0    0    0    0 -0.00000000000E+00 -0.00000000000E+00 -0.45593999997E+02  0.45594000000E+02  0.51100000000E-03 0. -1.
    9900012    2    1    2    0    0  0.74168805220E+01 -0.24997338333E+02  0.18353299816E+02  0.59301942630E+02  0.49999997452E+02 0.  0.
         12    1    1    2    0    0 -0.74168805220E+01  0.24997338333E+02 -0.18353299816E+02  0.31886057370E+02  0.00000000000E+00 0. -1.
         11    1    3    3    0    0 -0.31906106403E+01  0.37385548009E+01 -0.67032099010E+01  0.83120281217E+01  0.51100000000E-03 0. -1.
        -11    1    3    3    0    0 -0.20276378530E+01 -0.26318937467E+02  0.27251269371E+02  0.37939813748E+02  0.51100000000E-03 0.  1.
         12    1    3    3    0    0  0.12635129015E+02 -0.24169556675E+01 -0.21947596536E+01  0.13050100761E+02  0.00000000000E+00 0. -1.
</event>
<event>
 7    1  0.6230310E-012  0.5930196E+02  0.7816164E-02  0.1266605E+00
        -11   -1    0    0    0    0  0.00000000000E+00  0.00000000000E+00  0.45593999997E+02  0.45594000000E+02  0.51100000000E-03 0.  1.
         11   -1    0    0    0    0 -0.00000000000E+00 -0.00000000000E+00 -0.45593999997E+02  0.45594000000E+02  0.51100000000E-03 0. -1.
    9900012    2    1    2    0    0  0.19592318304E+02 -0.67573456470E+01  0.24232187431E+02  0.59301959725E+02  0.50000028628E+02 0.  0.
         12    1    1    2    0    0 -0.19592318304E+02  0.67573456470E+01 -0.24232187431E+02  0.31886040275E+02  0.00000000000E+00 0. -1.
         11    1    3    3    0    0  0.39100318342E+01 -0.16516066563E+02 -0.78460763341E+00  0.16990715496E+02  0.51100000000E-03 0. -1.
        -11    1    3    3    0    0  0.21800579501E+02 -0.90670873002E+00  0.15554039406E+02  0.26795811789E+02  0.51100000000E-03 0.  1.
        -12    1    3    3    0    0 -0.61182930315E+01  0.10665429646E+02  0.94627556585E+01  0.15515432440E+02  0.00000000000E+00 0.  1.
</event>
<event>
 7    1  0.6230310E-012  0.5930194E+02  0.7816164E-02  0.1266605E+00
        -11   -1    0    0    0    0  0.00000000000E+00  0.00000000000E+00  0.45593999997E+02  0.45594000000E+02  0.51100000000E-03 0.  1.
         11   -1    0    0    0    0 -0.00000000000E+00 -0.00000000000E+00 -0.45593999997E+02  0.45594000000E+02  0.51100000000E-03 0. -1.
    9900012    2    1    2    0    0 -0.14459782425E+02 -0.11603318267E+02  0.25942215680E+02  0.59301939457E+02  0.49999991664E+02 0.  0.
         12    1    1    2    0    0  0.14459782425E+02  0.11603318267E+02 -0.25942215680E+02  0.31886060543E+02  0.00000000000E+00 0. -1.
         11    1    3    3    0    0 -0.39182441019E+01 -0.19856455695E+01  0.12221519096E+01  0.45595044381E+01  0.51100000000E-03 0. -1.
        -11    1    3    3    0    0 -0.76765874559E+01 -0.17509394738E+02  0.35952144738E+02  0.40719351795E+02  0.51100000000E-03 0.  1.
        -12    1    3    3    0    0 -0.28649508669E+01  0.78917220406E+01 -0.11232080968E+02  0.14023083224E+02  0.00000000000E+00 0.  1.
</event>
<event>
 7    1  0.6230310E-012  0.5930194E+02  0.7816164E-02  0.1266605E+00
        -11   -1    0    0    0    0  0.00000000000E+00  0.00000000000E+00  0.45593999997E+02  0.45594000000E+02  0.51100000000E-03 0.  1.
         11   -1    0    0    0    0 -0.00000000000E+00 -0.00000000000E+00 -0.45593999997E+02  0.45594000000E+02  0.51100000000E-03 0. -1.
    9900012    2    1    2    0    0  0.67842698777E+01  0.28341213085E+02 -0.12941015179E+02  0.59301944259E+02  0.50000000421E+02 0.  0.
         12    1    1    2    0    0 -0.67842698777E+01 -0.28341213085E+02  0.12941015179E+02  0.31886055741E+02  0.00000000000E+00 0. -1.
         11    1    3    3    0    0 -0.92886357381E+01  0.12325481441E+02 -0.33243429239E+01  0.15787574316E+02  0.51100000000E-03 0. -1.
        -11    1    3    3    0    0  0.64971284262E+01  0.26901101213E+02 -0.86040528965E+01  0.28981229283E+02  0.51100000000E-03 0.  1.
        -12    1    3    3    0    0  0.95757771896E+01 -0.10885369570E+02 -0.10126193584E+01  0.14533140660E+02  0.00000000000E+00 0.  1.
</event>
<event>
 7    1  0.6230310E-012  0.5930209E+02  0.7816164E-02  0.1266604E+00
        -11   -1    0    0    0    0  0.00000000000E+00  0.00000000000E+00  0.45593999997E+02  0.45594000000E+02  0.51100000000E-03 0.  1.
         11   -1    0    0    0    0 -0.00000000000E+00 -0.00000000000E+00 -0.45593999997E+02  0.45594000000E+02  0.51100000000E-03 0. -1.
    9900012    2    1    2    0    0 -0.27797485470E+02 -0.14167441271E+02 -0.65798879080E+01  0.59302085939E+02  0.50000258812E+02 0.  0.
         12    1    1    2    0    0  0.27797485470E+02  0.14167441271E+02  0.65798879080E+01  0.31885914061E+02  0.00000000000E+00 0. -1.
         11    1    3    3    0    0 -0.44769489787E+01 -0.81530829574E+01 -0.17276183186E+02  0.19620966836E+02  0.51100000000E-03 0. -1.
        -11    1    3    3    0    0  0.46726210663E+01  0.49330722174E+01 -0.19536234399E+01  0.70700236165E+01  0.51100000000E-03 0.  1.
        -12    1    3    3    0    0 -0.27993157557E+02 -0.10947430531E+02  0.12649918718E+02  0.32611095486E+02  0.00000000000E+00 0.  1.
</event>
<event>
 7    1  0.6230310E-012  0.5930182E+02  0.7816164E-02  0.1266605E+00
        -11   -1    0    0    0    0  0.00000000000E+00  0.00000000000E+00  0.45593999997E+02  0.45594000000E+02  0.51100000000E-03 0.  1.
         11   -1    0    0    0    0 -0.00000000000E+00 -0.00000000000E+00 -0.45593999997E+02  0.45594000000E+02  0.51100000000E-03 0. -1.
    9900012    2    1    2    0    0  0.27486014969E+02 -0.16112552307E+02  0.12779896409E+01  0.59301817754E+02  0.49999769706E+02 0.  0.
         12    1    1    2    0    0 -0.27486014969E+02  0.16112552307E+02 -0.12779896409E+01  0.31886182246E+02  0.00000000000E+00 0. -1.
         11    1    3    3    0    0  0.19826422432E+02 -0.18376758101E+02  0.11899715515E+02  0.29536341926E+02  0.51100000000E-03 0. -1.
        -11    1    3    3    0    0  0.11756607177E+02  0.93723736720E+01  0.15197841038E+01  0.15111880907E+02  0.51100000000E-03 0.  1.
         12    1    3    3    0    0 -0.40970146409E+01 -0.71081678778E+01 -0.12141509978E+02  0.14653594921E+02  0.00000000000E+00 0. -1.
</event>
<event>
 7    1  0.6230310E-012  0.5930194E+02  0.7816164E-02  0.1266605E+00
        -11   -1    0    0    0    0  0.00000000000E+00  0.00000000000E+00  0.45593999997E+02  0.45594000000E+02  0.51100000000E-03 0.  1.
         11   -1    0    0    0    0 -0.00000000000E+00 -0.00000000000E+00 -0.45593999997E+02  0.45594000000E+02  0.51100000000E-03 0. -1.
    9900012    2    1    2    0    0  0.58007335935E+01 -0.31258783815E+02  0.24414181131E+01  0.59301943514E+02  0.49999999063E+02 0.  0.
         12    1    1    2    0    0 -0.58007335935E+01  0.31258783815E+02 -0.24414181131E+01  0.31886056486E+02  0.00000000000E+00 0. -1.
         11    1    3    3    0    0 -0.43336593734E+01  0.53334972795E+01 -0.14093971472E+01  0.70152118553E+01  0.51100000000E-03 0. -1.
        -11    1    3    3    0    0 -0.13388990668E+02 -0.11338283302E+02  0.27303536918E+01  0.17756029142E+02  0.51100000000E-03 0.  1.
        -12    1    3    3    0    0  0.23523383635E+02 -0.25253997793E+02  0.11204615685E+01  0.34530702517E+02  0.00000000000E+00 0.  1.
</event>
<event>
 7    1  0.6230310E-012  0.5930197E+02  0.7816164E-02  0.1266605E+00
        -11   -1    0    0    0    0  0.00000000000E+00  0.00000000000E+00  0.45593999997E+02  0.45594000000E+02  0.51100000000E-03 0.  1.
         11   -1    0    0    0    0 -0.00000000000E+00 -0.00000000000E+00 -0.45593999997E+02  0.45594000000E+02  0.51100000000E-03 0. -1.
    9900012    2    1    2    0    0  0.54455621239E+00 -0.11521035182E+02  0.29726886840E+02  0.59301974937E+02  0.50000056371E+02 0.  0.
         12    1    1    2    0    0 -0.54455621239E+00  0.11521035182E+02 -0.29726886840E+02  0.31886025063E+02  0.00000000000E+00 0. -1.
         11    1    3    3    0    0 -0.10217741206E+02  0.89376636814E+01  0.11212169742E+02  0.17606726500E+02  0.51100000000E-03 0. -1.
        -11    1    3    3    0    0 -0.97453797505E-01  0.31181536078E+01 -0.55061664603E+01  0.63285265674E+01  0.51100000000E-03 0.  1.
        -12    1    3    3    0    0  0.10859751216E+02 -0.23576852471E+02  0.24020883558E+02  0.35366721870E+02  0.00000000000E+00 0.  1.
</event>
<event>
 7    1  0.6230310E-012  0.5930212E+02  0.7816164E-02  0.1266604E+00
        -11   -1    0    0    0    0  0.00000000000E+00  0.00000000000E+00  0.45593999997E+02  0.45594000000E+02  0.51100000000E-03 0. -1.
         11   -1    0    0    0    0 -0.00000000000E+00 -0.00000000000E+00 -0.45593999997E+02  0.45594000000E+02  0.51100000000E-03 0.  1.
    9900012    2    1    2    0    0  0.64112838756E+01  0.26108760032E+02 -0.17144599640E+02  0.59302122120E+02  0.50000324796E+02 0.  0.
         12    1    1    2    0    0 -0.64112838756E+01 -0.26108760032E+02  0.17144599640E+02  0.31885877880E+02  0.00000000000E+00 0. -1.
         11    1    3    3    0    0  0.19890481499E+01  0.11087840801E+02 -0.54045899022E+01  0.12494243412E+02  0.51100000000E-03 0. -1.
        -11    1    3    3    0    0 -0.13094010352E+02  0.17888412381E+02  0.46471345337E+01  0.22650480442E+02  0.51100000000E-03 0.  1.
         12    1    3    3    0    0  0.17516246077E+02 -0.28674931497E+01 -0.16387144272E+02  0.24157398266E+02  0.00000000000E+00 0. -1.
</event>
<event>
 7    1  0.6230310E-012  0.5930229E+02  0.7816164E-02  0.1266604E+00
        -11   -1    0    0    0    0  0.00000000000E+00  0.00000000000E+00  0.45593999997E+02  0.45594000000E+02  0.51100000000E-03 0.  1.
         11   -1    0    0    0    0 -0.00000000000E+00 -0.00000000000E+00 -0.45593999997E+02  0.45594000000E+02  0.51100000000E-03 0. -1.
    9900012    2    1    2    0    0  0.11478793858E+02  0.11481831813E+02  0.27442723155E+02  0.59302294356E+02  0.50000638911E+02 0.  0.
         12    1    1    2    0    0 -0.11478793858E+02 -0.11481831813E+02 -0.27442723155E+02  0.31885705644E+02  0.00000000000E+00 0. -1.
         11    1    3    3    0    0  0.12684455057E+02  0.33722679455E+01  0.42546154495E+01  0.13797439765E+02  0.51100000000E-03 0. -1.
        -11    1    3    3    0    0  0.13276953538E+01 -0.15414306876E+02  0.84195704032E+01  0.17613994364E+02  0.51100000000E-03 0.  1.
        -12    1    3    3    0    0 -0.25333565524E+01  0.23523870744E+02  0.14768537303E+02  0.27890860228E+02  0.00000000000E+00 0.  1.
</event>
<event>
 7    1  0.6230310E-012  0.5930190E+02  0.7816164E-02  0.1266605E+00
        -11   -1    0    0    0    0  0.00000000000E+00  0.00000000000E+00  0.45593999997E+02  0.45594000000E+02  0.51100000000E-03 0. -1.
         11   -1    0    0    0    0 -0.00000000000E+00 -0.00000000000E+00 -0.45593999997E+02  0.45594000000E+02  0.51100000000E-03 0.  1.
    9900012    2    1    2    0    0 -0.14505026028E+02 -0.27634658801E+02 -0.65309363346E+01  0.59301901516E+02  0.49999922469E+02 0.  0.
         12    1    1    2    0    0  0.14505026028E+02  0.27634658801E+02  0.65309363346E+01  0.31886098484E+02  0.00000000000E+00 0. -1.
         11    1    3    3    0    0  0.16637793606E+02 -0.50287399827E+01 -0.29647469321E+00  0.17383679110E+02  0.51100000000E-03 0. -1.
        -11    1    3    3    0    0 -0.18611183725E+00 -0.17566995184E-01 -0.34936537146E+01  0.34986515622E+01  0.51100000000E-03 0.  1.
         12    1    3    3    0    0 -0.30956707797E+02 -0.22588351823E+02 -0.27408079268E+01  0.38419570844E+02  0.00000000000E+00 0. -1.
</event>
<event>
 7    1  0.6230310E-012  0.5930194E+02  0.7816164E-02  0.1266605E+00
        -11   -1    0    0    0    0  0.00000000000E+00  0.00000000000E+00  0.45593999997E+02  0.45594000000E+02  0.51100000000E-03 0. -1.
         11   -1    0    0    0    0 -0.00000000000E+00 -0.00000000000E+00 -0.45593999997E+02  0.45594000000E+02  0.51100000000E-03 0.  1.
    9900012    2    1    2    0    0  0.25459413522E+02  0.19012924270E+02 -0.26547455134E+01  0.59301941919E+02  0.49999996155E+02 0.  0.
         12    1    1    2    0    0 -0.25459413522E+02 -0.19012924270E+02  0.26547455134E+01  0.31886058081E+02  0.00000000000E+00 0. -1.
         11    1    3    3    0    0 -0.82358857848E+01 -0.34866470372E+01  0.10210406652E+02  0.13573464056E+02  0.51100000000E-03 0. -1.
        -11    1    3    3    0    0  0.20229869059E+02  0.34047667666E+01 -0.62287510169E+01  0.21439155263E+02  0.51100000000E-03 0.  1.
        -12    1    3    3    0    0  0.13465430248E+02  0.19094804541E+02 -0.66364011482E+01  0.24289322601E+02  0.00000000000E+00 0.  1.
</event>
<event>
 7    1  0.6230310E-012  0.5930194E+02  0.7816164E-02  0.1266605E+00
        -11   -1    0    0    0    0  0.00000000000E+00  0.00000000000E+00  0.45593999997E+02  0.45594000000E+02  0.51100000000E-03 0. -1.
         11   -1    0    0    0    0 -0.00000000000E+00 -0.00000000000E+00 -0.45593999997E+02  0.45594000000E+02  0.51100000000E-03 0.  1.
    9900012    2    1    2    0    0  0.15432209797E+02 -0.25870480348E+02 -0.10453989375E+02  0.59301941189E+02  0.49999994822E+02 0.  0.
         12    1    1    2    0    0 -0.15432209797E+02  0.25870480348E+02  0.10453989375E+02  0.31886058811E+02  0.00000000000E+00 0. -1.
         11    1    3    3    0    0  0.88774089176E+01 -0.16716595915E+02  0.10298875023E+02  0.21548081007E+02  0.51100000000E-03 0. -1.
        -11    1    3    3    0    0  0.12808406802E+02 -0.16707383278E+02 -0.17639221320E+02  0.27465142815E+02  0.51100000000E-03 0.  1.
        -12    1    3    3    0    0 -0.62536059234E+01  0.75534988444E+01 -0.31136430786E+01  0.10288717367E+02  0.00000000000E+00 0.  1.
</event>
<event>
 7    1  0.6230310E-012  0.5930193E+02  0.7816164E-02  0.1266605E+00
        -11   -1    0    0    0    0  0.00000000000E+00  0.00000000000E+00  0.45593999997E+02  0.45594000000E+02  0.51100000000E-03 0. -1.
         11   -1    0    0    0    0 -0.00000000000E+00 -0.00000000000E+00 -0.45593999997E+02  0.45594000000E+02  0.51100000000E-03 0.  1.
    9900012    2    1    2    0    0  0.24072025140E+02 -0.18297111047E+02  0.10122974819E+02  0.59301932726E+02  0.49999979389E+02 0.  0.
         12    1    1    2    0    0 -0.24072025140E+02  0.18297111047E+02 -0.10122974819E+02  0.31886067274E+02  0.00000000000E+00 0. -1.
         11    1    3    3    0    0  0.12705172093E+02  0.41629788022E+00 -0.15831507524E+02  0.20303480799E+02  0.51100000000E-03 0. -1.
        -11    1    3    3    0    0  0.62395872060E+01  0.23031024579E+01  0.25382446650E+01  0.71189476522E+01  0.51100000000E-03 0.  1.
        -12    1    3    3    0    0  0.51272658411E+01 -0.21016511385E+02  0.23416237678E+02  0.31879504275E+02  0.00000000000E+00 0.  1.
</event>
<event>
 7    1  0.6230310E-012  0.5930193E+02  0.7816164E-02  0.1266605E+00
        -11   -1    0    0    0    0  0.00000000000E+00  0.00000000000E+00  0.45593999997E+02  0.45594000000E+02  0.51100000000E-03 0.  1.
         11   -1    0    0    0    0 -0.00000000000E+00 -0.00000000000E+00 -0.45593999997E+02  0.45594000000E+02  0.51100000000E-03 0. -1.
    9900012    2    1    2    0    0 -0.23950006172E+02 -0.64707621433E+01  0.20031171535E+02  0.59301931076E+02  0.49999976380E+02 0.  0.
         12    1    1    2    0    0  0.23950006172E+02  0.64707621433E+01 -0.20031171535E+02  0.31886068924E+02  0.00000000000E+00 0. -1.
         11    1    3    3    0    0 -0.65241803068E+01 -0.18598209015E+02  0.11247457434E+02  0.22692809571E+02  0.51100000000E-03 0. -1.
        -11    1    3    3    0    0 -0.13326658554E+02 -0.76335402051E+01  0.37980355956E+01  0.15820740783E+02  0.51100000000E-03 0.  1.
        -12    1    3    3    0    0 -0.40991673106E+01  0.19760987077E+02  0.49856785057E+01  0.20788380722E+02  0.00000000000E+00 0.  1.
</event>
<event>
 7    1  0.6230310E-012  0.5930197E+02  0.7816164E-02  0.1266605E+00
        -11   -1    0    0    0    0  0.00000000000E+00  0.00000000000E+00  0.45593999997E+02  0.45594000000E+02  0.51100000000E-03 0.  1.
         11   -1    0    0    0    0 -0.00000000000E+00 -0.00000000000E+00 -0.45593999997E+02  0.45594000000E+02  0.51100000000E-03 0. -1.
    9900012    2    1    2    0    0 -0.55154947179E+01  0.20226734282E+02  0.24024523071E+02  0.59301965903E+02  0.50000039894E+02 0.  0.
         12    1    1    2    0    0  0.55154947179E+01 -0.20226734282E+02 -0.24024523071E+02  0.31886034097E+02  0.00000000000E+00 0. -1.
         11    1    3    3    0    0 -0.50661842850E+01  0.85172078016E+01  0.62269977366E+01  0.11704040030E+02  0.51100000000E-03 0. -1.
        -11    1    3    3    0    0 -0.21425168284E+01  0.25658725177E+02  0.20953209502E+02  0.33196348364E+02  0.51100000000E-03 0.  1.
         12    1    3    3    0    0  0.16932063955E+01 -0.13949198696E+02 -0.31556841678E+01  0.14401577508E+02  0.00000000000E+00 0. -1.
</event>
<event>
 7    1  0.6230310E-012  0.5930194E+02  0.7816164E-02  0.1266605E+00
        -11   -1    0    0    0    0  0.00000000000E+00  0.00000000000E+00  0.45593999997E+02  0.45594000000E+02  0.51100000000E-03 0.  1.
         11   -1    0    0    0    0 -0.00000000000E+00 -0.00000000000E+00 -0.45593999997E+02  0.45594000000E+02  0.51100000000E-03 0. -1.
    9900012    2    1    2    0    0 -0.25421561418E+02 -0.13829779582E+02  0.13386632753E+02  0.59301944667E+02  0.50000001166E+02 0.  0.
         12    1    1    2    0    0  0.25421561418E+02  0.13829779582E+02 -0.13386632753E+02  0.31886055333E+02  0.00000000000E+00 0. -1.
         11    1    3    3    0    0 -0.30023284917E+01  0.52766474645E+01 -0.13321187466E+02  0.14639365444E+02  0.51100000000E-03 0. -1.
        -11    1    3    3    0    0  0.34715714472E+01 -0.22516603812E+01  0.66383707231E+01  0.78223876728E+01  0.51100000000E-03 0.  1.
        -12    1    3    3    0    0 -0.25890804373E+02 -0.16854766665E+02  0.20069449496E+02  0.36840191551E+02  0.00000000000E+00 0.  1.
</event>
<event>
 7    1  0.6230310E-012  0.5930193E+02  0.7816164E-02  0.1266605E+00
        -11   -1    0    0    0    0  0.00000000000E+00  0.00000000000E+00  0.45593999997E+02  0.45594000000E+02  0.51100000000E-03 0.  1.
         11   -1    0    0    0    0 -0.00000000000E+00 -0.00000000000E+00 -0.45593999997E+02  0.45594000000E+02  0.51100000000E-03 0. -1.
    9900012    2    1    2    0    0 -0.51483286630E+01  0.16777861865E+02  0.26621789219E+02  0.59301927836E+02  0.49999970471E+02 0.  0.
         12    1    1    2    0    0  0.51483286630E+01 -0.16777861865E+02 -0.26621789219E+02  0.31886072164E+02  0.00000000000E+00 0. -1.
         11    1    3    3    0    0 -0.65355700213E+01 -0.89908726023E+01  0.92243145820E+01  0.14444287640E+02  0.51100000000E-03 0. -1.
        -11    1    3    3    0    0 -0.15186600134E+02  0.86003008681E+01  0.64973729542E+01  0.18622938925E+02  0.51100000000E-03 0.  1.
         12    1    3    3    0    0  0.16573841492E+02  0.17168433600E+02  0.10900101683E+02  0.26234701271E+02  0.00000000000E+00 0. -1.
</event>
<event>
 7    1  0.6230310E-012  0.5930192E+02  0.7816164E-02  0.1266605E+00
        -11   -1    0    0    0    0  0.00000000000E+00  0.00000000000E+00  0.45593999997E+02  0.45594000000E+02  0.51100000000E-03 0. -1.
         11   -1    0    0    0    0 -0.00000000000E+00 -0.00000000000E+00 -0.45593999997E+02  0.45594000000E+02  0.51100000000E-03 0.  1.
    9900012    2    1    2    0    0 -0.20928366012E+01 -0.30269084044E+02 -0.98043169838E+01  0.59301920821E+02  0.49999957676E+02 0.  0.
         12    1    1    2    0    0  0.20928366012E+01  0.30269084044E+02  0.98043169838E+01  0.31886079179E+02  0.00000000000E+00 0. -1.
         11    1    3    3    0    0  0.11625795277E+02 -0.26895221591E+02  0.79342347815E+01  0.30355627848E+02  0.51100000000E-03 0. -1.
        -11    1    3    3    0    0  0.78958133884E+00 -0.11050492495E+01 -0.13630441146E+02  0.13697937751E+02  0.51100000000E-03 0.  1.
        -12    1    3    3    0    0 -0.14508213217E+02 -0.22688132038E+01 -0.41081106196E+01  0.15248355222E+02  0.00000000000E+00 0.  1.
</event>
<event>
 7    1  0.6230310E-012  0.5930194E+02  0.7816164E-02  0.1266605E+00
        -11   -1    0    0    0    0  0.00000000000E+00  0.00000000000E+00  0.45593999997E+02  0.45594000000E+02  0.51100000000E-03 0.  1.
         11   -1    0    0    0    0 -0.00000000000E+00 -0.00000000000E+00 -0.45593999997E+02  0.45594000000E+02  0.51100000000E-03 0. -1.
    9900012    2    1    2    0    0 -0.23599326696E+01  0.16402386465E+02  0.27241760767E+02  0.59301935745E+02  0.49999984895E+02 0.  0.
         12    1    1    2    0    0  0.23599326696E+01 -0.16402386465E+02 -0.27241760767E+02  0.31886064255E+02  0.00000000000E+00 0. -1.
         11    1    3    3    0    0  0.50748362236E+01 -0.11651067181E+02 -0.50852590485E+01  0.13687994338E+02  0.51100000000E-03 0. -1.
        -11    1    3    3    0    0  0.30737255436E+01  0.18952664997E+01  0.17094318135E+01  0.39952448246E+01  0.51100000000E-03 0.  1.
         12    1    3    3    0    0 -0.10508494437E+02  0.26158187147E+02  0.30617588002E+02  0.41618696582E+02  0.00000000000E+00 0. -1.
</event>
<event>
 7    1  0.6230310E-012  0.5930193E+02  0.7816164E-02  0.1266605E+00
        -11   -1    0    0    0    0  0.00000000000E+00  0.00000000000E+00  0.45593999997E+02  0.45594000000E+02  0.51100000000E-03 0. -1.
         11   -1    0    0    0    0 -0.00000000000E+00 -0.00000000000E+00 -0.45593999997E+02  0.45594000000E+02  0.51100000000E-03 0.  1.
    9900012    2    1    2    0    0 -0.24767575303E+02 -0.20587336259E+01 -0.19976242789E+02  0.59301930212E+02  0.49999974804E+02 0.  0.
         12    1    1    2    0    0  0.24767575303E+02  0.20587336259E+01  0.19976242789E+02  0.31886069788E+02  0.00000000000E+00 0. -1.
         11    1    3    3    0    0  0.87853867112E+00 -0.89888181105E+01  0.48635686114E+01  0.10257922846E+02  0.51100000000E-03 0.  1.
        -11    1    3    3    0    0 -0.19844691152E+02  0.19798206733E+02 -0.18383342304E+02  0.33522052910E+02  0.51100000000E-03 0. -1.
         12    1    3    3    0    0 -0.58014228220E+01 -0.12868122248E+02 -0.64564690969E+01  0.15521954457E+02  0.00000000000E+00 0. -1.
</event>
<event>
 7    1  0.6230310E-012  0.5930192E+02  0.7816164E-02  0.1266605E+00
        -11   -1    0    0    0    0  0.00000000000E+00  0.00000000000E+00  0.45593999997E+02  0.45594000000E+02  0.51100000000E-03 0. -1.
         11   -1    0    0    0    0 -0.00000000000E+00 -0.00000000000E+00 -0.45593999997E+02  0.45594000000E+02  0.51100000000E-03 0.  1.
    9900012    2    1    2    0    0  0.12544870908E+02 -0.28383570282E+02 -0.73294664792E+01  0.59301922679E+02  0.49999961065E+02 0.  0.
         12    1    1    2    0    0 -0.12544870908E+02  0.28383570282E+02  0.73294664792E+01  0.31886077321E+02  0.00000000000E+00 0. -1.
         11    1    3    3    0    0  0.36731261719E+01 -0.34223482385E+02  0.89916673658E+01  0.35575113278E+02  0.51100000000E-03 0. -1.
        -11    1    3    3    0    0  0.59180522712E+01  0.41905640430E+01 -0.19969530737E+00  0.72542434588E+01  0.51100000000E-03 0.  1.
        -12    1    3    3    0    0  0.29536924645E+01  0.16493480601E+01 -0.16121438538E+02  0.16472565942E+02  0.00000000000E+00 0.  1.
</event>
<event>
 7    1  0.6230310E-012  0.5930192E+02  0.7816164E-02  0.1266605E+00
        -11   -1    0    0    0    0  0.00000000000E+00  0.00000000000E+00  0.45593999997E+02  0.45594000000E+02  0.51100000000E-03 0.  1.
         11   -1    0    0    0    0 -0.00000000000E+00 -0.00000000000E+00 -0.45593999997E+02  0.45594000000E+02  0.51100000000E-03 0. -1.
    9900012    2    1    2    0    0  0.18559309383E+02  0.19089202885E+01  0.25857878326E+02  0.59301924466E+02  0.49999964324E+02 0.  0.
         12    1    1    2    0    0 -0.18559309383E+02 -0.19089202885E+01 -0.25857878326E+02  0.31886075534E+02  0.00000000000E+00 0. -1.
         11    1    3    3    0    0  0.79602445212E+00 -0.82674512246E+00  0.51597928379E+01  0.52858892173E+01  0.51100000000E-03 0.  1.
        -11    1    3    3    0    0  0.20537916580E+02  0.18632122338E+02  0.24978264504E+02  0.37321249955E+02  0.51100000000E-03 0. -1.
         12    1    3    3    0    0 -0.27746316491E+01 -0.15896456927E+02 -0.42801790166E+01  0.16694785294E+02  0.00000000000E+00 0. -1.
</event>
<event>
 7    1  0.6230310E-012  0.5930193E+02  0.7816164E-02  0.1266605E+00
        -11   -1    0    0    0    0  0.00000000000E+00  0.00000000000E+00  0.45593999997E+02  0.45594000000E+02  0.51100000000E-03 0.  1.
         11   -1    0    0    0    0 -0.00000000000E+00 -0.00000000000E+00 -0.45593999997E+02  0.45594000000E+02  0.51100000000E-03 0. -1.
    9900012    2    1    2    0    0 -0.13538657190E+02 -0.32927446231E+00  0.28867239753E+02  0.59301934217E+02  0.49999982107E+02 0.  0.
         12    1    1    2    0    0  0.13538657190E+02  0.32927446231E+00 -0.28867239753E+02  0.31886065783E+02  0.00000000000E+00 0. -1.
         11    1    3    3    0    0 -0.73986780101E+00  0.95007369941E+01 -0.77757561093E+01  0.12299341085E+02  0.51100000000E-03 0. -1.
        -11    1    3    3    0    0  0.64551584619E+01 -0.20597383776E+01  0.28715844466E+01  0.73591840885E+01  0.51100000000E-03 0.  1.
         12    1    3    3    0    0 -0.19253947851E+02 -0.77702730788E+01  0.33771411416E+02  0.39643409043E+02  0.00000000000E+00 0. -1.
</event>
<event>
 7    1  0.6230310E-012  0.5930197E+02  0.7816164E-02  0.1266605E+00
        -11   -1    0    0    0    0  0.00000000000E+00  0.00000000000E+00  0.45593999997E+02  0.45594000000E+02  0.51100000000E-03 0.  1.
         11   -1    0    0    0    0 -0.00000000000E+00 -0.00000000000E+00 -0.45593999997E+02  0.45594000000E+02  0.51100000000E-03 0. -1.
    9900012    2    1    2    0    0  0.18934198723E+02 -0.13552391263E+02  0.21784121108E+02  0.59301966652E+02  0.50000041261E+02 0.  0.
         12    1    1    2    0    0 -0.18934198723E+02  0.13552391263E+02 -0.21784121108E+02  0.31886033348E+02  0.00000000000E+00 0. -1.
         11    1    3    3    0    0  0.16071508493E+02  0.11504365924E+02  0.20300640148E+01  0.19868693483E+02  0.51100000000E-03 0. -1.
        -11    1    3    3    0    0  0.63755770471E+01 -0.14028643271E+01  0.13060021876E+02  0.14600691170E+02  0.51100000000E-03 0.  1.
         12    1    3    3    0    0 -0.35128868177E+01 -0.23653892860E+02  0.66940352181E+01  0.24832581999E+02  0.00000000000E+00 0. -1.
</event>
<event>
 7    1  0.6230310E-012  0.5930194E+02  0.7816164E-02  0.1266605E+00
        -11   -1    0    0    0    0  0.00000000000E+00  0.00000000000E+00  0.45593999997E+02  0.45594000000E+02  0.51100000000E-03 0. -1.
         11   -1    0    0    0    0 -0.00000000000E+00 -0.00000000000E+00 -0.45593999997E+02  0.45594000000E+02  0.51100000000E-03 0.  1.
    9900012    2    1    2    0    0  0.14564884578E+02  0.26838081634E+02 -0.91816272074E+01  0.59301940872E+02  0.49999994244E+02 0.  0.
         12    1    1    2    0    0 -0.14564884578E+02 -0.26838081634E+02  0.91816272074E+01  0.31886059128E+02  0.00000000000E+00 0. -1.
         11    1    3    3    0    0  0.13145248825E+02  0.34577976024E+02 -0.94235099466E+01  0.38173767598E+02  0.51100000000E-03 0.  1.
        -11    1    3    3    0    0 -0.35716021716E+00  0.61446032633E+01  0.30223165723E+01  0.68569753104E+01  0.51100000000E-03 0. -1.
        -12    1    3    3    0    0  0.17767959702E+01 -0.13884497654E+02 -0.27804338330E+01  0.14271197964E+02  0.00000000000E+00 0.  1.
</event>
<event>
 7    1  0.6230310E-012  0.5930186E+02  0.7816164E-02  0.1266605E+00
        -11   -1    0    0    0    0  0.00000000000E+00  0.00000000000E+00  0.45593999997E+02  0.45594000000E+02  0.51100000000E-03 0. -1.
         11   -1    0    0    0    0 -0.00000000000E+00 -0.00000000000E+00 -0.45593999997E+02  0.45594000000E+02  0.51100000000E-03 0.  1.
    9900012    2    1    2    0    0  0.29619304340E+02 -0.80319750084E+01 -0.86550636012E+01  0.59301859781E+02  0.49999846354E+02 0.  0.
         12    1    1    2    0    0 -0.29619304340E+02  0.80319750084E+01  0.86550636012E+01  0.31886140219E+02  0.00000000000E+00 0. -1.
         11    1    3    3    0    0  0.15381840643E+02 -0.13479359234E+02  0.16320062514E+02  0.26165599318E+02  0.51100000000E-03 0. -1.
        -11    1    3    3    0    0 -0.21822114011E+01 -0.25101780522E+01 -0.23607047986E+01  0.40787213511E+01  0.51100000000E-03 0.  1.
        -12    1    3    3    0    0  0.16419675098E+02  0.79575622782E+01 -0.22614421317E+02  0.29057539112E+02  0.00000000000E+00 0.  1.
</event>
<event>
 7    1  0.6230310E-012  0.5930197E+02  0.7816164E-02  0.1266605E+00
        -11   -1    0    0    0    0  0.00000000000E+00  0.00000000000E+00  0.45593999997E+02  0.45594000000E+02  0.51100000000E-03 0. -1.
         11   -1    0    0    0    0 -0.00000000000E+00 -0.00000000000E+00 -0.45593999997E+02  0.45594000000E+02  0.51100000000E-03 0.  1.
    9900012    2    1    2    0    0  0.16731506001E+02  0.16005550013E+02 -0.21922545171E+02  0.59301969970E+02  0.50000047312E+02 0.  0.
         12    1    1    2    0    0 -0.16731506001E+02 -0.16005550013E+02  0.21922545171E+02  0.31886030030E+02  0.00000000000E+00 0. -1.
         11    1    3    3    0    0  0.70620644559E+01  0.77040357666E+01  0.25955012536E+00  0.10454295194E+02  0.51100000000E-03 0. -1.
        -11    1    3    3    0    0  0.20861673817E+02  0.24720959684E+01  0.24710299804E+01  0.21152462796E+02  0.51100000000E-03 0.  1.
         12    1    3    3    0    0 -0.11192232272E+02  0.58294182782E+01 -0.24653125277E+02  0.27695211980E+02  0.00000000000E+00 0. -1.
</event>
<event>
 7    1  0.6230310E-012  0.5930195E+02  0.7816164E-02  0.1266605E+00
        -11   -1    0    0    0    0  0.00000000000E+00  0.00000000000E+00  0.45593999997E+02  0.45594000000E+02  0.51100000000E-03 0.  1.
         11   -1    0    0    0    0 -0.00000000000E+00 -0.00000000000E+00 -0.45593999997E+02  0.45594000000E+02  0.51100000000E-03 0. -1.
    9900012    2    1    2    0    0 -0.15179346019E+02  0.23100470165E+02  0.15895792073E+02  0.59301945477E+02  0.50000002644E+02 0.  0.
         12    1    1    2    0    0  0.15179346019E+02 -0.23100470165E+02 -0.15895792073E+02  0.31886054523E+02  0.00000000000E+00 0. -1.
         11    1    3    3    0    0  0.58144941777E+01  0.93172381537E+01  0.90537559567E+01  0.14233403196E+02  0.51100000000E-03 0. -1.
        -11    1    3    3    0    0 -0.26194603536E+02  0.17343378713E+02  0.14956175903E+02  0.34794212701E+02  0.51100000000E-03 0.  1.
         12    1    3    3    0    0  0.52007633394E+01 -0.35601467020E+01 -0.81141397863E+01  0.10274329580E+02  0.00000000000E+00 0. -1.
</event>
<event>
 7    1  0.6230310E-012  0.5930198E+02  0.7816164E-02  0.1266605E+00
        -11   -1    0    0    0    0  0.00000000000E+00  0.00000000000E+00  0.45593999997E+02  0.45594000000E+02  0.51100000000E-03 0.  1.
         11   -1    0    0    0    0 -0.00000000000E+00 -0.00000000000E+00 -0.45593999997E+02  0.45594000000E+02  0.51100000000E-03 0. -1.
    9900012    2    1    2    0    0 -0.26129405780E+02 -0.12407678026E+02  0.13417225964E+02  0.59301979976E+02  0.50000065561E+02 0.  0.
         12    1    1    2    0    0  0.26129405780E+02  0.12407678026E+02 -0.13417225964E+02  0.31886020024E+02  0.00000000000E+00 0. -1.
         11    1    3    3    0    0  0.41223079967E+01 -0.47844189878E+01 -0.39576345118E+01  0.74529832591E+01  0.51100000000E-03 0. -1.
        -11    1    3    3    0    0 -0.12818778537E+02  0.10721878540E+02 -0.56440631367E+01  0.17639025244E+02  0.51100000000E-03 0.  1.
        -12    1    3    3    0    0 -0.17432935239E+02 -0.18345137579E+02  0.23018923613E+02  0.34209971472E+02  0.00000000000E+00 0.  1.
</event>
<event>
 7    1  0.6230310E-012  0.5930214E+02  0.7816164E-02  0.1266604E+00
        -11   -1    0    0    0    0  0.00000000000E+00  0.00000000000E+00  0.45593999997E+02  0.45594000000E+02  0.51100000000E-03 0.  1.
         11   -1    0    0    0    0 -0.00000000000E+00 -0.00000000000E+00 -0.45593999997E+02  0.45594000000E+02  0.51100000000E-03 0. -1.
    9900012    2    1    2    0    0  0.20399661441E+01  0.29817279447E+02 -0.11111996306E+02  0.59302139852E+02  0.50000357134E+02 0.  0.
         12    1    1    2    0    0 -0.20399661441E+01 -0.29817279447E+02  0.11111996306E+02  0.31885860148E+02  0.00000000000E+00 0. -1.
         11    1    3    3    0    0  0.19248866843E+01  0.11871306568E+02 -0.72326928828E+01  0.14033707812E+02  0.51100000000E-03 0. -1.
        -11    1    3    3    0    0 -0.13323633635E+02  0.25331678361E+02 -0.73403764851E+01  0.29548168624E+02  0.51100000000E-03 0.  1.
         12    1    3    3    0    0  0.13438713095E+02 -0.73857054815E+01  0.34610730617E+01  0.15720263415E+02  0.00000000000E+00 0. -1.
</event>
<event>
 7    1  0.6230310E-012  0.5930195E+02  0.7816164E-02  0.1266605E+00
        -11   -1    0    0    0    0  0.00000000000E+00  0.00000000000E+00  0.45593999997E+02  0.45594000000E+02  0.51100000000E-03 0. -1.
         11   -1    0    0    0    0 -0.00000000000E+00 -0.00000000000E+00 -0.45593999997E+02  0.45594000000E+02  0.51100000000E-03 0.  1.
    9900012    2    1    2    0    0 -0.11627307976E+02 -0.12558444079E+02 -0.26903748188E+02  0.59301945447E+02  0.50000002588E+02 0.  0.
         12    1    1    2    0    0  0.11627307976E+02  0.12558444079E+02  0.26903748188E+02  0.31886054553E+02  0.00000000000E+00 0. -1.
         11    1    3    3    0    0 -0.27373551333E+01  0.14963298030E+01 -0.63465058001E+01  0.70717927102E+01  0.51100000000E-03 0. -1.
        -11    1    3    3    0    0 -0.22790082240E+02 -0.17088716622E+02 -0.24384613819E+02  0.37496952884E+02  0.51100000000E-03 0.  1.
        -12    1    3    3    0    0  0.13900129397E+02  0.30339427395E+01  0.38273714313E+01  0.14733199852E+02  0.00000000000E+00 0.  1.
</event>
<event>
 7    1  0.6230310E-012  0.5930196E+02  0.7816164E-02  0.1266605E+00
        -11   -1    0    0    0    0  0.00000000000E+00  0.00000000000E+00  0.45593999997E+02  0.45594000000E+02  0.51100000000E-03 0.  1.
         11   -1    0    0    0    0 -0.00000000000E+00 -0.00000000000E+00 -0.45593999997E+02  0.45594000000E+02  0.51100000000E-03 0. -1.
    9900012    2    1    2    0    0 -0.26663770138E+02 -0.16037306640E+01  0.17412388201E+02  0.59301955202E+02  0.50000020379E+02 0.  0.
         12    1    1    2    0    0  0.26663770138E+02  0.16037306640E+01 -0.17412388201E+02  0.31886044798E+02  0.00000000000E+00 0. -1.
         11    1    3    3    0    0 -0.16322661837E+02  0.37460859592E+01  0.57973700394E+01  0.17722075192E+02  0.51100000000E-03 0.  1.
        -11    1    3    3    0    0 -0.54861592592E+01  0.16528570211E+02  0.65328700674E+01  0.18600267961E+02  0.51100000000E-03 0. -1.
        -12    1    3    3    0    0 -0.48549490416E+01 -0.21878386834E+02  0.50821480939E+01  0.22979612049E+02  0.00000000000E+00 0.  1.
</event>
<event>
 7    1  0.6230310E-012  0.5930194E+02  0.7816164E-02  0.1266605E+00
        -11   -1    0    0    0    0  0.00000000000E+00  0.00000000000E+00  0.45593999997E+02  0.45594000000E+02  0.51100000000E-03 0.  1.
         11   -1    0    0    0    0 -0.00000000000E+00 -0.00000000000E+00 -0.45593999997E+02  0.45594000000E+02  0.51100000000E-03 0. -1.
    9900012    2    1    2    0    0 -0.95415498168E+01 -0.14981997669E+02 -0.26480551174E+02  0.59301936939E+02  0.49999987072E+02 0.  0.
         12    1    1    2    0    0  0.95415498168E+01  0.14981997669E+02  0.26480551174E+02  0.31886063061E+02  0.00000000000E+00 0. -1.
         11    1    3    3    0    0  0.73081470793E+01 -0.19418828923E+02 -0.77110131076E+01  0.22135032276E+02  0.51100000000E-03 0. -1.
        -11    1    3    3    0    0  0.46857202028E+01  0.71695749096E+01 -0.11364332186E+02  0.14230489257E+02  0.51100000000E-03 0.  1.
        -12    1    3    3    0    0 -0.21535417099E+02 -0.27327436556E+01 -0.74052058799E+01  0.22936415405E+02  0.00000000000E+00 0.  1.
</event>
<event>
 7    1  0.6230310E-012  0.5930203E+02  0.7816164E-02  0.1266604E+00
        -11   -1    0    0    0    0  0.00000000000E+00  0.00000000000E+00  0.45593999997E+02  0.45594000000E+02  0.51100000000E-03 0.  1.
         11   -1    0    0    0    0 -0.00000000000E+00 -0.00000000000E+00 -0.45593999997E+02  0.45594000000E+02  0.51100000000E-03 0. -1.
    9900012    2    1    2    0    0  0.16020059114E+02  0.25704580177E+02  0.99673260400E+01  0.59302026211E+02  0.50000149882E+02 0.  0.
         12    1    1    2    0    0 -0.16020059114E+02 -0.25704580177E+02 -0.99673260400E+01  0.31885973789E+02  0.00000000000E+00 0. -1.
         11    1    3    3    0    0  0.91123246125E+01 -0.55551142955E+01 -0.25911746491E+01  0.10982164677E+02  0.51100000000E-03 0. -1.
        -11    1    3    3    0    0 -0.60203487180E+01  0.97434989253E+00  0.14091809678E+02  0.15354903342E+02  0.51100000000E-03 0.  1.
         12    1    3    3    0    0  0.12928083220E+02  0.30285344580E+02 -0.15333089885E+01  0.32964958191E+02  0.00000000000E+00 0. -1.
</event>
<event>
 7    1  0.6230310E-012  0.5930195E+02  0.7816164E-02  0.1266605E+00
        -11   -1    0    0    0    0  0.00000000000E+00  0.00000000000E+00  0.45593999997E+02  0.45594000000E+02  0.51100000000E-03 0. -1.
         11   -1    0    0    0    0 -0.00000000000E+00 -0.00000000000E+00 -0.45593999997E+02  0.45594000000E+02  0.51100000000E-03 0.  1.
    9900012    2    1    2    0    0 -0.31118248292E+02  0.33883249218E+01 -0.60740739020E+01  0.59301945112E+02  0.50000001977E+02 0.  0.
         12    1    1    2    0    0  0.31118248292E+02 -0.33883249218E+01  0.60740739020E+01  0.31886054888E+02  0.00000000000E+00 0. -1.
         11    1    3    3    0    0 -0.10891443525E+01 -0.81011956605E+00  0.13741033734E+02  0.13807915754E+02  0.51100000000E-03 0. -1.
        -11    1    3    3    0    0  0.63892630896E+00  0.50170139350E+01 -0.13164378140E+02  0.14102464598E+02  0.51100000000E-03 0.  1.
        -12    1    3    3    0    0 -0.30668030249E+02 -0.81856944718E+00 -0.66507294959E+01  0.31391564760E+02  0.00000000000E+00 0.  1.
</event>
<event>
 7    1  0.6230310E-012  0.5930200E+02  0.7816164E-02  0.1266605E+00
        -11   -1    0    0    0    0  0.00000000000E+00  0.00000000000E+00  0.45593999997E+02  0.45594000000E+02  0.51100000000E-03 0. -1.
         11   -1    0    0    0    0 -0.00000000000E+00 -0.00000000000E+00 -0.45593999997E+02  0.45594000000E+02  0.51100000000E-03 0.  1.
    9900012    2    1    2    0    0 -0.17083086107E+02 -0.43819937374E+00 -0.26920129522E+02  0.59301996439E+02  0.50000095586E+02 0.  0.
         12    1    1    2    0    0  0.17083086107E+02  0.43819937374E+00  0.26920129522E+02  0.31886003561E+02  0.00000000000E+00 0. -1.
         11    1    3    3    0    0 -0.18408161887E+01 -0.42652186133E+01  0.44015121164E+01  0.63995314853E+01  0.51100000000E-03 0. -1.
        -11    1    3    3    0    0 -0.79677404014E+01  0.19684045637E+02 -0.58455620925E+01  0.22025374825E+02  0.51100000000E-03 0.  1.
         12    1    3    3    0    0 -0.72745295166E+01 -0.15857026397E+02 -0.25476079546E+02  0.30877090129E+02  0.00000000000E+00 0. -1.
</event>
<event>
 7    1  0.6230310E-012  0.5930196E+02  0.7816164E-02  0.1266605E+00
        -11   -1    0    0    0    0  0.00000000000E+00  0.00000000000E+00  0.45593999997E+02  0.45594000000E+02  0.51100000000E-03 0.  1.
         11   -1    0    0    0    0 -0.00000000000E+00 -0.00000000000E+00 -0.45593999997E+02  0.45594000000E+02  0.51100000000E-03 0. -1.
    9900012    2    1    2    0    0 -0.26783736087E+02 -0.15655202492E+02  0.73665116266E+01  0.59301962658E+02  0.50000033976E+02 0.  0.
         12    1    1    2    0    0  0.26783736087E+02  0.15655202492E+02 -0.73665116266E+01  0.31886037342E+02  0.00000000000E+00 0. -1.
         11    1    3    3    0    0 -0.35866979832E+01 -0.19062407710E+02 -0.69824806405E+01  0.20615402647E+02  0.51100000000E-03 0. -1.
        -11    1    3    3    0    0 -0.24296220386E+02 -0.69418935963E+01  0.12200795782E+02  0.28059857978E+02  0.51100000000E-03 0.  1.
         12    1    3    3    0    0  0.10991822817E+01  0.10349098815E+02  0.21481964850E+01  0.10626702033E+02  0.00000000000E+00 0. -1.
</event>
<event>
 7    1  0.6230310E-012  0.5930202E+02  0.7816164E-02  0.1266605E+00
        -11   -1    0    0    0    0  0.00000000000E+00  0.00000000000E+00  0.45593999997E+02  0.45594000000E+02  0.51100000000E-03 0.  1.
         11   -1    0    0    0    0 -0.00000000000E+00 -0.00000000000E+00 -0.45593999997E+02  0.45594000000E+02  0.51100000000E-03 0. -1.
    9900012    2    1    2    0    0  0.53578633687E+01 -0.74342445082E+01  0.30540813049E+02  0.59302016356E+02  0.50000131909E+02 0.  0.
         12    1    1    2    0    0 -0.53578633687E+01  0.74342445082E+01 -0.30540813049E+02  0.31885983644E+02  0.00000000000E+00 0. -1.
         11    1    3    3    0    0  0.57469281962E+01  0.40535887129E+01  0.10966266061E+02  0.13027576779E+02  0.51100000000E-03 0. -1.
        -11    1    3    3    0    0 -0.96180515121E+01 -0.77325706464E+00  0.28135211328E+02  0.29743822184E+02  0.51100000000E-03 0.  1.
        -12    1    3    3    0    0  0.92289866846E+01 -0.10714576156E+02 -0.85606643403E+01  0.16530617393E+02  0.00000000000E+00 0.  1.
</event>
<event>
 7    1  0.6230310E-012  0.5930194E+02  0.7816164E-02  0.1266605E+00
        -11   -1    0    0    0    0  0.00000000000E+00  0.00000000000E+00  0.45593999997E+02  0.45594000000E+02  0.51100000000E-03 0. -1.
         11   -1    0    0    0    0 -0.00000000000E+00 -0.00000000000E+00 -0.45593999997E+02  0.45594000000E+02  0.51100000000E-03 0.  1.
    9900012    2    1    2    0    0  0.31831860501E+02 -0.15399215214E+01 -0.10403653236E+01  0.59301936253E+02  0.49999985821E+02 0.  0.
         12    1    1    2    0    0 -0.31831860501E+02  0.15399215214E+01  0.10403653236E+01  0.31886063747E+02  0.00000000000E+00 0. -1.
         11    1    3    3    0    0  0.20772992407E+02 -0.16501615222E+01  0.24636226624E+00  0.20839888225E+02  0.51100000000E-03 0.  1.
        -11    1    3    3    0    0  0.15054485515E+02  0.10152283153E+02  0.11673704355E+02  0.21586610687E+02  0.51100000000E-03 0. -1.
         12    1    3    3    0    0 -0.39956174204E+01 -0.10042043152E+02 -0.12960431945E+02  0.16875437341E+02  0.00000000000E+00 0. -1.
</event>
<event>
 7    1  0.6230310E-012  0.5930193E+02  0.7816164E-02  0.1266605E+00
        -11   -1    0    0    0    0  0.00000000000E+00  0.00000000000E+00  0.45593999997E+02  0.45594000000E+02  0.51100000000E-03 0.  1.
         11   -1    0    0    0    0 -0.00000000000E+00 -0.00000000000E+00 -0.45593999997E+02  0.45594000000E+02  0.51100000000E-03 0. -1.
    9900012    2    1    2    0    0  0.25314924271E+01 -0.16307406926E+02  0.27283352202E+02  0.59301932792E+02  0.49999979510E+02 0.  0.
         12    1    1    2    0    0 -0.25314924271E+01  0.16307406926E+02 -0.27283352202E+02  0.31886067208E+02  0.00000000000E+00 0. -1.
         11    1    3    3    0    0 -0.11327073113E+02 -0.14536463581E+02  0.57907964696E+01  0.19316953247E+02  0.51100000000E-03 0. -1.
        -11    1    3    3    0    0  0.15331707648E+01  0.36737795834E+01  0.25592763498E+02  0.25900517616E+02  0.51100000000E-03 0.  1.
        -12    1    3    3    0    0  0.12325394775E+02 -0.54447229285E+01 -0.41002077654E+01  0.14084461930E+02  0.00000000000E+00 0.  1.
</event>
<event>
 7    1  0.6230310E-012  0.5930194E+02  0.7816164E-02  0.1266605E+00
        -11   -1    0    0    0    0  0.00000000000E+00  0.00000000000E+00  0.45593999997E+02  0.45594000000E+02  0.51100000000E-03 0.  1.
         11   -1    0    0    0    0 -0.00000000000E+00 -0.00000000000E+00 -0.45593999997E+02  0.45594000000E+02  0.51100000000E-03 0. -1.
    9900012    2    1    2    0    0  0.15594960873E+02 -0.16812658387E+02  0.22155195440E+02  0.59301937658E+02  0.49999988383E+02 0.  0.
         12    1    1    2    0    0 -0.15594960873E+02  0.16812658387E+02 -0.22155195440E+02  0.31886062342E+02  0.00000000000E+00 0. -1.
         11    1    3    3    0    0  0.66174522705E+01 -0.17688609284E+02  0.28539163359E+01  0.19100324910E+02  0.51100000000E-03 0. -1.
        -11    1    3    3    0    0  0.21840487591E+02  0.27706157496E+01  0.98000615930E+01  0.24098224361E+02  0.51100000000E-03 0.  1.
         12    1    3    3    0    0 -0.12862978988E+02 -0.18946648523E+01  0.95012175112E+01  0.16103388387E+02  0.00000000000E+00 0. -1.
</event>
<event>
 7    1  0.6230310E-012  0.5930196E+02  0.7816164E-02  0.1266605E+00
        -11   -1    0    0    0    0  0.00000000000E+00  0.00000000000E+00  0.45593999997E+02  0.45594000000E+02  0.51100000000E-03 0. -1.
         11   -1    0    0    0    0 -0.00000000000E+00 -0.00000000000E+00 -0.45593999997E+02  0.45594000000E+02  0.51100000000E-03 0.  1.
    9900012    2    1    2    0    0 -0.84946038633E+01 -0.12191487676E+01 -0.30709529020E+02  0.59301956170E+02  0.50000022145E+02 0.  0.
         12    1    1    2    0    0  0.84946038633E+01  0.12191487676E+01  0.30709529020E+02  0.31886043830E+02  0.00000000000E+00 0. -1.
         11    1    3    3    0    0 -0.11236295170E+02 -0.26896590954E+01 -0.96046111253E+01  0.15024551585E+02  0.51100000000E-03 0. -1.
        -11    1    3    3    0    0  0.59374171462E+01 -0.69412526123E+01 -0.30159271454E+02  0.31512149484E+02  0.51100000000E-03 0.  1.
         12    1    3    3    0    0 -0.31957258396E+01  0.84117629401E+01  0.90543535601E+01  0.12765255101E+02  0.00000000000E+00 0. -1.
</event>
<event>
 7    1  0.6230310E-012  0.5930202E+02  0.7816164E-02  0.1266604E+00
        -11   -1    0    0    0    0  0.00000000000E+00  0.00000000000E+00  0.45593999997E+02  0.45594000000E+02  0.51100000000E-03 0.  1.
         11   -1    0    0    0    0 -0.00000000000E+00 -0.00000000000E+00 -0.45593999997E+02  0.45594000000E+02  0.51100000000E-03 0. -1.
    9900012    2    1    2    0    0  0.24524507786E+02 -0.19304246982E+02  0.65276393668E+01  0.59302023312E+02  0.50000144595E+02 0.  0.
         12    1    1    2    0    0 -0.24524507786E+02  0.19304246982E+02 -0.65276393668E+01  0.31885976688E+02  0.00000000000E+00 0. -1.
         11    1    3    3    0    0  0.14988482894E+02 -0.10510827975E+02 -0.17292652395E+01  0.18388107099E+02  0.51100000000E-03 0. -1.
        -11    1    3    3    0    0  0.94203168214E+00 -0.23065145915E+02  0.22058718584E+01  0.23189528902E+02  0.51100000000E-03 0.  1.
        -12    1    3    3    0    0  0.85939932098E+01  0.14271726908E+02  0.60510327479E+01  0.17724387311E+02  0.00000000000E+00 0.  1.
</event>
<event>
 7    1  0.6230310E-012  0.5930193E+02  0.7816164E-02  0.1266605E+00
        -11   -1    0    0    0    0  0.00000000000E+00  0.00000000000E+00  0.45593999997E+02  0.45594000000E+02  0.51100000000E-03 0.  1.
         11   -1    0    0    0    0 -0.00000000000E+00 -0.00000000000E+00 -0.45593999997E+02  0.45594000000E+02  0.51100000000E-03 0. -1.
    9900012    2    1    2    0    0  0.18679578813E+01 -0.11439294137E+02  0.29704789025E+02  0.59301933952E+02  0.49999981624E+02 0.  0.
         12    1    1    2    0    0 -0.18679578813E+01  0.11439294137E+02 -0.29704789025E+02  0.31886066048E+02  0.00000000000E+00 0. -1.
         11    1    3    3    0    0 -0.19128848350E+02 -0.70333154679E+01  0.58312912067E+01  0.21198686824E+02  0.51100000000E-03 0. -1.
        -11    1    3    3    0    0  0.29557578843E+01 -0.98266893973E+01  0.49181184611E+01  0.11379289022E+02  0.51100000000E-03 0.  1.
        -12    1    3    3    0    0  0.18041048347E+02  0.54207107283E+01  0.18955379357E+02  0.26723958106E+02  0.00000000000E+00 0.  1.
</event>
<event>
 7    1  0.6230310E-012  0.5930194E+02  0.7816164E-02  0.1266605E+00
        -11   -1    0    0    0    0  0.00000000000E+00  0.00000000000E+00  0.45593999997E+02  0.45594000000E+02  0.51100000000E-03 0. -1.
         11   -1    0    0    0    0 -0.00000000000E+00 -0.00000000000E+00 -0.45593999997E+02  0.45594000000E+02  0.51100000000E-03 0.  1.
    9900012    2    1    2    0    0 -0.34449107992E+01  0.15021284052E+02 -0.27914417653E+02  0.59301935679E+02  0.49999984774E+02 0.  0.
         12    1    1    2    0    0  0.34449107992E+01 -0.15021284052E+02  0.27914417653E+02  0.31886064321E+02  0.00000000000E+00 0. -1.
         11    1    3    3    0    0  0.42394671307E+01  0.94387318165E+01  0.64927699802E+01  0.12215514812E+02  0.51100000000E-03 0. -1.
        -11    1    3    3    0    0 -0.10787657793E+02  0.12949498711E+02 -0.65120472091E+01  0.18068476323E+02  0.51100000000E-03 0.  1.
        -12    1    3    3    0    0  0.31032798628E+01 -0.73669464751E+01 -0.27895140424E+02  0.29017944544E+02  0.00000000000E+00 0.  1.
</event>
<event>
 7    1  0.6230310E-012  0.5930195E+02  0.7816164E-02  0.1266605E+00
        -11   -1    0    0    0    0  0.00000000000E+00  0.00000000000E+00  0.45593999997E+02  0.45594000000E+02  0.51100000000E-03 0.  1.
         11   -1    0    0    0    0 -0.00000000000E+00 -0.00000000000E+00 -0.45593999997E+02  0.45594000000E+02  0.51100000000E-03 0. -1.
    9900012    2    1    2    0    0  0.42335126634E+01  0.31590478396E+02 -0.91594444683E+00  0.59301954322E+02  0.50000018773E+02 0.  0.
         12    1    1    2    0    0 -0.42335126634E+01 -0.31590478396E+02  0.91594444683E+00  0.31886045678E+02  0.00000000000E+00 0. -1.
         11    1    3    3    0    0  0.60719570208E+00  0.61783703388E+01 -0.34912718026E+01  0.71224943472E+01  0.51100000000E-03 0. -1.
        -11    1    3    3    0    0 -0.81855978874E+01  0.30406687355E+01 -0.17714555067E+02  0.19749813685E+02  0.51100000000E-03 0.  1.
        -12    1    3    3    0    0  0.11811914849E+02  0.22371439322E+02  0.20289882422E+02  0.32429646289E+02  0.00000000000E+00 0.  1.
</event>
<event>
 7    1  0.6230310E-012  0.5930189E+02  0.7816164E-02  0.1266605E+00
        -11   -1    0    0    0    0  0.00000000000E+00  0.00000000000E+00  0.45593999997E+02  0.45594000000E+02  0.51100000000E-03 0.  1.
         11   -1    0    0    0    0 -0.00000000000E+00 -0.00000000000E+00 -0.45593999997E+02  0.45594000000E+02  0.51100000000E-03 0. -1.
    9900012    2    1    2    0    0 -0.20361469428E+02 -0.17851586061E+02 -0.16836126493E+02  0.59301894602E+02  0.49999909860E+02 0.  0.
         12    1    1    2    0    0  0.20361469428E+02  0.17851586061E+02  0.16836126493E+02  0.31886105398E+02  0.00000000000E+00 0. -1.
         11    1    3    3    0    0  0.55952929248E+01  0.19994968743E+01 -0.18854940233E+01  0.62338093200E+01  0.51100000000E-03 0. -1.
        -11    1    3    3    0    0 -0.37507001468E+01 -0.20710370109E+02 -0.21311730856E+02  0.29952913948E+02  0.51100000000E-03 0.  1.
        -12    1    3    3    0    0 -0.22206062206E+02  0.85928717309E+00  0.63610983867E+01  0.23115171335E+02  0.00000000000E+00 0.  1.
</event>
<event>
 7    1  0.6230310E-012  0.5930195E+02  0.7816164E-02  0.1266605E+00
        -11   -1    0    0    0    0  0.00000000000E+00  0.00000000000E+00  0.45593999997E+02  0.45594000000E+02  0.51100000000E-03 0. -1.
         11   -1    0    0    0    0 -0.00000000000E+00 -0.00000000000E+00 -0.45593999997E+02  0.45594000000E+02  0.51100000000E-03 0.  1.
    9900012    2    1    2    0    0  0.15134629839E+02  0.14437001536E+02 -0.24067329279E+02  0.59301947056E+02  0.50000005523E+02 0.  0.
         12    1    1    2    0    0 -0.15134629839E+02 -0.14437001536E+02  0.24067329279E+02  0.31886052944E+02  0.00000000000E+00 0. -1.
         11    1    3    3    0    0  0.27073282067E+02  0.27400135066E+01 -0.21334100842E+02  0.34577653692E+02  0.51100000000E-03 0.  1.
        -11    1    3    3    0    0  0.22483557668E+01 -0.93523026620E-01  0.44033718325E+01  0.49450514625E+01  0.51100000000E-03 0. -1.
         12    1    3    3    0    0 -0.14187007994E+02  0.11790511056E+02 -0.71366002696E+01  0.19779241901E+02  0.00000000000E+00 0. -1.
</event>
<event>
 7    1  0.6230310E-012  0.5930197E+02  0.7816164E-02  0.1266605E+00
        -11   -1    0    0    0    0  0.00000000000E+00  0.00000000000E+00  0.45593999997E+02  0.45594000000E+02  0.51100000000E-03 0. -1.
         11   -1    0    0    0    0 -0.00000000000E+00 -0.00000000000E+00 -0.45593999997E+02  0.45594000000E+02  0.51100000000E-03 0.  1.
    9900012    2    1    2    0    0  0.25427819506E+02 -0.10101170052E+02  0.16374108559E+02  0.59301967442E+02  0.50000042701E+02 0.  0.
         12    1    1    2    0    0 -0.25427819506E+02  0.10101170052E+02 -0.16374108559E+02  0.31886032558E+02  0.00000000000E+00 0. -1.
         11    1    3    3    0    0  0.28001010383E+01  0.11116238003E+02 -0.46185543463E+01  0.12358897915E+02  0.51100000000E-03 0. -1.
        -11    1    3    3    0    0  0.19763743732E+02 -0.10995011960E+02  0.26618034822E+02  0.34928722169E+02  0.51100000000E-03 0.  1.
         12    1    3    3    0    0  0.28639747358E+01 -0.10222396095E+02 -0.56253719174E+01  0.12014347357E+02  0.00000000000E+00 0. -1.
</event>
<event>
 7    1  0.6230310E-012  0.5930197E+02  0.7816164E-02  0.1266605E+00
        -11   -1    0    0    0    0  0.00000000000E+00  0.00000000000E+00  0.45593999997E+02  0.45594000000E+02  0.51100000000E-03 0.  1.
         11   -1    0    0    0    0 -0.00000000000E+00 -0.00000000000E+00 -0.45593999997E+02  0.45594000000E+02  0.51100000000E-03 0. -1.
    9900012    2    1    2    0    0  0.57475152523E+01 -0.21082224696E+02  0.23221212246E+02  0.59301971275E+02  0.50000049692E+02 0.  0.
         12    1    1    2    0    0 -0.57475152523E+01  0.21082224696E+02 -0.23221212246E+02  0.31886028725E+02  0.00000000000E+00 0. -1.
         11    1    3    3    0    0 -0.14019523290E+02 -0.15035387703E+02  0.24287987052E+01  0.20700458451E+02  0.51100000000E-03 0. -1.
        -11    1    3    3    0    0  0.39825500644E+01  0.36503552601E-03  0.21321268358E+02  0.21690025122E+02  0.51100000000E-03 0.  1.
         12    1    3    3    0    0  0.15784488478E+02 -0.60472020283E+01 -0.52885481734E+00  0.16911487702E+02  0.00000000000E+00 0. -1.
</event>
<event>
 7    1  0.6230310E-012  0.5930195E+02  0.7816164E-02  0.1266605E+00
        -11   -1    0    0    0    0  0.00000000000E+00  0.00000000000E+00  0.45593999997E+02  0.45594000000E+02  0.51100000000E-03 0. -1.
         11   -1    0    0    0    0 -0.00000000000E+00 -0.00000000000E+00 -0.45593999997E+02  0.45594000000E+02  0.51100000000E-03 0.  1.
    9900012    2    1    2    0    0 -0.21056315744E+01  0.26909400450E+02 -0.16975582300E+02  0.59301954285E+02  0.50000018707E+02 0.  0.
         12    1    1    2    0    0  0.21056315744E+01 -0.26909400450E+02  0.16975582300E+02  0.31886045715E+02  0.00000000000E+00 0. -1.
         11    1    3    3    0    0  0.37497263377E+01 -0.31501002220E+01  0.50257489174E+01  0.70172452899E+01  0.51100000000E-03 0. -1.
        -11    1    3    3    0    0 -0.20044901828E+02  0.12201220774E+02 -0.54164833456E+01  0.24083317250E+02  0.51100000000E-03 0.  1.
         12    1    3    3    0    0  0.14189543916E+02  0.17858279898E+02 -0.16584847872E+02  0.28201391746E+02  0.00000000000E+00 0. -1.
</event>
<event>
 7    1  0.6230310E-012  0.5930198E+02  0.7816164E-02  0.1266605E+00
        -11   -1    0    0    0    0  0.00000000000E+00  0.00000000000E+00  0.45593999997E+02  0.45594000000E+02  0.51100000000E-03 0.  1.
         11   -1    0    0    0    0 -0.00000000000E+00 -0.00000000000E+00 -0.45593999997E+02  0.45594000000E+02  0.51100000000E-03 0. -1.
    9900012    2    1    2    0    0  0.82611383692E+01 -0.26651790967E+02  0.15432239566E+02  0.59301978189E+02  0.50000062302E+02 0.  0.
         12    1    1    2    0    0 -0.82611383692E+01  0.26651790967E+02 -0.15432239566E+02  0.31886021811E+02  0.00000000000E+00 0. -1.
         11    1    3    3    0    0  0.31056767517E+01 -0.22799645423E+02 -0.18704137433E+01  0.23086089043E+02  0.51100000000E-03 0. -1.
        -11    1    3    3    0    0  0.40299397047E+01 -0.14912536445E+02  0.19506264701E+02  0.24882092358E+02  0.51100000000E-03 0.  1.
        -12    1    3    3    0    0  0.11255219129E+01  0.11060390901E+02 -0.22036113919E+01  0.11333796788E+02  0.00000000000E+00 0.  1.
</event>
<event>
 7    1  0.6230310E-012  0.5930199E+02  0.7816164E-02  0.1266605E+00
        -11   -1    0    0    0    0  0.00000000000E+00  0.00000000000E+00  0.45593999997E+02  0.45594000000E+02  0.51100000000E-03 0.  1.
         11   -1    0    0    0    0 -0.00000000000E+00 -0.00000000000E+00 -0.45593999997E+02  0.45594000000E+02  0.51100000000E-03 0. -1.
    9900012    2    1    2    0    0 -0.18248827428E+02  0.75211320802E+01  0.25042571661E+02  0.59301991695E+02  0.50000086933E+02 0.  0.
         12    1    1    2    0    0  0.18248827428E+02 -0.75211320802E+01 -0.25042571661E+02  0.31886008305E+02  0.00000000000E+00 0. -1.
         11    1    3    3    0    0 -0.13063134233E+02  0.32650452538E+00 -0.65384690475E+01  0.14611764402E+02  0.51100000000E-03 0. -1.
        -11    1    3    3    0    0  0.56711359634E+01  0.16073145199E+02  0.13136824685E+02  0.21519385279E+02  0.51100000000E-03 0.  1.
         12    1    3    3    0    0 -0.10856829158E+02 -0.88785176447E+01  0.18444216023E+02  0.23170842014E+02  0.00000000000E+00 0. -1.
</event>
<event>
 7    1  0.6230310E-012  0.5930193E+02  0.7816164E-02  0.1266605E+00
        -11   -1    0    0    0    0  0.00000000000E+00  0.00000000000E+00  0.45593999997E+02  0.45594000000E+02  0.51100000000E-03 0. -1.
         11   -1    0    0    0    0 -0.00000000000E+00 -0.00000000000E+00 -0.45593999997E+02  0.45594000000E+02  0.51100000000E-03 0.  1.
    9900012    2    1    2    0    0 -0.15194701879E+02  0.11687882149E+02 -0.25480103467E+02  0.59301933654E+02  0.49999981081E+02 0.  0.
         12    1    1    2    0    0  0.15194701879E+02 -0.11687882149E+02  0.25480103467E+02  0.31886066346E+02  0.00000000000E+00 0. -1.
         11    1    3    3    0    0 -0.12329137038E+02  0.10078345029E+02 -0.56220777713E+01  0.16887522535E+02  0.51100000000E-03 0. -1.
        -11    1    3    3    0    0 -0.17151310000E+02  0.29776990956E+01 -0.21838097597E+02  0.27927345623E+02  0.51100000000E-03 0.  1.
        -12    1    3    3    0    0  0.14285745160E+02 -0.13681619758E+01  0.19800719013E+01  0.14487065496E+02  0.00000000000E+00 0.  1.
</event>
<event>
 7    1  0.6230310E-012  0.5930194E+02  0.7816164E-02  0.1266605E+00
        -11   -1    0    0    0    0  0.00000000000E+00  0.00000000000E+00  0.45593999997E+02  0.45594000000E+02  0.51100000000E-03 0. -1.
         11   -1    0    0    0    0 -0.00000000000E+00 -0.00000000000E+00 -0.45593999997E+02  0.45594000000E+02  0.51100000000E-03 0.  1.
    9900012    2    1    2    0    0 -0.11781421326E+02 -0.29605442798E+02 -0.11987329927E+01  0.59301935763E+02  0.49999984927E+02 0.  0.
         12    1    1    2    0    0  0.11781421326E+02  0.29605442798E+02  0.11987329927E+01  0.31886064237E+02  0.00000000000E+00 0. -1.
         11    1    3    3    0    0 -0.51377744974E+01 -0.27811074118E+02  0.14675028930E+01  0.28319712841E+02  0.51100000000E-03 0. -1.
        -11    1    3    3    0    0  0.33871656191E+01 -0.14015623627E+02 -0.44032710033E+01  0.15076451585E+02  0.51100000000E-03 0.  1.
         12    1    3    3    0    0 -0.10030812447E+02  0.12221254947E+02  0.17370351176E+01  0.15905771337E+02  0.00000000000E+00 0. -1.
</event>
<event>
 7    1  0.6230310E-012  0.5930182E+02  0.7816164E-02  0.1266605E+00
        -11   -1    0    0    0    0  0.00000000000E+00  0.00000000000E+00  0.45593999997E+02  0.45594000000E+02  0.51100000000E-03 0.  1.
         11   -1    0    0    0    0 -0.00000000000E+00 -0.00000000000E+00 -0.45593999997E+02  0.45594000000E+02  0.51100000000E-03 0. -1.
    9900012    2    1    2    0    0 -0.96622397676E+01 -0.87667195947E+01  0.29094917414E+02  0.59301820092E+02  0.49999773970E+02 0.  0.
         12    1    1    2    0    0  0.96622397676E+01  0.87667195947E+01 -0.29094917414E+02  0.31886179908E+02  0.00000000000E+00 0. -1.
         11    1    3    3    0    0 -0.47934287385E+01 -0.90160213665E+01 -0.42588451050E+01  0.11063605300E+02  0.51100000000E-03 0. -1.
        -11    1    3    3    0    0 -0.39652101366E+00 -0.33928446283E+01  0.39593800187E+02  0.39740881182E+02  0.51100000000E-03 0.  1.
         12    1    3    3    0    0 -0.44722900154E+01  0.36421464001E+01 -0.62400376677E+01  0.84973336098E+01  0.00000000000E+00 0. -1.
</event>
<event>
 7    1  0.6230310E-012  0.5930195E+02  0.7816164E-02  0.1266605E+00
        -11   -1    0    0    0    0  0.00000000000E+00  0.00000000000E+00  0.45593999997E+02  0.45594000000E+02  0.51100000000E-03 0. -1.
         11   -1    0    0    0    0 -0.00000000000E+00 -0.00000000000E+00 -0.45593999997E+02  0.45594000000E+02  0.51100000000E-03 0.  1.
    9900012    2    1    2    0    0  0.85263262154E+01  0.41833182750E+01 -0.30438822097E+02  0.59301948486E+02  0.50000008131E+02 0.  0.
         12    1    1    2    0    0 -0.85263262154E+01 -0.41833182750E+01  0.30438822097E+02  0.31886051514E+02  0.00000000000E+00 0. -1.
         11    1    3    3    0    0  0.12888466604E+02  0.19794833941E+02 -0.97162545602E+01  0.25541214245E+02  0.51100000000E-03 0. -1.
        -11    1    3    3    0    0 -0.80165208677E+01 -0.54541000319E+00 -0.15398888019E+02  0.17369163232E+02  0.51100000000E-03 0.  1.
         12    1    3    3    0    0  0.36543804791E+01 -0.15066105663E+02 -0.53236795177E+01  0.16391571009E+02  0.00000000000E+00 0. -1.
</event>
<event>
 7    1  0.6230310E-012  0.5930196E+02  0.7816164E-02  0.1266605E+00
        -11   -1    0    0    0    0  0.00000000000E+00  0.00000000000E+00  0.45593999997E+02  0.45594000000E+02  0.51100000000E-03 0.  1.
         11   -1    0    0    0    0 -0.00000000000E+00 -0.00000000000E+00 -0.45593999997E+02  0.45594000000E+02  0.51100000000E-03 0. -1.
    9900012    2    1    2    0    0  0.21251450383E+02  0.12231502874E+00  0.23771426788E+02  0.59301955468E+02  0.50000020864E+02 0.  0.
         12    1    1    2    0    0 -0.21251450383E+02 -0.12231502874E+00 -0.23771426788E+02  0.31886044532E+02  0.00000000000E+00 0. -1.
         11    1    3    3    0    0  0.10532227440E+02 -0.31729142156E+01  0.23784292868E+02  0.26204728332E+02  0.51100000000E-03 0.  1.
        -11    1    3    3    0    0 -0.53901411980E+01  0.11429470797E+02  0.61152290689E+01  0.14038605759E+02  0.51100000000E-03 0. -1.
        -12    1    3    3    0    0  0.16109364141E+02 -0.81342415523E+01 -0.61280951484E+01  0.19058621377E+02  0.00000000000E+00 0.  1.
</event>
<event>
 7    1  0.6230310E-012  0.5930194E+02  0.7816164E-02  0.1266605E+00
        -11   -1    0    0    0    0  0.00000000000E+00  0.00000000000E+00  0.45593999997E+02  0.45594000000E+02  0.51100000000E-03 0. -1.
         11   -1    0    0    0    0 -0.00000000000E+00 -0.00000000000E+00 -0.45593999997E+02  0.45594000000E+02  0.51100000000E-03 0.  1.
    9900012    2    1    2    0    0 -0.67038114564E+01  0.26618239931E+02 -0.16224951878E+02  0.59301939590E+02  0.49999991906E+02 0.  0.
         12    1    1    2    0    0  0.67038114564E+01 -0.26618239931E+02  0.16224951878E+02  0.31886060410E+02  0.00000000000E+00 0. -1.
         11    1    3    3    0    0 -0.94211844694E+01 -0.10527089968E+01  0.71520310203E+01  0.11875119411E+02  0.51100000000E-03 0. -1.
        -11    1    3    3    0    0  0.22074931858E+01 -0.28767831613E+01  0.46977646160E+01  0.59344671345E+01  0.51100000000E-03 0.  1.
        -12    1    3    3    0    0  0.50987982717E+00  0.30547732089E+02 -0.28074747514E+02  0.41492353045E+02  0.00000000000E+00 0.  1.
</event>
<event>
 7    1  0.6230310E-012  0.5930197E+02  0.7816164E-02  0.1266605E+00
        -11   -1    0    0    0    0  0.00000000000E+00  0.00000000000E+00  0.45593999997E+02  0.45594000000E+02  0.51100000000E-03 0.  1.
         11   -1    0    0    0    0 -0.00000000000E+00 -0.00000000000E+00 -0.45593999997E+02  0.45594000000E+02  0.51100000000E-03 0. -1.
    9900012    2    1    2    0    0 -0.22247137174E+02  0.15226376247E+02  0.17027653544E+02  0.59301974357E+02  0.50000055314E+02 0.  0.
         12    1    1    2    0    0  0.22247137174E+02 -0.15226376247E+02 -0.17027653544E+02  0.31886025643E+02  0.00000000000E+00 0. -1.
         11    1    3    3    0    0  0.94547294359E+00  0.12401215151E+02  0.18004032450E+02  0.21882167192E+02  0.51100000000E-03 0.  1.
        -11    1    3    3    0    0 -0.15430451503E+02 -0.81475925197E+01  0.99600051184E+01  0.20091883926E+02  0.51100000000E-03 0. -1.
         12    1    3    3    0    0 -0.77621586145E+01  0.10972753616E+02 -0.10936384024E+02  0.17327923240E+02  0.00000000000E+00 0. -1.
</event>
<event>
 7    1  0.6230310E-012  0.5930188E+02  0.7816164E-02  0.1266605E+00
        -11   -1    0    0    0    0  0.00000000000E+00  0.00000000000E+00  0.45593999997E+02  0.45594000000E+02  0.51100000000E-03 0. -1.
         11   -1    0    0    0    0 -0.00000000000E+00 -0.00000000000E+00 -0.45593999997E+02  0.45594000000E+02  0.51100000000E-03 0.  1.
    9900012    2    1    2    0    0 -0.29543951156E+02 -0.88002080192E+01  0.81508315354E+01  0.59301878163E+02  0.49999879878E+02 0.  0.
         12    1    1    2    0    0  0.29543951156E+02  0.88002080192E+01 -0.81508315354E+01  0.31886121837E+02  0.00000000000E+00 0. -1.
         11    1    3    3    0    0 -0.62707760274E+01 -0.84453819444E+01  0.89475631211E+01  0.13809634110E+02  0.51100000000E-03 0. -1.
        -11    1    3    3    0    0 -0.14369544042E+02  0.26964710937E+01  0.18762515648E+02  0.23786272218E+02  0.51100000000E-03 0.  1.
         12    1    3    3    0    0 -0.89036310865E+01 -0.30512971685E+01 -0.19559247234E+02  0.21705971835E+02  0.00000000000E+00 0. -1.
</event>
<event>
 7    1  0.6230310E-012  0.5930194E+02  0.7816164E-02  0.1266605E+00
        -11   -1    0    0    0    0  0.00000000000E+00  0.00000000000E+00  0.45593999997E+02  0.45594000000E+02  0.51100000000E-03 0. -1.
         11   -1    0    0    0    0 -0.00000000000E+00 -0.00000000000E+00 -0.45593999997E+02  0.45594000000E+02  0.51100000000E-03 0.  1.
    9900012    2    1    2    0    0  0.30398845670E+02  0.16412516738E+01  0.94835337248E+01  0.59301938201E+02  0.49999989374E+02 0.  0.
         12    1    1    2    0    0 -0.30398845670E+02 -0.16412516738E+01 -0.94835337248E+01  0.31886061799E+02  0.00000000000E+00 0. -1.
         11    1    3    3    0    0  0.15878131392E+02  0.72600737560E+01  0.64646819381E+01  0.18617621767E+02  0.51100000000E-03 0.  1.
        -11    1    3    3    0    0 -0.38224481765E+01 -0.72270854956E+01 -0.13607811900E+02  0.15874962041E+02  0.51100000000E-03 0. -1.
         12    1    3    3    0    0  0.18343162454E+02  0.16082634134E+01  0.16626663687E+02  0.24809354393E+02  0.00000000000E+00 0. -1.
</event>
<event>
 7    1  0.6230310E-012  0.5930192E+02  0.7816164E-02  0.1266605E+00
        -11   -1    0    0    0    0  0.00000000000E+00  0.00000000000E+00  0.45593999997E+02  0.45594000000E+02  0.51100000000E-03 0.  1.
         11   -1    0    0    0    0 -0.00000000000E+00 -0.00000000000E+00 -0.45593999997E+02  0.45594000000E+02  0.51100000000E-03 0. -1.
    9900012    2    1    2    0    0 -0.17418525583E+02  0.39560844072E+01  0.26413374184E+02  0.59301921955E+02  0.49999959744E+02 0.  0.
         12    1    1    2    0    0  0.17418525583E+02 -0.39560844072E+01 -0.26413374184E+02  0.31886078045E+02  0.00000000000E+00 0. -1.
         11    1    3    3    0    0 -0.55144416359E+01 -0.50521275396E+00  0.12868949723E+02  0.14009788497E+02  0.51100000000E-03 0. -1.
        -11    1    3    3    0    0 -0.19156135036E+02 -0.13491089263E+02  0.10567064156E+02  0.25702720560E+02  0.51100000000E-03 0.  1.
         12    1    3    3    0    0  0.72520510886E+01  0.17952386424E+02  0.29773603045E+01  0.19589412898E+02  0.00000000000E+00 0. -1.
</event>
<event>
 7    1  0.6230310E-012  0.5930200E+02  0.7816164E-02  0.1266605E+00
        -11   -1    0    0    0    0  0.00000000000E+00  0.00000000000E+00  0.45593999997E+02  0.45594000000E+02  0.51100000000E-03 0. -1.
         11   -1    0    0    0    0 -0.00000000000E+00 -0.00000000000E+00 -0.45593999997E+02  0.45594000000E+02  0.51100000000E-03 0.  1.
    9900012    2    1    2    0    0  0.16707717535E+02  0.16189046888E+02 -0.21805587980E+02  0.59302004148E+02  0.50000109644E+02 0.  0.
         12    1    1    2    0    0 -0.16707717535E+02 -0.16189046888E+02  0.21805587980E+02  0.31885995852E+02  0.00000000000E+00 0. -1.
         11    1    3    3    0    0 -0.59085612833E+01  0.88123563240E+01 -0.24932773991E+01  0.10898860164E+02  0.51100000000E-03 0. -1.
        -11    1    3    3    0    0  0.21331246248E+01  0.10731194626E+02  0.83899813001E+01  0.13787695429E+02  0.51100000000E-03 0.  1.
        -12    1    3    3    0    0  0.20483154193E+02 -0.33545040620E+01 -0.27702291881E+02  0.34615448555E+02  0.00000000000E+00 0.  1.
</event>
<event>
 7    1  0.6230310E-012  0.5930182E+02  0.7816164E-02  0.1266605E+00
        -11   -1    0    0    0    0  0.00000000000E+00  0.00000000000E+00  0.45593999997E+02  0.45594000000E+02  0.51100000000E-03 0.  1.
         11   -1    0    0    0    0 -0.00000000000E+00 -0.00000000000E+00 -0.45593999997E+02  0.45594000000E+02  0.51100000000E-03 0. -1.
    9900012    2    1    2    0    0  0.15467343874E+01 -0.23895490892E+02  0.21055682928E+02  0.59301817165E+02  0.49999768632E+02 0.  0.
         12    1    1    2    0    0 -0.15467343874E+01  0.23895490892E+02 -0.21055682928E+02  0.31886182835E+02  0.00000000000E+00 0. -1.
         11    1    3    3    0    0  0.49333010509E+01 -0.35031453654E+01 -0.28079826447E+01  0.66704013001E+01  0.51100000000E-03 0. -1.
        -11    1    3    3    0    0 -0.61823811519E+01  0.12312100732E+02  0.98775970861E+01  0.16952185275E+02  0.51100000000E-03 0.  1.
         12    1    3    3    0    0  0.27958144884E+01 -0.32704446259E+02  0.13986068486E+02  0.35679230590E+02  0.00000000000E+00 0. -1.
</event>
<event>
 7    1  0.6230310E-012  0.5930190E+02  0.7816164E-02  0.1266605E+00
        -11   -1    0    0    0    0  0.00000000000E+00  0.00000000000E+00  0.45593999997E+02  0.45594000000E+02  0.51100000000E-03 0.  1.
         11   -1    0    0    0    0 -0.00000000000E+00 -0.00000000000E+00 -0.45593999997E+02  0.45594000000E+02  0.51100000000E-03 0. -1.
    9900012    2    1    2    0    0 -0.16879731972E+02  0.26813884360E+02  0.35796313080E+01  0.59301897914E+02  0.49999915900E+02 0.  0.
         12    1    1    2    0    0  0.16879731972E+02 -0.26813884360E+02 -0.35796313080E+01  0.31886102086E+02  0.00000000000E+00 0. -1.
         11    1    3    3    0    0  0.45953551415E+01  0.19364636022E+02  0.65005405202E+01  0.20937130760E+02  0.51100000000E-03 0.  1.
        -11    1    3    3    0    0  0.30861706069E+01 -0.19365100040E+00 -0.10981420147E+02  0.11408485370E+02  0.51100000000E-03 0. -1.
        -12    1    3    3    0    0 -0.24561257721E+02  0.76428993381E+01  0.80605109352E+01  0.26956281785E+02  0.00000000000E+00 0.  1.
</event>
<event>
 7    1  0.6230310E-012  0.5930191E+02  0.7816164E-02  0.1266605E+00
        -11   -1    0    0    0    0  0.00000000000E+00  0.00000000000E+00  0.45593999997E+02  0.45594000000E+02  0.51100000000E-03 0.  1.
         11   -1    0    0    0    0 -0.00000000000E+00 -0.00000000000E+00 -0.45593999997E+02  0.45594000000E+02  0.51100000000E-03 0. -1.
    9900012    2    1    2    0    0  0.27110920215E+02  0.72887874388E+01 -0.15119328671E+02  0.59301913431E+02  0.49999944198E+02 0.  0.
         12    1    1    2    0    0 -0.27110920215E+02 -0.72887874388E+01  0.15119328671E+02  0.31886086569E+02  0.00000000000E+00 0. -1.
         11    1    3    3    0    0 -0.63848151965E+01 -0.87987257912E+01 -0.11781669394E+02  0.16030944283E+02  0.51100000000E-03 0. -1.
        -11    1    3    3    0    0  0.11071506955E+02  0.98097983216E+01  0.85921223755E+01  0.17106576997E+02  0.51100000000E-03 0.  1.
        -12    1    3    3    0    0  0.22424228456E+02  0.62777149084E+01 -0.11929781653E+02  0.26164392151E+02  0.00000000000E+00 0.  1.
</event>
<event>
 7    1  0.6230310E-012  0.5930195E+02  0.7816164E-02  0.1266605E+00
        -11   -1    0    0    0    0  0.00000000000E+00  0.00000000000E+00  0.45593999997E+02  0.45594000000E+02  0.51100000000E-03 0. -1.
         11   -1    0    0    0    0 -0.00000000000E+00 -0.00000000000E+00 -0.45593999997E+02  0.45594000000E+02  0.51100000000E-03 0.  1.
    9900012    2    1    2    0    0 -0.17144151838E+02  0.14556512886E+02 -0.22603231764E+02  0.59301951393E+02  0.50000013432E+02 0.  0.
         12    1    1    2    0    0  0.17144151838E+02 -0.14556512886E+02  0.22603231764E+02  0.31886048607E+02  0.00000000000E+00 0. -1.
         11    1    3    3    0    0 -0.61974868139E+01  0.11582950371E+02 -0.20664952186E+01  0.13298269995E+02  0.51100000000E-03 0. -1.
        -11    1    3    3    0    0  0.69036174498E+01  0.12400088949E+02 -0.21536730568E+02  0.25792497042E+02  0.51100000000E-03 0.  1.
         12    1    3    3    0    0 -0.17850282474E+02 -0.94265264347E+01  0.99999402307E+00  0.20211184356E+02  0.00000000000E+00 0. -1.
</event>
<event>
 7    1  0.6230310E-012  0.5930193E+02  0.7816164E-02  0.1266605E+00
        -11   -1    0    0    0    0  0.00000000000E+00  0.00000000000E+00  0.45593999997E+02  0.45594000000E+02  0.51100000000E-03 0.  1.
         11   -1    0    0    0    0 -0.00000000000E+00 -0.00000000000E+00 -0.45593999997E+02  0.45594000000E+02  0.51100000000E-03 0. -1.
    9900012    2    1    2    0    0 -0.15315322490E+02 -0.17150612346E+02  0.22091141751E+02  0.59301934851E+02  0.49999983264E+02 0.  0.
         12    1    1    2    0    0  0.15315322490E+02  0.17150612346E+02 -0.22091141751E+02  0.31886065149E+02  0.00000000000E+00 0. -1.
         11    1    3    3    0    0 -0.11820122533E+02  0.35008031369E+01  0.22200945979E+02  0.25393954437E+02  0.51100000000E-03 0. -1.
        -11    1    3    3    0    0 -0.11026857815E+02 -0.22125725695E+00  0.40326585104E+01  0.11743205822E+02  0.51100000000E-03 0.  1.
        -12    1    3    3    0    0  0.75316578583E+01 -0.20430158226E+02 -0.41424627383E+01  0.22164774593E+02  0.00000000000E+00 0.  1.
</event>
<event>
 7    1  0.6230310E-012  0.5930179E+02  0.7816164E-02  0.1266605E+00
        -11   -1    0    0    0    0  0.00000000000E+00  0.00000000000E+00  0.45593999997E+02  0.45594000000E+02  0.51100000000E-03 0. -1.
         11   -1    0    0    0    0 -0.00000000000E+00 -0.00000000000E+00 -0.45593999997E+02  0.45594000000E+02  0.51100000000E-03 0.  1.
    9900012    2    1    2    0    0  0.23273637140E+02 -0.66108569405E+01 -0.20769329802E+02  0.59301785492E+02  0.49999710868E+02 0.  0.
         12    1    1    2    0    0 -0.23273637140E+02  0.66108569405E+01  0.20769329802E+02  0.31886214508E+02  0.00000000000E+00 0. -1.
         11    1    3    3    0    0 -0.42561250762E+01  0.10281800654E+01 -0.18013221109E+01  0.47346083808E+01  0.51100000000E-03 0. -1.
        -11    1    3    3    0    0  0.12977522675E+02  0.11758091076E+02 -0.24090585988E+02  0.29782967180E+02  0.51100000000E-03 0.  1.
         12    1    3    3    0    0  0.14552239541E+02 -0.19397128082E+02  0.51225782971E+01  0.24784209931E+02  0.00000000000E+00 0. -1.
</event>
<event>
 7    1  0.6230310E-012  0.5930194E+02  0.7816164E-02  0.1266605E+00
        -11   -1    0    0    0    0  0.00000000000E+00  0.00000000000E+00  0.45593999997E+02  0.45594000000E+02  0.51100000000E-03 0. -1.
         11   -1    0    0    0    0 -0.00000000000E+00 -0.00000000000E+00 -0.45593999997E+02  0.45594000000E+02  0.51100000000E-03 0.  1.
    9900012    2    1    2    0    0  0.56720568598E+01 -0.10185785506E+02 -0.29678242688E+02  0.59301944357E+02  0.50000000601E+02 0.  0.
         12    1    1    2    0    0 -0.56720568598E+01  0.10185785506E+02  0.29678242688E+02  0.31886055643E+02  0.00000000000E+00 0. -1.
         11    1    3    3    0    0  0.22827178283E+01  0.63511379366E+01  0.21493928626E+01  0.70829120927E+01  0.51100000000E-03 0. -1.
        -11    1    3    3    0    0  0.49539023412E+01 -0.18891889216E+02  0.72479354485E+00  0.19544051589E+02  0.51100000000E-03 0.  1.
        -12    1    3    3    0    0 -0.15645633098E+01  0.23549657730E+01 -0.32552429096E+02  0.32674980676E+02  0.00000000000E+00 0.  1.
</event>
<event>
 7    1  0.6230310E-012  0.5930191E+02  0.7816164E-02  0.1266605E+00
        -11   -1    0    0    0    0  0.00000000000E+00  0.00000000000E+00  0.45593999997E+02  0.45594000000E+02  0.51100000000E-03 0. -1.
         11   -1    0    0    0    0 -0.00000000000E+00 -0.00000000000E+00 -0.45593999997E+02  0.45594000000E+02  0.51100000000E-03 0.  1.
    9900012    2    1    2    0    0  0.11100517919E+02 -0.20188979001E+01 -0.29823229414E+02  0.59301914328E+02  0.49999945835E+02 0.  0.
         12    1    1    2    0    0 -0.11100517919E+02  0.20188979001E+01  0.29823229414E+02  0.31886085672E+02  0.00000000000E+00 0. -1.
         11    1    3    3    0    0  0.55601489989E+01  0.12280058739E+02 -0.21588063567E+00  0.13481902842E+02  0.51100000000E-03 0. -1.
        -11    1    3    3    0    0  0.10820840725E+02  0.21562679255E+01  0.56595744732E+00  0.11048094562E+02  0.51100000000E-03 0.  1.
         12    1    3    3    0    0 -0.52804718054E+01 -0.16455224565E+02 -0.30173306226E+02  0.34771916924E+02  0.00000000000E+00 0. -1.
</event>
<event>
 7    1  0.6230310E-012  0.5930200E+02  0.7816164E-02  0.1266605E+00
        -11   -1    0    0    0    0  0.00000000000E+00  0.00000000000E+00  0.45593999997E+02  0.45594000000E+02  0.51100000000E-03 0.  1.
         11   -1    0    0    0    0 -0.00000000000E+00 -0.00000000000E+00 -0.45593999997E+02  0.45594000000E+02  0.51100000000E-03 0. -1.
    9900012    2    1    2    0    0  0.76043885613E+01  0.20979837209E+02  0.22775793037E+02  0.59301999260E+02  0.50000100730E+02 0.  0.
         12    1    1    2    0    0 -0.76043885613E+01 -0.20979837209E+02 -0.22775793037E+02  0.31886000740E+02  0.00000000000E+00 0. -1.
         11    1    3    3    0    0  0.49984537318E+01  0.16515623576E+02  0.77758054957E+01  0.18926529348E+02  0.51100000000E-03 0. -1.
        -11    1    3    3    0    0 -0.55042472087E+01  0.16772083787E+02  0.18133270520E+02  0.25306422741E+02  0.51100000000E-03 0.  1.
         12    1    3    3    0    0  0.81101820382E+01 -0.12307870154E+02 -0.31332829788E+01  0.15069047171E+02  0.00000000000E+00 0. -1.
</event>
<event>
 7    1  0.6230310E-012  0.5930196E+02  0.7816164E-02  0.1266605E+00
        -11   -1    0    0    0    0  0.00000000000E+00  0.00000000000E+00  0.45593999997E+02  0.45594000000E+02  0.51100000000E-03 0.  1.
         11   -1    0    0    0    0 -0.00000000000E+00 -0.00000000000E+00 -0.45593999997E+02  0.45594000000E+02  0.51100000000E-03 0. -1.
    9900012    2    1    2    0    0  0.14853950361E+01  0.48673100075E+01  0.31477330769E+02  0.59301961402E+02  0.50000031687E+02 0.  0.
         12    1    1    2    0    0 -0.14853950361E+01 -0.48673100075E+01 -0.31477330769E+02  0.31886038598E+02  0.00000000000E+00 0. -1.
         11    1    3    3    0    0 -0.43980963788E+00  0.22956695491E+01  0.18908808785E+02  0.19052731592E+02  0.51100000000E-03 0. -1.
        -11    1    3    3    0    0 -0.35761857822E+01 -0.17272378949E+02  0.54635422808E+01  0.18465494139E+02  0.51100000000E-03 0.  1.
         12    1    3    3    0    0  0.55013904562E+01  0.19844019407E+02  0.71049797034E+01  0.21783735671E+02  0.00000000000E+00 0. -1.
</event>
<event>
 7    1  0.6230310E-012  0.5930194E+02  0.7816164E-02  0.1266605E+00
        -11   -1    0    0    0    0  0.00000000000E+00  0.00000000000E+00  0.45593999997E+02  0.45594000000E+02  0.51100000000E-03 0.  1.
         11   -1    0    0    0    0 -0.00000000000E+00 -0.00000000000E+00 -0.45593999997E+02  0.45594000000E+02  0.51100000000E-03 0. -1.
    9900012    2    1    2    0    0 -0.19375893586E+02  0.24723759575E+02 -0.54800661686E+01  0.59301942467E+02  0.49999997154E+02 0.  0.
         12    1    1    2    0    0  0.19375893586E+02 -0.24723759575E+02  0.54800661686E+01  0.31886057533E+02  0.00000000000E+00 0. -1.
         11    1    3    3    0    0 -0.47653348946E+01  0.11321733731E+02  0.14745798600E+02  0.19191890161E+02  0.51100000000E-03 0.  1.
        -11    1    3    3    0    0 -0.12693889364E+02  0.21552893970E+02 -0.10111946241E+02  0.26979872548E+02  0.51100000000E-03 0. -1.
         12    1    3    3    0    0 -0.19166693271E+01 -0.81508681256E+01 -0.10113918527E+02  0.13130179758E+02  0.00000000000E+00 0. -1.
</event>
<event>
 7    1  0.6230310E-012  0.5930193E+02  0.7816164E-02  0.1266605E+00
        -11   -1    0    0    0    0  0.00000000000E+00  0.00000000000E+00  0.45593999997E+02  0.45594000000E+02  0.51100000000E-03 0.  1.
         11   -1    0    0    0    0 -0.00000000000E+00 -0.00000000000E+00 -0.45593999997E+02  0.45594000000E+02  0.51100000000E-03 0. -1.
    9900012    2    1    2    0    0  0.31492083266E+02 -0.81677704449E+00  0.49298037282E+01  0.59301930974E+02  0.49999976193E+02 0.  0.
         12    1    1    2    0    0 -0.31492083266E+02  0.81677704449E+00 -0.49298037282E+01  0.31886069026E+02  0.00000000000E+00 0. -1.
         11    1    3    3    0    0  0.12100347518E+02 -0.14848190560E+02 -0.68997062098E+01  0.20359104081E+02  0.51100000000E-03 0. -1.
        -11    1    3    3    0    0  0.12268131442E+01  0.70779392783E+00  0.15974594697E+02  0.16037260325E+02  0.51100000000E-03 0.  1.
         12    1    3    3    0    0  0.18164922604E+02  0.13323619588E+02 -0.41450847591E+01  0.22905566568E+02  0.00000000000E+00 0. -1.
</event>
<event>
 7    1  0.6230310E-012  0.5930191E+02  0.7816164E-02  0.1266605E+00
        -11   -1    0    0    0    0  0.00000000000E+00  0.00000000000E+00  0.45593999997E+02  0.45594000000E+02  0.51100000000E-03 0.  1.
         11   -1    0    0    0    0 -0.00000000000E+00 -0.00000000000E+00 -0.45593999997E+02  0.45594000000E+02  0.51100000000E-03 0. -1.
    9900012    2    1    2    0    0 -0.23805641121E+02 -0.20985752951E+02 -0.31004173645E+01  0.59301906418E+02  0.49999931409E+02 0.  0.
         12    1    1    2    0    0  0.23805641121E+02  0.20985752951E+02  0.31004173645E+01  0.31886093582E+02  0.00000000000E+00 0. -1.
         11    1    3    3    0    0 -0.12727676963E+02  0.42046919207E+00  0.12907831282E+02  0.18132365093E+02  0.51100000000E-03 0. -1.
        -11    1    3    3    0    0 -0.75086103348E+01  0.55212615052E+01  0.58649972819E+00  0.93384977357E+01  0.51100000000E-03 0.  1.
        -12    1    3    3    0    0 -0.35693538226E+01 -0.26927483648E+02 -0.16594748375E+02  0.31831043589E+02  0.00000000000E+00 0.  1.
</event>
<event>
 7    1  0.6230310E-012  0.5930195E+02  0.7816164E-02  0.1266605E+00
        -11   -1    0    0    0    0  0.00000000000E+00  0.00000000000E+00  0.45593999997E+02  0.45594000000E+02  0.51100000000E-03 0.  1.
         11   -1    0    0    0    0 -0.00000000000E+00 -0.00000000000E+00 -0.45593999997E+02  0.45594000000E+02  0.51100000000E-03 0. -1.
    9900012    2    1    2    0    0  0.96915214143E+01  0.20002706333E+01  0.30311604294E+02  0.59301952505E+02  0.50000015461E+02 0.  0.
         12    1    1    2    0    0 -0.96915214143E+01 -0.20002706333E+01 -0.30311604294E+02  0.31886047495E+02  0.00000000000E+00 0. -1.
         11    1    3    3    0    0  0.80713238341E+01  0.16707443508E+01 -0.29600926735E+01  0.87578424293E+01  0.51100000000E-03 0. -1.
        -11    1    3    3    0    0  0.19452428783E+02 -0.24855376808E+01  0.13726791090E+02  0.23937411661E+02  0.51100000000E-03 0.  1.
         12    1    3    3    0    0 -0.17832231203E+02  0.28150639633E+01  0.19544905878E+02  0.26606698415E+02  0.00000000000E+00 0. -1.
</event>
<event>
 7    1  0.6230310E-012  0.5930191E+02  0.7816164E-02  0.1266605E+00
        -11   -1    0    0    0    0  0.00000000000E+00  0.00000000000E+00  0.45593999997E+02  0.45594000000E+02  0.51100000000E-03 0. -1.
         11   -1    0    0    0    0 -0.00000000000E+00 -0.00000000000E+00 -0.45593999997E+02  0.45594000000E+02  0.51100000000E-03 0.  1.
    9900012    2    1    2    0    0  0.84507702372E+01 -0.37845651466E+01 -0.30512037502E+02  0.59301907680E+02  0.49999933710E+02 0.  0.
         12    1    1    2    0    0 -0.84507702372E+01  0.37845651466E+01  0.30512037502E+02  0.31886092320E+02  0.00000000000E+00 0. -1.
         11    1    3    3    0    0 -0.15178176050E+02  0.26901586124E+01 -0.11983783669E+02  0.19524985349E+02  0.51100000000E-03 0. -1.
        -11    1    3    3    0    0 -0.10528547746E+01  0.55966386449E+01  0.13644688853E+01  0.58559920507E+01  0.51100000000E-03 0.  1.
        -12    1    3    3    0    0  0.24681801062E+02 -0.12071362404E+02 -0.19892722718E+02  0.33920930280E+02  0.00000000000E+00 0.  1.
</event>
<event>
 7    1  0.6230310E-012  0.5930196E+02  0.7816164E-02  0.1266605E+00
        -11   -1    0    0    0    0  0.00000000000E+00  0.00000000000E+00  0.45593999997E+02  0.45594000000E+02  0.51100000000E-03 0. -1.
         11   -1    0    0    0    0 -0.00000000000E+00 -0.00000000000E+00 -0.45593999997E+02  0.45594000000E+02  0.51100000000E-03 0.  1.
    9900012    2    1    2    0    0  0.19374782271E+02  0.13382001458E+02 -0.21500223685E+02  0.59301956508E+02  0.50000022761E+02 0.  0.
         12    1    1    2    0    0 -0.19374782271E+02 -0.13382001458E+02  0.21500223685E+02  0.31886043492E+02  0.00000000000E+00 0. -1.
         11    1    3    3    0    0  0.84964190379E+01 -0.36971953728E+01  0.39074669039E+01  0.10056176607E+02  0.51100000000E-03 0. -1.
        -11    1    3    3    0    0 -0.11549779529E+01 -0.11258004735E+02 -0.54922615985E+01  0.12579411052E+02  0.51100000000E-03 0.  1.
        -12    1    3    3    0    0  0.12033341186E+02  0.28337201566E+02 -0.19915428991E+02  0.36666368849E+02  0.00000000000E+00 0.  1.
</event>
<event>
 7    1  0.6230310E-012  0.5930196E+02  0.7816164E-02  0.1266605E+00
        -11   -1    0    0    0    0  0.00000000000E+00  0.00000000000E+00  0.45593999997E+02  0.45594000000E+02  0.51100000000E-03 0. -1.
         11   -1    0    0    0    0 -0.00000000000E+00 -0.00000000000E+00 -0.45593999997E+02  0.45594000000E+02  0.51100000000E-03 0.  1.
    9900012    2    1    2    0    0 -0.44806327911E+01  0.81484249530E+01 -0.30499950011E+02  0.59301955246E+02  0.50000020459E+02 0.  0.
         12    1    1    2    0    0  0.44806327911E+01 -0.81484249530E+01  0.30499950011E+02  0.31886044754E+02  0.00000000000E+00 0. -1.
         11    1    3    3    0    0 -0.52904876065E+01 -0.33978594568E+01 -0.78053471940E+01  0.10022881476E+02  0.51100000000E-03 0. -1.
        -11    1    3    3    0    0 -0.76258811315E+01 -0.14435683993E+02 -0.68991478106E+01  0.17724031036E+02  0.51100000000E-03 0.  1.
         12    1    3    3    0    0  0.84357359469E+01  0.25981968403E+02 -0.15795455006E+02  0.31555042734E+02  0.00000000000E+00 0. -1.
</event>
<event>
 7    1  0.6230310E-012  0.5930193E+02  0.7816164E-02  0.1266605E+00
        -11   -1    0    0    0    0  0.00000000000E+00  0.00000000000E+00  0.45593999997E+02  0.45594000000E+02  0.51100000000E-03 0.  1.
         11   -1    0    0    0    0 -0.00000000000E+00 -0.00000000000E+00 -0.45593999997E+02  0.45594000000E+02  0.51100000000E-03 0. -1.
    9900012    2    1    2    0    0  0.19282368727E+02 -0.97949444497E+01  0.23430129459E+02  0.59301927069E+02  0.49999969072E+02 0.  0.
         12    1    1    2    0    0 -0.19282368727E+02  0.97949444497E+01 -0.23430129459E+02  0.31886072931E+02  0.00000000000E+00 0. -1.
         11    1    3    3    0    0  0.18998330462E+02  0.49034810201E+01  0.53750765151E+01  0.20343847578E+02  0.51100000000E-03 0. -1.
        -11    1    3    3    0    0 -0.26615974507E+01  0.49683552218E+01  0.18219327418E+02  0.19071249210E+02  0.51100000000E-03 0.  1.
        -12    1    3    3    0    0  0.29456357150E+01 -0.19666780692E+02 -0.16427447424E+00  0.19886830281E+02  0.00000000000E+00 0.  1.
</event>
<event>
 7    1  0.6230310E-012  0.5930195E+02  0.7816164E-02  0.1266605E+00
        -11   -1    0    0    0    0  0.00000000000E+00  0.00000000000E+00  0.45593999997E+02  0.45594000000E+02  0.51100000000E-03 0.  1.
         11   -1    0    0    0    0 -0.00000000000E+00 -0.00000000000E+00 -0.45593999997E+02  0.45594000000E+02  0.51100000000E-03 0. -1.
    9900012    2    1    2    0    0  0.55992131644E+01 -0.16016452194E+02  0.26997078643E+02  0.59301950007E+02  0.50000010904E+02 0.  0.
         12    1    1    2    0    0 -0.55992131644E+01  0.16016452194E+02 -0.26997078643E+02  0.31886049993E+02  0.00000000000E+00 0. -1.
         11    1    3    3    0    0  0.84602353394E+00  0.13154067596E+01  0.13503756745E+02  0.13594024322E+02  0.51100000000E-03 0. -1.
        -11    1    3    3    0    0 -0.36025693319E+01 -0.22741265261E+02  0.22566320735E+02  0.32239455381E+02  0.51100000000E-03 0.  1.
         12    1    3    3    0    0  0.83557589624E+01  0.54094063074E+01 -0.90729988374E+01  0.13468470304E+02  0.00000000000E+00 0. -1.
</event>
<event>
 7    1  0.6230310E-012  0.5930199E+02  0.7816164E-02  0.1266605E+00
        -11   -1    0    0    0    0  0.00000000000E+00  0.00000000000E+00  0.45593999997E+02  0.45594000000E+02  0.51100000000E-03 0.  1.
         11   -1    0    0    0    0 -0.00000000000E+00 -0.00000000000E+00 -0.45593999997E+02  0.45594000000E+02  0.51100000000E-03 0. -1.
    9900012    2    1    2    0    0 -0.38488343488E+01  0.74832037367E+01  0.30755583649E+02  0.59301987556E+02  0.50000079385E+02 0.  0.
         12    1    1    2    0    0  0.38488343488E+01 -0.74832037367E+01 -0.30755583649E+02  0.31886012444E+02  0.00000000000E+00 0. -1.
         11    1    3    3    0    0  0.63029104676E+01  0.43375395074E+01  0.23667453398E+02  0.24873465379E+02  0.51100000000E-03 0. -1.
        -11    1    3    3    0    0  0.63290498492E+01  0.12979182966E+02  0.20339222556E+01  0.14582623306E+02  0.51100000000E-03 0.  1.
         12    1    3    3    0    0 -0.16480794666E+02 -0.98335187371E+01  0.50542079945E+01  0.19845898871E+02  0.00000000000E+00 0. -1.
</event>
<event>
 7    1  0.6230310E-012  0.5930195E+02  0.7816164E-02  0.1266605E+00
        -11   -1    0    0    0    0  0.00000000000E+00  0.00000000000E+00  0.45593999997E+02  0.45594000000E+02  0.51100000000E-03 0. -1.
         11   -1    0    0    0    0 -0.00000000000E+00 -0.00000000000E+00 -0.45593999997E+02  0.45594000000E+02  0.51100000000E-03 0.  1.
    9900012    2    1    2    0    0 -0.75030063166E+01 -0.87939763584E+01 -0.29716852627E+02  0.59301945775E+02  0.50000003187E+02 0.  0.
         12    1    1    2    0    0  0.75030063166E+01  0.87939763584E+01  0.29716852627E+02  0.31886054225E+02  0.00000000000E+00 0. -1.
         11    1    3    3    0    0 -0.25286239409E+01 -0.67176419855E+01 -0.18226625036E+02  0.19589040644E+02  0.51100000000E-03 0.  1.
        -11    1    3    3    0    0 -0.13194467804E+02  0.21008625332E+01  0.97617386732E+01  0.16546877234E+02  0.51100000000E-03 0. -1.
         12    1    3    3    0    0  0.82200854282E+01 -0.41771969062E+01 -0.21251966264E+02  0.23166027897E+02  0.00000000000E+00 0. -1.
</event>
<event>
 7    1  0.6230310E-012  0.5930194E+02  0.7816164E-02  0.1266605E+00
        -11   -1    0    0    0    0  0.00000000000E+00  0.00000000000E+00  0.45593999997E+02  0.45594000000E+02  0.51100000000E-03 0. -1.
         11   -1    0    0    0    0 -0.00000000000E+00 -0.00000000000E+00 -0.45593999997E+02  0.45594000000E+02  0.51100000000E-03 0.  1.
    9900012    2    1    2    0    0  0.27754441461E+02  0.15108557677E+02 -0.42594719189E+01  0.59301942908E+02  0.49999997958E+02 0.  0.
         12    1    1    2    0    0 -0.27754441461E+02 -0.15108557677E+02  0.42594719189E+01  0.31886057092E+02  0.00000000000E+00 0. -1.
         11    1    3    3    0    0  0.21249489526E+02 -0.44395634414E+01  0.11898485605E+02  0.24755292133E+02  0.51100000000E-03 0. -1.
        -11    1    3    3    0    0 -0.35287536528E+01  0.36382797909E+01  0.43786863116E+01  0.66979158143E+01  0.51100000000E-03 0.  1.
        -12    1    3    3    0    0  0.10033705588E+02  0.15909841327E+02 -0.20536643835E+02  0.27848734960E+02  0.00000000000E+00 0.  1.
</event>
<event>
 7    1  0.6230310E-012  0.5930194E+02  0.7816164E-02  0.1266605E+00
        -11   -1    0    0    0    0  0.00000000000E+00  0.00000000000E+00  0.45593999997E+02  0.45594000000E+02  0.51100000000E-03 0. -1.
         11   -1    0    0    0    0 -0.00000000000E+00 -0.00000000000E+00 -0.45593999997E+02  0.45594000000E+02  0.51100000000E-03 0.  1.
    9900012    2    1    2    0    0 -0.17956669152E+02  0.23758491431E+02  0.11393544207E+02  0.59301941421E+02  0.49999995245E+02 0.  0.
         12    1    1    2    0    0  0.17956669152E+02 -0.23758491431E+02 -0.11393544207E+02  0.31886058579E+02  0.00000000000E+00 0. -1.
         11    1    3    3    0    0 -0.11197584889E+02  0.86801384239E+01  0.12488868789E+02  0.18886570740E+02  0.51100000000E-03 0. -1.
        -11    1    3    3    0    0 -0.10309549858E+02  0.23327243439E+02  0.88683602034E+01  0.27001757678E+02  0.51100000000E-03 0.  1.
         12    1    3    3    0    0  0.35504655948E+01 -0.82488904317E+01 -0.99636847854E+01  0.13413613003E+02  0.00000000000E+00 0. -1.
</event>
<event>
 7    1  0.6230310E-012  0.5930193E+02  0.7816164E-02  0.1266605E+00
        -11   -1    0    0    0    0  0.00000000000E+00  0.00000000000E+00  0.45593999997E+02  0.45594000000E+02  0.51100000000E-03 0. -1.
         11   -1    0    0    0    0 -0.00000000000E+00 -0.00000000000E+00 -0.45593999997E+02  0.45594000000E+02  0.51100000000E-03 0.  1.
    9900012    2    1    2    0    0 -0.19034295331E+02 -0.24953392759E+02 -0.56342737022E+01  0.59301933308E+02  0.49999980450E+02 0.  0.
         12    1    1    2    0    0  0.19034295331E+02  0.24953392759E+02  0.56342737022E+01  0.31886066692E+02  0.00000000000E+00 0. -1.
         11    1    3    3    0    0 -0.55187113641E+01  0.69708946641E+01  0.42328949475E+01  0.98471796691E+01  0.51100000000E-03 0. -1.
        -11    1    3    3    0    0 -0.23571550045E+02 -0.24641006404E+02 -0.85167393162E+00  0.34110445861E+02  0.51100000000E-03 0.  1.
        -12    1    3    3    0    0  0.10055966078E+02 -0.72832810195E+01 -0.90154947181E+01  0.15344307778E+02  0.00000000000E+00 0.  1.
</event>
<event>
 7    1  0.6230310E-012  0.5930195E+02  0.7816164E-02  0.1266605E+00
        -11   -1    0    0    0    0  0.00000000000E+00  0.00000000000E+00  0.45593999997E+02  0.45594000000E+02  0.51100000000E-03 0.  1.
         11   -1    0    0    0    0 -0.00000000000E+00 -0.00000000000E+00 -0.45593999997E+02  0.45594000000E+02  0.51100000000E-03 0. -1.
    9900012    2    1    2    0    0 -0.19858838322E+02  0.22427596709E+02 -0.10924714451E+02  0.59301953844E+02  0.50000017902E+02 0.  0.
         12    1    1    2    0    0  0.19858838322E+02 -0.22427596709E+02  0.10924714451E+02  0.31886046156E+02  0.00000000000E+00 0. -1.
         11    1    3    3    0    0 -0.28441089967E+01  0.20391960249E+01 -0.18629222240E+02  0.18955083696E+02  0.51100000000E-03 0. -1.
        -11    1    3    3    0    0 -0.72678649352E+01  0.15283145667E+02 -0.98855376267E+01  0.19598986112E+02  0.51100000000E-03 0.  1.
         12    1    3    3    0    0 -0.97468643899E+01  0.51052550168E+01  0.17590045415E+02  0.20747884035E+02  0.00000000000E+00 0. -1.
</event>
<event>
 7    1  0.6230310E-012  0.5930181E+02  0.7816164E-02  0.1266605E+00
        -11   -1    0    0    0    0  0.00000000000E+00  0.00000000000E+00  0.45593999997E+02  0.45594000000E+02  0.51100000000E-03 0.  1.
         11   -1    0    0    0    0 -0.00000000000E+00 -0.00000000000E+00 -0.45593999997E+02  0.45594000000E+02  0.51100000000E-03 0. -1.
    9900012    2    1    2    0    0 -0.25863700157E+02 -0.10235841337E+02  0.15589281194E+02  0.59301809857E+02  0.49999755305E+02 0.  0.
         12    1    1    2    0    0  0.25863700157E+02  0.10235841337E+02 -0.15589281194E+02  0.31886190143E+02  0.00000000000E+00 0. -1.
         11    1    3    3    0    0  0.14175063353E+01 -0.91156051903E+01  0.16137659064E+02  0.18588373315E+02  0.51100000000E-03 0. -1.
        -11    1    3    3    0    0 -0.90015015439E+01 -0.96187251588E+01  0.11277913797E+02  0.17341806238E+02  0.51100000000E-03 0.  1.
        -12    1    3    3    0    0 -0.18279704948E+02  0.84984890124E+01 -0.11826291666E+02  0.23371630304E+02  0.00000000000E+00 0.  1.
</event>
<event>
 7    1  0.6230310E-012  0.5930191E+02  0.7816164E-02  0.1266605E+00
        -11   -1    0    0    0    0  0.00000000000E+00  0.00000000000E+00  0.45593999997E+02  0.45594000000E+02  0.51100000000E-03 0. -1.
         11   -1    0    0    0    0 -0.00000000000E+00 -0.00000000000E+00 -0.45593999997E+02  0.45594000000E+02  0.51100000000E-03 0.  1.
    9900012    2    1    2    0    0  0.12146772041E+02 -0.29213336952E+02 -0.39698428090E+01  0.59301909320E+02  0.49999936702E+02 0.  0.
         12    1    1    2    0    0 -0.12146772041E+02  0.29213336952E+02  0.39698428090E+01  0.31886090680E+02  0.00000000000E+00 0. -1.
         11    1    3    3    0    0 -0.13152286170E+01 -0.26743400637E+02  0.13284977710E+02  0.29890298375E+02  0.51100000000E-03 0. -1.
        -11    1    3    3    0    0  0.62901983485E+01 -0.22646170905E+01  0.34327256482E+01  0.75152306330E+01  0.51100000000E-03 0.  1.
         12    1    3    3    0    0  0.71718023098E+01 -0.20531922413E+00 -0.20687546167E+02  0.21896380312E+02  0.00000000000E+00 0. -1.
</event>
<event>
 7    1  0.6230310E-012  0.5930193E+02  0.7816164E-02  0.1266605E+00
        -11   -1    0    0    0    0  0.00000000000E+00  0.00000000000E+00  0.45593999997E+02  0.45594000000E+02  0.51100000000E-03 0. -1.
         11   -1    0    0    0    0 -0.00000000000E+00 -0.00000000000E+00 -0.45593999997E+02  0.45594000000E+02  0.51100000000E-03 0.  1.
    9900012    2    1    2    0    0 -0.18007295955E+01 -0.10238902809E+02 -0.30143712631E+02  0.59301934564E+02  0.49999982740E+02 0.  0.
         12    1    1    2    0    0  0.18007295955E+01  0.10238902809E+02  0.30143712631E+02  0.31886065436E+02  0.00000000000E+00 0. -1.
         11    1    3    3    0    0 -0.43627629514E+01 -0.11180113500E+02 -0.61022553481E+01  0.13463512136E+02  0.51100000000E-03 0. -1.
        -11    1    3    3    0    0 -0.14056828189E+02  0.11567750026E+02 -0.16957883561E+02  0.24879249878E+02  0.51100000000E-03 0.  1.
         12    1    3    3    0    0  0.16618861545E+02 -0.10626539335E+02 -0.70835737220E+01  0.20959172549E+02  0.00000000000E+00 0. -1.
</event>
<event>
 7    1  0.6230310E-012  0.5930193E+02  0.7816164E-02  0.1266605E+00
        -11   -1    0    0    0    0  0.00000000000E+00  0.00000000000E+00  0.45593999997E+02  0.45594000000E+02  0.51100000000E-03 0.  1.
         11   -1    0    0    0    0 -0.00000000000E+00 -0.00000000000E+00 -0.45593999997E+02  0.45594000000E+02  0.51100000000E-03 0. -1.
    9900012    2    1    2    0    0 -0.24800042338E+02  0.20023668073E+02 -0.85565105612E+00  0.59301929032E+02  0.49999972651E+02 0.  0.
         12    1    1    2    0    0  0.24800042338E+02 -0.20023668073E+02  0.85565105612E+00  0.31886070968E+02  0.00000000000E+00 0. -1.
         11    1    3    3    0    0 -0.22538402213E+02  0.25118587442E+02 -0.11872458289E+01  0.33768810496E+02  0.51100000000E-03 0. -1.
        -11    1    3    3    0    0 -0.10615599664E+02 -0.78066085675E+01  0.66049718451E+01  0.14739733610E+02  0.51100000000E-03 0.  1.
        -12    1    3    3    0    0  0.83539595386E+01  0.27116891983E+01 -0.62733770723E+01  0.10793384927E+02  0.00000000000E+00 0.  1.
</event>
<event>
 7    1  0.6230310E-012  0.5930162E+02  0.7816164E-02  0.1266606E+00
        -11   -1    0    0    0    0  0.00000000000E+00  0.00000000000E+00  0.45593999997E+02  0.45594000000E+02  0.51100000000E-03 0.  1.
         11   -1    0    0    0    0 -0.00000000000E+00 -0.00000000000E+00 -0.45593999997E+02  0.45594000000E+02  0.51100000000E-03 0. -1.
    9900012    2    1    2    0    0  0.23537763447E+02 -0.13709697070E+02  0.16575868786E+02  0.59301615322E+02  0.49999400516E+02 0.  0.
         12    1    1    2    0    0 -0.23537763447E+02  0.13709697070E+02 -0.16575868786E+02  0.31886384678E+02  0.00000000000E+00 0. -1.
         11    1    3    3    0    0  0.15457027989E+02 -0.34378028832E+01  0.13897915009E+01  0.15895588181E+02  0.51100000000E-03 0. -1.
        -11    1    3    3    0    0  0.21704118271E+02 -0.90080955315E+01  0.74240892316E+00  0.23510969914E+02  0.51100000000E-03 0.  1.
        -12    1    3    3    0    0 -0.13623382814E+02 -0.12637986550E+01  0.14443668362E+02  0.19895057227E+02  0.00000000000E+00 0.  1.
</event>
<event>
 7    1  0.6230310E-012  0.5930191E+02  0.7816164E-02  0.1266605E+00
        -11   -1    0    0    0    0  0.00000000000E+00  0.00000000000E+00  0.45593999997E+02  0.45594000000E+02  0.51100000000E-03 0.  1.
         11   -1    0    0    0    0 -0.00000000000E+00 -0.00000000000E+00 -0.45593999997E+02  0.45594000000E+02  0.51100000000E-03 0. -1.
    9900012    2    1    2    0    0  0.27559199904E+02 -0.15686387012E+02 -0.33392295485E+01  0.59301910700E+02  0.49999939218E+02 0.  0.
         12    1    1    2    0    0 -0.27559199904E+02  0.15686387012E+02  0.33392295485E+01  0.31886089300E+02  0.00000000000E+00 0. -1.
         11    1    3    3    0    0  0.54434821355E+01  0.11987539080E+02  0.25579922450E+00  0.13168068365E+02  0.51100000000E-03 0. -1.
        -11    1    3    3    0    0  0.11145150274E+02 -0.17397664579E+02 -0.16406586386E+02  0.26383123100E+02  0.51100000000E-03 0.  1.
         12    1    3    3    0    0  0.10970567495E+02 -0.10276261513E+02  0.12811557613E+02  0.19750719235E+02  0.00000000000E+00 0. -1.
</event>
<event>
 7    1  0.6230310E-012  0.5930192E+02  0.7816164E-02  0.1266605E+00
        -11   -1    0    0    0    0  0.00000000000E+00  0.00000000000E+00  0.45593999997E+02  0.45594000000E+02  0.51100000000E-03 0. -1.
         11   -1    0    0    0    0 -0.00000000000E+00 -0.00000000000E+00 -0.45593999997E+02  0.45594000000E+02  0.51100000000E-03 0.  1.
    9900012    2    1    2    0    0  0.88266816762E+01  0.29839097564E+02  0.69599063094E+01  0.59301916066E+02  0.49999949004E+02 0.  0.
         12    1    1    2    0    0 -0.88266816762E+01 -0.29839097564E+02 -0.69599063094E+01  0.31886083934E+02  0.00000000000E+00 0. -1.
         11    1    3    3    0    0 -0.26972884703E+01 -0.45683988686E+01 -0.40155104861E+01  0.66535673168E+01  0.51100000000E-03 0. -1.
        -11    1    3    3    0    0 -0.10031764783E+02 -0.59044521413E+00  0.46050849345E+01  0.11054037168E+02  0.51100000000E-03 0.  1.
         12    1    3    3    0    0  0.21555734929E+02  0.34997941647E+02  0.63703318610E+01  0.41594311580E+02  0.00000000000E+00 0. -1.
</event>
<event>
 7    1  0.6230310E-012  0.5930194E+02  0.7816164E-02  0.1266605E+00
        -11   -1    0    0    0    0  0.00000000000E+00  0.00000000000E+00  0.45593999997E+02  0.45594000000E+02  0.51100000000E-03 0. -1.
         11   -1    0    0    0    0 -0.00000000000E+00 -0.00000000000E+00 -0.45593999997E+02  0.45594000000E+02  0.51100000000E-03 0.  1.
    9900012    2    1    2    0    0 -0.11503389996E+02  0.29670099623E+02 -0.20193831127E+01  0.59301941899E+02  0.49999996118E+02 0.  0.
         12    1    1    2    0    0  0.11503389996E+02 -0.29670099623E+02  0.20193831127E+01  0.31886058101E+02  0.00000000000E+00 0. -1.
         11    1    3    3    0    0 -0.42522581725E+01 -0.98684400537E+01  0.30375828144E+01  0.11166678928E+02  0.51100000000E-03 0. -1.
        -11    1    3    3    0    0 -0.60333280754E+01  0.34440531492E+01 -0.94772015255E+01  0.11750740350E+02  0.51100000000E-03 0.  1.
        -12    1    3    3    0    0 -0.12178037485E+01  0.36094486527E+02  0.44202355984E+01  0.36384522621E+02  0.00000000000E+00 0.  1.
</event>
<event>
 7    1  0.6230310E-012  0.5930194E+02  0.7816164E-02  0.1266605E+00
        -11   -1    0    0    0    0  0.00000000000E+00  0.00000000000E+00  0.45593999997E+02  0.45594000000E+02  0.51100000000E-03 0.  1.
         11   -1    0    0    0    0 -0.00000000000E+00 -0.00000000000E+00 -0.45593999997E+02  0.45594000000E+02  0.51100000000E-03 0. -1.
    9900012    2    1    2    0    0 -0.55288476468E+01 -0.47670238494E+01  0.31039134422E+02  0.59301944453E+02  0.50000000776E+02 0.  0.
         12    1    1    2    0    0  0.55288476468E+01  0.47670238494E+01 -0.31039134422E+02  0.31886055547E+02  0.00000000000E+00 0. -1.
         11    1    3    3    0    0 -0.66617383339E+01 -0.10053080815E+02  0.93220469033E+01  0.15242826189E+02  0.51100000000E-03 0.  1.
        -11    1    3    3    0    0  0.11464376824E+02  0.14191522925E+02 -0.19944704124E+00  0.18244753719E+02  0.51100000000E-03 0. -1.
         12    1    3    3    0    0 -0.10331486137E+02 -0.89054659597E+01  0.21916534560E+02  0.25814364545E+02  0.00000000000E+00 0. -1.
</event>
<event>
 7    1  0.6230310E-012  0.5930195E+02  0.7816164E-02  0.1266605E+00
        -11   -1    0    0    0    0  0.00000000000E+00  0.00000000000E+00  0.45593999997E+02  0.45594000000E+02  0.51100000000E-03 0.  1.
         11   -1    0    0    0    0 -0.00000000000E+00 -0.00000000000E+00 -0.45593999997E+02  0.45594000000E+02  0.51100000000E-03 0. -1.
    9900012    2    1    2    0    0 -0.28763734540E+02 -0.12520657622E+02 -0.57097338546E+01  0.59301947365E+02  0.50000006086E+02 0.  0.
         12    1    1    2    0    0  0.28763734540E+02  0.12520657622E+02  0.57097338546E+01  0.31886052635E+02  0.00000000000E+00 0. -1.
         11    1    3    3    0    0 -0.70567247508E+00 -0.62682702816E+01  0.35895802183E+01  0.72577043457E+01  0.51100000000E-03 0. -1.
        -11    1    3    3    0    0 -0.95462353543E+01 -0.19924753441E+02  0.77391152479E+01  0.23409833707E+02  0.51100000000E-03 0.  1.
         12    1    3    3    0    0 -0.18511826710E+02  0.13672366100E+02 -0.17038429321E+02  0.28634409312E+02  0.00000000000E+00 0. -1.
</event>
<event>
 7    1  0.6230310E-012  0.5930194E+02  0.7816164E-02  0.1266605E+00
        -11   -1    0    0    0    0  0.00000000000E+00  0.00000000000E+00  0.45593999997E+02  0.45594000000E+02  0.51100000000E-03 0. -1.
         11   -1    0    0    0    0 -0.00000000000E+00 -0.00000000000E+00 -0.45593999997E+02  0.45594000000E+02  0.51100000000E-03 0.  1.
    9900012    2    1    2    0    0  0.63213792536E+01 -0.91448213724E+01 -0.29885331508E+02  0.59301942970E+02  0.49999998071E+02 0.  0.
         12    1    1    2    0    0 -0.63213792536E+01  0.91448213724E+01  0.29885331508E+02  0.31886057030E+02  0.00000000000E+00 0. -1.
         11    1    3    3    0    0 -0.59296132132E+01  0.61126959716E+01  0.47179452823E+01  0.97357266214E+01  0.51100000000E-03 0. -1.
        -11    1    3    3    0    0 -0.57469532839E+01 -0.71501744413E+01  0.61406552428E+00  0.91939949596E+01  0.51100000000E-03 0.  1.
        -12    1    3    3    0    0  0.17997945751E+02 -0.81073429028E+01 -0.35217342314E+02  0.40372221389E+02  0.00000000000E+00 0.  1.
</event>
<event>
 7    1  0.6230310E-012  0.5930193E+02  0.7816164E-02  0.1266605E+00
        -11   -1    0    0    0    0  0.00000000000E+00  0.00000000000E+00  0.45593999997E+02  0.45594000000E+02  0.51100000000E-03 0. -1.
         11   -1    0    0    0    0 -0.00000000000E+00 -0.00000000000E+00 -0.45593999997E+02  0.45594000000E+02  0.51100000000E-03 0.  1.
    9900012    2    1    2    0    0 -0.59549466169E-01 -0.19922210518E+02 -0.24896247375E+02  0.59301934840E+02  0.49999983243E+02 0.  0.
         12    1    1    2    0    0  0.59549466169E-01  0.19922210518E+02  0.24896247375E+02  0.31886065160E+02  0.00000000000E+00 0. -1.
         11    1    3    3    0    0 -0.13143214207E+02 -0.39187707469E+01 -0.46497485573E+00  0.13722865799E+02  0.51100000000E-03 0.  1.
        -11    1    3    3    0    0  0.10275646233E+02 -0.17998442339E+02 -0.31505308001E+02  0.37710970084E+02  0.51100000000E-03 0. -1.
         12    1    3    3    0    0  0.28080185081E+01  0.19950025677E+01  0.70740354826E+01  0.78680989569E+01  0.00000000000E+00 0. -1.
</event>
<event>
 7    1  0.6230310E-012  0.5930195E+02  0.7816164E-02  0.1266605E+00
        -11   -1    0    0    0    0  0.00000000000E+00  0.00000000000E+00  0.45593999997E+02  0.45594000000E+02  0.51100000000E-03 0.  1.
         11   -1    0    0    0    0 -0.00000000000E+00 -0.00000000000E+00 -0.45593999997E+02  0.45594000000E+02  0.51100000000E-03 0. -1.
    9900012    2    1    2    0    0  0.16804653519E+02 -0.72282690137E+01  0.26116581585E+02  0.59301951538E+02  0.50000013696E+02 0.  0.
         12    1    1    2    0    0 -0.16804653519E+02  0.72282690137E+01 -0.26116581585E+02  0.31886048462E+02  0.00000000000E+00 0. -1.
         11    1    3    3    0    0  0.15787436860E+02 -0.17338470699E+02  0.21377155655E+02  0.31730876334E+02  0.51100000000E-03 0. -1.
        -11    1    3    3    0    0  0.12726526874E+02  0.22295131783E+01  0.35912725132E+01  0.13410162333E+02  0.51100000000E-03 0.  1.
         12    1    3    3    0    0 -0.11709310214E+02  0.78806885074E+01  0.11481534176E+01  0.14160912870E+02  0.00000000000E+00 0. -1.
</event>
<event>
 7    1  0.6230310E-012  0.5930194E+02  0.7816164E-02  0.1266605E+00
        -11   -1    0    0    0    0  0.00000000000E+00  0.00000000000E+00  0.45593999997E+02  0.45594000000E+02  0.51100000000E-03 0.  1.
         11   -1    0    0    0    0 -0.00000000000E+00 -0.00000000000E+00 -0.45593999997E+02  0.45594000000E+02  0.51100000000E-03 0. -1.
    9900012    2    1    2    0    0 -0.64490920934E+01 -0.27259893695E+00  0.31225884619E+02  0.59301937696E+02  0.49999988453E+02 0.  0.
         12    1    1    2    0    0  0.64490920934E+01  0.27259893695E+00 -0.31225884619E+02  0.31886062304E+02  0.00000000000E+00 0. -1.
         11    1    3    3    0    0  0.20807444211E+01 -0.21006034495E+02  0.78504078775E+01  0.22521365115E+02  0.51100000000E-03 0. -1.
        -11    1    3    3    0    0 -0.39996419875E+01 -0.24959456394E+01  0.34376121663E+01  0.58347286423E+01  0.51100000000E-03 0.  1.
         12    1    3    3    0    0 -0.45301945270E+01  0.23229381197E+02  0.19937864575E+02  0.30945843939E+02  0.00000000000E+00 0. -1.
</event>
<event>
 7    1  0.6230310E-012  0.5930195E+02  0.7816164E-02  0.1266605E+00
        -11   -1    0    0    0    0  0.00000000000E+00  0.00000000000E+00  0.45593999997E+02  0.45594000000E+02  0.51100000000E-03 0.  1.
         11   -1    0    0    0    0 -0.00000000000E+00 -0.00000000000E+00 -0.45593999997E+02  0.45594000000E+02  0.51100000000E-03 0. -1.
    9900012    2    1    2    0    0  0.10466524104E+00  0.52385909397E+01  0.31452603784E+02  0.59301951724E+02  0.50000014036E+02 0.  0.
         12    1    1    2    0    0 -0.10466524104E+00 -0.52385909397E+01 -0.31452603784E+02  0.31886048276E+02  0.00000000000E+00 0. -1.
         11    1    3    3    0    0 -0.13441011553E+02  0.48090256431E+01  0.22049032599E+02  0.26266849031E+02  0.51100000000E-03 0. -1.
        -11    1    3    3    0    0 -0.84767579824E+01 -0.37091690986E+01  0.30813190402E+01  0.97523273418E+01  0.51100000000E-03 0.  1.
         12    1    3    3    0    0  0.22022434776E+02  0.41387343951E+01  0.63222521453E+01  0.23282775351E+02  0.00000000000E+00 0. -1.
</event>
<event>
 7    1  0.6230310E-012  0.5930193E+02  0.7816164E-02  0.1266605E+00
        -11   -1    0    0    0    0  0.00000000000E+00  0.00000000000E+00  0.45593999997E+02  0.45594000000E+02  0.51100000000E-03 0.  1.
         11   -1    0    0    0    0 -0.00000000000E+00 -0.00000000000E+00 -0.45593999997E+02  0.45594000000E+02  0.51100000000E-03 0. -1.
    9900012    2    1    2    0    0  0.30165564216E+02  0.78029280451E+01 -0.67730512650E+01  0.59301934485E+02  0.49999982597E+02 0.  0.
         12    1    1    2    0    0 -0.30165564216E+02 -0.78029280451E+01  0.67730512650E+01  0.31886065515E+02  0.00000000000E+00 0. -1.
         11    1    3    3    0    0 -0.53970679144E+01  0.11890601757E+02 -0.16177024731E+02  0.20789682095E+02  0.51100000000E-03 0. -1.
        -11    1    3    3    0    0  0.14097464980E+02  0.30721966541E+01  0.13397243144E+01  0.14490402777E+02  0.51100000000E-03 0.  1.
        -12    1    3    3    0    0  0.21465167150E+02 -0.71598703656E+01  0.80642491518E+01  0.24021849613E+02  0.00000000000E+00 0.  1.
</event>
<event>
 7    1  0.6230310E-012  0.5930194E+02  0.7816164E-02  0.1266605E+00
        -11   -1    0    0    0    0  0.00000000000E+00  0.00000000000E+00  0.45593999997E+02  0.45594000000E+02  0.51100000000E-03 0.  1.
         11   -1    0    0    0    0 -0.00000000000E+00 -0.00000000000E+00 -0.45593999997E+02  0.45594000000E+02  0.51100000000E-03 0. -1.
    9900012    2    1    2    0    0  0.27632657711E+02  0.10343559093E+02  0.12089982572E+02  0.59301942460E+02  0.49999997140E+02 0.  0.
         12    1    1    2    0    0 -0.27632657711E+02 -0.10343559093E+02 -0.12089982572E+02  0.31886057540E+02  0.00000000000E+00 0. -1.
         11    1    3    3    0    0 -0.10814855527E+02  0.11958072010E+02 -0.78285432937E+00  0.16142163654E+02  0.51100000000E-03 0. -1.
        -11    1    3    3    0    0  0.89551998603E+01 -0.39982817563E+01 -0.20529485138E+01  0.10019803361E+02  0.51100000000E-03 0.  1.
        -12    1    3    3    0    0  0.29492313377E+02  0.23837688395E+01  0.14925785415E+02  0.33139975445E+02  0.00000000000E+00 0.  1.
</event>
<event>
 7    1  0.6230310E-012  0.5930194E+02  0.7816164E-02  0.1266605E+00
        -11   -1    0    0    0    0  0.00000000000E+00  0.00000000000E+00  0.45593999997E+02  0.45594000000E+02  0.51100000000E-03 0.  1.
         11   -1    0    0    0    0 -0.00000000000E+00 -0.00000000000E+00 -0.45593999997E+02  0.45594000000E+02  0.51100000000E-03 0. -1.
    9900012    2    1    2    0    0  0.68949282319E+01  0.36440263227E+01  0.30917662040E+02  0.59301940520E+02  0.49999993602E+02 0.  0.
         12    1    1    2    0    0 -0.68949282319E+01 -0.36440263227E+01 -0.30917662040E+02  0.31886059480E+02  0.00000000000E+00 0. -1.
         11    1    3    3    0    0  0.51406681148E+01  0.16982384939E+02  0.36816498184E+01  0.18121324801E+02  0.51100000000E-03 0. -1.
        -11    1    3    3    0    0  0.75224353849E+01  0.49548133364E+01  0.17472362251E+02  0.19657585106E+02  0.51100000000E-03 0.  1.
        -12    1    3    3    0    0 -0.57681752678E+01 -0.18293171953E+02  0.97636499710E+01  0.21523030613E+02  0.00000000000E+00 0.  1.
</event>
<event>
 7    1  0.6230310E-012  0.5930195E+02  0.7816164E-02  0.1266605E+00
        -11   -1    0    0    0    0  0.00000000000E+00  0.00000000000E+00  0.45593999997E+02  0.45594000000E+02  0.51100000000E-03 0.  1.
         11   -1    0    0    0    0 -0.00000000000E+00 -0.00000000000E+00 -0.45593999997E+02  0.45594000000E+02  0.51100000000E-03 0. -1.
    9900012    2    1    2    0    0  0.24424169572E+02  0.18226891023E+02  0.93787449501E+01  0.59301945486E+02  0.50000002659E+02 0.  0.
         12    1    1    2    0    0 -0.24424169572E+02 -0.18226891023E+02 -0.93787449501E+01  0.31886054514E+02  0.00000000000E+00 0. -1.
         11    1    3    3    0    0  0.17985160327E+02 -0.98407508250E-01 -0.49362260949E+01  0.18650522897E+02  0.51100000000E-03 0. -1.
        -11    1    3    3    0    0  0.14206475295E+02 -0.79758268417E+00  0.14068757240E+02  0.20009747849E+02  0.51100000000E-03 0.  1.
         12    1    3    3    0    0 -0.77674660499E+01  0.19122881215E+02  0.24621380535E+00  0.20641674740E+02  0.00000000000E+00 0. -1.
</event>
<event>
 7    1  0.6230310E-012  0.5930195E+02  0.7816164E-02  0.1266605E+00
        -11   -1    0    0    0    0  0.00000000000E+00  0.00000000000E+00  0.45593999997E+02  0.45594000000E+02  0.51100000000E-03 0. -1.
         11   -1    0    0    0    0 -0.00000000000E+00 -0.00000000000E+00 -0.45593999997E+02  0.45594000000E+02  0.51100000000E-03 0.  1.
    9900012    2    1    2    0    0  0.35311665761E+01  0.10616218143E+02 -0.29858778893E+02  0.59301954431E+02  0.50000018974E+02 0.  0.
         12    1    1    2    0    0 -0.35311665761E+01 -0.10616218143E+02  0.29858778893E+02  0.31886045569E+02  0.00000000000E+00 0. -1.
         11    1    3    3    0    0 -0.39955580737E+01  0.10241256905E+02 -0.16278998954E+02  0.19643157448E+02  0.51100000000E-03 0. -1.
        -11    1    3    3    0    0 -0.54871176847E+01 -0.15394815355E+02 -0.91779457886E+01  0.18744158809E+02  0.51100000000E-03 0.  1.
         12    1    3    3    0    0  0.13013842335E+02  0.15769776592E+02 -0.44018341497E+01  0.20914638174E+02  0.00000000000E+00 0. -1.
</event>
<event>
 7    1  0.6230310E-012  0.5930169E+02  0.7816164E-02  0.1266606E+00
        -11   -1    0    0    0    0  0.00000000000E+00  0.00000000000E+00  0.45593999997E+02  0.45594000000E+02  0.51100000000E-03 0.  1.
         11   -1    0    0    0    0 -0.00000000000E+00 -0.00000000000E+00 -0.45593999997E+02  0.45594000000E+02  0.51100000000E-03 0. -1.
    9900012    2    1    2    0    0 -0.59611016945E+00 -0.96643317788E+01  0.30380625455E+02  0.59301685395E+02  0.49999528314E+02 0.  0.
         12    1    1    2    0    0  0.59611016945E+00  0.96643317788E+01 -0.30380625455E+02  0.31886314605E+02  0.00000000000E+00 0. -1.
         11    1    3    3    0    0  0.39661589517E+01 -0.81321310008E+01 -0.74767091343E+01  0.11737254840E+02  0.51100000000E-03 0. -1.
        -11    1    3    3    0    0  0.11895646415E+02 -0.17019003213E+01  0.19535733203E+02  0.22935730649E+02  0.51100000000E-03 0.  1.
         12    1    3    3    0    0 -0.16457915536E+02  0.16969954332E+00  0.18321601386E+02  0.24628699906E+02  0.00000000000E+00 0. -1.
</event>
<event>
 7    1  0.6230310E-012  0.5930198E+02  0.7816164E-02  0.1266605E+00
        -11   -1    0    0    0    0  0.00000000000E+00  0.00000000000E+00  0.45593999997E+02  0.45594000000E+02  0.51100000000E-03 0. -1.
         11   -1    0    0    0    0 -0.00000000000E+00 -0.00000000000E+00 -0.45593999997E+02  0.45594000000E+02  0.51100000000E-03 0.  1.
    9900012    2    1    2    0    0 -0.25147834143E+02  0.19530968114E+02  0.16870959417E+01  0.59301975314E+02  0.50000057059E+02 0.  0.
         12    1    1    2    0    0  0.25147834143E+02 -0.19530968114E+02 -0.16870959417E+01  0.31886024686E+02  0.00000000000E+00 0. -1.
         11    1    3    3    0    0 -0.69286459071E+01  0.80116635807E+01  0.10722055769E+02  0.15071674347E+02  0.51100000000E-03 0. -1.
        -11    1    3    3    0    0 -0.26524978526E+01  0.22164835138E+02 -0.11668441451E+02  0.25188651963E+02  0.51100000000E-03 0.  1.
         12    1    3    3    0    0 -0.15566690383E+02 -0.10645530605E+02  0.26334816239E+01  0.19041649005E+02  0.00000000000E+00 0. -1.
</event>
<event>
 7    1  0.6230310E-012  0.5930192E+02  0.7816164E-02  0.1266605E+00
        -11   -1    0    0    0    0  0.00000000000E+00  0.00000000000E+00  0.45593999997E+02  0.45594000000E+02  0.51100000000E-03 0. -1.
         11   -1    0    0    0    0 -0.00000000000E+00 -0.00000000000E+00 -0.45593999997E+02  0.45594000000E+02  0.51100000000E-03 0.  1.
    9900012    2    1    2    0    0  0.30137028416E+02  0.60846701710E+01  0.84533054324E+01  0.59301920505E+02  0.49999957100E+02 0.  0.
         12    1    1    2    0    0 -0.30137028416E+02 -0.60846701710E+01 -0.84533054324E+01  0.31886079495E+02  0.00000000000E+00 0. -1.
         11    1    3    3    0    0  0.61011930492E+01 -0.66064942664E+01  0.27258484517E+01  0.93968384661E+01  0.51100000000E-03 0. -1.
        -11    1    3    3    0    0  0.33997419982E+02  0.61353825244E+01  0.11821170310E+02  0.36513114794E+02  0.51100000000E-03 0.  1.
         12    1    3    3    0    0 -0.99615846154E+01  0.65557819130E+01 -0.60937133295E+01  0.13391967245E+02  0.00000000000E+00 0. -1.
</event>
<event>
 7    1  0.6230310E-012  0.5930202E+02  0.7816164E-02  0.1266604E+00
        -11   -1    0    0    0    0  0.00000000000E+00  0.00000000000E+00  0.45593999997E+02  0.45594000000E+02  0.51100000000E-03 0. -1.
         11   -1    0    0    0    0 -0.00000000000E+00 -0.00000000000E+00 -0.45593999997E+02  0.45594000000E+02  0.51100000000E-03 0.  1.
    9900012    2    1    2    0    0 -0.29810863581E+02 -0.74248720376E+01 -0.85381067586E+01  0.59302022216E+02  0.50000142596E+02 0.  0.
         12    1    1    2    0    0  0.29810863581E+02  0.74248720376E+01  0.85381067586E+01  0.31885977784E+02  0.00000000000E+00 0. -1.
         11    1    3    3    0    0 -0.15151330594E+02 -0.10761740128E+02 -0.48496590119E+01  0.19206693160E+02  0.51100000000E-03 0. -1.
        -11    1    3    3    0    0 -0.23598197635E+02  0.19453670593E+01 -0.13083900382E+02  0.27052686264E+02  0.51100000000E-03 0.  1.
         12    1    3    3    0    0  0.89386646472E+01  0.13915010310E+01  0.93954526354E+01  0.13042642793E+02  0.00000000000E+00 0. -1.
</event>
<event>
 7    1  0.6230310E-012  0.5930196E+02  0.7816164E-02  0.1266605E+00
        -11   -1    0    0    0    0  0.00000000000E+00  0.00000000000E+00  0.45593999997E+02  0.45594000000E+02  0.51100000000E-03 0. -1.
         11   -1    0    0    0    0 -0.00000000000E+00 -0.00000000000E+00 -0.45593999997E+02  0.45594000000E+02  0.51100000000E-03 0.  1.
    9900012    2    1    2    0    0  0.91329705107E+01  0.34594021202E+01 -0.30353603262E+02  0.59301955335E+02  0.50000020621E+02 0.  0.
         12    1    1    2    0    0 -0.91329705107E+01 -0.34594021202E+01  0.30353603262E+02  0.31886044665E+02  0.00000000000E+00 0. -1.
         11    1    3    3    0    0 -0.14090894118E+02  0.38958515174E+00 -0.11189657646E+02  0.17997597399E+02  0.51100000000E-03 0. -1.
        -11    1    3    3    0    0  0.72866356493E+01 -0.61632127483E+01 -0.20727974702E+02  0.22819491361E+02  0.51100000000E-03 0.  1.
        -12    1    3    3    0    0  0.15937228980E+02  0.92330297167E+01  0.15640290857E+01  0.18484866575E+02  0.00000000000E+00 0.  1.
</event>
<event>
 7    1  0.6230310E-012  0.5930194E+02  0.7816164E-02  0.1266605E+00
        -11   -1    0    0    0    0  0.00000000000E+00  0.00000000000E+00  0.45593999997E+02  0.45594000000E+02  0.51100000000E-03 0.  1.
         11   -1    0    0    0    0 -0.00000000000E+00 -0.00000000000E+00 -0.45593999997E+02  0.45594000000E+02  0.51100000000E-03 0. -1.
    9900012    2    1    2    0    0 -0.18003318266E+02  0.11023538525E+02  0.23897348165E+02  0.59301935340E+02  0.49999984155E+02 0.  0.
         12    1    1    2    0    0  0.18003318266E+02 -0.11023538525E+02 -0.23897348165E+02  0.31886064660E+02  0.00000000000E+00 0. -1.
         11    1    3    3    0    0 -0.15530703971E+02 -0.43925601963E+00  0.97250400952E+01  0.18329542188E+02  0.51100000000E-03 0. -1.
        -11    1    3    3    0    0 -0.66016385155E+01  0.20587304759E+02  0.19943231760E+02  0.29413453412E+02  0.51100000000E-03 0.  1.
         12    1    3    3    0    0  0.41290242209E+01 -0.91245102142E+01 -0.57709236904E+01  0.11558939740E+02  0.00000000000E+00 0. -1.
</event>
<event>
 7    1  0.6230310E-012  0.5930193E+02  0.7816164E-02  0.1266605E+00
        -11   -1    0    0    0    0  0.00000000000E+00  0.00000000000E+00  0.45593999997E+02  0.45594000000E+02  0.51100000000E-03 0. -1.
         11   -1    0    0    0    0 -0.00000000000E+00 -0.00000000000E+00 -0.45593999997E+02  0.45594000000E+02  0.51100000000E-03 0.  1.
    9900012    2    1    2    0    0 -0.28062790012E+02 -0.10076786100E+02 -0.11298655826E+02  0.59301930552E+02  0.49999975423E+02 0.  0.
         12    1    1    2    0    0  0.28062790012E+02  0.10076786100E+02  0.11298655826E+02  0.31886069448E+02  0.00000000000E+00 0. -1.
         11    1    3    3    0    0 -0.43897411000E+01 -0.48054431335E+01  0.76241625421E+01  0.10024468333E+02  0.51100000000E-03 0. -1.
        -11    1    3    3    0    0 -0.15238903940E+02 -0.21814571917E+02 -0.13993329924E+02  0.30065146330E+02  0.51100000000E-03 0.  1.
        -12    1    3    3    0    0 -0.84341449719E+01  0.16543228950E+02 -0.49294884440E+01  0.19212315889E+02  0.00000000000E+00 0.  1.
</event>
<event>
 7    1  0.6230310E-012  0.5930195E+02  0.7816164E-02  0.1266605E+00
        -11   -1    0    0    0    0  0.00000000000E+00  0.00000000000E+00  0.45593999997E+02  0.45594000000E+02  0.51100000000E-03 0. -1.
         11   -1    0    0    0    0 -0.00000000000E+00 -0.00000000000E+00 -0.45593999997E+02  0.45594000000E+02  0.51100000000E-03 0.  1.
    9900012    2    1    2    0    0  0.15445758186E+02 -0.27600743691E+02  0.40432455838E+01  0.59301947672E+02  0.50000006646E+02 0.  0.
         12    1    1    2    0    0 -0.15445758186E+02  0.27600743691E+02 -0.40432455838E+01  0.31886052328E+02  0.00000000000E+00 0. -1.
         11    1    3    3    0    0 -0.11423935241E+02 -0.70347146606E+01 -0.12169067195E+01  0.13471242295E+02  0.51100000000E-03 0. -1.
        -11    1    3    3    0    0 -0.11539034721E+01 -0.13566992492E+02 -0.59342125656E+01  0.14852934307E+02  0.51100000000E-03 0.  1.
        -12    1    3    3    0    0  0.28023596899E+02 -0.69990365385E+01  0.11194364869E+02  0.30977771070E+02  0.00000000000E+00 0.  1.
</event>
<event>
 7    1  0.6230310E-012  0.5930195E+02  0.7816164E-02  0.1266605E+00
        -11   -1    0    0    0    0  0.00000000000E+00  0.00000000000E+00  0.45593999997E+02  0.45594000000E+02  0.51100000000E-03 0. -1.
         11   -1    0    0    0    0 -0.00000000000E+00 -0.00000000000E+00 -0.45593999997E+02  0.45594000000E+02  0.51100000000E-03 0.  1.
    9900012    2    1    2    0    0  0.42954959388E+00  0.20746359930E+02 -0.24209998384E+02  0.59301953130E+02  0.50000016601E+02 0.  0.
         12    1    1    2    0    0 -0.42954959388E+00 -0.20746359930E+02  0.24209998384E+02  0.31886046870E+02  0.00000000000E+00 0. -1.
         11    1    3    3    0    0 -0.94888201899E+01 -0.40865640963E+01 -0.13263832589E+02  0.16812702636E+02  0.51100000000E-03 0. -1.
        -11    1    3    3    0    0 -0.62258808488E+01  0.97197608405E+01 -0.16073092511E+02  0.19788371491E+02  0.51100000000E-03 0.  1.
         12    1    3    3    0    0  0.16144250633E+02  0.15113163186E+02  0.51269267163E+01  0.22700879003E+02  0.00000000000E+00 0. -1.
</event>
<event>
 7    1  0.6230310E-012  0.5930195E+02  0.7816164E-02  0.1266605E+00
        -11   -1    0    0    0    0  0.00000000000E+00  0.00000000000E+00  0.45593999997E+02  0.45594000000E+02  0.51100000000E-03 0.  1.
         11   -1    0    0    0    0 -0.00000000000E+00 -0.00000000000E+00 -0.45593999997E+02  0.45594000000E+02  0.51100000000E-03 0. -1.
    9900012    2    1    2    0    0 -0.26464833364E+02  0.14692850850E+02 -0.10022624841E+02  0.59301948507E+02  0.50000008169E+02 0.  0.
         12    1    1    2    0    0  0.26464833364E+02 -0.14692850850E+02  0.10022624841E+02  0.31886051493E+02  0.00000000000E+00 0. -1.
         11    1    3    3    0    0  0.33865806607E+01  0.84277334353E+01  0.10470411468E+02  0.13860921181E+02  0.51100000000E-03 0. -1.
        -11    1    3    3    0    0 -0.22574344014E+02  0.12937739347E+02 -0.41509230494E+01  0.26347984164E+02  0.51100000000E-03 0.  1.
        -12    1    3    3    0    0 -0.72770700111E+01 -0.66726219324E+01 -0.16342113259E+02  0.19093043162E+02  0.00000000000E+00 0.  1.
</event>
<event>
 7    1  0.6230310E-012  0.5930194E+02  0.7816164E-02  0.1266605E+00
        -11   -1    0    0    0    0  0.00000000000E+00  0.00000000000E+00  0.45593999997E+02  0.45594000000E+02  0.51100000000E-03 0. -1.
         11   -1    0    0    0    0 -0.00000000000E+00 -0.00000000000E+00 -0.45593999997E+02  0.45594000000E+02  0.51100000000E-03 0.  1.
    9900012    2    1    2    0    0  0.29530881271E+01 -0.17477931446E+02 -0.26505132240E+02  0.59301939531E+02  0.49999991800E+02 0.  0.
         12    1    1    2    0    0 -0.29530881271E+01  0.17477931446E+02  0.26505132240E+02  0.31886060469E+02  0.00000000000E+00 0. -1.
         11    1    3    3    0    0  0.71908182858E+01 -0.17039068431E+02  0.63986864863E+01  0.19569898049E+02  0.51100000000E-03 0. -1.
        -11    1    3    3    0    0  0.83236954960E+01  0.32464121956E+01 -0.16303549022E+02  0.18591094907E+02  0.51100000000E-03 0.  1.
        -12    1    3    3    0    0 -0.12561425655E+02 -0.36852752106E+01 -0.16600269704E+02  0.21140946576E+02  0.00000000000E+00 0.  1.
</event>
<event>
 7    1  0.6230310E-012  0.5930194E+02  0.7816164E-02  0.1266605E+00
        -11   -1    0    0    0    0  0.00000000000E+00  0.00000000000E+00  0.45593999997E+02  0.45594000000E+02  0.51100000000E-03 0.  1.
         11   -1    0    0    0    0 -0.00000000000E+00 -0.00000000000E+00 -0.45593999997E+02  0.45594000000E+02  0.51100000000E-03 0. -1.
    9900012    2    1    2    0    0  0.49147427595E+01 -0.14297279590E+02  0.28074076539E+02  0.59301942333E+02  0.49999996909E+02 0.  0.
         12    1    1    2    0    0 -0.49147427595E+01  0.14297279590E+02 -0.28074076539E+02  0.31886057667E+02  0.00000000000E+00 0. -1.
         11    1    3    3    0    0 -0.12193795945E+02  0.56487055119E+01 -0.35770545159E+00  0.13443380786E+02  0.51100000000E-03 0. -1.
        -11    1    3    3    0    0 -0.19491742239E+01  0.45438868514E+01  0.36375652843E+01  0.61382464379E+01  0.51100000000E-03 0.  1.
        -12    1    3    3    0    0  0.19057712928E+02 -0.24489871953E+02  0.24794216706E+02  0.39720315109E+02  0.00000000000E+00 0.  1.
</event>
<event>
 7    1  0.6230310E-012  0.5930193E+02  0.7816164E-02  0.1266605E+00
        -11   -1    0    0    0    0  0.00000000000E+00  0.00000000000E+00  0.45593999997E+02  0.45594000000E+02  0.51100000000E-03 0. -1.
         11   -1    0    0    0    0 -0.00000000000E+00 -0.00000000000E+00 -0.45593999997E+02  0.45594000000E+02  0.51100000000E-03 0.  1.
    9900012    2    1    2    0    0 -0.15354201639E+02  0.91034407397E+00 -0.27931004781E+02  0.59301933100E+02  0.49999980070E+02 0.  0.
         12    1    1    2    0    0  0.15354201639E+02 -0.91034407397E+00  0.27931004781E+02  0.31886066900E+02  0.00000000000E+00 0. -1.
         11    1    3    3    0    0 -0.39498301794E+01  0.10167622014E+02 -0.11820182471E+02  0.16084104258E+02  0.51100000000E-03 0. -1.
        -11    1    3    3    0    0  0.10958416829E+02 -0.66418013055E+01  0.35823027092E+01  0.13305386764E+02  0.51100000000E-03 0.  1.
         12    1    3    3    0    0 -0.22362788288E+02 -0.26154766348E+01 -0.19693125019E+02  0.29912442078E+02  0.00000000000E+00 0. -1.
</event>
<event>
 7    1  0.6230310E-012  0.5930192E+02  0.7816164E-02  0.1266605E+00
        -11   -1    0    0    0    0  0.00000000000E+00  0.00000000000E+00  0.45593999997E+02  0.45594000000E+02  0.51100000000E-03 0.  1.
         11   -1    0    0    0    0 -0.00000000000E+00 -0.00000000000E+00 -0.45593999997E+02  0.45594000000E+02  0.51100000000E-03 0. -1.
    9900012    2    1    2    0    0  0.10642508769E+01  0.14401125177E+02  0.28428805695E+02  0.59301921070E+02  0.49999958130E+02 0.  0.
         12    1    1    2    0    0 -0.10642508769E+01 -0.14401125177E+02 -0.28428805695E+02  0.31886078930E+02  0.00000000000E+00 0. -1.
         11    1    3    3    0    0 -0.54026859545E+00  0.14764954758E+02  0.78342705107E+01  0.16723384043E+02  0.51100000000E-03 0. -1.
        -11    1    3    3    0    0 -0.15456241359E+02  0.89163252467E+01  0.10052367774E+02  0.20480389424E+02  0.51100000000E-03 0.  1.
         12    1    3    3    0    0  0.17060760831E+02 -0.92801548274E+01  0.10542167410E+02  0.22098147602E+02  0.00000000000E+00 0. -1.
</event>
<event>
 7    1  0.6230310E-012  0.5930193E+02  0.7816164E-02  0.1266605E+00
        -11   -1    0    0    0    0  0.00000000000E+00  0.00000000000E+00  0.45593999997E+02  0.45594000000E+02  0.51100000000E-03 0.  1.
         11   -1    0    0    0    0 -0.00000000000E+00 -0.00000000000E+00 -0.45593999997E+02  0.45594000000E+02  0.51100000000E-03 0. -1.
    9900012    2    1    2    0    0 -0.18067293502E+02  0.14268174041E+02  0.22061588251E+02  0.59301928415E+02  0.49999971527E+02 0.  0.
         12    1    1    2    0    0  0.18067293502E+02 -0.14268174041E+02 -0.22061588251E+02  0.31886071585E+02  0.00000000000E+00 0. -1.
         11    1    3    3    0    0  0.16151560086E+01  0.53707774736E+01 -0.11555832799E+02  0.12844892041E+02  0.51100000000E-03 0. -1.
        -11    1    3    3    0    0  0.27927124188E+01 -0.22730802248E+01  0.14408779654E+02  0.14851904515E+02  0.51100000000E-03 0.  1.
        -12    1    3    3    0    0 -0.22475161930E+02  0.11170476792E+02  0.19208641397E+02  0.31605131859E+02  0.00000000000E+00 0.  1.
</event>
<event>
 7    1  0.6230310E-012  0.5930194E+02  0.7816164E-02  0.1266605E+00
        -11   -1    0    0    0    0  0.00000000000E+00  0.00000000000E+00  0.45593999997E+02  0.45594000000E+02  0.51100000000E-03 0. -1.
         11   -1    0    0    0    0 -0.00000000000E+00 -0.00000000000E+00 -0.45593999997E+02  0.45594000000E+02  0.51100000000E-03 0.  1.
    9900012    2    1    2    0    0 -0.26382697560E+02 -0.17113358969E+02  0.52732621797E+01  0.59301935964E+02  0.49999985293E+02 0.  0.
         12    1    1    2    0    0  0.26382697560E+02  0.17113358969E+02 -0.52732621797E+01  0.31886064036E+02  0.00000000000E+00 0. -1.
         11    1    3    3    0    0  0.89408176238E+01  0.29421749621E+01  0.65962684052E+01  0.11493710037E+02  0.51100000000E-03 0. -1.
        -11    1    3    3    0    0 -0.37438935129E+01 -0.14705034545E+02 -0.39234124271E+01  0.15673160017E+02  0.51100000000E-03 0.  1.
         12    1    3    3    0    0 -0.31579621671E+02 -0.53504993862E+01  0.26004062015E+01  0.32135065909E+02  0.00000000000E+00 0. -1.
</event>
<event>
 7    1  0.6230310E-012  0.5930196E+02  0.7816164E-02  0.1266605E+00
        -11   -1    0    0    0    0  0.00000000000E+00  0.00000000000E+00  0.45593999997E+02  0.45594000000E+02  0.51100000000E-03 0. -1.
         11   -1    0    0    0    0 -0.00000000000E+00 -0.00000000000E+00 -0.45593999997E+02  0.45594000000E+02  0.51100000000E-03 0.  1.
    9900012    2    1    2    0    0  0.21750796593E+02 -0.23309923002E+02 -0.51948454638E+00  0.59301960312E+02  0.50000029699E+02 0.  0.
         12    1    1    2    0    0 -0.21750796593E+02  0.23309923002E+02  0.51948454638E+00  0.31886039688E+02  0.00000000000E+00 0. -1.
         11    1    3    3    0    0  0.88009618788E+01  0.78704809650E+01  0.42004559585E+01  0.12531768875E+02  0.51100000000E-03 0. -1.
        -11    1    3    3    0    0  0.70449765509E+01 -0.11863359130E+01  0.10437976777E+02  0.12648733018E+02  0.51100000000E-03 0.  1.
        -12    1    3    3    0    0  0.59048581629E+01 -0.29994068054E+02 -0.15157917282E+02  0.34121458420E+02  0.00000000000E+00 0.  1.
</event>
<event>
 7    1  0.6230310E-012  0.5930195E+02  0.7816164E-02  0.1266605E+00
        -11   -1    0    0    0    0  0.00000000000E+00  0.00000000000E+00  0.45593999997E+02  0.45594000000E+02  0.51100000000E-03 0. -1.
         11   -1    0    0    0    0 -0.00000000000E+00 -0.00000000000E+00 -0.45593999997E+02  0.45594000000E+02  0.51100000000E-03 0.  1.
    9900012    2    1    2    0    0 -0.53935649025E+01 -0.53252046229E+01 -0.30972117756E+02  0.59301946232E+02  0.50000004019E+02 0.  0.
         12    1    1    2    0    0  0.53935649025E+01  0.53252046229E+01  0.30972117756E+02  0.31886053768E+02  0.00000000000E+00 0. -1.
         11    1    3    3    0    0 -0.11543835633E+02 -0.67844770647E+01  0.64258329004E+01  0.14851956062E+02  0.51100000000E-03 0. -1.
        -11    1    3    3    0    0  0.42954685807E+01 -0.43100125776E+01  0.46724692823E+00  0.61029155901E+01  0.51100000000E-03 0.  1.
        -12    1    3    3    0    0  0.18548021495E+01  0.57692850193E+01 -0.37865197585E+02  0.38347074579E+02  0.00000000000E+00 0.  1.
</event>
<event>
 7    1  0.6230310E-012  0.5930195E+02  0.7816164E-02  0.1266605E+00
        -11   -1    0    0    0    0  0.00000000000E+00  0.00000000000E+00  0.45593999997E+02  0.45594000000E+02  0.51100000000E-03 0.  1.
         11   -1    0    0    0    0 -0.00000000000E+00 -0.00000000000E+00 -0.45593999997E+02  0.45594000000E+02  0.51100000000E-03 0. -1.
    9900012    2    1    2    0    0 -0.27487437285E+02  0.14031958579E+02  0.80165569296E+01  0.59301948895E+02  0.50000008877E+02 0.  0.
         12    1    1    2    0    0  0.27487437285E+02 -0.14031958579E+02 -0.80165569296E+01  0.31886051105E+02  0.00000000000E+00 0. -1.
         11    1    3    3    0    0 -0.27953727750E+02  0.54906318182E+01  0.98791516737E+01  0.30152206734E+02  0.51100000000E-03 0. -1.
        -11    1    3    3    0    0 -0.22608232120E+01  0.17976881966E+02  0.27024675565E+01  0.18318922948E+02  0.51100000000E-03 0.  1.
         12    1    3    3    0    0  0.27271136766E+01 -0.94355552049E+01 -0.45650623006E+01  0.10830819214E+02  0.00000000000E+00 0. -1.
</event>
<event>
 7    1  0.6230310E-012  0.5930188E+02  0.7816164E-02  0.1266605E+00
        -11   -1    0    0    0    0  0.00000000000E+00  0.00000000000E+00  0.45593999997E+02  0.45594000000E+02  0.51100000000E-03 0. -1.
         11   -1    0    0    0    0 -0.00000000000E+00 -0.00000000000E+00 -0.45593999997E+02  0.45594000000E+02  0.51100000000E-03 0.  1.
    9900012    2    1    2    0    0 -0.60522052659E+01  0.26464863813E+02 -0.16724434631E+02  0.59301875761E+02  0.49999875499E+02 0.  0.
         12    1    1    2    0    0  0.60522052659E+01 -0.26464863813E+02  0.16724434631E+02  0.31886124239E+02  0.00000000000E+00 0. -1.
         11    1    3    3    0    0  0.84768977244E+01  0.10542203172E+00 -0.76573113126E+01  0.11423805217E+02  0.51100000000E-03 0. -1.
        -11    1    3    3    0    0  0.30639854309E+01  0.14786765069E+02 -0.19267079678E+02  0.24479721966E+02  0.51100000000E-03 0.  1.
        -12    1    3    3    0    0 -0.17593088421E+02  0.11572676712E+02  0.10199956360E+02  0.23398348579E+02  0.00000000000E+00 0.  1.
</event>
<event>
 7    1  0.6230310E-012  0.5930194E+02  0.7816164E-02  0.1266605E+00
        -11   -1    0    0    0    0  0.00000000000E+00  0.00000000000E+00  0.45593999997E+02  0.45594000000E+02  0.51100000000E-03 0. -1.
         11   -1    0    0    0    0 -0.00000000000E+00 -0.00000000000E+00 -0.45593999997E+02  0.45594000000E+02  0.51100000000E-03 0.  1.
    9900012    2    1    2    0    0  0.75427378581E+01  0.12122000190E+02 -0.28511135365E+02  0.59301943128E+02  0.49999998359E+02 0.  0.
         12    1    1    2    0    0 -0.75427378581E+01 -0.12122000190E+02  0.28511135365E+02  0.31886056872E+02  0.00000000000E+00 0. -1.
         11    1    3    3    0    0 -0.25264821817E+01  0.32808459657E+01 -0.80298295154E+00  0.42180379736E+01  0.51100000000E-03 0. -1.
        -11    1    3    3    0    0 -0.90967044321E+01  0.21749852011E+00 -0.32312104638E+02  0.33568876113E+02  0.51100000000E-03 0.  1.
         12    1    3    3    0    0  0.19165924472E+02  0.86236557046E+01  0.46039522237E+01  0.21515029041E+02  0.00000000000E+00 0. -1.
</event>
<event>
 7    1  0.6230310E-012  0.5930202E+02  0.7816164E-02  0.1266604E+00
        -11   -1    0    0    0    0  0.00000000000E+00  0.00000000000E+00  0.45593999997E+02  0.45594000000E+02  0.51100000000E-03 0. -1.
         11   -1    0    0    0    0 -0.00000000000E+00 -0.00000000000E+00 -0.45593999997E+02  0.45594000000E+02  0.51100000000E-03 0.  1.
    9900012    2    1    2    0    0 -0.14033801709E+02  0.19580595456E+02 -0.20889432008E+02  0.59302020660E+02  0.50000139759E+02 0.  0.
         12    1    1    2    0    0  0.14033801709E+02 -0.19580595456E+02  0.20889432008E+02  0.31885979340E+02  0.00000000000E+00 0. -1.
         11    1    3    3    0    0 -0.24579903165E+02  0.25848681921E+02 -0.35057345899E+01  0.35841542544E+02  0.51100000000E-03 0. -1.
        -11    1    3    3    0    0  0.86985725083E+00  0.24404554296E+01 -0.17997009981E+01  0.31545836943E+01  0.51100000000E-03 0.  1.
        -12    1    3    3    0    0  0.96762442054E+01 -0.87085418946E+01 -0.15583996420E+02  0.20305894422E+02  0.00000000000E+00 0.  1.
</event>
<event>
 7    1  0.6230310E-012  0.5930198E+02  0.7816164E-02  0.1266605E+00
        -11   -1    0    0    0    0  0.00000000000E+00  0.00000000000E+00  0.45593999997E+02  0.45594000000E+02  0.51100000000E-03 0. -1.
         11   -1    0    0    0    0 -0.00000000000E+00 -0.00000000000E+00 -0.45593999997E+02  0.45594000000E+02  0.51100000000E-03 0.  1.
    9900012    2    1    2    0    0 -0.29806704447E+02  0.69707957936E+01  0.89267201607E+01  0.59301984934E+02  0.50000074603E+02 0.  0.
         12    1    1    2    0    0  0.29806704447E+02 -0.69707957936E+01 -0.89267201607E+01  0.31886015066E+02  0.00000000000E+00 0. -1.
         11    1    3    3    0    0 -0.44154924084E+01  0.32274967575E+01 -0.18578917490E+01  0.57762505607E+01  0.51100000000E-03 0. -1.
        -11    1    3    3    0    0 -0.71017302592E+01  0.23050951714E+02  0.11923686450E+02  0.26906416454E+02  0.51100000000E-03 0.  1.
         12    1    3    3    0    0 -0.18289481779E+02 -0.19307652678E+02 -0.11390745401E+01  0.26619317919E+02  0.00000000000E+00 0. -1.
</event>
<event>
 7    1  0.6230310E-012  0.5930189E+02  0.7816164E-02  0.1266605E+00
        -11   -1    0    0    0    0  0.00000000000E+00  0.00000000000E+00  0.45593999997E+02  0.45594000000E+02  0.51100000000E-03 0.  1.
         11   -1    0    0    0    0 -0.00000000000E+00 -0.00000000000E+00 -0.45593999997E+02  0.45594000000E+02  0.51100000000E-03 0. -1.
    9900012    2    1    2    0    0  0.17265639383E+01 -0.27665968021E+02  0.15758727130E+02  0.59301885619E+02  0.49999893476E+02 0.  0.
         12    1    1    2    0    0 -0.17265639383E+01  0.27665968021E+02 -0.15758727130E+02  0.31886114381E+02  0.00000000000E+00 0. -1.
         11    1    3    3    0    0  0.20774813409E+02 -0.41154146266E+01 -0.50438307347E+01  0.21770846067E+02  0.51100000000E-03 0. -1.
        -11    1    3    3    0    0  0.23864558735E+00 -0.31683200704E+01  0.21294461771E+01  0.38248849744E+01  0.51100000000E-03 0.  1.
        -12    1    3    3    0    0 -0.19286895058E+02 -0.20382233324E+02  0.18673111688E+02  0.33706154577E+02  0.00000000000E+00 0.  1.
</event>
<event>
 7    1  0.6230310E-012  0.5930191E+02  0.7816164E-02  0.1266605E+00
        -11   -1    0    0    0    0  0.00000000000E+00  0.00000000000E+00  0.45593999997E+02  0.45594000000E+02  0.51100000000E-03 0. -1.
         11   -1    0    0    0    0 -0.00000000000E+00 -0.00000000000E+00 -0.45593999997E+02  0.45594000000E+02  0.51100000000E-03 0.  1.
    9900012    2    1    2    0    0  0.17896691267E+02 -0.10900918264E+02 -0.24033331213E+02  0.59301912337E+02  0.49999942203E+02 0.  0.
         12    1    1    2    0    0 -0.17896691267E+02  0.10900918264E+02  0.24033331213E+02  0.31886087663E+02  0.00000000000E+00 0. -1.
         11    1    3    3    0    0  0.52331952072E+00 -0.11786070815E+02 -0.10594829010E+00  0.11798158919E+02  0.51100000000E-03 0. -1.
        -11    1    3    3    0    0  0.14166319393E+02 -0.17125402448E+02 -0.16841661587E+02  0.27885580134E+02  0.51100000000E-03 0.  1.
         12    1    3    3    0    0  0.32070523533E+01  0.18010554998E+02 -0.70857213354E+01  0.19618173284E+02  0.00000000000E+00 0. -1.
</event>
<event>
 7    1  0.6230310E-012  0.5930203E+02  0.7816164E-02  0.1266604E+00
        -11   -1    0    0    0    0  0.00000000000E+00  0.00000000000E+00  0.45593999997E+02  0.45594000000E+02  0.51100000000E-03 0. -1.
         11   -1    0    0    0    0 -0.00000000000E+00 -0.00000000000E+00 -0.45593999997E+02  0.45594000000E+02  0.51100000000E-03 0.  1.
    9900012    2    1    2    0    0 -0.21586376694E+02  0.14386784323E+02 -0.18540871223E+02  0.59302029297E+02  0.50000155511E+02 0.  0.
         12    1    1    2    0    0  0.21586376694E+02 -0.14386784323E+02  0.18540871223E+02  0.31885970703E+02  0.00000000000E+00 0. -1.
         11    1    3    3    0    0 -0.11190097079E+02  0.23052849513E+01  0.38911915747E+01  0.12069547774E+02  0.51100000000E-03 0. -1.
        -11    1    3    3    0    0 -0.21022682742E+02  0.18265867363E+02 -0.95918549124E+01  0.29455029810E+02  0.51100000000E-03 0.  1.
         12    1    3    3    0    0  0.10626403127E+02 -0.61843679911E+01 -0.12840207885E+02  0.17777451713E+02  0.00000000000E+00 0. -1.
</event>
<event>
 7    1  0.6230310E-012  0.5930194E+02  0.7816164E-02  0.1266605E+00
        -11   -1    0    0    0    0  0.00000000000E+00  0.00000000000E+00  0.45593999997E+02  0.45594000000E+02  0.51100000000E-03 0.  1.
         11   -1    0    0    0    0 -0.00000000000E+00 -0.00000000000E+00 -0.45593999997E+02  0.45594000000E+02  0.51100000000E-03 0. -1.
    9900012    2    1    2    0    0 -0.16481950765E+02  0.22151711139E+02 -0.15948912837E+02  0.59301939910E+02  0.49999992489E+02 0.  0.
         12    1    1    2    0    0  0.16481950765E+02 -0.22151711139E+02  0.15948912837E+02  0.31886060090E+02  0.00000000000E+00 0. -1.
         11    1    3    3    0    0 -0.12862882967E+01  0.12459598724E+02 -0.59456681740E+01  0.13865320344E+02  0.51100000000E-03 0. -1.
        -11    1    3    3    0    0  0.90671919820E+01  0.12517448926E+02  0.56136715066E+01  0.16444263623E+02  0.51100000000E-03 0.  1.
         12    1    3    3    0    0 -0.24262854450E+02 -0.28253365104E+01 -0.15616916169E+02  0.28992355943E+02  0.00000000000E+00 0. -1.
</event>
<event>
 7    1  0.6230310E-012  0.5930195E+02  0.7816164E-02  0.1266605E+00
        -11   -1    0    0    0    0  0.00000000000E+00  0.00000000000E+00  0.45593999997E+02  0.45594000000E+02  0.51100000000E-03 0.  1.
         11   -1    0    0    0    0 -0.00000000000E+00 -0.00000000000E+00 -0.45593999997E+02  0.45594000000E+02  0.51100000000E-03 0. -1.
    9900012    2    1    2    0    0 -0.80235677656E+01 -0.35505379034E+01  0.30655119812E+02  0.59301947724E+02  0.50000006741E+02 0.  0.
         12    1    1    2    0    0  0.80235677656E+01  0.35505379034E+01 -0.30655119812E+02  0.31886052276E+02  0.00000000000E+00 0. -1.
         11    1    3    3    0    0 -0.34908084631E+01  0.92169862279E+01 -0.18906070493E+01  0.10035585390E+02  0.51100000000E-03 0. -1.
        -11    1    3    3    0    0 -0.19533374246E+02 -0.90537206515E+01  0.19241294408E+02  0.28874729053E+02  0.51100000000E-03 0.  1.
         12    1    3    3    0    0  0.15000614944E+02 -0.37138034798E+01  0.13304432453E+02  0.20391633281E+02  0.00000000000E+00 0. -1.
</event>
<event>
 7    1  0.6230310E-012  0.5930196E+02  0.7816164E-02  0.1266605E+00
        -11   -1    0    0    0    0  0.00000000000E+00  0.00000000000E+00  0.45593999997E+02  0.45594000000E+02  0.51100000000E-03 0.  1.
         11   -1    0    0    0    0 -0.00000000000E+00 -0.00000000000E+00 -0.45593999997E+02  0.45594000000E+02  0.51100000000E-03 0. -1.
    9900012    2    1    2    0    0  0.29063731626E+02 -0.56648106531E+01  0.11829160499E+02  0.59301958949E+02  0.50000027214E+02 0.  0.
         12    1    1    2    0    0 -0.29063731626E+02  0.56648106531E+01 -0.11829160499E+02  0.31886041051E+02  0.00000000000E+00 0. -1.
         11    1    3    3    0    0  0.41851815424E-01 -0.59301665455E+01 -0.88075615388E+01  0.10617992623E+02  0.51100000000E-03 0. -1.
        -11    1    3    3    0    0  0.21649615442E+02 -0.41467606128E+01 -0.41676953551E+01  0.22433705829E+02  0.51100000000E-03 0.  1.
        -12    1    3    3    0    0  0.73722643683E+01  0.44121165052E+01  0.24804417393E+02  0.26250260497E+02  0.00000000000E+00 0.  1.
</event>
<event>
 7    1  0.6230310E-012  0.5930194E+02  0.7816164E-02  0.1266605E+00
        -11   -1    0    0    0    0  0.00000000000E+00  0.00000000000E+00  0.45593999997E+02  0.45594000000E+02  0.51100000000E-03 0.  1.
         11   -1    0    0    0    0 -0.00000000000E+00 -0.00000000000E+00 -0.45593999997E+02  0.45594000000E+02  0.51100000000E-03 0. -1.
    9900012    2    1    2    0    0 -0.54015286864E+01  0.19850198868E+02  0.24362145031E+02  0.59301936935E+02  0.49999987065E+02 0.  0.
         12    1    1    2    0    0  0.54015286864E+01 -0.19850198868E+02 -0.24362145031E+02  0.31886063065E+02  0.00000000000E+00 0. -1.
         11    1    3    3    0    0 -0.10487470844E+02  0.13694428905E+02  0.17792089749E+02  0.24780695826E+02  0.51100000000E-03 0.  1.
        -11    1    3    3    0    0 -0.70637947756E+01  0.80844183666E+01 -0.94640388041E+01  0.14311640287E+02  0.51100000000E-03 0. -1.
         12    1    3    3    0    0  0.12149736933E+02 -0.19286484027E+01  0.16034094086E+02  0.20209600822E+02  0.00000000000E+00 0. -1.
</event>
<event>
 7    1  0.6230310E-012  0.5930202E+02  0.7816164E-02  0.1266604E+00
        -11   -1    0    0    0    0  0.00000000000E+00  0.00000000000E+00  0.45593999997E+02  0.45594000000E+02  0.51100000000E-03 0. -1.
         11   -1    0    0    0    0 -0.00000000000E+00 -0.00000000000E+00 -0.45593999997E+02  0.45594000000E+02  0.51100000000E-03 0.  1.
    9900012    2    1    2    0    0 -0.11773774497E+02  0.21986384779E+02 -0.19866870974E+02  0.59302024339E+02  0.50000146468E+02 0.  0.
         12    1    1    2    0    0  0.11773774497E+02 -0.21986384779E+02  0.19866870974E+02  0.31885975661E+02  0.00000000000E+00 0. -1.
         11    1    3    3    0    0 -0.17032659354E+02 -0.17403787499E+01 -0.21199094659E+01  0.17252084490E+02  0.51100000000E-03 0. -1.
        -11    1    3    3    0    0 -0.19798092061E+01  0.15845491856E+01  0.73693682254E+01  0.77934606509E+01  0.51100000000E-03 0.  1.
        -12    1    3    3    0    0  0.72386940631E+01  0.22142214343E+02 -0.25116329733E+02  0.34256479198E+02  0.00000000000E+00 0.  1.
</event>
<event>
 7    1  0.6230310E-012  0.5930195E+02  0.7816164E-02  0.1266605E+00
        -11   -1    0    0    0    0  0.00000000000E+00  0.00000000000E+00  0.45593999997E+02  0.45594000000E+02  0.51100000000E-03 0. -1.
         11   -1    0    0    0    0 -0.00000000000E+00 -0.00000000000E+00 -0.45593999997E+02  0.45594000000E+02  0.51100000000E-03 0.  1.
    9900012    2    1    2    0    0  0.12823379165E+02 -0.28597575623E+02  0.58702422309E+01  0.59301950879E+02  0.50000012495E+02 0.  0.
         12    1    1    2    0    0 -0.12823379165E+02  0.28597575623E+02 -0.58702422309E+01  0.31886049121E+02  0.00000000000E+00 0. -1.
         11    1    3    3    0    0  0.68120658669E+01 -0.10668405743E+02  0.44433574248E+01  0.13415012037E+02  0.51100000000E-03 0. -1.
        -11    1    3    3    0    0 -0.33152987902E+01 -0.15422925284E+02 -0.18156120749E+02  0.24052079979E+02  0.51100000000E-03 0.  1.
         12    1    3    3    0    0  0.93266120879E+01 -0.25062445956E+01  0.19583005555E+02  0.21834858864E+02  0.00000000000E+00 0. -1.
</event>
<event>
 7    1  0.6230310E-012  0.5930197E+02  0.7816164E-02  0.1266605E+00
        -11   -1    0    0    0    0  0.00000000000E+00  0.00000000000E+00  0.45593999997E+02  0.45594000000E+02  0.51100000000E-03 0. -1.
         11   -1    0    0    0    0 -0.00000000000E+00 -0.00000000000E+00 -0.45593999997E+02  0.45594000000E+02  0.51100000000E-03 0.  1.
    9900012    2    1    2    0    0 -0.93431969911E+01  0.24165038629E+02 -0.18586948392E+02  0.59301967439E+02  0.50000042696E+02 0.  0.
         12    1    1    2    0    0  0.93431969911E+01 -0.24165038629E+02  0.18586948392E+02  0.31886032561E+02  0.00000000000E+00 0. -1.
         11    1    3    3    0    0 -0.23429451465E+01  0.87876410407E+01 -0.34640034158E+01  0.97319754904E+01  0.51100000000E-03 0. -1.
        -11    1    3    3    0    0  0.26266629337E+01  0.21217274860E+02 -0.26172287844E+02  0.33794389503E+02  0.51100000000E-03 0.  1.
         12    1    3    3    0    0 -0.96269147783E+01 -0.58398772710E+01  0.11049342868E+02  0.15775602445E+02  0.00000000000E+00 0. -1.
</event>
<event>
 7    1  0.6230310E-012  0.5930191E+02  0.7816164E-02  0.1266605E+00
        -11   -1    0    0    0    0  0.00000000000E+00  0.00000000000E+00  0.45593999997E+02  0.45594000000E+02  0.51100000000E-03 0.  1.
         11   -1    0    0    0    0 -0.00000000000E+00 -0.00000000000E+00 -0.45593999997E+02  0.45594000000E+02  0.51100000000E-03 0. -1.
    9900012    2    1    2    0    0  0.71080112125E+01  0.18848931883E+02  0.24716724742E+02  0.59301913089E+02  0.49999943575E+02 0.  0.
         12    1    1    2    0    0 -0.71080112125E+01 -0.18848931883E+02 -0.24716724742E+02  0.31886086911E+02  0.00000000000E+00 0. -1.
         11    1    3    3    0    0  0.44698497227E+01  0.11403699747E+02 -0.58998692965E+01  0.13595307368E+02  0.51100000000E-03 0. -1.
        -11    1    3    3    0    0  0.12257106654E+02  0.15230594258E+02  0.10776367070E+02  0.22323479847E+02  0.51100000000E-03 0.  1.
        -12    1    3    3    0    0 -0.96189451643E+01 -0.77853621218E+01  0.19840226969E+02  0.23383125873E+02  0.00000000000E+00 0.  1.
</event>
<event>
 7    1  0.6230310E-012  0.5930193E+02  0.7816164E-02  0.1266605E+00
        -11   -1    0    0    0    0  0.00000000000E+00  0.00000000000E+00  0.45593999997E+02  0.45594000000E+02  0.51100000000E-03 0.  1.
         11   -1    0    0    0    0 -0.00000000000E+00 -0.00000000000E+00 -0.45593999997E+02  0.45594000000E+02  0.51100000000E-03 0. -1.
    9900012    2    1    2    0    0 -0.47356866941E+01  0.23341636790E+02  0.21200532858E+02  0.59301932040E+02  0.49999978137E+02 0.  0.
         12    1    1    2    0    0  0.47356866941E+01 -0.23341636790E+02 -0.21200532858E+02  0.31886067960E+02  0.00000000000E+00 0. -1.
         11    1    3    3    0    0 -0.82100155612E+01 -0.10564520104E+01 -0.60670860841E+01  0.10263039519E+02  0.51100000000E-03 0. -1.
        -11    1    3    3    0    0 -0.87095081551E+01  0.25960987882E+02  0.23786303022E+02  0.36271430022E+02  0.51100000000E-03 0.  1.
        -12    1    3    3    0    0  0.12183837022E+02 -0.15628990812E+01  0.34813159194E+01  0.12767462499E+02  0.00000000000E+00 0.  1.
</event>
<event>
 7    1  0.6230310E-012  0.5930195E+02  0.7816164E-02  0.1266605E+00
        -11   -1    0    0    0    0  0.00000000000E+00  0.00000000000E+00  0.45593999997E+02  0.45594000000E+02  0.51100000000E-03 0. -1.
         11   -1    0    0    0    0 -0.00000000000E+00 -0.00000000000E+00 -0.45593999997E+02  0.45594000000E+02  0.51100000000E-03 0.  1.
    9900012    2    1    2    0    0  0.12690983866E+02 -0.25189514127E+02 -0.14871029197E+02  0.59301949715E+02  0.50000010372E+02 0.  0.
         12    1    1    2    0    0 -0.12690983866E+02  0.25189514127E+02  0.14871029197E+02  0.31886050285E+02  0.00000000000E+00 0. -1.
         11    1    3    3    0    0  0.10770552094E+02 -0.12121581540E+02 -0.65729804239E-01  0.16215481865E+02  0.51100000000E-03 0. -1.
        -11    1    3    3    0    0  0.12907872811E+02 -0.22506008634E+02 -0.86560619076E+01  0.27350704071E+02  0.51100000000E-03 0.  1.
         12    1    3    3    0    0 -0.10987441039E+02  0.94380760475E+01 -0.61492374850E+01  0.15735763779E+02  0.00000000000E+00 0. -1.
</event>
<event>
 7    1  0.6230310E-012  0.5930196E+02  0.7816164E-02  0.1266605E+00
        -11   -1    0    0    0    0  0.00000000000E+00  0.00000000000E+00  0.45593999997E+02  0.45594000000E+02  0.51100000000E-03 0.  1.
         11   -1    0    0    0    0 -0.00000000000E+00 -0.00000000000E+00 -0.45593999997E+02  0.45594000000E+02  0.51100000000E-03 0. -1.
    9900012    2    1    2    0    0  0.14139486802E+02 -0.28325297467E+02  0.38042004389E+01  0.59301960663E+02  0.50000030339E+02 0.  0.
         12    1    1    2    0    0 -0.14139486802E+02  0.28325297467E+02 -0.38042004389E+01  0.31886039337E+02  0.00000000000E+00 0. -1.
         11    1    3    3    0    0  0.10267659794E+02  0.32425729384E+01 -0.36062430586E+01  0.11355355836E+02  0.51100000000E-03 0. -1.
        -11    1    3    3    0    0  0.18941872482E+02 -0.23278912753E+02  0.28112964084E+01  0.30143087098E+02  0.51100000000E-03 0.  1.
         12    1    3    3    0    0 -0.15070045474E+02 -0.82889576527E+01  0.45991470891E+01  0.17803517728E+02  0.00000000000E+00 0. -1.
</event>
<event>
 7    1  0.6230310E-012  0.5930191E+02  0.7816164E-02  0.1266605E+00
        -11   -1    0    0    0    0  0.00000000000E+00  0.00000000000E+00  0.45593999997E+02  0.45594000000E+02  0.51100000000E-03 0. -1.
         11   -1    0    0    0    0 -0.00000000000E+00 -0.00000000000E+00 -0.45593999997E+02  0.45594000000E+02  0.51100000000E-03 0.  1.
    9900012    2    1    2    0    0 -0.23192712947E+01  0.10793953571E+02 -0.29913778850E+02  0.59301911840E+02  0.49999941298E+02 0.  0.
         12    1    1    2    0    0  0.23192712947E+01 -0.10793953571E+02  0.29913778850E+02  0.31886088160E+02  0.00000000000E+00 0. -1.
         11    1    3    3    0    0 -0.11577437178E+02  0.12846547252E+01  0.53372420148E+01  0.12813022358E+02  0.51100000000E-03 0. -1.
        -11    1    3    3    0    0 -0.84396341028E+01  0.81899571942E+01 -0.90319878935E+01  0.14828338687E+02  0.51100000000E-03 0.  1.
        -12    1    3    3    0    0  0.17697799986E+02  0.13193416513E+01 -0.26219032971E+02  0.31660550796E+02  0.00000000000E+00 0.  1.
</event>
<event>
 7    1  0.6230310E-012  0.5930197E+02  0.7816164E-02  0.1266605E+00
        -11   -1    0    0    0    0  0.00000000000E+00  0.00000000000E+00  0.45593999997E+02  0.45594000000E+02  0.51100000000E-03 0.  1.
         11   -1    0    0    0    0 -0.00000000000E+00 -0.00000000000E+00 -0.45593999997E+02  0.45594000000E+02  0.51100000000E-03 0. -1.
    9900012    2    1    2    0    0  0.15164373474E+02 -0.57196943642E+01  0.27459896652E+02  0.59301967781E+02  0.50000043321E+02 0.  0.
         12    1    1    2    0    0 -0.15164373474E+02  0.57196943642E+01 -0.27459896652E+02  0.31886032219E+02  0.00000000000E+00 0. -1.
         11    1    3    3    0    0  0.13156216304E+01 -0.65216794530E+01 -0.38070743785E+01  0.76653100881E+01  0.51100000000E-03 0. -1.
        -11    1    3    3    0    0 -0.83510303429E+01 -0.12151101454E+02  0.15930306822E+02  0.21706304385E+02  0.51100000000E-03 0.  1.
         12    1    3    3    0    0  0.22199782187E+02  0.12953086543E+02  0.15336664209E+02  0.29930353309E+02  0.00000000000E+00 0. -1.
</event>
<event>
 7    1  0.6230310E-012  0.5930195E+02  0.7816164E-02  0.1266605E+00
        -11   -1    0    0    0    0  0.00000000000E+00  0.00000000000E+00  0.45593999997E+02  0.45594000000E+02  0.51100000000E-03 0. -1.
         11   -1    0    0    0    0 -0.00000000000E+00 -0.00000000000E+00 -0.45593999997E+02  0.45594000000E+02  0.51100000000E-03 0.  1.
    9900012    2    1    2    0    0 -0.99439618967E+01 -0.29054661214E+02 -0.85827968181E+01  0.59301951050E+02  0.50000012806E+02 0.  0.
         12    1    1    2    0    0  0.99439618967E+01  0.29054661214E+02  0.85827968181E+01  0.31886048950E+02  0.00000000000E+00 0. -1.
         11    1    3    3    0    0 -0.74149805873E+00 -0.71063740083E+01  0.10616763223E+02  0.12797110319E+02  0.51100000000E-03 0. -1.
        -11    1    3    3    0    0  0.77204034508E+01 -0.21756219075E+02 -0.18470594075E+02  0.29565191419E+02  0.51100000000E-03 0.  1.
         12    1    3    3    0    0 -0.16922867289E+02 -0.19206813047E+00 -0.72896596603E+00  0.16939649312E+02  0.00000000000E+00 0. -1.
</event>
<event>
 7    1  0.6230310E-012  0.5930196E+02  0.7816164E-02  0.1266605E+00
        -11   -1    0    0    0    0  0.00000000000E+00  0.00000000000E+00  0.45593999997E+02  0.45594000000E+02  0.51100000000E-03 0. -1.
         11   -1    0    0    0    0 -0.00000000000E+00 -0.00000000000E+00 -0.45593999997E+02  0.45594000000E+02  0.51100000000E-03 0.  1.
    9900012    2    1    2    0    0 -0.11519979348E+02 -0.24387238312E+02  0.17008006443E+02  0.59301959169E+02  0.50000027615E+02 0.  0.
         12    1    1    2    0    0  0.11519979348E+02  0.24387238312E+02 -0.17008006443E+02  0.31886040831E+02  0.00000000000E+00 0. -1.
         11    1    3    3    0    0 -0.38808401438E-01 -0.20362704882E+02  0.29527249426E+02  0.35867808898E+02  0.51100000000E-03 0. -1.
        -11    1    3    3    0    0 -0.26331967513E+01  0.44061624903E+01  0.97861750292E+00  0.52254842359E+01  0.51100000000E-03 0.  1.
        -12    1    3    3    0    0 -0.88479741955E+01 -0.84306959207E+01 -0.13497860486E+02  0.18208666035E+02  0.00000000000E+00 0.  1.
</event>
<event>
 7    1  0.6230310E-012  0.5930195E+02  0.7816164E-02  0.1266605E+00
        -11   -1    0    0    0    0  0.00000000000E+00  0.00000000000E+00  0.45593999997E+02  0.45594000000E+02  0.51100000000E-03 0.  1.
         11   -1    0    0    0    0 -0.00000000000E+00 -0.00000000000E+00 -0.45593999997E+02  0.45594000000E+02  0.51100000000E-03 0. -1.
    9900012    2    1    2    0    0 -0.15619149635E+02  0.26352695287E+02  0.88485902154E+01  0.59301953946E+02  0.50000018088E+02 0.  0.
         12    1    1    2    0    0  0.15619149635E+02 -0.26352695287E+02 -0.88485902154E+01  0.31886046054E+02  0.00000000000E+00 0. -1.
         11    1    3    3    0    0 -0.11283630151E+02  0.64016358041E+01  0.16409432563E+02  0.20918191310E+02  0.51100000000E-03 0. -1.
        -11    1    3    3    0    0  0.36897184893E+01  0.11950441205E+02  0.10987391177E+02  0.16647817655E+02  0.51100000000E-03 0.  1.
         12    1    3    3    0    0 -0.80252379729E+01  0.80006182771E+01 -0.18548233525E+02  0.21735944981E+02  0.00000000000E+00 0. -1.
</event>
<event>
 7    1  0.6230310E-012  0.5930194E+02  0.7816164E-02  0.1266605E+00
        -11   -1    0    0    0    0  0.00000000000E+00  0.00000000000E+00  0.45593999997E+02  0.45594000000E+02  0.51100000000E-03 0.  1.
         11   -1    0    0    0    0 -0.00000000000E+00 -0.00000000000E+00 -0.45593999997E+02  0.45594000000E+02  0.51100000000E-03 0. -1.
    9900012    2    1    2    0    0 -0.12503000661E+02  0.28905142861E+02  0.49888139756E+01  0.59301943890E+02  0.49999999750E+02 0.  0.
         12    1    1    2    0    0  0.12503000661E+02 -0.28905142861E+02 -0.49888139756E+01  0.31886056110E+02  0.00000000000E+00 0. -1.
         11    1    3    3    0    0 -0.18465416611E+01  0.29448321604E+01  0.14612920240E+02  0.15020625512E+02  0.51100000000E-03 0. -1.
        -11    1    3    3    0    0  0.88603086874E+01 -0.17011745365E+01  0.22242379685E+00  0.90248843453E+01  0.51100000000E-03 0.  1.
         12    1    3    3    0    0 -0.19516767688E+02  0.27661485237E+02 -0.98465300616E+01  0.35256434033E+02  0.00000000000E+00 0. -1.
</event>
<event>
 7    1  0.6230310E-012  0.5930195E+02  0.7816164E-02  0.1266605E+00
        -11   -1    0    0    0    0  0.00000000000E+00  0.00000000000E+00  0.45593999997E+02  0.45594000000E+02  0.51100000000E-03 0.  1.
         11   -1    0    0    0    0 -0.00000000000E+00 -0.00000000000E+00 -0.45593999997E+02  0.45594000000E+02  0.51100000000E-03 0. -1.
    9900012    2    1    2    0    0 -0.29163825894E+02 -0.10605909127E+02 -0.73284448832E+01  0.59301950486E+02  0.50000011778E+02 0.  0.
         12    1    1    2    0    0  0.29163825894E+02  0.10605909127E+02  0.73284448832E+01  0.31886049514E+02  0.00000000000E+00 0. -1.
         11    1    3    3    0    0  0.57620644508E+01 -0.52633868802E+01 -0.15214852537E+02  0.17099601345E+02  0.51100000000E-03 0. -1.
        -11    1    3    3    0    0 -0.56380211836E+01  0.20365496368E+01 -0.64188520576E+01  0.87827375737E+01  0.51100000000E-03 0.  1.
        -12    1    3    3    0    0 -0.29287869162E+02 -0.73790718835E+01  0.14305259711E+02  0.33419611567E+02  0.00000000000E+00 0.  1.
</event>
<event>
 7    1  0.6230310E-012  0.5930195E+02  0.7816164E-02  0.1266605E+00
        -11   -1    0    0    0    0  0.00000000000E+00  0.00000000000E+00  0.45593999997E+02  0.45594000000E+02  0.51100000000E-03 0.  1.
         11   -1    0    0    0    0 -0.00000000000E+00 -0.00000000000E+00 -0.45593999997E+02  0.45594000000E+02  0.51100000000E-03 0. -1.
    9900012    2    1    2    0    0 -0.17132142958E+02  0.91776506479E+01  0.25278063872E+02  0.59301951220E+02  0.50000013116E+02 0.  0.
         12    1    1    2    0    0  0.17132142958E+02 -0.91776506479E+01 -0.25278063872E+02  0.31886048780E+02  0.00000000000E+00 0. -1.
         11    1    3    3    0    0 -0.11188962331E+02 -0.25413708063E+01 -0.45624535162E+01  0.12347770081E+02  0.51100000000E-03 0. -1.
        -11    1    3    3    0    0 -0.11778467444E+02 -0.13968457388E+01  0.30354562619E+02  0.32589614073E+02  0.51100000000E-03 0.  1.
         12    1    3    3    0    0  0.58352868181E+01  0.13115867193E+02 -0.51404523166E+00  0.14364567065E+02  0.00000000000E+00 0. -1.
</event>
<event>
 7    1  0.6230310E-012  0.5930195E+02  0.7816164E-02  0.1266605E+00
        -11   -1    0    0    0    0  0.00000000000E+00  0.00000000000E+00  0.45593999997E+02  0.45594000000E+02  0.51100000000E-03 0.  1.
         11   -1    0    0    0    0 -0.00000000000E+00 -0.00000000000E+00 -0.45593999997E+02  0.45594000000E+02  0.51100000000E-03 0. -1.
    9900012    2    1    2    0    0 -0.34261333637E+01  0.12243211889E+02  0.29241848550E+02  0.59301947661E+02  0.50000006626E+02 0.  0.
         12    1    1    2    0    0  0.34261333637E+01 -0.12243211889E+02 -0.29241848550E+02  0.31886052339E+02  0.00000000000E+00 0. -1.
         11    1    3    3    0    0 -0.15083891508E+02  0.12756358706E+02  0.24370396538E+02  0.31371399365E+02  0.51100000000E-03 0. -1.
        -11    1    3    3    0    0  0.76692452196E+00 -0.98368756203E+01  0.86310468400E+01  0.13109052788E+02  0.51100000000E-03 0.  1.
         12    1    3    3    0    0  0.10890833623E+02  0.93237288031E+01 -0.37595948281E+01  0.14821495507E+02  0.00000000000E+00 0. -1.
</event>
<event>
 7    1  0.6230310E-012  0.5930204E+02  0.7816164E-02  0.1266604E+00
        -11   -1    0    0    0    0  0.00000000000E+00  0.00000000000E+00  0.45593999997E+02  0.45594000000E+02  0.51100000000E-03 0.  1.
         11   -1    0    0    0    0 -0.00000000000E+00 -0.00000000000E+00 -0.45593999997E+02  0.45594000000E+02  0.51100000000E-03 0. -1.
    9900012    2    1    2    0    0 -0.14747482238E+01 -0.20198305899E+02  0.24628602696E+02  0.59302038916E+02  0.50000173053E+02 0.  0.
         12    1    1    2    0    0  0.14747482238E+01  0.20198305899E+02 -0.24628602696E+02  0.31885961084E+02  0.00000000000E+00 0. -1.
         11    1    3    3    0    0 -0.66052528024E+01  0.19391564180E+01 -0.52107818260E+01  0.86337674104E+01  0.51100000000E-03 0. -1.
        -11    1    3    3    0    0 -0.89466829376E+01 -0.24025387392E+02  0.24596848753E+02  0.35528401931E+02  0.51100000000E-03 0.  1.
        -12    1    3    3    0    0  0.14077187516E+02  0.18879250754E+01  0.52425357690E+01  0.15139869575E+02  0.00000000000E+00 0.  1.
</event>
<event>
 7    1  0.6230310E-012  0.5930194E+02  0.7816164E-02  0.1266605E+00
        -11   -1    0    0    0    0  0.00000000000E+00  0.00000000000E+00  0.45593999997E+02  0.45594000000E+02  0.51100000000E-03 0. -1.
         11   -1    0    0    0    0 -0.00000000000E+00 -0.00000000000E+00 -0.45593999997E+02  0.45594000000E+02  0.51100000000E-03 0.  1.
    9900012    2    1    2    0    0  0.14523781034E+02  0.25236530182E+02 -0.12996090972E+02  0.59301936403E+02  0.49999986095E+02 0.  0.
         12    1    1    2    0    0 -0.14523781034E+02 -0.25236530182E+02  0.12996090972E+02  0.31886063597E+02  0.00000000000E+00 0. -1.
         11    1    3    3    0    0 -0.10068452097E+02  0.66497948078E+01  0.69519636305E+01  0.13925634535E+02  0.51100000000E-03 0. -1.
        -11    1    3    3    0    0  0.89950926716E+01 -0.58337388026E+01 -0.10216337966E+02  0.14809380888E+02  0.51100000000E-03 0.  1.
        -12    1    3    3    0    0  0.15597140460E+02  0.24420474176E+02 -0.97317166369E+01  0.30566920980E+02  0.00000000000E+00 0.  1.
</event>
<event>
 7    1  0.6230310E-012  0.5930196E+02  0.7816164E-02  0.1266605E+00
        -11   -1    0    0    0    0  0.00000000000E+00  0.00000000000E+00  0.45593999997E+02  0.45594000000E+02  0.51100000000E-03 0.  1.
         11   -1    0    0    0    0 -0.00000000000E+00 -0.00000000000E+00 -0.45593999997E+02  0.45594000000E+02  0.51100000000E-03 0. -1.
    9900012    2    1    2    0    0  0.15903758883E+02  0.17661708577E+02  0.21256854656E+02  0.59301962831E+02  0.50000034293E+02 0.  0.
         12    1    1    2    0    0 -0.15903758883E+02 -0.17661708577E+02 -0.21256854656E+02  0.31886037169E+02  0.00000000000E+00 0. -1.
         11    1    3    3    0    0 -0.35765978081E+01 -0.22383928163E+01  0.16044071248E+02  0.16589595436E+02  0.51100000000E-03 0. -1.
        -11    1    3    3    0    0 -0.47547688669E+01  0.15134009129E+02  0.81578687713E+01  0.17838073956E+02  0.51100000000E-03 0.  1.
        -12    1    3    3    0    0  0.24235125558E+02  0.47660922646E+01 -0.29450853631E+01  0.24874293439E+02  0.00000000000E+00 0.  1.
</event>
<event>
 7    1  0.6230310E-012  0.5930185E+02  0.7816164E-02  0.1266605E+00
        -11   -1    0    0    0    0  0.00000000000E+00  0.00000000000E+00  0.45593999997E+02  0.45594000000E+02  0.51100000000E-03 0. -1.
         11   -1    0    0    0    0 -0.00000000000E+00 -0.00000000000E+00 -0.45593999997E+02  0.45594000000E+02  0.51100000000E-03 0.  1.
    9900012    2    1    2    0    0 -0.60164822189E+01 -0.26461429093E+02 -0.16742793983E+02  0.59301851937E+02  0.49999832048E+02 0.  0.
         12    1    1    2    0    0  0.60164822189E+01  0.26461429093E+02  0.16742793983E+02  0.31886148063E+02  0.00000000000E+00 0. -1.
         11    1    3    3    0    0  0.28509947757E+01 -0.11084082783E+01 -0.22569048573E+01  0.38013629027E+01  0.51100000000E-03 0. -1.
        -11    1    3    3    0    0  0.13235007187E+02 -0.17461203056E+02 -0.21810096161E+02  0.30915033919E+02  0.51100000000E-03 0.  1.
         12    1    3    3    0    0 -0.22102484181E+02 -0.78918177595E+01  0.73242070356E+01  0.24585455115E+02  0.00000000000E+00 0. -1.
</event>
<event>
 7    1  0.6230310E-012  0.5930190E+02  0.7816164E-02  0.1266605E+00
        -11   -1    0    0    0    0  0.00000000000E+00  0.00000000000E+00  0.45593999997E+02  0.45594000000E+02  0.51100000000E-03 0.  1.
         11   -1    0    0    0    0 -0.00000000000E+00 -0.00000000000E+00 -0.45593999997E+02  0.45594000000E+02  0.51100000000E-03 0. -1.
    9900012    2    1    2    0    0  0.26293173838E+02 -0.16725867881E+02  0.67555526482E+01  0.59301903681E+02  0.49999926418E+02 0.  0.
         12    1    1    2    0    0 -0.26293173838E+02  0.16725867881E+02 -0.67555526482E+01  0.31886096319E+02  0.00000000000E+00 0. -1.
         11    1    3    3    0    0 -0.45166544299E+01 -0.13485590761E+01 -0.26992218511E+01  0.54318116392E+01  0.51100000000E-03 0. -1.
        -11    1    3    3    0    0  0.43042608578E+00 -0.17307747129E+02 -0.76779573811E+01  0.18939229316E+02  0.51100000000E-03 0.  1.
         12    1    3    3    0    0  0.30379402183E+02  0.19304383239E+01  0.17132731880E+02  0.34930862726E+02  0.00000000000E+00 0. -1.
</event>
<event>
 7    1  0.6230310E-012  0.5930193E+02  0.7816164E-02  0.1266605E+00
        -11   -1    0    0    0    0  0.00000000000E+00  0.00000000000E+00  0.45593999997E+02  0.45594000000E+02  0.51100000000E-03 0.  1.
         11   -1    0    0    0    0 -0.00000000000E+00 -0.00000000000E+00 -0.45593999997E+02  0.45594000000E+02  0.51100000000E-03 0. -1.
    9900012    2    1    2    0    0 -0.13024726612E+02  0.26881964555E+02 -0.11155182613E+02  0.59301927479E+02  0.49999969820E+02 0.  0.
         12    1    1    2    0    0  0.13024726612E+02 -0.26881964555E+02  0.11155182613E+02  0.31886072521E+02  0.00000000000E+00 0. -1.
         11    1    3    3    0    0  0.96168487461E+01  0.13740410815E+02 -0.24775216595E+01  0.16953488815E+02  0.51100000000E-03 0. -1.
        -11    1    3    3    0    0  0.29361984879E+01 -0.41752465733E+01 -0.10217649724E+02  0.11421659759E+02  0.51100000000E-03 0.  1.
        -12    1    3    3    0    0 -0.25577773847E+02  0.17316800314E+02  0.15399887710E+01  0.30926778905E+02  0.00000000000E+00 0.  1.
</event>
<event>
 7    1  0.6230310E-012  0.5930193E+02  0.7816164E-02  0.1266605E+00
        -11   -1    0    0    0    0  0.00000000000E+00  0.00000000000E+00  0.45593999997E+02  0.45594000000E+02  0.51100000000E-03 0.  1.
         11   -1    0    0    0    0 -0.00000000000E+00 -0.00000000000E+00 -0.45593999997E+02  0.45594000000E+02  0.51100000000E-03 0. -1.
    9900012    2    1    2    0    0  0.13698997971E+02 -0.27656260163E+02  0.80118697442E+01  0.59301932064E+02  0.49999978181E+02 0.  0.
         12    1    1    2    0    0 -0.13698997971E+02  0.27656260163E+02 -0.80118697442E+01  0.31886067936E+02  0.00000000000E+00 0. -1.
         11    1    3    3    0    0 -0.52264603779E+01 -0.19874351685E+02  0.31421831143E+01  0.20788916709E+02  0.51100000000E-03 0. -1.
        -11    1    3    3    0    0  0.49450030449E+01  0.24228868542E+01  0.16675663558E+02  0.17561355050E+02  0.51100000000E-03 0.  1.
         12    1    3    3    0    0  0.13980455304E+02 -0.10204795333E+02 -0.11805976928E+02  0.20951660305E+02  0.00000000000E+00 0. -1.
</event>
<event>
 7    1  0.6230310E-012  0.5930195E+02  0.7816164E-02  0.1266605E+00
        -11   -1    0    0    0    0  0.00000000000E+00  0.00000000000E+00  0.45593999997E+02  0.45594000000E+02  0.51100000000E-03 0. -1.
         11   -1    0    0    0    0 -0.00000000000E+00 -0.00000000000E+00 -0.45593999997E+02  0.45594000000E+02  0.51100000000E-03 0.  1.
    9900012    2    1    2    0    0  0.11159324054E+02  0.14286192691E+02 -0.26231555345E+02  0.59301948021E+02  0.50000007283E+02 0.  0.
         12    1    1    2    0    0 -0.11159324054E+02 -0.14286192691E+02  0.26231555345E+02  0.31886051979E+02  0.00000000000E+00 0. -1.
         11    1    3    3    0    0  0.14809392373E+02 -0.65636257660E+01 -0.13429611731E+02  0.21041714692E+02  0.51100000000E-03 0. -1.
        -11    1    3    3    0    0 -0.44666843986E+01  0.21970375781E+00 -0.16665916551E+02  0.17255500978E+02  0.51100000000E-03 0.  1.
         12    1    3    3    0    0  0.81661607970E+00  0.20630114699E+02  0.38639729364E+01  0.21004732352E+02  0.00000000000E+00 0. -1.
</event>
<event>
 7    1  0.6230310E-012  0.5930195E+02  0.7816164E-02  0.1266605E+00
        -11   -1    0    0    0    0  0.00000000000E+00  0.00000000000E+00  0.45593999997E+02  0.45594000000E+02  0.51100000000E-03 0.  1.
         11   -1    0    0    0    0 -0.00000000000E+00 -0.00000000000E+00 -0.45593999997E+02  0.45594000000E+02  0.51100000000E-03 0. -1.
    9900012    2    1    2    0    0 -0.12543350111E+02 -0.10697342175E+01  0.29295735290E+02  0.59301951805E+02  0.50000014184E+02 0.  0.
         12    1    1    2    0    0  0.12543350111E+02  0.10697342175E+01 -0.29295735290E+02  0.31886048195E+02  0.00000000000E+00 0. -1.
         11    1    3    3    0    0  0.50134150400E+01 -0.34329809053E+01 -0.40054511156E+01  0.72775907525E+01  0.51100000000E-03 0. -1.
        -11    1    3    3    0    0  0.93996156425E+01 -0.34573995664E+00  0.19431477856E+02  0.21588298735E+02  0.51100000000E-03 0.  1.
        -12    1    3    3    0    0 -0.26956380794E+02  0.27089866444E+01  0.13869708550E+02  0.30436062318E+02  0.00000000000E+00 0.  1.
</event>
<event>
 7    1  0.6230310E-012  0.5930196E+02  0.7816164E-02  0.1266605E+00
        -11   -1    0    0    0    0  0.00000000000E+00  0.00000000000E+00  0.45593999997E+02  0.45594000000E+02  0.51100000000E-03 0. -1.
         11   -1    0    0    0    0 -0.00000000000E+00 -0.00000000000E+00 -0.45593999997E+02  0.45594000000E+02  0.51100000000E-03 0.  1.
    9900012    2    1    2    0    0  0.21070650477E+02  0.23881891951E+02  0.15499341904E+01  0.59301962763E+02  0.50000034168E+02 0.  0.
         12    1    1    2    0    0 -0.21070650477E+02 -0.23881891951E+02 -0.15499341904E+01  0.31886037237E+02  0.00000000000E+00 0. -1.
         11    1    3    3    0    0  0.67282890340E+01  0.29601911663E+02  0.86776739317E+01  0.31572853412E+02  0.51100000000E-03 0. -1.
        -11    1    3    3    0    0  0.15622914824E+02  0.43542475066E+01 -0.19654514006E+01  0.16337011306E+02  0.51100000000E-03 0.  1.
        -12    1    3    3    0    0 -0.12805533810E+01 -0.10074267218E+02 -0.51622883407E+01  0.11392098045E+02  0.00000000000E+00 0.  1.
</event>
<event>
 7    1  0.6230310E-012  0.5930181E+02  0.7816164E-02  0.1266605E+00
        -11   -1    0    0    0    0  0.00000000000E+00  0.00000000000E+00  0.45593999997E+02  0.45594000000E+02  0.51100000000E-03 0. -1.
         11   -1    0    0    0    0 -0.00000000000E+00 -0.00000000000E+00 -0.45593999997E+02  0.45594000000E+02  0.51100000000E-03 0.  1.
    9900012    2    1    2    0    0 -0.50885276776E+01  0.31289576368E+02 -0.34349172914E+01  0.59301806122E+02  0.49999748492E+02 0.  0.
         12    1    1    2    0    0  0.50885276776E+01 -0.31289576368E+02  0.34349172914E+01  0.31886193878E+02  0.00000000000E+00 0. -1.
         11    1    3    3    0    0 -0.44424359398E+01  0.22618206625E+02  0.24307487270E+01  0.23178158849E+02  0.51100000000E-03 0. -1.
        -11    1    3    3    0    0  0.14164921095E+02 -0.99963835574E+00 -0.10706866789E+02  0.17784298219E+02  0.51100000000E-03 0.  1.
         12    1    3    3    0    0 -0.14811012833E+02  0.96710080991E+01  0.48412007702E+01  0.18339349053E+02  0.00000000000E+00 0. -1.
</event>
<event>
 7    1  0.6230310E-012  0.5930193E+02  0.7816164E-02  0.1266605E+00
        -11   -1    0    0    0    0  0.00000000000E+00  0.00000000000E+00  0.45593999997E+02  0.45594000000E+02  0.51100000000E-03 0. -1.
         11   -1    0    0    0    0 -0.00000000000E+00 -0.00000000000E+00 -0.45593999997E+02  0.45594000000E+02  0.51100000000E-03 0.  1.
    9900012    2    1    2    0    0 -0.22139982493E+02 -0.81553149350E+01 -0.21448394560E+02  0.59301927559E+02  0.49999969966E+02 0.  0.
         12    1    1    2    0    0  0.22139982493E+02  0.81553149350E+01  0.21448394560E+02  0.31886072441E+02  0.00000000000E+00 0. -1.
         11    1    3    3    0    0 -0.73542463570E+01  0.92287360138E+01 -0.25154455710E+01  0.12065735559E+02  0.51100000000E-03 0. -1.
        -11    1    3    3    0    0 -0.12331853598E+02  0.38984346710E+01 -0.22073806500E+02  0.25583692848E+02  0.51100000000E-03 0.  1.
         12    1    3    3    0    0 -0.24538825377E+01 -0.21282485620E+02  0.31408575112E+01  0.21652499153E+02  0.00000000000E+00 0. -1.
</event>
<event>
 7    1  0.6230310E-012  0.5930190E+02  0.7816164E-02  0.1266605E+00
        -11   -1    0    0    0    0  0.00000000000E+00  0.00000000000E+00  0.45593999997E+02  0.45594000000E+02  0.51100000000E-03 0.  1.
         11   -1    0    0    0    0 -0.00000000000E+00 -0.00000000000E+00 -0.45593999997E+02  0.45594000000E+02  0.51100000000E-03 0. -1.
    9900012    2    1    2    0    0  0.28691962330E+02  0.12876022961E+02  0.52633129945E+01  0.59301903761E+02  0.49999926564E+02 0.  0.
         12    1    1    2    0    0 -0.28691962330E+02 -0.12876022961E+02 -0.52633129945E+01  0.31886096239E+02  0.00000000000E+00 0. -1.
         11    1    3    3    0    0  0.24609577848E+01 -0.57178175474E+01 -0.16912013419E+00  0.62272267186E+01  0.51100000000E-03 0. -1.
        -11    1    3    3    0    0  0.37352304695E+01  0.12566750480E+02  0.21216811171E+02  0.24940493997E+02  0.51100000000E-03 0.  1.
         12    1    3    3    0    0  0.22495774076E+02  0.60270900285E+01 -0.15784378042E+02  0.28134183046E+02  0.00000000000E+00 0. -1.
</event>
<event>
 7    1  0.6230310E-012  0.5930192E+02  0.7816164E-02  0.1266605E+00
        -11   -1    0    0    0    0  0.00000000000E+00  0.00000000000E+00  0.45593999997E+02  0.45594000000E+02  0.51100000000E-03 0. -1.
         11   -1    0    0    0    0 -0.00000000000E+00 -0.00000000000E+00 -0.45593999997E+02  0.45594000000E+02  0.51100000000E-03 0.  1.
    9900012    2    1    2    0    0 -0.27163882643E+02 -0.13183432121E+02  0.10249022987E+02  0.59301923495E+02  0.49999962553E+02 0.  0.
         12    1    1    2    0    0  0.27163882643E+02  0.13183432121E+02 -0.10249022987E+02  0.31886076505E+02  0.00000000000E+00 0. -1.
         11    1    3    3    0    0  0.95004634286E+01 -0.74763027507E+00 -0.29089619263E+01  0.99639257392E+01  0.51100000000E-03 0. -1.
        -11    1    3    3    0    0 -0.99896857494E+01 -0.11687468898E+02 -0.59827520224E+01  0.16498002080E+02  0.51100000000E-03 0.  1.
        -12    1    3    3    0    0 -0.26674660322E+02 -0.74833294698E+00  0.19140736935E+02  0.32839995675E+02  0.00000000000E+00 0.  1.
</event>
<event>
 7    1  0.6230310E-012  0.5930194E+02  0.7816164E-02  0.1266605E+00
        -11   -1    0    0    0    0  0.00000000000E+00  0.00000000000E+00  0.45593999997E+02  0.45594000000E+02  0.51100000000E-03 0.  1.
         11   -1    0    0    0    0 -0.00000000000E+00 -0.00000000000E+00 -0.45593999997E+02  0.45594000000E+02  0.51100000000E-03 0. -1.
    9900012    2    1    2    0    0  0.76480018839E+01 -0.10973697005E+02  0.28944894016E+02  0.59301939592E+02  0.49999991910E+02 0.  0.
         12    1    1    2    0    0 -0.76480018839E+01  0.10973697005E+02 -0.28944894016E+02  0.31886060408E+02  0.00000000000E+00 0. -1.
         11    1    3    3    0    0 -0.13228578726E+02 -0.85829042858E+00  0.44359060577E+01  0.13978884805E+02  0.51100000000E-03 0. -1.
        -11    1    3    3    0    0  0.62663042788E+01 -0.66423558855E+01 -0.62692282740E+01  0.11076582706E+02  0.51100000000E-03 0.  1.
        -12    1    3    3    0    0  0.14610276331E+02 -0.34730506910E+01  0.30778216232E+02  0.34246472081E+02  0.00000000000E+00 0.  1.
</event>
<event>
 7    1  0.6230310E-012  0.5930196E+02  0.7816164E-02  0.1266605E+00
        -11   -1    0    0    0    0  0.00000000000E+00  0.00000000000E+00  0.45593999997E+02  0.45594000000E+02  0.51100000000E-03 0. -1.
         11   -1    0    0    0    0 -0.00000000000E+00 -0.00000000000E+00 -0.45593999997E+02  0.45594000000E+02  0.51100000000E-03 0.  1.
    9900012    2    1    2    0    0  0.29614932533E+02 -0.11236373205E+02 -0.36632186231E+01  0.59301961011E+02  0.50000030973E+02 0.  0.
         12    1    1    2    0    0 -0.29614932533E+02  0.11236373205E+02  0.36632186231E+01  0.31886038989E+02  0.00000000000E+00 0. -1.
         11    1    3    3    0    0  0.48333165338E+01 -0.53729844890E+01 -0.10693975800E+02  0.12907014748E+02  0.51100000000E-03 0. -1.
        -11    1    3    3    0    0  0.17394170680E+02 -0.21614300684E+02  0.31343654799E+00  0.27745871953E+02  0.51100000000E-03 0.  1.
         12    1    3    3    0    0  0.73874453191E+01  0.15750911968E+02  0.67173206290E+01  0.18649074309E+02  0.00000000000E+00 0. -1.
</event>
<event>
 7    1  0.6230310E-012  0.5930196E+02  0.7816164E-02  0.1266605E+00
        -11   -1    0    0    0    0  0.00000000000E+00  0.00000000000E+00  0.45593999997E+02  0.45594000000E+02  0.51100000000E-03 0.  1.
         11   -1    0    0    0    0 -0.00000000000E+00 -0.00000000000E+00 -0.45593999997E+02  0.45594000000E+02  0.51100000000E-03 0. -1.
    9900012    2    1    2    0    0  0.90738290687E+00 -0.58335362481E+01  0.31334745002E+02  0.59301957078E+02  0.50000023800E+02 0.  0.
         12    1    1    2    0    0 -0.90738290687E+00  0.58335362481E+01 -0.31334745002E+02  0.31886042922E+02  0.00000000000E+00 0. -1.
         11    1    3    3    0    0  0.10498503390E+02 -0.17757508370E+02  0.14973196894E+02  0.25490082433E+02  0.51100000000E-03 0. -1.
        -11    1    3    3    0    0 -0.61798713871E+00 -0.67424578487E+01 -0.92617252179E+00  0.68337721462E+01  0.51100000000E-03 0.  1.
        -12    1    3    3    0    0 -0.89731333445E+01  0.18666429971E+02  0.17287720629E+02  0.26978102499E+02  0.00000000000E+00 0.  1.
</event>
<event>
 7    1  0.6230310E-012  0.5930195E+02  0.7816164E-02  0.1266605E+00
        -11   -1    0    0    0    0  0.00000000000E+00  0.00000000000E+00  0.45593999997E+02  0.45594000000E+02  0.51100000000E-03 0.  1.
         11   -1    0    0    0    0 -0.00000000000E+00 -0.00000000000E+00 -0.45593999997E+02  0.45594000000E+02  0.51100000000E-03 0. -1.
    9900012    2    1    2    0    0 -0.26258394705E+02  0.55103247753E+01  0.17229434067E+02  0.59301947094E+02  0.50000005593E+02 0.  0.
         12    1    1    2    0    0  0.26258394705E+02 -0.55103247753E+01 -0.17229434067E+02  0.31886052906E+02  0.00000000000E+00 0. -1.
         11    1    3    3    0    0  0.40390055277E+01 -0.29905255870E+01  0.25094788462E+01  0.56173208276E+01  0.51100000000E-03 0. -1.
        -11    1    3    3    0    0  0.69887729482E+01  0.11403915014E+02 -0.30954661177E+00  0.13378641349E+02  0.51100000000E-03 0.  1.
        -12    1    3    3    0    0 -0.37286173181E+02 -0.29030646517E+01  0.15029501833E+02  0.40305984918E+02  0.00000000000E+00 0.  1.
</event>
<event>
 7    1  0.6230310E-012  0.5930196E+02  0.7816164E-02  0.1266605E+00
        -11   -1    0    0    0    0  0.00000000000E+00  0.00000000000E+00  0.45593999997E+02  0.45594000000E+02  0.51100000000E-03 0. -1.
         11   -1    0    0    0    0 -0.00000000000E+00 -0.00000000000E+00 -0.45593999997E+02  0.45594000000E+02  0.51100000000E-03 0.  1.
    9900012    2    1    2    0    0 -0.51844353199E+01  0.78794494872E+01 -0.30459078016E+02  0.59301960306E+02  0.50000029687E+02 0.  0.
         12    1    1    2    0    0  0.51844353199E+01 -0.78794494872E+01  0.30459078016E+02  0.31886039694E+02  0.00000000000E+00 0. -1.
         11    1    3    3    0    0 -0.28926328011E+01  0.58031364150E+01 -0.21791994797E+01  0.68405136800E+01  0.51100000000E-03 0. -1.
        -11    1    3    3    0    0 -0.14071502661E+02 -0.12151947537E+02  0.10826716875E+00  0.18592706585E+02  0.51100000000E-03 0.  1.
        -12    1    3    3    0    0  0.11779700142E+02  0.14228260610E+02 -0.28388145705E+02  0.33868740041E+02  0.00000000000E+00 0.  1.
</event>
<event>
 7    1  0.6230310E-012  0.5930207E+02  0.7816164E-02  0.1266604E+00
        -11   -1    0    0    0    0  0.00000000000E+00  0.00000000000E+00  0.45593999997E+02  0.45594000000E+02  0.51100000000E-03 0. -1.
         11   -1    0    0    0    0 -0.00000000000E+00 -0.00000000000E+00 -0.45593999997E+02  0.45594000000E+02  0.51100000000E-03 0.  1.
    9900012    2    1    2    0    0  0.26895761338E+02  0.32280974833E+01 -0.16819920976E+02  0.59302073121E+02  0.50000235435E+02 0.  0.
         12    1    1    2    0    0 -0.26895761338E+02 -0.32280974833E+01  0.16819920976E+02  0.31885926879E+02  0.00000000000E+00 0. -1.
         11    1    3    3    0    0  0.36947987919E+02  0.39666786568E+01 -0.21091431853E+02  0.42728642018E+02  0.51100000000E-03 0.  1.
        -11    1    3    3    0    0  0.14479413127E+01 -0.34586004819E+01 -0.58900714043E+00  0.37954421364E+01  0.51100000000E-03 0. -1.
         12    1    3    3    0    0 -0.11500167894E+02  0.27200193084E+01  0.48605180174E+01  0.12777988967E+02  0.00000000000E+00 0. -1.
</event>
<event>
 7    1  0.6230310E-012  0.5930194E+02  0.7816164E-02  0.1266605E+00
        -11   -1    0    0    0    0  0.00000000000E+00  0.00000000000E+00  0.45593999997E+02  0.45594000000E+02  0.51100000000E-03 0.  1.
         11   -1    0    0    0    0 -0.00000000000E+00 -0.00000000000E+00 -0.45593999997E+02  0.45594000000E+02  0.51100000000E-03 0. -1.
    9900012    2    1    2    0    0 -0.11015258128E+02 -0.13724124700E+02  0.26590095542E+02  0.59301942054E+02  0.49999996401E+02 0.  0.
         12    1    1    2    0    0  0.11015258128E+02  0.13724124700E+02 -0.26590095542E+02  0.31886057946E+02  0.00000000000E+00 0. -1.
         11    1    3    3    0    0 -0.65826686219E+01 -0.21233007192E+02  0.12003642761E+02  0.25263799406E+02  0.51100000000E-03 0. -1.
        -11    1    3    3    0    0 -0.71716611035E+01  0.75832588006E+01  0.22963573435E+02  0.25224278824E+02  0.51100000000E-03 0.  1.
        -12    1    3    3    0    0  0.27390715975E+01 -0.74376307683E-01 -0.83771206545E+01  0.88138638242E+01  0.00000000000E+00 0.  1.
</event>
<event>
 7    1  0.6230310E-012  0.5930195E+02  0.7816164E-02  0.1266605E+00
        -11   -1    0    0    0    0  0.00000000000E+00  0.00000000000E+00  0.45593999997E+02  0.45594000000E+02  0.51100000000E-03 0. -1.
         11   -1    0    0    0    0 -0.00000000000E+00 -0.00000000000E+00 -0.45593999997E+02  0.45594000000E+02  0.51100000000E-03 0.  1.
    9900012    2    1    2    0    0 -0.15359024142E+02 -0.14824641985E+02 -0.23686499984E+02  0.59301954242E+02  0.50000018628E+02 0.  0.
         12    1    1    2    0    0  0.15359024142E+02  0.14824641985E+02  0.23686499984E+02  0.31886045758E+02  0.00000000000E+00 0. -1.
         11    1    3    3    0    0  0.46875461208E+01 -0.21385915455E+02 -0.14671413009E+02  0.26354901412E+02  0.51100000000E-03 0. -1.
        -11    1    3    3    0    0  0.33963423752E+01  0.70900559968E+01 -0.45293190394E+01  0.90729690173E+01  0.51100000000E-03 0.  1.
         12    1    3    3    0    0 -0.23442912638E+02 -0.52878252698E+00 -0.44857679356E+01  0.23874083813E+02  0.00000000000E+00 0. -1.
</event>
<event>
 7    1  0.6230310E-012  0.5930177E+02  0.7816164E-02  0.1266605E+00
        -11   -1    0    0    0    0  0.00000000000E+00  0.00000000000E+00  0.45593999997E+02  0.45594000000E+02  0.51100000000E-03 0.  1.
         11   -1    0    0    0    0 -0.00000000000E+00 -0.00000000000E+00 -0.45593999997E+02  0.45594000000E+02  0.51100000000E-03 0. -1.
    9900012    2    1    2    0    0 -0.42290655717E+01  0.21237239226E+02  0.23405693173E+02  0.59301767885E+02  0.49999678757E+02 0.  0.
         12    1    1    2    0    0  0.42290655717E+01 -0.21237239226E+02 -0.23405693173E+02  0.31886232115E+02  0.00000000000E+00 0. -1.
         11    1    3    3    0    0  0.23931579942E+01  0.18415886163E+01  0.24564787649E+02  0.24749695883E+02  0.51100000000E-03 0.  1.
        -11    1    3    3    0    0  0.22278921403E+01  0.23000840191E+02  0.43605342956E+01  0.23516300995E+02  0.51100000000E-03 0. -1.
         12    1    3    3    0    0 -0.88501157062E+01 -0.36051895816E+01 -0.55196287715E+01  0.11035771007E+02  0.00000000000E+00 0. -1.
</event>
<event>
 7    1  0.6230310E-012  0.5930197E+02  0.7816164E-02  0.1266605E+00
        -11   -1    0    0    0    0  0.00000000000E+00  0.00000000000E+00  0.45593999997E+02  0.45594000000E+02  0.51100000000E-03 0.  1.
         11   -1    0    0    0    0 -0.00000000000E+00 -0.00000000000E+00 -0.45593999997E+02  0.45594000000E+02  0.51100000000E-03 0. -1.
    9900012    2    1    2    0    0  0.14394040393E+02  0.16157067025E+02  0.23419640717E+02  0.59301971947E+02  0.50000050918E+02 0.  0.
         12    1    1    2    0    0 -0.14394040393E+02 -0.16157067025E+02 -0.23419640717E+02  0.31886028053E+02  0.00000000000E+00 0. -1.
         11    1    3    3    0    0  0.60165934611E+01  0.77516015045E+01 -0.10422052146E+02  0.14314534360E+02  0.51100000000E-03 0. -1.
        -11    1    3    3    0    0  0.16757666613E+02  0.43923890457E+01  0.11507210477E+02  0.20797316294E+02  0.51100000000E-03 0.  1.
        -12    1    3    3    0    0 -0.83802196810E+01  0.40130764745E+01  0.22334482386E+02  0.24190121293E+02  0.00000000000E+00 0.  1.
</event>
<event>
 7    1  0.6230310E-012  0.5930200E+02  0.7816164E-02  0.1266605E+00
        -11   -1    0    0    0    0  0.00000000000E+00  0.00000000000E+00  0.45593999997E+02  0.45594000000E+02  0.51100000000E-03 0. -1.
         11   -1    0    0    0    0 -0.00000000000E+00 -0.00000000000E+00 -0.45593999997E+02  0.45594000000E+02  0.51100000000E-03 0.  1.
    9900012    2    1    2    0    0 -0.94963985757E+01 -0.21147399555E+02 -0.21893446702E+02  0.59301998333E+02  0.50000099040E+02 0.  0.
         12    1    1    2    0    0  0.94963985757E+01  0.21147399555E+02  0.21893446702E+02  0.31886001667E+02  0.00000000000E+00 0. -1.
         11    1    3    3    0    0 -0.83238838327E+01  0.30514588557E+01  0.33157491771E+01  0.94653386667E+01  0.51100000000E-03 0. -1.
        -11    1    3    3    0    0 -0.27655768343E+01 -0.47499625790E+01 -0.29373432152E+02  0.29883257459E+02  0.51100000000E-03 0.  1.
         12    1    3    3    0    0  0.15930620913E+01 -0.19448895831E+02  0.41642362735E+01  0.19953402207E+02  0.00000000000E+00 0. -1.
</event>
<event>
 7    1  0.6230310E-012  0.5930194E+02  0.7816164E-02  0.1266605E+00
        -11   -1    0    0    0    0  0.00000000000E+00  0.00000000000E+00  0.45593999997E+02  0.45594000000E+02  0.51100000000E-03 0. -1.
         11   -1    0    0    0    0 -0.00000000000E+00 -0.00000000000E+00 -0.45593999997E+02  0.45594000000E+02  0.51100000000E-03 0.  1.
    9900012    2    1    2    0    0  0.24821825136E+02 -0.20012505032E+02  0.31195872444E+00  0.59301942247E+02  0.49999996753E+02 0.  0.
         12    1    1    2    0    0 -0.24821825136E+02  0.20012505032E+02 -0.31195872444E+00  0.31886057753E+02  0.00000000000E+00 0. -1.
         11    1    3    3    0    0 -0.10748840855E+02 -0.40067503199E+01  0.68000145801E+01  0.13335360003E+02  0.51100000000E-03 0. -1.
        -11    1    3    3    0    0  0.15497600217E+01  0.50056126816E+01  0.86191241613E+00  0.53104432694E+01  0.51100000000E-03 0.  1.
        -12    1    3    3    0    0  0.34020905970E+02 -0.21011367394E+02 -0.73499682718E+01  0.40656138975E+02  0.00000000000E+00 0.  1.
</event>
<event>
 7    1  0.6230310E-012  0.5930194E+02  0.7816164E-02  0.1266605E+00
        -11   -1    0    0    0    0  0.00000000000E+00  0.00000000000E+00  0.45593999997E+02  0.45594000000E+02  0.51100000000E-03 0.  1.
         11   -1    0    0    0    0 -0.00000000000E+00 -0.00000000000E+00 -0.45593999997E+02  0.45594000000E+02  0.51100000000E-03 0. -1.
    9900012    2    1    2    0    0 -0.13088443539E+02  0.16118575865E+01  0.29031280206E+02  0.59301942396E+02  0.49999997024E+02 0.  0.
         12    1    1    2    0    0  0.13088443539E+02 -0.16118575865E+01 -0.29031280206E+02  0.31886057604E+02  0.00000000000E+00 0. -1.
         11    1    3    3    0    0 -0.66316843851E+00  0.87601153686E+01  0.45096355339E+01  0.98750304586E+01  0.51100000000E-03 0.  1.
        -11    1    3    3    0    0 -0.19409852525E+02 -0.94976283190E+01 -0.21879028404E+01  0.21719443773E+02  0.51100000000E-03 0. -1.
         12    1    3    3    0    0  0.69845774248E+01  0.23493705369E+01  0.26709547513E+02  0.27707468164E+02  0.00000000000E+00 0. -1.
</event>
<event>
 7    1  0.6230310E-012  0.5930196E+02  0.7816164E-02  0.1266605E+00
        -11   -1    0    0    0    0  0.00000000000E+00  0.00000000000E+00  0.45593999997E+02  0.45594000000E+02  0.51100000000E-03 0.  1.
         11   -1    0    0    0    0 -0.00000000000E+00 -0.00000000000E+00 -0.45593999997E+02  0.45594000000E+02  0.51100000000E-03 0. -1.
    9900012    2    1    2    0    0 -0.35396469232E+01  0.46049426913E+01  0.31352587488E+02  0.59301963249E+02  0.50000035055E+02 0.  0.
         12    1    1    2    0    0  0.35396469232E+01 -0.46049426913E+01 -0.31352587488E+02  0.31886036751E+02  0.00000000000E+00 0. -1.
         11    1    3    3    0    0  0.70856655739E+01 -0.10365477957E+02  0.23700699879E+02  0.26821129076E+02  0.51100000000E-03 0.  1.
        -11    1    3    3    0    0 -0.14403029137E-01 -0.42339360015E+01 -0.54687697779E+01  0.69162030521E+01  0.51100000000E-03 0. -1.
        -12    1    3    3    0    0 -0.10610909468E+02  0.19204356650E+02  0.13120657387E+02  0.25564631121E+02  0.00000000000E+00 0.  1.
</event>
<event>
 7    1  0.6230310E-012  0.5930191E+02  0.7816164E-02  0.1266605E+00
        -11   -1    0    0    0    0  0.00000000000E+00  0.00000000000E+00  0.45593999997E+02  0.45594000000E+02  0.51100000000E-03 0. -1.
         11   -1    0    0    0    0 -0.00000000000E+00 -0.00000000000E+00 -0.45593999997E+02  0.45594000000E+02  0.51100000000E-03 0.  1.
    9900012    2    1    2    0    0  0.24140492522E+02 -0.13666276539E+02 -0.15722342206E+02  0.59301913095E+02  0.49999943586E+02 0.  0.
         12    1    1    2    0    0 -0.24140492522E+02  0.13666276539E+02  0.15722342206E+02  0.31886086905E+02  0.00000000000E+00 0. -1.
         11    1    3    3    0    0 -0.70016027964E+01 -0.18082405579E+01  0.50084952141E+01  0.87964311061E+01  0.51100000000E-03 0. -1.
        -11    1    3    3    0    0  0.95373275957E+01  0.24572619073E+01 -0.22466434507E+02  0.24530377769E+02  0.51100000000E-03 0.  1.
         12    1    3    3    0    0  0.21604767723E+02 -0.14315297889E+02  0.17355970866E+01  0.25975104220E+02  0.00000000000E+00 0. -1.
</event>
<event>
 7    1  0.6230310E-012  0.5930193E+02  0.7816164E-02  0.1266605E+00
        -11   -1    0    0    0    0  0.00000000000E+00  0.00000000000E+00  0.45593999997E+02  0.45594000000E+02  0.51100000000E-03 0.  1.
         11   -1    0    0    0    0 -0.00000000000E+00 -0.00000000000E+00 -0.45593999997E+02  0.45594000000E+02  0.51100000000E-03 0. -1.
    9900012    2    1    2    0    0  0.33846795987E+01 -0.13848594334E+02  0.28521601323E+02  0.59301931521E+02  0.49999977190E+02 0.  0.
         12    1    1    2    0    0 -0.33846795987E+01  0.13848594334E+02 -0.28521601323E+02  0.31886068479E+02  0.00000000000E+00 0. -1.
         11    1    3    3    0    0 -0.86817228306E+01 -0.52809466903E+01 -0.80374594628E+01  0.12956136157E+02  0.51100000000E-03 0. -1.
        -11    1    3    3    0    0 -0.59757760336E+01  0.35345190751E+00  0.17995068688E+02  0.18964633526E+02  0.51100000000E-03 0.  1.
         12    1    3    3    0    0  0.18042178463E+02 -0.89210995516E+01  0.18563992098E+02  0.27381161837E+02  0.00000000000E+00 0. -1.
</event>
<event>
 7    1  0.6230310E-012  0.5930196E+02  0.7816164E-02  0.1266605E+00
        -11   -1    0    0    0    0  0.00000000000E+00  0.00000000000E+00  0.45593999997E+02  0.45594000000E+02  0.51100000000E-03 0. -1.
         11   -1    0    0    0    0 -0.00000000000E+00 -0.00000000000E+00 -0.45593999997E+02  0.45594000000E+02  0.51100000000E-03 0.  1.
    9900012    2    1    2    0    0 -0.19749291841E+02  0.16980629562E+02 -0.18394107891E+02  0.59301960521E+02  0.50000030080E+02 0.  0.
         12    1    1    2    0    0  0.19749291841E+02 -0.16980629562E+02  0.18394107891E+02  0.31886039479E+02  0.00000000000E+00 0. -1.
         11    1    3    3    0    0 -0.20610076712E+02  0.60242724171E+00 -0.11904720478E+00  0.20619222904E+02  0.51100000000E-03 0. -1.
        -11    1    3    3    0    0 -0.32989546135E+01  0.14522411689E+02 -0.25856274729E+02  0.29838406223E+02  0.51100000000E-03 0.  1.
         12    1    3    3    0    0  0.41597394845E+01  0.18557906312E+01  0.75812140427E+01  0.88443313940E+01  0.00000000000E+00 0. -1.
</event>
<event>
 7    1  0.6230310E-012  0.5930195E+02  0.7816164E-02  0.1266605E+00
        -11   -1    0    0    0    0  0.00000000000E+00  0.00000000000E+00  0.45593999997E+02  0.45594000000E+02  0.51100000000E-03 0. -1.
         11   -1    0    0    0    0 -0.00000000000E+00 -0.00000000000E+00 -0.45593999997E+02  0.45594000000E+02  0.51100000000E-03 0.  1.
    9900012    2    1    2    0    0  0.65232008105E+01  0.24998214321E+02 -0.18688429075E+02  0.59301948985E+02  0.50000009040E+02 0.  0.
         12    1    1    2    0    0 -0.65232008105E+01 -0.24998214321E+02  0.18688429075E+02  0.31886051015E+02  0.00000000000E+00 0. -1.
         11    1    3    3    0    0  0.67793728601E+01  0.32209370889E+02 -0.23210723863E+02  0.40275813735E+02  0.51100000000E-03 0. -1.
        -11    1    3    3    0    0  0.41587852238E+01 -0.45258342519E-02 -0.48613975463E+01  0.63975543285E+01  0.51100000000E-03 0.  1.
         12    1    3    3    0    0 -0.44149572735E+01 -0.72066307338E+01  0.93836923346E+01  0.12628580922E+02  0.00000000000E+00 0. -1.
</event>
<event>
 7    1  0.6230310E-012  0.5930198E+02  0.7816164E-02  0.1266605E+00
        -11   -1    0    0    0    0  0.00000000000E+00  0.00000000000E+00  0.45593999997E+02  0.45594000000E+02  0.51100000000E-03 0.  1.
         11   -1    0    0    0    0 -0.00000000000E+00 -0.00000000000E+00 -0.45593999997E+02  0.45594000000E+02  0.51100000000E-03 0. -1.
    9900012    2    1    2    0    0  0.69845502832E+01  0.30509518923E+02  0.60912453241E+01  0.59301984928E+02  0.50000074593E+02 0.  0.
         12    1    1    2    0    0 -0.69845502832E+01 -0.30509518923E+02 -0.60912453241E+01  0.31886015072E+02  0.00000000000E+00 0. -1.
         11    1    3    3    0    0  0.83435214809E+01  0.27954291379E+02 -0.76558270586E+01  0.30160710294E+02  0.51100000000E-03 0. -1.
        -11    1    3    3    0    0 -0.18185775255E+01  0.14059754355E+02  0.73178141060E+01  0.15954131763E+02  0.51100000000E-03 0.  1.
        -12    1    3    3    0    0  0.45960632775E+00 -0.11504526812E+02  0.64292582767E+01  0.13187142872E+02  0.00000000000E+00 0.  1.
</event>
<event>
 7    1  0.6230310E-012  0.5930195E+02  0.7816164E-02  0.1266605E+00
        -11   -1    0    0    0    0  0.00000000000E+00  0.00000000000E+00  0.45593999997E+02  0.45594000000E+02  0.51100000000E-03 0.  1.
         11   -1    0    0    0    0 -0.00000000000E+00 -0.00000000000E+00 -0.45593999997E+02  0.45594000000E+02  0.51100000000E-03 0. -1.
    9900012    2    1    2    0    0  0.39079423151E+01  0.90380479731E+01  0.30327574495E+02  0.59301951341E+02  0.50000013338E+02 0.  0.
         12    1    1    2    0    0 -0.39079423151E+01 -0.90380479731E+01 -0.30327574495E+02  0.31886048659E+02  0.00000000000E+00 0. -1.
         11    1    3    3    0    0  0.81238010884E+01  0.12777418118E+02  0.87434760569E+00  0.15166510537E+02  0.51100000000E-03 0. -1.
        -11    1    3    3    0    0 -0.26874636154E+01 -0.10665986761E+02 -0.26035453357E+01  0.11303281950E+02  0.51100000000E-03 0.  1.
         12    1    3    3    0    0 -0.15283951579E+01  0.69266166158E+01  0.32056772225E+02  0.32832158854E+02  0.00000000000E+00 0. -1.
</event>
<event>
 7    1  0.6230310E-012  0.5930191E+02  0.7816164E-02  0.1266605E+00
        -11   -1    0    0    0    0  0.00000000000E+00  0.00000000000E+00  0.45593999997E+02  0.45594000000E+02  0.51100000000E-03 0.  1.
         11   -1    0    0    0    0 -0.00000000000E+00 -0.00000000000E+00 -0.45593999997E+02  0.45594000000E+02  0.51100000000E-03 0. -1.
    9900012    2    1    2    0    0  0.16486795793E+02  0.17325963741E+02  0.21088366180E+02  0.59301911447E+02  0.49999940581E+02 0.  0.
         12    1    1    2    0    0 -0.16486795793E+02 -0.17325963741E+02 -0.21088366180E+02  0.31886088553E+02  0.00000000000E+00 0. -1.
         11    1    3    3    0    0  0.16136154359E+02  0.10583867820E+02 -0.11555927347E+02  0.22492958735E+02  0.51100000000E-03 0. -1.
        -11    1    3    3    0    0  0.44490301012E+01  0.96008798179E+01  0.14257185118E+02  0.17754945505E+02  0.51100000000E-03 0.  1.
        -12    1    3    3    0    0 -0.40983886675E+01 -0.28587838965E+01  0.18387108409E+02  0.19054007208E+02  0.00000000000E+00 0.  1.
</event>
<event>
 7    1  0.6230310E-012  0.5930195E+02  0.7816164E-02  0.1266605E+00
        -11   -1    0    0    0    0  0.00000000000E+00  0.00000000000E+00  0.45593999997E+02  0.45594000000E+02  0.51100000000E-03 0.  1.
         11   -1    0    0    0    0 -0.00000000000E+00 -0.00000000000E+00 -0.45593999997E+02  0.45594000000E+02  0.51100000000E-03 0. -1.
    9900012    2    1    2    0    0 -0.17462977379E+02  0.77914747603E+01  0.25515826499E+02  0.59301951957E+02  0.50000014461E+02 0.  0.
         12    1    1    2    0    0  0.17462977379E+02 -0.77914747603E+01 -0.25515826499E+02  0.31886048043E+02  0.00000000000E+00 0. -1.
         11    1    3    3    0    0 -0.14129018611E+02 -0.50179583240E+01  0.60236469030E+01  0.16158384663E+02  0.51100000000E-03 0. -1.
        -11    1    3    3    0    0 -0.10564585854E+02  0.16661395376E+02  0.26030372471E+02  0.32661795134E+02  0.51100000000E-03 0.  1.
         12    1    3    3    0    0  0.72306270857E+01 -0.38519622916E+01 -0.65381928749E+01  0.10481772160E+02  0.00000000000E+00 0. -1.
</event>
<event>
 7    1  0.6230310E-012  0.5930198E+02  0.7816164E-02  0.1266605E+00
        -11   -1    0    0    0    0  0.00000000000E+00  0.00000000000E+00  0.45593999997E+02  0.45594000000E+02  0.51100000000E-03 0.  1.
         11   -1    0    0    0    0 -0.00000000000E+00 -0.00000000000E+00 -0.45593999997E+02  0.45594000000E+02  0.51100000000E-03 0. -1.
    9900012    2    1    2    0    0  0.33413086226E+01 -0.22381587679E+02  0.22463720339E+02  0.59301975760E+02  0.50000057872E+02 0.  0.
         12    1    1    2    0    0 -0.33413086226E+01  0.22381587679E+02 -0.22463720339E+02  0.31886024240E+02  0.00000000000E+00 0. -1.
         11    1    3    3    0    0  0.26030080216E+01  0.46084350946E+01  0.37403074463E+01  0.64809894951E+01  0.51100000000E-03 0. -1.
        -11    1    3    3    0    0 -0.17030858414E+02 -0.11857626955E+02  0.20809323316E+02  0.29388456789E+02  0.51100000000E-03 0.  1.
         12    1    3    3    0    0  0.17769159015E+02 -0.15132395819E+02 -0.20859104228E+01  0.23432529476E+02  0.00000000000E+00 0. -1.
</event>
<event>
 7    1  0.6230310E-012  0.5930195E+02  0.7816164E-02  0.1266605E+00
        -11   -1    0    0    0    0  0.00000000000E+00  0.00000000000E+00  0.45593999997E+02  0.45594000000E+02  0.51100000000E-03 0.  1.
         11   -1    0    0    0    0 -0.00000000000E+00 -0.00000000000E+00 -0.45593999997E+02  0.45594000000E+02  0.51100000000E-03 0. -1.
    9900012    2    1    2    0    0 -0.64577023709E+01 -0.47671894970E+01  0.30859229192E+02  0.59301952237E+02  0.50000014972E+02 0.  0.
         12    1    1    2    0    0  0.64577023709E+01  0.47671894970E+01 -0.30859229192E+02  0.31886047763E+02  0.00000000000E+00 0. -1.
         11    1    3    3    0    0  0.12577917716E+00  0.29840587145E+01 -0.12473528245E+01  0.32367137876E+01  0.51100000000E-03 0. -1.
        -11    1    3    3    0    0  0.16557452344E+02 -0.50915417516E+00  0.26381051246E+02  0.31150735644E+02  0.51100000000E-03 0.  1.
        -12    1    3    3    0    0 -0.23140933892E+02 -0.72420940364E+01  0.57255307707E+01  0.24914502805E+02  0.00000000000E+00 0.  1.
</event>
<event>
 7    1  0.6230310E-012  0.5930195E+02  0.7816164E-02  0.1266605E+00
        -11   -1    0    0    0    0  0.00000000000E+00  0.00000000000E+00  0.45593999997E+02  0.45594000000E+02  0.51100000000E-03 0. -1.
         11   -1    0    0    0    0 -0.00000000000E+00 -0.00000000000E+00 -0.45593999997E+02  0.45594000000E+02  0.51100000000E-03 0.  1.
    9900012    2    1    2    0    0 -0.30846972228E+02 -0.25124757116E+01 -0.76728229998E+01  0.59301945954E+02  0.50000003513E+02 0.  0.
         12    1    1    2    0    0  0.30846972228E+02  0.25124757116E+01  0.76728229998E+01  0.31886054046E+02  0.00000000000E+00 0. -1.
         11    1    3    3    0    0  0.35512578028E+01  0.52019303950E+01  0.14348839196E+01  0.64599074250E+01  0.51100000000E-03 0. -1.
        -11    1    3    3    0    0 -0.12648265930E+01  0.67046942002E+01 -0.14766602709E+02  0.16266691933E+02  0.51100000000E-03 0.  1.
        -12    1    3    3    0    0 -0.33133403438E+02 -0.14419100307E+02  0.56588957898E+01  0.36575346596E+02  0.00000000000E+00 0.  1.
</event>
<event>
 7    1  0.6230310E-012  0.5930195E+02  0.7816164E-02  0.1266605E+00
        -11   -1    0    0    0    0  0.00000000000E+00  0.00000000000E+00  0.45593999997E+02  0.45594000000E+02  0.51100000000E-03 0. -1.
         11   -1    0    0    0    0 -0.00000000000E+00 -0.00000000000E+00 -0.45593999997E+02  0.45594000000E+02  0.51100000000E-03 0.  1.
    9900012    2    1    2    0    0  0.14087118254E+02 -0.31539734064E+01 -0.28431065020E+02  0.59301954352E+02  0.50000018828E+02 0.  0.
         12    1    1    2    0    0 -0.14087118254E+02  0.31539734064E+01  0.28431065020E+02  0.31886045648E+02  0.00000000000E+00 0. -1.
         11    1    3    3    0    0 -0.98418192778E+01 -0.31107096361E+01 -0.18708250367E+01  0.10489895505E+02  0.51100000000E-03 0. -1.
        -11    1    3    3    0    0  0.95147856816E+01 -0.16429399740E+02 -0.10323789611E+02  0.21611037795E+02  0.51100000000E-03 0.  1.
         12    1    3    3    0    0  0.14414151850E+02  0.16386135969E+02 -0.16236450371E+02  0.27201021051E+02  0.00000000000E+00 0. -1.
</event>
<event>
 7    1  0.6230310E-012  0.5930195E+02  0.7816164E-02  0.1266605E+00
        -11   -1    0    0    0    0  0.00000000000E+00  0.00000000000E+00  0.45593999997E+02  0.45594000000E+02  0.51100000000E-03 0. -1.
         11   -1    0    0    0    0 -0.00000000000E+00 -0.00000000000E+00 -0.45593999997E+02  0.45594000000E+02  0.51100000000E-03 0.  1.
    9900012    2    1    2    0    0 -0.88328205676E+01 -0.24123183400E+02 -0.18888452550E+02  0.59301947622E+02  0.50000006555E+02 0.  0.
         12    1    1    2    0    0  0.88328205676E+01  0.24123183400E+02  0.18888452550E+02  0.31886052378E+02  0.00000000000E+00 0. -1.
         11    1    3    3    0    0 -0.36301172855E+01  0.13402830622E+02 -0.47600234587E+01  0.14678945595E+02  0.51100000000E-03 0. -1.
        -11    1    3    3    0    0  0.45602387499E+01 -0.88595576087E+01 -0.98993222881E+01  0.14045786575E+02  0.51100000000E-03 0.  1.
        -12    1    3    3    0    0 -0.97629420320E+01 -0.28666456414E+02 -0.42291068029E+01  0.30577215452E+02  0.00000000000E+00 0.  1.
</event>
<event>
 7    1  0.6230310E-012  0.5930190E+02  0.7816164E-02  0.1266605E+00
        -11   -1    0    0    0    0  0.00000000000E+00  0.00000000000E+00  0.45593999997E+02  0.45594000000E+02  0.51100000000E-03 0. -1.
         11   -1    0    0    0    0 -0.00000000000E+00 -0.00000000000E+00 -0.45593999997E+02  0.45594000000E+02  0.51100000000E-03 0.  1.
    9900012    2    1    2    0    0  0.76475907205E+01 -0.30204970849E+02 -0.67747448481E+01  0.59301904667E+02  0.49999928215E+02 0.  0.
         12    1    1    2    0    0 -0.76475907205E+01  0.30204970849E+02  0.67747448481E+01  0.31886095333E+02  0.00000000000E+00 0. -1.
         11    1    3    3    0    0 -0.17610641362E+02 -0.82369459022E+01 -0.13660239579E+01  0.19489689292E+02  0.51100000000E-03 0. -1.
        -11    1    3    3    0    0  0.36951000595E+00  0.36832807074E+01 -0.52915428556E+00  0.37393982046E+01  0.51100000000E-03 0.  1.
        -12    1    3    3    0    0  0.24888722076E+02 -0.25651305655E+02 -0.48795666046E+01  0.36072817171E+02  0.00000000000E+00 0.  1.
</event>
<event>
 7    1  0.6230310E-012  0.5930190E+02  0.7816164E-02  0.1266605E+00
        -11   -1    0    0    0    0  0.00000000000E+00  0.00000000000E+00  0.45593999997E+02  0.45594000000E+02  0.51100000000E-03 0.  1.
         11   -1    0    0    0    0 -0.00000000000E+00 -0.00000000000E+00 -0.45593999997E+02  0.45594000000E+02  0.51100000000E-03 0. -1.
    9900012    2    1    2    0    0  0.15836092575E+02 -0.27038757886E+02  0.59031192267E+01  0.59301904713E+02  0.49999928300E+02 0.  0.
         12    1    1    2    0    0 -0.15836092575E+02  0.27038757886E+02 -0.59031192267E+01  0.31886095287E+02  0.00000000000E+00 0. -1.
         11    1    3    3    0    0  0.56096255620E+01 -0.35256036203E+01  0.29579285002E+01  0.72558335915E+01  0.51100000000E-03 0. -1.
        -11    1    3    3    0    0  0.12619705368E+02 -0.36176651581E+02 -0.16857387956E+01  0.38351646624E+02  0.51100000000E-03 0.  1.
         12    1    3    3    0    0 -0.23932383551E+01  0.12663497316E+02  0.46309295220E+01  0.13694424498E+02  0.00000000000E+00 0. -1.
</event>
<event>
 7    1  0.6230310E-012  0.5930193E+02  0.7816164E-02  0.1266605E+00
        -11   -1    0    0    0    0  0.00000000000E+00  0.00000000000E+00  0.45593999997E+02  0.45594000000E+02  0.51100000000E-03 0.  1.
         11   -1    0    0    0    0 -0.00000000000E+00 -0.00000000000E+00 -0.45593999997E+02  0.45594000000E+02  0.51100000000E-03 0. -1.
    9900012    2    1    2    0    0 -0.20960167344E+02  0.17260195620E+02  0.16717609899E+02  0.59301930178E+02  0.49999974742E+02 0.  0.
         12    1    1    2    0    0  0.20960167344E+02 -0.17260195620E+02 -0.16717609899E+02  0.31886069822E+02  0.00000000000E+00 0. -1.
         11    1    3    3    0    0 -0.16368251178E+01  0.93891663692E+01  0.12343865448E+02  0.15595084355E+02  0.51100000000E-03 0.  1.
        -11    1    3    3    0    0  0.98076719987E+01 -0.34598754430E+01  0.66868841502E+01  0.12364286798E+02  0.51100000000E-03 0. -1.
        -12    1    3    3    0    0 -0.29131014225E+02  0.11330904694E+02 -0.23131396999E+01  0.31342559025E+02  0.00000000000E+00 0.  1.
</event>
<event>
 7    1  0.6230310E-012  0.5930191E+02  0.7816164E-02  0.1266605E+00
        -11   -1    0    0    0    0  0.00000000000E+00  0.00000000000E+00  0.45593999997E+02  0.45594000000E+02  0.51100000000E-03 0. -1.
         11   -1    0    0    0    0 -0.00000000000E+00 -0.00000000000E+00 -0.45593999997E+02  0.45594000000E+02  0.51100000000E-03 0.  1.
    9900012    2    1    2    0    0 -0.12410079688E+01  0.30177825598E+02 -0.10221603530E+02  0.59301914675E+02  0.49999946468E+02 0.  0.
         12    1    1    2    0    0  0.12410079688E+01 -0.30177825598E+02  0.10221603530E+02  0.31886085325E+02  0.00000000000E+00 0. -1.
         11    1    3    3    0    0 -0.14118319333E+02  0.11485864974E+02  0.78771502725E+01  0.19831831274E+02  0.51100000000E-03 0. -1.
        -11    1    3    3    0    0 -0.76175394460E+01  0.66016434865E+01 -0.10343627505E+02  0.14442964868E+02  0.51100000000E-03 0.  1.
        -12    1    3    3    0    0  0.20494850810E+02  0.12090317138E+02 -0.77551262973E+01  0.25027118534E+02  0.00000000000E+00 0.  1.
</event>
<event>
 7    1  0.6230310E-012  0.5930196E+02  0.7816164E-02  0.1266605E+00
        -11   -1    0    0    0    0  0.00000000000E+00  0.00000000000E+00  0.45593999997E+02  0.45594000000E+02  0.51100000000E-03 0. -1.
         11   -1    0    0    0    0 -0.00000000000E+00 -0.00000000000E+00 -0.45593999997E+02  0.45594000000E+02  0.51100000000E-03 0.  1.
    9900012    2    1    2    0    0  0.18055414152E+02  0.16689151716E+02 -0.20302553446E+02  0.59301961651E+02  0.50000032140E+02 0.  0.
         12    1    1    2    0    0 -0.18055414152E+02 -0.16689151716E+02  0.20302553446E+02  0.31886038349E+02  0.00000000000E+00 0. -1.
         11    1    3    3    0    0  0.21213705599E+02  0.10028656514E+02  0.40030236552E+01  0.23803769772E+02  0.51100000000E-03 0. -1.
        -11    1    3    3    0    0  0.48181016584E+01 -0.41271748065E+01 -0.20635921042E+02  0.21589092454E+02  0.51100000000E-03 0.  1.
         12    1    3    3    0    0 -0.79763931061E+01  0.10787670009E+02 -0.36696560594E+01  0.13909099424E+02  0.00000000000E+00 0. -1.
</event>
<event>
 7    1  0.6230310E-012  0.5930193E+02  0.7816164E-02  0.1266605E+00
        -11   -1    0    0    0    0  0.00000000000E+00  0.00000000000E+00  0.45593999997E+02  0.45594000000E+02  0.51100000000E-03 0.  1.
         11   -1    0    0    0    0 -0.00000000000E+00 -0.00000000000E+00 -0.45593999997E+02  0.45594000000E+02  0.51100000000E-03 0. -1.
    9900012    2    1    2    0    0 -0.23929387718E+02  0.98068803773E+01  0.18652911516E+02  0.59301927691E+02  0.49999970206E+02 0.  0.
         12    1    1    2    0    0  0.23929387718E+02 -0.98068803773E+01 -0.18652911516E+02  0.31886072309E+02  0.00000000000E+00 0. -1.
         11    1    3    3    0    0 -0.32448261448E+01  0.29881260621E+01 -0.10508333259E+02  0.11396616262E+02  0.51100000000E-03 0. -1.
        -11    1    3    3    0    0  0.34322949223E+01 -0.60837037924E+01 -0.11487323083E+01  0.70789608308E+01  0.51100000000E-03 0.  1.
        -12    1    3    3    0    0 -0.24116856495E+02  0.12902458108E+02  0.30309977083E+02  0.40826350599E+02  0.00000000000E+00 0.  1.
</event>
<event>
 7    1  0.6230310E-012  0.5930201E+02  0.7816164E-02  0.1266605E+00
        -11   -1    0    0    0    0  0.00000000000E+00  0.00000000000E+00  0.45593999997E+02  0.45594000000E+02  0.51100000000E-03 0. -1.
         11   -1    0    0    0    0 -0.00000000000E+00 -0.00000000000E+00 -0.45593999997E+02  0.45594000000E+02  0.51100000000E-03 0.  1.
    9900012    2    1    2    0    0  0.16795462087E+02  0.19277274401E+02 -0.19052967197E+02  0.59302009125E+02  0.50000118721E+02 0.  0.
         12    1    1    2    0    0 -0.16795462087E+02 -0.19277274401E+02  0.19052967197E+02  0.31885990875E+02  0.00000000000E+00 0. -1.
         11    1    3    3    0    0 -0.72145766878E+01  0.22583660749E+02  0.90119901694E+00  0.23725176702E+02  0.51100000000E-03 0. -1.
        -11    1    3    3    0    0  0.26785234812E+00 -0.55162415582E+01 -0.27222491921E+01  0.61572158265E+01  0.51100000000E-03 0.  1.
        -12    1    3    3    0    0  0.23742186427E+02  0.22098552105E+01 -0.17231917022E+02  0.29419616596E+02  0.00000000000E+00 0.  1.
</event>
<event>
 7    1  0.6230310E-012  0.5930194E+02  0.7816164E-02  0.1266605E+00
        -11   -1    0    0    0    0  0.00000000000E+00  0.00000000000E+00  0.45593999997E+02  0.45594000000E+02  0.51100000000E-03 0.  1.
         11   -1    0    0    0    0 -0.00000000000E+00 -0.00000000000E+00 -0.45593999997E+02  0.45594000000E+02  0.51100000000E-03 0. -1.
    9900012    2    1    2    0    0  0.30007793299E+02  0.79467021209E+01  0.72871706840E+01  0.59301943646E+02  0.49999999303E+02 0.  0.
         12    1    1    2    0    0 -0.30007793299E+02 -0.79467021209E+01 -0.72871706840E+01  0.31886056354E+02  0.00000000000E+00 0. -1.
         11    1    3    3    0    0  0.12476954418E+02 -0.71139719964E+01 -0.90079445972E+00  0.14390775519E+02  0.51100000000E-03 0. -1.
        -11    1    3    3    0    0  0.27123270145E+02  0.18574659594E+02  0.10358715960E+02  0.34467270838E+02  0.51100000000E-03 0.  1.
         12    1    3    3    0    0 -0.95924312641E+01 -0.35139854770E+01 -0.21707508162E+01  0.10443897290E+02  0.00000000000E+00 0. -1.
</event>
<event>
 7    1  0.6230310E-012  0.5930193E+02  0.7816164E-02  0.1266605E+00
        -11   -1    0    0    0    0  0.00000000000E+00  0.00000000000E+00  0.45593999997E+02  0.45594000000E+02  0.51100000000E-03 0. -1.
         11   -1    0    0    0    0 -0.00000000000E+00 -0.00000000000E+00 -0.45593999997E+02  0.45594000000E+02  0.51100000000E-03 0.  1.
    9900012    2    1    2    0    0  0.15897849246E+02  0.22396130535E+02 -0.16198561441E+02  0.59301926765E+02  0.49999968517E+02 0.  0.
         12    1    1    2    0    0 -0.15897849246E+02 -0.22396130535E+02  0.16198561441E+02  0.31886073235E+02  0.00000000000E+00 0. -1.
         11    1    3    3    0    0 -0.61868610858E+00  0.18536719707E+01 -0.45364552021E+01  0.49394633654E+01  0.51100000000E-03 0. -1.
        -11    1    3    3    0    0  0.90633115448E+01  0.35339348965E+02 -0.69701992382E+01  0.37142925020E+02  0.51100000000E-03 0.  1.
         12    1    3    3    0    0  0.74532238100E+01 -0.14796890401E+02 -0.46919070008E+01  0.17219538379E+02  0.00000000000E+00 0. -1.
</event>
<event>
 7    1  0.6230310E-012  0.5930193E+02  0.7816164E-02  0.1266605E+00
        -11   -1    0    0    0    0  0.00000000000E+00  0.00000000000E+00  0.45593999997E+02  0.45594000000E+02  0.51100000000E-03 0.  1.
         11   -1    0    0    0    0 -0.00000000000E+00 -0.00000000000E+00 -0.45593999997E+02  0.45594000000E+02  0.51100000000E-03 0. -1.
    9900012    2    1    2    0    0  0.10197970696E+02  0.42299061700E+01  0.29913718405E+02  0.59301933116E+02  0.49999980099E+02 0.  0.
         12    1    1    2    0    0 -0.10197970696E+02 -0.42299061700E+01 -0.29913718405E+02  0.31886066884E+02  0.00000000000E+00 0. -1.
         11    1    3    3    0    0 -0.10006065256E+02 -0.63005982559E+01  0.25629948357E+01  0.12099083563E+02  0.51100000000E-03 0. -1.
        -11    1    3    3    0    0  0.19179881163E+01 -0.10432520399E+02  0.85996890861E+01  0.13655431627E+02  0.51100000000E-03 0.  1.
        -12    1    3    3    0    0  0.18286047836E+02  0.20963024825E+02  0.18751034483E+02  0.33547417925E+02  0.00000000000E+00 0.  1.
</event>
<event>
 7    1  0.6230310E-012  0.5930193E+02  0.7816164E-02  0.1266605E+00
        -11   -1    0    0    0    0  0.00000000000E+00  0.00000000000E+00  0.45593999997E+02  0.45594000000E+02  0.51100000000E-03 0. -1.
         11   -1    0    0    0    0 -0.00000000000E+00 -0.00000000000E+00 -0.45593999997E+02  0.45594000000E+02  0.51100000000E-03 0.  1.
    9900012    2    1    2    0    0  0.68910924417E+01 -0.18354521111E+02 -0.25146483248E+02  0.59301933764E+02  0.49999981281E+02 0.  0.
         12    1    1    2    0    0 -0.68910924417E+01  0.18354521111E+02  0.25146483248E+02  0.31886066236E+02  0.00000000000E+00 0. -1.
         11    1    3    3    0    0  0.16563789087E+02 -0.14288816364E+02 -0.18542567365E+02  0.28676753421E+02  0.51100000000E-03 0. -1.
        -11    1    3    3    0    0  0.86330550919E+00 -0.72091906044E+01 -0.15083602459E+02  0.16740154986E+02  0.51100000000E-03 0.  1.
         12    1    3    3    0    0 -0.10536002155E+02  0.31434858579E+01  0.84796865751E+01  0.13885025357E+02  0.00000000000E+00 0. -1.
</event>
<event>
 7    1  0.6230310E-012  0.5930185E+02  0.7816164E-02  0.1266605E+00
        -11   -1    0    0    0    0  0.00000000000E+00  0.00000000000E+00  0.45593999997E+02  0.45594000000E+02  0.51100000000E-03 0.  1.
         11   -1    0    0    0    0 -0.00000000000E+00 -0.00000000000E+00 -0.45593999997E+02  0.45594000000E+02  0.51100000000E-03 0. -1.
    9900012    2    1    2    0    0  0.10417414945E+02  0.10148421640E+02  0.28376282130E+02  0.59301852797E+02  0.49999833617E+02 0.  0.
         12    1    1    2    0    0 -0.10417414945E+02 -0.10148421640E+02 -0.28376282130E+02  0.31886147203E+02  0.00000000000E+00 0. -1.
         11    1    3    3    0    0  0.12516933217E+02  0.43330805439E+01  0.32953710180E+01  0.13649493564E+02  0.51100000000E-03 0. -1.
        -11    1    3    3    0    0  0.71247415362E+01  0.95169694519E-02  0.31972728919E+02  0.32756944719E+02  0.51100000000E-03 0.  1.
        -12    1    3    3    0    0 -0.92242598077E+01  0.58058241267E+01 -0.68918178077E+01  0.12895414514E+02  0.00000000000E+00 0.  1.
</event>
<event>
 7    1  0.6230310E-012  0.5930196E+02  0.7816164E-02  0.1266605E+00
        -11   -1    0    0    0    0  0.00000000000E+00  0.00000000000E+00  0.45593999997E+02  0.45594000000E+02  0.51100000000E-03 0. -1.
         11   -1    0    0    0    0 -0.00000000000E+00 -0.00000000000E+00 -0.45593999997E+02  0.45594000000E+02  0.51100000000E-03 0.  1.
    9900012    2    1    2    0    0 -0.88202229034E+01 -0.24244376177E+02 -0.18738550432E+02  0.59301962608E+02  0.50000033885E+02 0.  0.
         12    1    1    2    0    0  0.88202229034E+01  0.24244376177E+02  0.18738550432E+02  0.31886037392E+02  0.00000000000E+00 0. -1.
         11    1    3    3    0    0  0.19170517095E+02 -0.83680504852E+01 -0.13363104864E+02  0.24821473898E+02  0.51100000000E-03 0.  1.
        -11    1    3    3    0    0 -0.62096285989E+01 -0.26992294449E+01  0.33700989639E+01  0.75632594971E+01  0.51100000000E-03 0. -1.
        -12    1    3    3    0    0 -0.21781111399E+02 -0.13177096247E+02 -0.87455445319E+01  0.26917229212E+02  0.00000000000E+00 0.  1.
</event>
<event>
 7    1  0.6230310E-012  0.5930166E+02  0.7816164E-02  0.1266606E+00
        -11   -1    0    0    0    0  0.00000000000E+00  0.00000000000E+00  0.45593999997E+02  0.45594000000E+02  0.51100000000E-03 0. -1.
         11   -1    0    0    0    0 -0.00000000000E+00 -0.00000000000E+00 -0.45593999997E+02  0.45594000000E+02  0.51100000000E-03 0.  1.
    9900012    2    1    2    0    0  0.21994740633E+02 -0.23069217497E+02 -0.88400071514E+00  0.59301657019E+02  0.49999476562E+02 0.  0.
         12    1    1    2    0    0 -0.21994740633E+02  0.23069217497E+02  0.88400071514E+00  0.31886342981E+02  0.00000000000E+00 0. -1.
         11    1    3    3    0    0  0.81570347818E+01 -0.11856061871E+02 -0.82433855208E+01  0.16584837190E+02  0.51100000000E-03 0. -1.
        -11    1    3    3    0    0  0.18545739091E+02  0.28163717580E+01 -0.88732155076E+01  0.20751152788E+02  0.51100000000E-03 0.  1.
         12    1    3    3    0    0 -0.47080332400E+01 -0.14029527384E+02  0.16232600313E+02  0.21965667041E+02  0.00000000000E+00 0. -1.
</event>
<event>
 7    1  0.6230310E-012  0.5930197E+02  0.7816164E-02  0.1266605E+00
        -11   -1    0    0    0    0  0.00000000000E+00  0.00000000000E+00  0.45593999997E+02  0.45594000000E+02  0.51100000000E-03 0. -1.
         11   -1    0    0    0    0 -0.00000000000E+00 -0.00000000000E+00 -0.45593999997E+02  0.45594000000E+02  0.51100000000E-03 0.  1.
    9900012    2    1    2    0    0  0.28052390507E+02  0.15078062875E+02  0.15601621208E+01  0.59301973294E+02  0.50000053375E+02 0.  0.
         12    1    1    2    0    0 -0.28052390507E+02 -0.15078062875E+02 -0.15601621208E+01  0.31886026706E+02  0.00000000000E+00 0. -1.
         11    1    3    3    0    0 -0.24021219563E+01 -0.29849253625E+01  0.15383182408E+01  0.41287277197E+01  0.51100000000E-03 0. -1.
        -11    1    3    3    0    0  0.22407414337E+01  0.14559406493E+02  0.16654848103E+02  0.22234684734E+02  0.51100000000E-03 0.  1.
        -12    1    3    3    0    0  0.28213771030E+02  0.35035817438E+01 -0.16633004223E+02  0.32938560841E+02  0.00000000000E+00 0.  1.
</event>
<event>
 7    1  0.6230310E-012  0.5930195E+02  0.7816164E-02  0.1266605E+00
        -11   -1    0    0    0    0  0.00000000000E+00  0.00000000000E+00  0.45593999997E+02  0.45594000000E+02  0.51100000000E-03 0.  1.
         11   -1    0    0    0    0 -0.00000000000E+00 -0.00000000000E+00 -0.45593999997E+02  0.45594000000E+02  0.51100000000E-03 0. -1.
    9900012    2    1    2    0    0 -0.18704617931E+02  0.23300062147E+02  0.11133935992E+02  0.59301950406E+02  0.50000011633E+02 0.  0.
         12    1    1    2    0    0  0.18704617931E+02 -0.23300062147E+02 -0.11133935992E+02  0.31886049594E+02  0.00000000000E+00 0. -1.
         11    1    3    3    0    0  0.46422388194E+00  0.14661185034E+02 -0.98375866173E+01  0.17661935373E+02  0.51100000000E-03 0. -1.
        -11    1    3    3    0    0 -0.28874559237E+01 -0.10376286681E+02  0.44937363280E+01  0.11670406738E+02  0.51100000000E-03 0.  1.
        -12    1    3    3    0    0 -0.16281385889E+02  0.19015163794E+02  0.16477786282E+02  0.29969608295E+02  0.00000000000E+00 0.  1.
</event>
<event>
 7    1  0.6230310E-012  0.5930193E+02  0.7816164E-02  0.1266605E+00
        -11   -1    0    0    0    0  0.00000000000E+00  0.00000000000E+00  0.45593999997E+02  0.45594000000E+02  0.51100000000E-03 0.  1.
         11   -1    0    0    0    0 -0.00000000000E+00 -0.00000000000E+00 -0.45593999997E+02  0.45594000000E+02  0.51100000000E-03 0. -1.
    9900012    2    1    2    0    0  0.40116439433E+01 -0.81662967470E+01  0.30560426649E+02  0.59301931464E+02  0.49999977087E+02 0.  0.
         12    1    1    2    0    0 -0.40116439433E+01  0.81662967470E+01 -0.30560426649E+02  0.31886068536E+02  0.00000000000E+00 0. -1.
         11    1    3    3    0    0  0.13546585163E+02 -0.39418150446E+01  0.13115405713E+02  0.19262962978E+02  0.51100000000E-03 0. -1.
        -11    1    3    3    0    0 -0.12973680732E+02 -0.16557981375E+02  0.17297953596E+02  0.27234212635E+02  0.51100000000E-03 0.  1.
         12    1    3    3    0    0  0.34387395121E+01  0.12333499673E+02  0.14706733944E+00  0.12804755851E+02  0.00000000000E+00 0. -1.
</event>
<event>
 7    1  0.6230310E-012  0.5930195E+02  0.7816164E-02  0.1266605E+00
        -11   -1    0    0    0    0  0.00000000000E+00  0.00000000000E+00  0.45593999997E+02  0.45594000000E+02  0.51100000000E-03 0. -1.
         11   -1    0    0    0    0 -0.00000000000E+00 -0.00000000000E+00 -0.45593999997E+02  0.45594000000E+02  0.51100000000E-03 0.  1.
    9900012    2    1    2    0    0  0.49269570085E+01 -0.30382756534E+02 -0.83266731583E+01  0.59301948412E+02  0.50000007996E+02 0.  0.
         12    1    1    2    0    0 -0.49269570085E+01  0.30382756534E+02  0.83266731583E+01  0.31886051588E+02  0.00000000000E+00 0. -1.
         11    1    3    3    0    0  0.28827517516E+01 -0.10203116200E+02  0.14393222682E+02  0.17876764172E+02  0.51100000000E-03 0. -1.
        -11    1    3    3    0    0 -0.25119815400E+01 -0.13058672767E+02  0.36034529523E+01  0.13777657970E+02  0.51100000000E-03 0.  1.
        -12    1    3    3    0    0  0.45561867969E+01 -0.71209675669E+01 -0.26323348792E+02  0.27647526270E+02  0.00000000000E+00 0.  1.
</event>
<event>
 7    1  0.6230310E-012  0.5930229E+02  0.7816164E-02  0.1266604E+00
        -11   -1    0    0    0    0  0.00000000000E+00  0.00000000000E+00  0.45593999997E+02  0.45594000000E+02  0.51100000000E-03 0. -1.
         11   -1    0    0    0    0 -0.00000000000E+00 -0.00000000000E+00 -0.45593999997E+02  0.45594000000E+02  0.51100000000E-03 0.  1.
    9900012    2    1    2    0    0  0.75137161369E+01  0.27461993180E+02 -0.14355549436E+02  0.59302285343E+02  0.50000622473E+02 0.  0.
         12    1    1    2    0    0 -0.75137161369E+01 -0.27461993180E+02  0.14355549436E+02  0.31885714657E+02  0.00000000000E+00 0. -1.
         11    1    3    3    0    0 -0.27451798212E+01  0.11188465756E+02 -0.12286305578E+02  0.16842537910E+02  0.51100000000E-03 0. -1.
        -11    1    3    3    0    0  0.35585903861E+01 -0.11451168229E+02 -0.64283046642E+01  0.13605731163E+02  0.51100000000E-03 0.  1.
         12    1    3    3    0    0  0.67003055720E+01  0.27724695653E+02  0.43590608061E+01  0.28854016270E+02  0.00000000000E+00 0. -1.
</event>
<event>
 7    1  0.6230310E-012  0.5930209E+02  0.7816164E-02  0.1266604E+00
        -11   -1    0    0    0    0  0.00000000000E+00  0.00000000000E+00  0.45593999997E+02  0.45594000000E+02  0.51100000000E-03 0.  1.
         11   -1    0    0    0    0 -0.00000000000E+00 -0.00000000000E+00 -0.45593999997E+02  0.45594000000E+02  0.51100000000E-03 0. -1.
    9900012    2    1    2    0    0 -0.44584056987E+01  0.24968656162E+02  0.19323569589E+02  0.59302085969E+02  0.50000258867E+02 0.  0.
         12    1    1    2    0    0  0.44584056987E+01 -0.24968656162E+02 -0.19323569589E+02  0.31885914031E+02  0.00000000000E+00 0. -1.
         11    1    3    3    0    0 -0.84208010187E+01  0.10043792501E+02 -0.27532055819E+01  0.13392826395E+02  0.51100000000E-03 0. -1.
        -11    1    3    3    0    0 -0.77697803836E+01  0.22472875905E+02  0.58060146865E+01  0.24476712309E+02  0.51100000000E-03 0.  1.
         12    1    3    3    0    0  0.11732175704E+02 -0.75480122438E+01  0.16270760484E+02  0.21432547266E+02  0.00000000000E+00 0. -1.
</event>
<event>
 7    1  0.6230310E-012  0.5930195E+02  0.7816164E-02  0.1266605E+00
        -11   -1    0    0    0    0  0.00000000000E+00  0.00000000000E+00  0.45593999997E+02  0.45594000000E+02  0.51100000000E-03 0.  1.
         11   -1    0    0    0    0 -0.00000000000E+00 -0.00000000000E+00 -0.45593999997E+02  0.45594000000E+02  0.51100000000E-03 0. -1.
    9900012    2    1    2    0    0 -0.19038442701E+01  0.17149318267E+02  0.26814106770E+02  0.59301951924E+02  0.50000014401E+02 0.  0.
         12    1    1    2    0    0  0.19038442701E+01 -0.17149318267E+02 -0.26814106770E+02  0.31886048076E+02  0.00000000000E+00 0. -1.
         11    1    3    3    0    0 -0.41453657149E+00 -0.36941945947E+01  0.12869028123E+01  0.39338318955E+01  0.51100000000E-03 0. -1.
        -11    1    3    3    0    0 -0.17859169018E+02 -0.18379828405E+01  0.19962289368E+02  0.26848111591E+02  0.51100000000E-03 0.  1.
         12    1    3    3    0    0  0.16369861320E+02  0.22681495702E+02  0.55649145900E+01  0.28520008438E+02  0.00000000000E+00 0. -1.
</event>
<event>
 7    1  0.6230310E-012  0.5930193E+02  0.7816164E-02  0.1266605E+00
        -11   -1    0    0    0    0  0.00000000000E+00  0.00000000000E+00  0.45593999997E+02  0.45594000000E+02  0.51100000000E-03 0.  1.
         11   -1    0    0    0    0 -0.00000000000E+00 -0.00000000000E+00 -0.45593999997E+02  0.45594000000E+02  0.51100000000E-03 0. -1.
    9900012    2    1    2    0    0  0.12301713778E+02 -0.21374204674E+02  0.20212195146E+02  0.59301927493E+02  0.49999969845E+02 0.  0.
         12    1    1    2    0    0 -0.12301713778E+02  0.21374204674E+02 -0.20212195146E+02  0.31886072507E+02  0.00000000000E+00 0. -1.
         11    1    3    3    0    0  0.41472624628E+01  0.25144755104E+01  0.79104140903E+01  0.92788482243E+01  0.51100000000E-03 0. -1.
        -11    1    3    3    0    0  0.23630785046E+02 -0.53851698594E+01  0.79792904539E+01  0.25516330706E+02  0.51100000000E-03 0.  1.
         12    1    3    3    0    0 -0.15476333731E+02 -0.18503510325E+02  0.43224906018E+01  0.24506748562E+02  0.00000000000E+00 0. -1.
</event>
<event>
 7    1  0.6230310E-012  0.5930193E+02  0.7816164E-02  0.1266605E+00
        -11   -1    0    0    0    0  0.00000000000E+00  0.00000000000E+00  0.45593999997E+02  0.45594000000E+02  0.51100000000E-03 0. -1.
         11   -1    0    0    0    0 -0.00000000000E+00 -0.00000000000E+00 -0.45593999997E+02  0.45594000000E+02  0.51100000000E-03 0.  1.
    9900012    2    1    2    0    0  0.12582921937E+02 -0.23988596965E+02 -0.16820789458E+02  0.59301926758E+02  0.49999968504E+02 0.  0.
         12    1    1    2    0    0 -0.12582921937E+02  0.23988596965E+02  0.16820789458E+02  0.31886073242E+02  0.00000000000E+00 0. -1.
         11    1    3    3    0    0 -0.10152793127E+02 -0.14442449398E+02 -0.12098749578E+02  0.21401946045E+02  0.51100000000E-03 0. -1.
        -11    1    3    3    0    0  0.57124138067E+01 -0.10096438146E+02  0.10054514122E+02  0.15351318811E+02  0.51100000000E-03 0.  1.
        -12    1    3    3    0    0  0.17023301257E+02  0.55029057908E+00 -0.14776554002E+02  0.22548661902E+02  0.00000000000E+00 0.  1.
</event>
<event>
 7    1  0.6230310E-012  0.5930194E+02  0.7816164E-02  0.1266605E+00
        -11   -1    0    0    0    0  0.00000000000E+00  0.00000000000E+00  0.45593999997E+02  0.45594000000E+02  0.51100000000E-03 0.  1.
         11   -1    0    0    0    0 -0.00000000000E+00 -0.00000000000E+00 -0.45593999997E+02  0.45594000000E+02  0.51100000000E-03 0. -1.
    9900012    2    1    2    0    0 -0.26308628925E+01 -0.20752947608E+02  0.24064795419E+02  0.59301942662E+02  0.49999997509E+02 0.  0.
         12    1    1    2    0    0  0.26308628925E+01  0.20752947608E+02 -0.24064795419E+02  0.31886057338E+02  0.00000000000E+00 0. -1.
         11    1    3    3    0    0 -0.13285226084E+01  0.11584644984E+02  0.38580569915E+01  0.12282246363E+02  0.51100000000E-03 0.  1.
        -11    1    3    3    0    0  0.88707609124E+01 -0.70295191887E+01 -0.24271030871E+01  0.11575636866E+02  0.51100000000E-03 0. -1.
        -12    1    3    3    0    0 -0.10173101196E+02 -0.25308073403E+02  0.22633841515E+02  0.35444059433E+02  0.00000000000E+00 0.  1.
</event>
<event>
 7    1  0.6230310E-012  0.5930192E+02  0.7816164E-02  0.1266605E+00
        -11   -1    0    0    0    0  0.00000000000E+00  0.00000000000E+00  0.45593999997E+02  0.45594000000E+02  0.51100000000E-03 0.  1.
         11   -1    0    0    0    0 -0.00000000000E+00 -0.00000000000E+00 -0.45593999997E+02  0.45594000000E+02  0.51100000000E-03 0. -1.
    9900012    2    1    2    0    0  0.94252645787E+01  0.24893062761E+02  0.17556250750E+02  0.59301919551E+02  0.49999955360E+02 0.  0.
         12    1    1    2    0    0 -0.94252645787E+01 -0.24893062761E+02 -0.17556250750E+02  0.31886080449E+02  0.00000000000E+00 0. -1.
         11    1    3    3    0    0 -0.69791843060E+01  0.10055742706E+02  0.97778341227E+01  0.15666301904E+02  0.51100000000E-03 0. -1.
        -11    1    3    3    0    0 -0.53447513457E+01 -0.52945336841E+01  0.11525150647E+02  0.13763268201E+02  0.51100000000E-03 0.  1.
         12    1    3    3    0    0  0.21749200230E+02  0.20131853739E+02 -0.37467340192E+01  0.29872349447E+02  0.00000000000E+00 0. -1.
</event>
<event>
 7    1  0.6230310E-012  0.5930194E+02  0.7816164E-02  0.1266605E+00
        -11   -1    0    0    0    0  0.00000000000E+00  0.00000000000E+00  0.45593999997E+02  0.45594000000E+02  0.51100000000E-03 0.  1.
         11   -1    0    0    0    0 -0.00000000000E+00 -0.00000000000E+00 -0.45593999997E+02  0.45594000000E+02  0.51100000000E-03 0. -1.
    9900012    2    1    2    0    0  0.12605598737E+02 -0.22532242264E+02  0.18711427416E+02  0.59301943849E+02  0.49999999673E+02 0.  0.
         12    1    1    2    0    0 -0.12605598737E+02  0.22532242264E+02 -0.18711427416E+02  0.31886056151E+02  0.00000000000E+00 0. -1.
         11    1    3    3    0    0  0.24364425299E+02 -0.32156328557E+01 -0.53521533432E+01  0.25151760584E+02  0.51100000000E-03 0. -1.
        -11    1    3    3    0    0 -0.24485041749E+01  0.45502636422E-01  0.43502433260E+01  0.49921799287E+01  0.51100000000E-03 0.  1.
        -12    1    3    3    0    0 -0.93103223873E+01 -0.19362112044E+02  0.19713337433E+02  0.29158003336E+02  0.00000000000E+00 0.  1.
</event>
<event>
 7    1  0.6230310E-012  0.5930194E+02  0.7816164E-02  0.1266605E+00
        -11   -1    0    0    0    0  0.00000000000E+00  0.00000000000E+00  0.45593999997E+02  0.45594000000E+02  0.51100000000E-03 0. -1.
         11   -1    0    0    0    0 -0.00000000000E+00 -0.00000000000E+00 -0.45593999997E+02  0.45594000000E+02  0.51100000000E-03 0.  1.
    9900012    2    1    2    0    0  0.13664603295E+02 -0.27051754277E+01 -0.28682419425E+02  0.59301944406E+02  0.50000000689E+02 0.  0.
         12    1    1    2    0    0 -0.13664603295E+02  0.27051754277E+01  0.28682419425E+02  0.31886055594E+02  0.00000000000E+00 0. -1.
         11    1    3    3    0    0  0.11343427926E+02  0.55205588312E+00  0.73993164266E+01  0.13554630450E+02  0.51100000000E-03 0. -1.
        -11    1    3    3    0    0  0.10938452297E+00  0.12304981771E+02 -0.17765562825E+02  0.21611102797E+02  0.51100000000E-03 0.  1.
         12    1    3    3    0    0  0.22117908463E+01 -0.15562213082E+02 -0.18316173027E+02  0.24136211158E+02  0.00000000000E+00 0. -1.
</event>
<event>
 7    1  0.6230310E-012  0.5930197E+02  0.7816164E-02  0.1266605E+00
        -11   -1    0    0    0    0  0.00000000000E+00  0.00000000000E+00  0.45593999997E+02  0.45594000000E+02  0.51100000000E-03 0. -1.
         11   -1    0    0    0    0 -0.00000000000E+00 -0.00000000000E+00 -0.45593999997E+02  0.45594000000E+02  0.51100000000E-03 0.  1.
    9900012    2    1    2    0    0 -0.15608040614E+02  0.98902801462E+01 -0.25986350477E+02  0.59301968822E+02  0.50000045219E+02 0.  0.
         12    1    1    2    0    0  0.15608040614E+02 -0.98902801462E+01  0.25986350477E+02  0.31886031178E+02  0.00000000000E+00 0. -1.
         11    1    3    3    0    0  0.17816295648E+01 -0.12486686003E+02 -0.48850477349E+01  0.13526094147E+02  0.51100000000E-03 0.  1.
        -11    1    3    3    0    0 -0.93515939329E+01 -0.41670142375E+01 -0.13641160861E+02  0.17055720056E+02  0.51100000000E-03 0. -1.
         12    1    3    3    0    0 -0.80380762455E+01  0.26543980386E+02 -0.74601418809E+01  0.28720154619E+02  0.00000000000E+00 0. -1.
</event>
<event>
 7    1  0.6230310E-012  0.5930195E+02  0.7816164E-02  0.1266605E+00
        -11   -1    0    0    0    0  0.00000000000E+00  0.00000000000E+00  0.45593999997E+02  0.45594000000E+02  0.51100000000E-03 0.  1.
         11   -1    0    0    0    0 -0.00000000000E+00 -0.00000000000E+00 -0.45593999997E+02  0.45594000000E+02  0.51100000000E-03 0. -1.
    9900012    2    1    2    0    0  0.18706822931E+02 -0.25817022570E+02  0.50636234726E+00  0.59301948483E+02  0.50000008125E+02 0.  0.
         12    1    1    2    0    0 -0.18706822931E+02  0.25817022570E+02 -0.50636234726E+00  0.31886051517E+02  0.00000000000E+00 0. -1.
         11    1    3    3    0    0  0.83612179020E+01 -0.16203931846E+02  0.14723418052E+02  0.23436220077E+02  0.51100000000E-03 0.  1.
        -11    1    3    3    0    0 -0.38926023158E+01 -0.60200332823E+01 -0.19091639819E+02  0.20393230856E+02  0.51100000000E-03 0. -1.
         12    1    3    3    0    0  0.14238207344E+02 -0.35930574415E+01  0.48745841137E+01  0.15472497550E+02  0.00000000000E+00 0. -1.
</event>
<event>
 7    1  0.6230310E-012  0.5930193E+02  0.7816164E-02  0.1266605E+00
        -11   -1    0    0    0    0  0.00000000000E+00  0.00000000000E+00  0.45593999997E+02  0.45594000000E+02  0.51100000000E-03 0.  1.
         11   -1    0    0    0    0 -0.00000000000E+00 -0.00000000000E+00 -0.45593999997E+02  0.45594000000E+02  0.51100000000E-03 0. -1.
    9900012    2    1    2    0    0 -0.71041784604E+01  0.23340176953E+01  0.30996847492E+02  0.59301928673E+02  0.49999971997E+02 0.  0.
         12    1    1    2    0    0  0.71041784604E+01 -0.23340176953E+01 -0.30996847492E+02  0.31886071327E+02  0.00000000000E+00 0. -1.
         11    1    3    3    0    0 -0.11223180013E+02 -0.15221265935E+02  0.12040977787E+02  0.22419452549E+02  0.51100000000E-03 0. -1.
        -11    1    3    3    0    0 -0.10852831050E+02  0.77098722121E+01  0.11032464016E+02  0.17289920007E+02  0.51100000000E-03 0.  1.
         12    1    3    3    0    0  0.14971832603E+02  0.98454114179E+01  0.79234056898E+01  0.19592556117E+02  0.00000000000E+00 0. -1.
</event>
<event>
 7    1  0.6230310E-012  0.5930191E+02  0.7816164E-02  0.1266605E+00
        -11   -1    0    0    0    0  0.00000000000E+00  0.00000000000E+00  0.45593999997E+02  0.45594000000E+02  0.51100000000E-03 0.  1.
         11   -1    0    0    0    0 -0.00000000000E+00 -0.00000000000E+00 -0.45593999997E+02  0.45594000000E+02  0.51100000000E-03 0. -1.
    9900012    2    1    2    0    0 -0.60962107079E+01 -0.29565927628E+02  0.10267169519E+02  0.59301911632E+02  0.49999940917E+02 0.  0.
         12    1    1    2    0    0  0.60962107079E+01  0.29565927628E+02 -0.10267169519E+02  0.31886088368E+02  0.00000000000E+00 0. -1.
         11    1    3    3    0    0  0.41140890396E+01 -0.23124191888E+02  0.18780980652E+02  0.30072898324E+02  0.51100000000E-03 0.  1.
        -11    1    3    3    0    0  0.39304829250E+01 -0.31393224871E+01  0.65810084944E+01  0.82833395901E+01  0.51100000000E-03 0. -1.
        -12    1    3    3    0    0 -0.14140782672E+02 -0.33024132526E+01 -0.15094819627E+02  0.20945673717E+02  0.00000000000E+00 0.  1.
</event>
<event>
 7    1  0.6230310E-012  0.5930195E+02  0.7816164E-02  0.1266605E+00
        -11   -1    0    0    0    0  0.00000000000E+00  0.00000000000E+00  0.45593999997E+02  0.45594000000E+02  0.51100000000E-03 0.  1.
         11   -1    0    0    0    0 -0.00000000000E+00 -0.00000000000E+00 -0.45593999997E+02  0.45594000000E+02  0.51100000000E-03 0. -1.
    9900012    2    1    2    0    0  0.23750949980E+02  0.31994907745E+01  0.21032727436E+02  0.59301953058E+02  0.50000016470E+02 0.  0.
         12    1    1    2    0    0 -0.23750949980E+02 -0.31994907745E+01 -0.21032727436E+02  0.31886046942E+02  0.00000000000E+00 0. -1.
         11    1    3    3    0    0  0.74389419535E+01  0.56277871892E+01 -0.10577621716E+02  0.14103046744E+02  0.51100000000E-03 0. -1.
        -11    1    3    3    0    0  0.15370118649E+02  0.70055188486E+01  0.60586827144E+01  0.17945068351E+02  0.51100000000E-03 0.  1.
        -12    1    3    3    0    0  0.94188937735E+00 -0.94338152633E+01  0.25551666438E+02  0.27253837964E+02  0.00000000000E+00 0.  1.
</event>
<event>
 7    1  0.6230310E-012  0.5930196E+02  0.7816164E-02  0.1266605E+00
        -11   -1    0    0    0    0  0.00000000000E+00  0.00000000000E+00  0.45593999997E+02  0.45594000000E+02  0.51100000000E-03 0.  1.
         11   -1    0    0    0    0 -0.00000000000E+00 -0.00000000000E+00 -0.45593999997E+02  0.45594000000E+02  0.51100000000E-03 0. -1.
    9900012    2    1    2    0    0  0.83125647794E+01  0.65300210828E+01  0.30082880771E+02  0.59301958791E+02  0.50000026924E+02 0.  0.
         12    1    1    2    0    0 -0.83125647794E+01 -0.65300210828E+01 -0.30082880771E+02  0.31886041209E+02  0.00000000000E+00 0. -1.
         11    1    3    3    0    0 -0.11713698062E+02  0.86847657557E+01  0.47215044267E+01  0.15327376907E+02  0.51100000000E-03 0. -1.
        -11    1    3    3    0    0  0.16034607567E+02  0.12653540299E+02  0.16531183334E+02  0.26277380855E+02  0.51100000000E-03 0.  1.
         12    1    3    3    0    0  0.39916552752E+01 -0.14808284972E+02  0.88301930095E+01  0.17697201028E+02  0.00000000000E+00 0. -1.
</event>
<event>
 7    1  0.6230310E-012  0.5930191E+02  0.7816164E-02  0.1266605E+00
        -11   -1    0    0    0    0  0.00000000000E+00  0.00000000000E+00  0.45593999997E+02  0.45594000000E+02  0.51100000000E-03 0.  1.
         11   -1    0    0    0    0 -0.00000000000E+00 -0.00000000000E+00 -0.45593999997E+02  0.45594000000E+02  0.51100000000E-03 0. -1.
    9900012    2    1    2    0    0 -0.78235961156E+01 -0.25435522014E+02  0.17565542750E+02  0.59301910111E+02  0.49999938144E+02 0.  0.
         12    1    1    2    0    0  0.78235961156E+01  0.25435522014E+02 -0.17565542750E+02  0.31886089889E+02  0.00000000000E+00 0. -1.
         11    1    3    3    0    0  0.77605114229E+01  0.13001802740E+00 -0.89094734739E+00  0.78125686985E+01  0.51100000000E-03 0. -1.
        -11    1    3    3    0    0  0.46302412073E+01 -0.11461526923E+02 -0.84699657419E+01  0.14984860793E+02  0.51100000000E-03 0.  1.
        -12    1    3    3    0    0 -0.20214348746E+02 -0.14104013118E+02  0.26926455839E+02  0.36504480620E+02  0.00000000000E+00 0.  1.
</event>
<event>
 7    1  0.6230310E-012  0.5930192E+02  0.7816164E-02  0.1266605E+00
        -11   -1    0    0    0    0  0.00000000000E+00  0.00000000000E+00  0.45593999997E+02  0.45594000000E+02  0.51100000000E-03 0. -1.
         11   -1    0    0    0    0 -0.00000000000E+00 -0.00000000000E+00 -0.45593999997E+02  0.45594000000E+02  0.51100000000E-03 0.  1.
    9900012    2    1    2    0    0 -0.89573841223E+01  0.95304102311E+01 -0.29080207909E+02  0.59301922450E+02  0.49999960647E+02 0.  0.
         12    1    1    2    0    0  0.89573841223E+01 -0.95304102311E+01  0.29080207909E+02  0.31886077550E+02  0.00000000000E+00 0. -1.
         11    1    3    3    0    0 -0.20244915082E+02 -0.21083779140E+01 -0.16046213912E+02  0.25918773607E+02  0.51100000000E-03 0. -1.
        -11    1    3    3    0    0  0.12760080535E+02 -0.35186221913E+01  0.15473196197E+00  0.13237231570E+02  0.51100000000E-03 0.  1.
        -12    1    3    3    0    0 -0.14725495759E+01  0.15157410336E+02 -0.13188725959E+02  0.20145917273E+02  0.00000000000E+00 0.  1.
</event>
<event>
 7    1  0.6230310E-012  0.5930194E+02  0.7816164E-02  0.1266605E+00
        -11   -1    0    0    0    0  0.00000000000E+00  0.00000000000E+00  0.45593999997E+02  0.45594000000E+02  0.51100000000E-03 0.  1.
         11   -1    0    0    0    0 -0.00000000000E+00 -0.00000000000E+00 -0.45593999997E+02  0.45594000000E+02  0.51100000000E-03 0. -1.
    9900012    2    1    2    0    0 -0.10172687778E+01 -0.27551543389E+02  0.16018684672E+02  0.59301942898E+02  0.49999997940E+02 0.  0.
         12    1    1    2    0    0  0.10172687778E+01  0.27551543389E+02 -0.16018684672E+02  0.31886057102E+02  0.00000000000E+00 0. -1.
         11    1    3    3    0    0 -0.54908802794E+01 -0.11983035926E+02 -0.62669652291E+01  0.14595128286E+02  0.51100000000E-03 0. -1.
        -11    1    3    3    0    0 -0.11907087870E+02 -0.60103637479E+01  0.22014050538E+02  0.25739495630E+02  0.51100000000E-03 0.  1.
        -12    1    3    3    0    0  0.16380699371E+02 -0.95581437148E+01  0.27159936254E+00  0.18967318982E+02  0.00000000000E+00 0.  1.
</event>
<event>
 7    1  0.6230310E-012  0.5930204E+02  0.7816164E-02  0.1266604E+00
        -11   -1    0    0    0    0  0.00000000000E+00  0.00000000000E+00  0.45593999997E+02  0.45594000000E+02  0.51100000000E-03 0.  1.
         11   -1    0    0    0    0 -0.00000000000E+00 -0.00000000000E+00 -0.45593999997E+02  0.45594000000E+02  0.51100000000E-03 0. -1.
    9900012    2    1    2    0    0  0.56361862022E+01  0.31381302381E+02  0.40199931757E+00  0.59302041688E+02  0.50000178108E+02 0.  0.
         12    1    1    2    0    0 -0.56361862022E+01 -0.31381302381E+02 -0.40199931757E+00  0.31885958312E+02  0.00000000000E+00 0. -1.
         11    1    3    3    0    0 -0.20254647538E+01  0.19588953959E+02 -0.88274312113E+01  0.21581315222E+02  0.51100000000E-03 0. -1.
        -11    1    3    3    0    0  0.14972384711E+02  0.16887214802E+02  0.15005117127E+02  0.27101731826E+02  0.51100000000E-03 0.  1.
         12    1    3    3    0    0 -0.73107337551E+01 -0.50948663800E+01 -0.57756865986E+01  0.10618994639E+02  0.00000000000E+00 0. -1.
</event>
<event>
 7    1  0.6230310E-012  0.5930200E+02  0.7816164E-02  0.1266605E+00
        -11   -1    0    0    0    0  0.00000000000E+00  0.00000000000E+00  0.45593999997E+02  0.45594000000E+02  0.51100000000E-03 0.  1.
         11   -1    0    0    0    0 -0.00000000000E+00 -0.00000000000E+00 -0.45593999997E+02  0.45594000000E+02  0.51100000000E-03 0. -1.
    9900012    2    1    2    0    0  0.15467005245E+02  0.21644771127E+02  0.17578182712E+02  0.59302001884E+02  0.50000105516E+02 0.  0.
         12    1    1    2    0    0 -0.15467005245E+02 -0.21644771127E+02 -0.17578182712E+02  0.31885998116E+02  0.00000000000E+00 0. -1.
         11    1    3    3    0    0  0.10271279681E+02  0.67098448411E+00 -0.75561574631E+01  0.12768904508E+02  0.51100000000E-03 0. -1.
        -11    1    3    3    0    0  0.14483952329E+02 -0.17113059765E+01  0.81052691516E+01  0.16685587538E+02  0.51100000000E-03 0.  1.
         12    1    3    3    0    0 -0.92882267652E+01  0.22685092620E+02  0.17029071023E+02  0.29847509838E+02  0.00000000000E+00 0. -1.
</event>
<event>
 7    1  0.6230310E-012  0.5930194E+02  0.7816164E-02  0.1266605E+00
        -11   -1    0    0    0    0  0.00000000000E+00  0.00000000000E+00  0.45593999997E+02  0.45594000000E+02  0.51100000000E-03 0.  1.
         11   -1    0    0    0    0 -0.00000000000E+00 -0.00000000000E+00 -0.45593999997E+02  0.45594000000E+02  0.51100000000E-03 0. -1.
    9900012    2    1    2    0    0  0.27010115075E+02  0.63873975392E+01  0.15696353533E+02  0.59301942264E+02  0.49999996784E+02 0.  0.
         12    1    1    2    0    0 -0.27010115075E+02 -0.63873975392E+01 -0.15696353533E+02  0.31886057736E+02  0.00000000000E+00 0. -1.
         11    1    3    3    0    0  0.98546045043E+01 -0.61874528268E+01  0.15036271654E+01  0.11732804325E+02  0.51100000000E-03 0. -1.
        -11    1    3    3    0    0  0.13974767679E+02  0.57876768273E+01  0.28019405939E+02  0.31841457947E+02  0.51100000000E-03 0.  1.
         12    1    3    3    0    0  0.31807428917E+01  0.67871735387E+01 -0.13826679571E+02  0.15727679992E+02  0.00000000000E+00 0. -1.
</event>
<event>
 7    1  0.6230310E-012  0.5930197E+02  0.7816164E-02  0.1266605E+00
        -11   -1    0    0    0    0  0.00000000000E+00  0.00000000000E+00  0.45593999997E+02  0.45594000000E+02  0.51100000000E-03 0.  1.
         11   -1    0    0    0    0 -0.00000000000E+00 -0.00000000000E+00 -0.45593999997E+02  0.45594000000E+02  0.51100000000E-03 0. -1.
    9900012    2    1    2    0    0  0.29957871366E+02 -0.10831437067E+02 -0.13872787932E+01  0.59301974406E+02  0.50000055403E+02 0.  0.
         12    1    1    2    0    0 -0.29957871366E+02  0.10831437067E+02  0.13872787932E+01  0.31886025594E+02  0.00000000000E+00 0. -1.
         11    1    3    3    0    0  0.10535549262E+02  0.11809029177E+02 -0.10212316921E+02  0.18834606062E+02  0.51100000000E-03 0. -1.
        -11    1    3    3    0    0  0.13957702151E+02 -0.74630094933E+01 -0.75019468189E+01  0.17515512164E+02  0.51100000000E-03 0.  1.
        -12    1    3    3    0    0  0.54646199528E+01 -0.15177456751E+02  0.16326984947E+02  0.22951856180E+02  0.00000000000E+00 0.  1.
</event>
<event>
 7    1  0.6230310E-012  0.5930190E+02  0.7816164E-02  0.1266605E+00
        -11   -1    0    0    0    0  0.00000000000E+00  0.00000000000E+00  0.45593999997E+02  0.45594000000E+02  0.51100000000E-03 0.  1.
         11   -1    0    0    0    0 -0.00000000000E+00 -0.00000000000E+00 -0.45593999997E+02  0.45594000000E+02  0.51100000000E-03 0. -1.
    9900012    2    1    2    0    0 -0.16368264351E+02  0.22362681663E+02  0.15770668808E+02  0.59301896386E+02  0.49999913113E+02 0.  0.
         12    1    1    2    0    0  0.16368264351E+02 -0.22362681663E+02 -0.15770668808E+02  0.31886103614E+02  0.00000000000E+00 0. -1.
         11    1    3    3    0    0 -0.94629768480E+01 -0.89484273271E+01  0.18506007315E+02  0.22629507053E+02  0.51100000000E-03 0. -1.
        -11    1    3    3    0    0  0.31872555327E+01 -0.44349460582E+00 -0.68106365302E+00  0.32892450892E+01  0.51100000000E-03 0.  1.
         12    1    3    3    0    0 -0.10092543036E+02  0.31754603596E+02 -0.20542748534E+01  0.33383144244E+02  0.00000000000E+00 0. -1.
</event>
<event>
 7    1  0.6230310E-012  0.5930196E+02  0.7816164E-02  0.1266605E+00
        -11   -1    0    0    0    0  0.00000000000E+00  0.00000000000E+00  0.45593999997E+02  0.45594000000E+02  0.51100000000E-03 0.  1.
         11   -1    0    0    0    0 -0.00000000000E+00 -0.00000000000E+00 -0.45593999997E+02  0.45594000000E+02  0.51100000000E-03 0. -1.
    9900012    2    1    2    0    0 -0.21742832146E+02 -0.10712815789E+02  0.20717242448E+02  0.59301963769E+02  0.50000036004E+02 0.  0.
         12    1    1    2    0    0  0.21742832146E+02  0.10712815789E+02 -0.20717242448E+02  0.31886036231E+02  0.00000000000E+00 0. -1.
         11    1    3    3    0    0 -0.18162085594E+02 -0.29272591889E+01  0.17256246304E+02  0.25223168640E+02  0.51100000000E-03 0. -1.
        -11    1    3    3    0    0 -0.27467128738E+01  0.40912038465E+01  0.16027437003E+02  0.16767859663E+02  0.51100000000E-03 0.  1.
         12    1    3    3    0    0 -0.83403367810E+00 -0.11876760447E+02 -0.12566440858E+02  0.17310935467E+02  0.00000000000E+00 0. -1.
</event>
<event>
 7    1  0.6230310E-012  0.5930198E+02  0.7816164E-02  0.1266605E+00
        -11   -1    0    0    0    0  0.00000000000E+00  0.00000000000E+00  0.45593999997E+02  0.45594000000E+02  0.51100000000E-03 0.  1.
         11   -1    0    0    0    0 -0.00000000000E+00 -0.00000000000E+00 -0.45593999997E+02  0.45594000000E+02  0.51100000000E-03 0. -1.
    9900012    2    1    2    0    0  0.17879166269E+02 -0.11107824345E+02  0.23951407918E+02  0.59301979718E+02  0.50000065091E+02 0.  0.
         12    1    1    2    0    0 -0.17879166269E+02  0.11107824345E+02 -0.23951407918E+02  0.31886020282E+02  0.00000000000E+00 0. -1.
         11    1    3    3    0    0 -0.40990922442E-01  0.11091829485E+02  0.19697303456E+02  0.22605621541E+02  0.51100000000E-03 0. -1.
        -11    1    3    3    0    0  0.62723342298E+01 -0.15941997799E+01  0.10393187582E+02  0.12243447146E+02  0.51100000000E-03 0.  1.
         12    1    3    3    0    0  0.11647822961E+02 -0.20605454050E+02 -0.61390831194E+01  0.24452911031E+02  0.00000000000E+00 0. -1.
</event>
<event>
 7    1  0.6230310E-012  0.5930199E+02  0.7816164E-02  0.1266605E+00
        -11   -1    0    0    0    0  0.00000000000E+00  0.00000000000E+00  0.45593999997E+02  0.45594000000E+02  0.51100000000E-03 0. -1.
         11   -1    0    0    0    0 -0.00000000000E+00 -0.00000000000E+00 -0.45593999997E+02  0.45594000000E+02  0.51100000000E-03 0.  1.
    9900012    2    1    2    0    0  0.99738828999E+01 -0.27625777834E+02 -0.12411920344E+02  0.59301988840E+02  0.50000081727E+02 0.  0.
         12    1    1    2    0    0 -0.99738828999E+01  0.27625777834E+02  0.12411920344E+02  0.31886011160E+02  0.00000000000E+00 0. -1.
         11    1    3    3    0    0  0.16320672213E+02 -0.23215448251E+02  0.10674655692E+02  0.30319459979E+02  0.51100000000E-03 0. -1.
        -11    1    3    3    0    0 -0.24060349349E+01 -0.22860898941E+01  0.17456375315E+01  0.37499949019E+01  0.51100000000E-03 0.  1.
        -12    1    3    3    0    0 -0.39407543782E+01 -0.21242396887E+01 -0.24832213568E+02  0.25232533960E+02  0.00000000000E+00 0.  1.
</event>
<event>
 7    1  0.6230310E-012  0.5930195E+02  0.7816164E-02  0.1266605E+00
        -11   -1    0    0    0    0  0.00000000000E+00  0.00000000000E+00  0.45593999997E+02  0.45594000000E+02  0.51100000000E-03 0. -1.
         11   -1    0    0    0    0 -0.00000000000E+00 -0.00000000000E+00 -0.45593999997E+02  0.45594000000E+02  0.51100000000E-03 0.  1.
    9900012    2    1    2    0    0  0.38418293985E+01 -0.78479625132E+01 -0.30665453618E+02  0.59301949533E+02  0.50000010041E+02 0.  0.
         12    1    1    2    0    0 -0.38418293985E+01  0.78479625132E+01  0.30665453618E+02  0.31886050467E+02  0.00000000000E+00 0. -1.
         11    1    3    3    0    0  0.49455912044E+01  0.79507744285E+01  0.40691865445E+01  0.10209405750E+02  0.51100000000E-03 0. -1.
        -11    1    3    3    0    0  0.22233352925E+01  0.71081372050E+01 -0.11644567056E+00  0.74486504955E+01  0.51100000000E-03 0.  1.
         12    1    3    3    0    0 -0.33270970985E+01 -0.22906874147E+02 -0.34618194492E+02  0.41643893288E+02  0.00000000000E+00 0. -1.
</event>
<event>
 7    1  0.6230310E-012  0.5930194E+02  0.7816164E-02  0.1266605E+00
        -11   -1    0    0    0    0  0.00000000000E+00  0.00000000000E+00  0.45593999997E+02  0.45594000000E+02  0.51100000000E-03 0. -1.
         11   -1    0    0    0    0 -0.00000000000E+00 -0.00000000000E+00 -0.45593999997E+02  0.45594000000E+02  0.51100000000E-03 0.  1.
    9900012    2    1    2    0    0 -0.29593398475E+02 -0.37099845203E+01  0.11277743588E+02  0.59301941622E+02  0.49999995613E+02 0.  0.
         12    1    1    2    0    0  0.29593398475E+02  0.37099845203E+01 -0.11277743588E+02  0.31886058378E+02  0.00000000000E+00 0. -1.
         11    1    3    3    0    0 -0.97802294950E+01 -0.32886401270E+01 -0.72698774039E+01  0.12622169409E+02  0.51100000000E-03 0. -1.
        -11    1    3    3    0    0  0.10526175285E+02 -0.49670183851E+01  0.19556531803E+01  0.11802381853E+02  0.51100000000E-03 0.  1.
         12    1    3    3    0    0 -0.30339344265E+02  0.45456739918E+01  0.16591967812E+02  0.34877390360E+02  0.00000000000E+00 0. -1.
</event>
<event>
 7    1  0.6230310E-012  0.5930194E+02  0.7816164E-02  0.1266605E+00
        -11   -1    0    0    0    0  0.00000000000E+00  0.00000000000E+00  0.45593999997E+02  0.45594000000E+02  0.51100000000E-03 0. -1.
         11   -1    0    0    0    0 -0.00000000000E+00 -0.00000000000E+00 -0.45593999997E+02  0.45594000000E+02  0.51100000000E-03 0.  1.
    9900012    2    1    2    0    0 -0.21619828261E+02 -0.20961169137E+02  0.10484891592E+02  0.59301944469E+02  0.50000000805E+02 0.  0.
         12    1    1    2    0    0  0.21619828261E+02  0.20961169137E+02 -0.10484891592E+02  0.31886055531E+02  0.00000000000E+00 0. -1.
         11    1    3    3    0    0 -0.43874134462E+01  0.18054954947E+01  0.20976520200E+02  0.21506362098E+02  0.51100000000E-03 0. -1.
        -11    1    3    3    0    0 -0.13546844771E+02 -0.35364712952E+00 -0.30162859879E+01  0.13883085066E+02  0.51100000000E-03 0.  1.
        -12    1    3    3    0    0 -0.36855700441E+01 -0.22413017502E+02 -0.74753426197E+01  0.23912497305E+02  0.00000000000E+00 0.  1.
</event>
<event>
 7    1  0.6230310E-012  0.5930189E+02  0.7816164E-02  0.1266605E+00
        -11   -1    0    0    0    0  0.00000000000E+00  0.00000000000E+00  0.45593999997E+02  0.45594000000E+02  0.51100000000E-03 0.  1.
         11   -1    0    0    0    0 -0.00000000000E+00 -0.00000000000E+00 -0.45593999997E+02  0.45594000000E+02  0.51100000000E-03 0. -1.
    9900012    2    1    2    0    0  0.20852065004E+02 -0.19068115902E+02  0.14775726574E+02  0.59301894017E+02  0.49999908792E+02 0.  0.
         12    1    1    2    0    0 -0.20852065004E+02  0.19068115902E+02 -0.14775726574E+02  0.31886105983E+02  0.00000000000E+00 0. -1.
         11    1    3    3    0    0  0.11763774791E+01 -0.11186351792E+02  0.13268832093E+02  0.17394833594E+02  0.51100000000E-03 0. -1.
        -11    1    3    3    0    0  0.43534618285E+00 -0.93988451647E-01  0.16370990699E+02  0.16377047868E+02  0.51100000000E-03 0.  1.
         12    1    3    3    0    0  0.19240341342E+02 -0.77877756584E+01 -0.14864096218E+02  0.25530012555E+02  0.00000000000E+00 0. -1.
</event>
<event>
 7    1  0.6230310E-012  0.5930197E+02  0.7816164E-02  0.1266605E+00
        -11   -1    0    0    0    0  0.00000000000E+00  0.00000000000E+00  0.45593999997E+02  0.45594000000E+02  0.51100000000E-03 0.  1.
         11   -1    0    0    0    0 -0.00000000000E+00 -0.00000000000E+00 -0.45593999997E+02  0.45594000000E+02  0.51100000000E-03 0. -1.
    9900012    2    1    2    0    0 -0.17662295767E+01  0.31833754112E+02 -0.46004773902E+00  0.59301966824E+02  0.50000041575E+02 0.  0.
         12    1    1    2    0    0  0.17662295767E+01 -0.31833754112E+02  0.46004773902E+00  0.31886033176E+02  0.00000000000E+00 0. -1.
         11    1    3    3    0    0  0.51204522095E+01 -0.13209743020E+01 -0.86566792966E+00  0.53584872083E+01  0.51100000000E-03 0. -1.
        -11    1    3    3    0    0  0.16336805204E+02  0.21183383711E+02 -0.51234458512E+01  0.27237412641E+02  0.51100000000E-03 0.  1.
        -12    1    3    3    0    0 -0.23223486990E+02  0.11971344703E+02  0.55290660419E+01  0.26706066975E+02  0.00000000000E+00 0.  1.
</event>
<event>
 7    1  0.6230310E-012  0.5930195E+02  0.7816164E-02  0.1266605E+00
        -11   -1    0    0    0    0  0.00000000000E+00  0.00000000000E+00  0.45593999997E+02  0.45594000000E+02  0.51100000000E-03 0.  1.
         11   -1    0    0    0    0 -0.00000000000E+00 -0.00000000000E+00 -0.45593999997E+02  0.45594000000E+02  0.51100000000E-03 0. -1.
    9900012    2    1    2    0    0  0.21217017718E+02 -0.13445161139E+02  0.19641431290E+02  0.59301952549E+02  0.50000015542E+02 0.  0.
         12    1    1    2    0    0 -0.21217017718E+02  0.13445161139E+02 -0.19641431290E+02  0.31886047451E+02  0.00000000000E+00 0. -1.
         11    1    3    3    0    0 -0.29992300690E+01 -0.91002140447E+01 -0.83632043807E+01  0.12718194229E+02  0.51100000000E-03 0. -1.
        -11    1    3    3    0    0 -0.52642139052E+01  0.33453368790E+01  0.79668833556E+01  0.10118026366E+02  0.51100000000E-03 0.  1.
        -12    1    3    3    0    0  0.29480461692E+02 -0.76902839732E+01  0.20037752316E+02  0.36465731955E+02  0.00000000000E+00 0.  1.
</event>
<event>
 7    1  0.6230310E-012  0.5930177E+02  0.7816164E-02  0.1266605E+00
        -11   -1    0    0    0    0  0.00000000000E+00  0.00000000000E+00  0.45593999997E+02  0.45594000000E+02  0.51100000000E-03 0. -1.
         11   -1    0    0    0    0 -0.00000000000E+00 -0.00000000000E+00 -0.45593999997E+02  0.45594000000E+02  0.51100000000E-03 0.  1.
    9900012    2    1    2    0    0  0.17134776706E+02  0.19512643790E+02 -0.18503731500E+02  0.59301765982E+02  0.49999675286E+02 0.  0.
         12    1    1    2    0    0 -0.17134776706E+02 -0.19512643790E+02  0.18503731500E+02  0.31886234018E+02  0.00000000000E+00 0. -1.
         11    1    3    3    0    0  0.58160447131E+01 -0.14098600118E+01 -0.14213825637E+02  0.15422286499E+02  0.51100000000E-03 0. -1.
        -11    1    3    3    0    0  0.23937957351E+02  0.19107331503E+02 -0.70842357405E+00  0.30636869676E+02  0.51100000000E-03 0.  1.
         12    1    3    3    0    0 -0.12619225358E+02  0.18151722984E+01 -0.35814822892E+01  0.13242609807E+02  0.00000000000E+00 0. -1.
</event>
<event>
 7    1  0.6230310E-012  0.5930194E+02  0.7816164E-02  0.1266605E+00
        -11   -1    0    0    0    0  0.00000000000E+00  0.00000000000E+00  0.45593999997E+02  0.45594000000E+02  0.51100000000E-03 0. -1.
         11   -1    0    0    0    0 -0.00000000000E+00 -0.00000000000E+00 -0.45593999997E+02  0.45594000000E+02  0.51100000000E-03 0.  1.
    9900012    2    1    2    0    0  0.10109414010E+02  0.29967209923E+02  0.40604298563E+01  0.59301937013E+02  0.49999987207E+02 0.  0.
         12    1    1    2    0    0 -0.10109414010E+02 -0.29967209923E+02 -0.40604298563E+01  0.31886062987E+02  0.00000000000E+00 0. -1.
         11    1    3    3    0    0 -0.15428447100E+01  0.55594644252E+01  0.79376223412E+01  0.98129436556E+01  0.51100000000E-03 0. -1.
        -11    1    3    3    0    0  0.13390955956E+02  0.12253953209E+02  0.17258166342E+02  0.25046384498E+02  0.51100000000E-03 0.  1.
        -12    1    3    3    0    0 -0.17386972368E+01  0.12153792289E+02 -0.21135358827E+02  0.24442608859E+02  0.00000000000E+00 0.  1.
</event>
<event>
 7    1  0.6230310E-012  0.5930193E+02  0.7816164E-02  0.1266605E+00
        -11   -1    0    0    0    0  0.00000000000E+00  0.00000000000E+00  0.45593999997E+02  0.45594000000E+02  0.51100000000E-03 0.  1.
         11   -1    0    0    0    0 -0.00000000000E+00 -0.00000000000E+00 -0.45593999997E+02  0.45594000000E+02  0.51100000000E-03 0. -1.
    9900012    2    1    2    0    0 -0.70038415528E+01 -0.13020531936E+01  0.31080095469E+02  0.59301929791E+02  0.49999974035E+02 0.  0.
         12    1    1    2    0    0  0.70038415528E+01  0.13020531936E+01 -0.31080095469E+02  0.31886070209E+02  0.00000000000E+00 0. -1.
         11    1    3    3    0    0  0.13058985013E+01 -0.69771967952E+00 -0.53096024388E+01  0.55121739782E+01  0.51100000000E-03 0. -1.
        -11    1    3    3    0    0  0.14456308109E+02  0.61632898062E+01  0.12256689908E+02  0.19929812672E+02  0.51100000000E-03 0.  1.
        -12    1    3    3    0    0 -0.22766048163E+02 -0.67676233203E+01  0.24133008000E+02  0.33859943141E+02  0.00000000000E+00 0.  1.
</event>
<event>
 7    1  0.6230310E-012  0.5930193E+02  0.7816164E-02  0.1266605E+00
        -11   -1    0    0    0    0  0.00000000000E+00  0.00000000000E+00  0.45593999997E+02  0.45594000000E+02  0.51100000000E-03 0.  1.
         11   -1    0    0    0    0 -0.00000000000E+00 -0.00000000000E+00 -0.45593999997E+02  0.45594000000E+02  0.51100000000E-03 0. -1.
    9900012    2    1    2    0    0  0.66161609797E+01  0.14633454050E+02  0.27546509282E+02  0.59301925655E+02  0.49999966493E+02 0.  0.
         12    1    1    2    0    0 -0.66161609797E+01 -0.14633454050E+02 -0.27546509282E+02  0.31886074345E+02  0.00000000000E+00 0. -1.
         11    1    3    3    0    0 -0.10383070663E+01 -0.39901118474E+01 -0.39606057229E+00  0.41419727614E+01  0.51100000000E-03 0. -1.
        -11    1    3    3    0    0 -0.34572639330E+01 -0.10389487962E+01  0.32008832851E+02  0.32211759797E+02  0.51100000000E-03 0.  1.
         12    1    3    3    0    0  0.11111731979E+02  0.19662514693E+02 -0.40662629968E+01  0.22948193096E+02  0.00000000000E+00 0. -1.
</event>
<event>
 7    1  0.6230310E-012  0.5930194E+02  0.7816164E-02  0.1266605E+00
        -11   -1    0    0    0    0  0.00000000000E+00  0.00000000000E+00  0.45593999997E+02  0.45594000000E+02  0.51100000000E-03 0.  1.
         11   -1    0    0    0    0 -0.00000000000E+00 -0.00000000000E+00 -0.45593999997E+02  0.45594000000E+02  0.51100000000E-03 0. -1.
    9900012    2    1    2    0    0  0.24283783185E+01 -0.30082143779E+02  0.10290217700E+02  0.59301937591E+02  0.49999988261E+02 0.  0.
         12    1    1    2    0    0 -0.24283783185E+01  0.30082143779E+02 -0.10290217700E+02  0.31886062409E+02  0.00000000000E+00 0. -1.
         11    1    3    3    0    0  0.10709550328E+02 -0.15041346520E+01 -0.11178545076E+02  0.15553673506E+02  0.51100000000E-03 0. -1.
        -11    1    3    3    0    0 -0.94869649603E+01 -0.24749498960E+02  0.52245419780E+01  0.27015477824E+02  0.51100000000E-03 0.  1.
        -12    1    3    3    0    0  0.12057929512E+01 -0.38285101677E+01  0.16244220797E+02  0.16732786261E+02  0.00000000000E+00 0.  1.
</event>
<event>
 7    1  0.6230310E-012  0.5930192E+02  0.7816164E-02  0.1266605E+00
        -11   -1    0    0    0    0  0.00000000000E+00  0.00000000000E+00  0.45593999997E+02  0.45594000000E+02  0.51100000000E-03 0. -1.
         11   -1    0    0    0    0 -0.00000000000E+00 -0.00000000000E+00 -0.45593999997E+02  0.45594000000E+02  0.51100000000E-03 0.  1.
    9900012    2    1    2    0    0  0.41153199797E+01 -0.21335723394E+02 -0.23336086395E+02  0.59301923422E+02  0.49999962420E+02 0.  0.
         12    1    1    2    0    0 -0.41153199797E+01  0.21335723394E+02  0.23336086395E+02  0.31886076578E+02  0.00000000000E+00 0. -1.
         11    1    3    3    0    0 -0.13818782408E+02 -0.20958718179E+01 -0.17523219015E+02  0.22414607533E+02  0.51100000000E-03 0. -1.
        -11    1    3    3    0    0  0.55133114363E+01 -0.71949381905E+01 -0.14826863056E+02  0.17378135887E+02  0.51100000000E-03 0.  1.
        -12    1    3    3    0    0  0.12420790951E+02 -0.12044913386E+02  0.90139956759E+01  0.19509180003E+02  0.00000000000E+00 0.  1.
</event>
<event>
 7    1  0.6230310E-012  0.5930194E+02  0.7816164E-02  0.1266605E+00
        -11   -1    0    0    0    0  0.00000000000E+00  0.00000000000E+00  0.45593999997E+02  0.45594000000E+02  0.51100000000E-03 0.  1.
         11   -1    0    0    0    0 -0.00000000000E+00 -0.00000000000E+00 -0.45593999997E+02  0.45594000000E+02  0.51100000000E-03 0. -1.
    9900012    2    1    2    0    0 -0.19619162602E+02  0.21315404524E+02 -0.13321507210E+02  0.59301944026E+02  0.49999999997E+02 0.  0.
         12    1    1    2    0    0  0.19619162602E+02 -0.21315404524E+02  0.13321507210E+02  0.31886055974E+02  0.00000000000E+00 0. -1.
         11    1    3    3    0    0  0.48901555446E+01 -0.48439323352E+01 -0.54719846901E+01  0.87931745364E+01  0.51100000000E-03 0. -1.
        -11    1    3    3    0    0 -0.32272115190E+01 -0.62837367575E+01  0.60429769675E+01  0.92961181531E+01  0.51100000000E-03 0.  1.
        -12    1    3    3    0    0 -0.21282106628E+02  0.32443073616E+02 -0.13892499487E+02  0.41212651337E+02  0.00000000000E+00 0.  1.
</event>
<event>
 7    1  0.6230310E-012  0.5930197E+02  0.7816164E-02  0.1266605E+00
        -11   -1    0    0    0    0  0.00000000000E+00  0.00000000000E+00  0.45593999997E+02  0.45594000000E+02  0.51100000000E-03 0. -1.
         11   -1    0    0    0    0 -0.00000000000E+00 -0.00000000000E+00 -0.45593999997E+02  0.45594000000E+02  0.51100000000E-03 0.  1.
    9900012    2    1    2    0    0  0.18129910187E+02  0.37623243584E+01 -0.25959011739E+02  0.59301968287E+02  0.50000044243E+02 0.  0.
         12    1    1    2    0    0 -0.18129910187E+02 -0.37623243584E+01  0.25959011739E+02  0.31886031713E+02  0.00000000000E+00 0. -1.
         11    1    3    3    0    0  0.14753893077E+02 -0.16467921640E+02 -0.10590938714E+02  0.24516072017E+02  0.51100000000E-03 0. -1.
        -11    1    3    3    0    0  0.96524716923E+01  0.51738848279E+01  0.18061036267E+01  0.11099608306E+02  0.51100000000E-03 0.  1.
         12    1    3    3    0    0 -0.62764545817E+01  0.15056361171E+02 -0.17174176651E+02  0.23686287963E+02  0.00000000000E+00 0. -1.
</event>
<event>
 7    1  0.6230310E-012  0.5930191E+02  0.7816164E-02  0.1266605E+00
        -11   -1    0    0    0    0  0.00000000000E+00  0.00000000000E+00  0.45593999997E+02  0.45594000000E+02  0.51100000000E-03 0.  1.
         11   -1    0    0    0    0 -0.00000000000E+00 -0.00000000000E+00 -0.45593999997E+02  0.45594000000E+02  0.51100000000E-03 0. -1.
    9900012    2    1    2    0    0 -0.13225497570E+01 -0.11266374627E+01  0.31838725739E+02  0.59301907318E+02  0.49999933051E+02 0.  0.
         12    1    1    2    0    0  0.13225497570E+01  0.11266374627E+01 -0.31838725739E+02  0.31886092682E+02  0.00000000000E+00 0. -1.
         11    1    3    3    0    0  0.65414369513E+01  0.13829113944E+01  0.12082810688E+02  0.13809314092E+02  0.51100000000E-03 0. -1.
        -11    1    3    3    0    0 -0.58607602534E+01 -0.21279498318E+02  0.97707515887E+01  0.24137794975E+02  0.51100000000E-03 0.  1.
         12    1    3    3    0    0 -0.20032264549E+01  0.18769949461E+02  0.99851634623E+01  0.21354798251E+02  0.00000000000E+00 0. -1.
</event>
<event>
 7    1  0.6230310E-012  0.5930185E+02  0.7816164E-02  0.1266605E+00
        -11   -1    0    0    0    0  0.00000000000E+00  0.00000000000E+00  0.45593999997E+02  0.45594000000E+02  0.51100000000E-03 0. -1.
         11   -1    0    0    0    0 -0.00000000000E+00 -0.00000000000E+00 -0.45593999997E+02  0.45594000000E+02  0.51100000000E-03 0.  1.
    9900012    2    1    2    0    0  0.25799348304E+02  0.57187236425E+01 -0.17844225849E+02  0.59301849885E+02  0.49999828307E+02 0.  0.
         12    1    1    2    0    0 -0.25799348304E+02 -0.57187236425E+01  0.17844225849E+02  0.31886150115E+02  0.00000000000E+00 0. -1.
         11    1    3    3    0    0  0.14564134942E+02 -0.76010057393E+01 -0.13408693855E+02  0.21205715881E+02  0.51100000000E-03 0. -1.
        -11    1    3    3    0    0 -0.54076510582E+01 -0.55155718516E+01 -0.97164554629E+01  0.12412643951E+02  0.51100000000E-03 0.  1.
         12    1    3    3    0    0  0.16642864420E+02  0.18835301233E+02  0.52809234696E+01  0.25683490054E+02  0.00000000000E+00 0. -1.
</event>
<event>
 7    1  0.6230310E-012  0.5930197E+02  0.7816164E-02  0.1266605E+00
        -11   -1    0    0    0    0  0.00000000000E+00  0.00000000000E+00  0.45593999997E+02  0.45594000000E+02  0.51100000000E-03 0.  1.
         11   -1    0    0    0    0 -0.00000000000E+00 -0.00000000000E+00 -0.45593999997E+02  0.45594000000E+02  0.51100000000E-03 0. -1.
    9900012    2    1    2    0    0 -0.17127944110E+02 -0.16286288276E+02  0.21403491080E+02  0.59301967233E+02  0.50000042320E+02 0.  0.
         12    1    1    2    0    0  0.17127944110E+02  0.16286288276E+02 -0.21403491080E+02  0.31886032767E+02  0.00000000000E+00 0. -1.
         11    1    3    3    0    0  0.10044719876E+02 -0.19788781810E+00 -0.51234092731E+01  0.11277627402E+02  0.51100000000E-03 0. -1.
        -11    1    3    3    0    0  0.42934294029E+01 -0.35472127202E+01  0.11178152732E+01  0.56802962393E+01  0.51100000000E-03 0.  1.
        -12    1    3    3    0    0 -0.31466093389E+02 -0.12541187738E+02  0.25409085080E+02  0.42344043591E+02  0.00000000000E+00 0.  1.
</event>
<event>
 7    1  0.6230310E-012  0.5930192E+02  0.7816164E-02  0.1266605E+00
        -11   -1    0    0    0    0  0.00000000000E+00  0.00000000000E+00  0.45593999997E+02  0.45594000000E+02  0.51100000000E-03 0. -1.
         11   -1    0    0    0    0 -0.00000000000E+00 -0.00000000000E+00 -0.45593999997E+02  0.45594000000E+02  0.51100000000E-03 0.  1.
    9900012    2    1    2    0    0 -0.42213231299E+01 -0.11199158019E+02 -0.29554713951E+02  0.59301924261E+02  0.49999963951E+02 0.  0.
         12    1    1    2    0    0  0.42213231299E+01  0.11199158019E+02  0.29554713951E+02  0.31886075739E+02  0.00000000000E+00 0. -1.
         11    1    3    3    0    0 -0.60878470154E+01 -0.15017747311E+02 -0.20831811010E+02  0.26392403562E+02  0.51100000000E-03 0. -1.
        -11    1    3    3    0    0 -0.12908913904E+02 -0.32970125164E+01 -0.97008998004E+01  0.16480831499E+02  0.51100000000E-03 0.  1.
         12    1    3    3    0    0  0.14775437789E+02  0.71156018091E+01  0.97799685953E+00  0.16428689200E+02  0.00000000000E+00 0. -1.
</event>
<event>
 7    1  0.6230310E-012  0.5930196E+02  0.7816164E-02  0.1266605E+00
        -11   -1    0    0    0    0  0.00000000000E+00  0.00000000000E+00  0.45593999997E+02  0.45594000000E+02  0.51100000000E-03 0.  1.
         11   -1    0    0    0    0 -0.00000000000E+00 -0.00000000000E+00 -0.45593999997E+02  0.45594000000E+02  0.51100000000E-03 0. -1.
    9900012    2    1    2    0    0  0.21076470172E+02  0.41300387141E+01  0.23567878025E+02  0.59301957767E+02  0.50000025057E+02 0.  0.
         12    1    1    2    0    0 -0.21076470172E+02 -0.41300387141E+01 -0.23567878025E+02  0.31886042233E+02  0.00000000000E+00 0. -1.
         11    1    3    3    0    0  0.18775223943E+02  0.11270981122E+02 -0.79874347340E+01  0.23309722509E+02  0.51100000000E-03 0. -1.
        -11    1    3    3    0    0  0.41452943904E+00 -0.33106095683E+01 -0.73863352914E+00  0.34172430585E+01  0.51100000000E-03 0.  1.
        -12    1    3    3    0    0  0.18867167901E+01 -0.38303328401E+01  0.32293946288E+02  0.32574992199E+02  0.00000000000E+00 0.  1.
</event>
<event>
 7    1  0.6230310E-012  0.5930195E+02  0.7816164E-02  0.1266605E+00
        -11   -1    0    0    0    0  0.00000000000E+00  0.00000000000E+00  0.45593999997E+02  0.45594000000E+02  0.51100000000E-03 0.  1.
         11   -1    0    0    0    0 -0.00000000000E+00 -0.00000000000E+00 -0.45593999997E+02  0.45594000000E+02  0.51100000000E-03 0. -1.
    9900012    2    1    2    0    0 -0.71361939122E+01  0.23846492185E+02  0.19928362533E+02  0.59301951541E+02  0.50000013703E+02 0.  0.
         12    1    1    2    0    0  0.71361939122E+01 -0.23846492185E+02 -0.19928362533E+02  0.31886048459E+02  0.00000000000E+00 0. -1.
         11    1    3    3    0    0 -0.28682444320E+01  0.21460454610E+01  0.16876516553E+02  0.17252511367E+02  0.51100000000E-03 0. -1.
        -11    1    3    3    0    0 -0.26637508572E+01  0.29910725541E+02  0.94903690396E+01  0.31493081396E+02  0.51100000000E-03 0.  1.
         12    1    3    3    0    0 -0.16041986230E+01 -0.82102788172E+01 -0.64385230594E+01  0.10556358779E+02  0.00000000000E+00 0. -1.
</event>
<event>
 7    1  0.6230310E-012  0.5930188E+02  0.7816164E-02  0.1266605E+00
        -11   -1    0    0    0    0  0.00000000000E+00  0.00000000000E+00  0.45593999997E+02  0.45594000000E+02  0.51100000000E-03 0. -1.
         11   -1    0    0    0    0 -0.00000000000E+00 -0.00000000000E+00 -0.45593999997E+02  0.45594000000E+02  0.51100000000E-03 0.  1.
    9900012    2    1    2    0    0 -0.14010871546E+01 -0.18578337380E+02 -0.25876760218E+02  0.59301884144E+02  0.49999890785E+02 0.  0.
         12    1    1    2    0    0  0.14010871546E+01  0.18578337380E+02  0.25876760218E+02  0.31886115856E+02  0.00000000000E+00 0. -1.
         11    1    3    3    0    0 -0.46774253404E+01 -0.41416865279E+01 -0.56560310446E+01  0.84274885078E+01  0.51100000000E-03 0. -1.
        -11    1    3    3    0    0 -0.33582550449E+01 -0.23050106258E+01 -0.32274666970E+02  0.32530679046E+02  0.51100000000E-03 0.  1.
         12    1    3    3    0    0  0.66345932308E+01 -0.12131640227E+02  0.12053937796E+02  0.18343716590E+02  0.00000000000E+00 0. -1.
</event>
<event>
 7    1  0.6230310E-012  0.5930195E+02  0.7816164E-02  0.1266605E+00
        -11   -1    0    0    0    0  0.00000000000E+00  0.00000000000E+00  0.45593999997E+02  0.45594000000E+02  0.51100000000E-03 0. -1.
         11   -1    0    0    0    0 -0.00000000000E+00 -0.00000000000E+00 -0.45593999997E+02  0.45594000000E+02  0.51100000000E-03 0.  1.
    9900012    2    1    2    0    0  0.23313176705E+02 -0.32148819401E+01 -0.21514659858E+02  0.59301948774E+02  0.50000008656E+02 0.  0.
         12    1    1    2    0    0 -0.23313176705E+02  0.32148819401E+01  0.21514659858E+02  0.31886051226E+02  0.00000000000E+00 0. -1.
         11    1    3    3    0    0  0.17615744411E+02 -0.20868722068E+02 -0.24607665680E+00  0.27310777467E+02  0.51100000000E-03 0. -1.
        -11    1    3    3    0    0 -0.19118642800E+01 -0.67258985232E+00  0.91836328108E+00  0.22250828101E+01  0.51100000000E-03 0.  1.
        -12    1    3    3    0    0  0.76092965749E+01  0.18326429980E+02 -0.22186946482E+02  0.29766088497E+02  0.00000000000E+00 0.  1.
</event>
<event>
 7    1  0.6230310E-012  0.5930189E+02  0.7816164E-02  0.1266605E+00
        -11   -1    0    0    0    0  0.00000000000E+00  0.00000000000E+00  0.45593999997E+02  0.45594000000E+02  0.51100000000E-03 0.  1.
         11   -1    0    0    0    0 -0.00000000000E+00 -0.00000000000E+00 -0.45593999997E+02  0.45594000000E+02  0.51100000000E-03 0. -1.
    9900012    2    1    2    0    0 -0.18440499009E+02  0.19448389663E+02  0.17275184351E+02  0.59301892389E+02  0.49999905824E+02 0.  0.
         12    1    1    2    0    0  0.18440499009E+02 -0.19448389663E+02 -0.17275184351E+02  0.31886107611E+02  0.00000000000E+00 0. -1.
         11    1    3    3    0    0 -0.87116412718E+01  0.36220712470E+00  0.23427224980E+02  0.24997175004E+02  0.51100000000E-03 0. -1.
        -11    1    3    3    0    0 -0.78404185681E+00  0.76131225310E+01  0.99833077363E+01  0.12579379552E+02  0.51100000000E-03 0.  1.
         12    1    3    3    0    0 -0.89448158806E+01  0.11473060008E+02 -0.16135348365E+02  0.21725337833E+02  0.00000000000E+00 0. -1.
</event>
<event>
 7    1  0.6230310E-012  0.5930198E+02  0.7816164E-02  0.1266605E+00
        -11   -1    0    0    0    0  0.00000000000E+00  0.00000000000E+00  0.45593999997E+02  0.45594000000E+02  0.51100000000E-03 0. -1.
         11   -1    0    0    0    0 -0.00000000000E+00 -0.00000000000E+00 -0.45593999997E+02  0.45594000000E+02  0.51100000000E-03 0.  1.
    9900012    2    1    2    0    0  0.26716769701E+02  0.17404738256E+02  0.86270322252E-01  0.59301982068E+02  0.50000069376E+02 0.  0.
         12    1    1    2    0    0 -0.26716769701E+02 -0.17404738256E+02 -0.86270322252E-01  0.31886017932E+02  0.00000000000E+00 0. -1.
         11    1    3    3    0    0  0.13728909975E+02 -0.18556483820E+00  0.69992096416E+01  0.15411240679E+02  0.51100000000E-03 0.  1.
        -11    1    3    3    0    0  0.24846250180E+02  0.70184290780E+01 -0.10035197831E+02  0.27700174919E+02  0.51100000000E-03 0. -1.
         12    1    3    3    0    0 -0.11858390454E+02  0.10571874016E+02  0.31222585122E+01  0.16190566470E+02  0.00000000000E+00 0. -1.
</event>
<event>
 7    1  0.6230310E-012  0.5930196E+02  0.7816164E-02  0.1266605E+00
        -11   -1    0    0    0    0  0.00000000000E+00  0.00000000000E+00  0.45593999997E+02  0.45594000000E+02  0.51100000000E-03 0. -1.
         11   -1    0    0    0    0 -0.00000000000E+00 -0.00000000000E+00 -0.45593999997E+02  0.45594000000E+02  0.51100000000E-03 0.  1.
    9900012    2    1    2    0    0 -0.20204511068E+02  0.51733620339E+01 -0.24119158577E+02  0.59301956773E+02  0.50000023244E+02 0.  0.
         12    1    1    2    0    0  0.20204511068E+02 -0.51733620339E+01  0.24119158577E+02  0.31886043227E+02  0.00000000000E+00 0. -1.
         11    1    3    3    0    0 -0.55028903872E+01  0.17000962624E+02 -0.38660174907E+01  0.18282795855E+02  0.51100000000E-03 0. -1.
        -11    1    3    3    0    0 -0.59697320438E+01  0.96724744173E+01 -0.11633373972E+02  0.16264373713E+02  0.51100000000E-03 0.  1.
        -12    1    3    3    0    0 -0.87318886372E+01 -0.21500075008E+02 -0.86197671137E+01  0.24754787206E+02  0.00000000000E+00 0.  1.
</event>
<event>
 7    1  0.6230310E-012  0.5930186E+02  0.7816164E-02  0.1266605E+00
        -11   -1    0    0    0    0  0.00000000000E+00  0.00000000000E+00  0.45593999997E+02  0.45594000000E+02  0.51100000000E-03 0.  1.
         11   -1    0    0    0    0 -0.00000000000E+00 -0.00000000000E+00 -0.45593999997E+02  0.45594000000E+02  0.51100000000E-03 0. -1.
    9900012    2    1    2    0    0  0.59378317702E+01  0.30966797518E+02  0.47461262257E+01  0.59301857103E+02  0.49999841470E+02 0.  0.
         12    1    1    2    0    0 -0.59378317702E+01 -0.30966797518E+02 -0.47461262257E+01  0.31886142897E+02  0.00000000000E+00 0. -1.
         11    1    3    3    0    0  0.15447903413E+02  0.21333253122E+02 -0.15292557284E+00  0.26339491170E+02  0.51100000000E-03 0. -1.
        -11    1    3    3    0    0  0.28290172168E+00  0.18026017272E+02  0.79594410697E+01  0.19707106193E+02  0.51100000000E-03 0.  1.
         12    1    3    3    0    0 -0.97929733650E+01 -0.83924728754E+01 -0.30603892711E+01  0.13255259740E+02  0.00000000000E+00 0. -1.
</event>
<event>
 7    1  0.6230310E-012  0.5930194E+02  0.7816164E-02  0.1266605E+00
        -11   -1    0    0    0    0  0.00000000000E+00  0.00000000000E+00  0.45593999997E+02  0.45594000000E+02  0.51100000000E-03 0. -1.
         11   -1    0    0    0    0 -0.00000000000E+00 -0.00000000000E+00 -0.45593999997E+02  0.45594000000E+02  0.51100000000E-03 0.  1.
    9900012    2    1    2    0    0  0.36223091946E+01  0.29368179361E+02 -0.11878960466E+02  0.59301940591E+02  0.49999993732E+02 0.  0.
         12    1    1    2    0    0 -0.36223091946E+01 -0.29368179361E+02  0.11878960466E+02  0.31886059409E+02  0.00000000000E+00 0. -1.
         11    1    3    3    0    0 -0.53980560503E+01  0.22945112205E+02 -0.40337664254E+01  0.23914189409E+02  0.51100000000E-03 0. -1.
        -11    1    3    3    0    0  0.75317400376E+01  0.11889334017E+02 -0.18544849384E+02  0.23280781995E+02  0.51100000000E-03 0.  1.
         12    1    3    3    0    0  0.14886252072E+01 -0.54662668615E+01  0.10699655344E+02  0.12106969187E+02  0.00000000000E+00 0. -1.
</event>
<event>
 7    1  0.6230310E-012  0.5930194E+02  0.7816164E-02  0.1266605E+00
        -11   -1    0    0    0    0  0.00000000000E+00  0.00000000000E+00  0.45593999997E+02  0.45594000000E+02  0.51100000000E-03 0.  1.
         11   -1    0    0    0    0 -0.00000000000E+00 -0.00000000000E+00 -0.45593999997E+02  0.45594000000E+02  0.51100000000E-03 0. -1.
    9900012    2    1    2    0    0 -0.29097920633E+02 -0.11839366250E+02  0.54645535254E+01  0.59301938412E+02  0.49999989759E+02 0.  0.
         12    1    1    2    0    0  0.29097920633E+02  0.11839366250E+02 -0.54645535254E+01  0.31886061588E+02  0.00000000000E+00 0. -1.
         11    1    3    3    0    0 -0.10601020917E+02  0.43642982467E+00 -0.11364396449E+02  0.15547399217E+02  0.51100000000E-03 0. -1.
        -11    1    3    3    0    0 -0.84053103868E+01 -0.14409490524E+02 -0.67674113914E+01  0.18002236446E+02  0.51100000000E-03 0.  1.
        -12    1    3    3    0    0 -0.10091589329E+02  0.21336944495E+01  0.23596361366E+02  0.25752302750E+02  0.00000000000E+00 0.  1.
</event>
<event>
 7    1  0.6230310E-012  0.5930179E+02  0.7816164E-02  0.1266605E+00
        -11   -1    0    0    0    0  0.00000000000E+00  0.00000000000E+00  0.45593999997E+02  0.45594000000E+02  0.51100000000E-03 0. -1.
         11   -1    0    0    0    0 -0.00000000000E+00 -0.00000000000E+00 -0.45593999997E+02  0.45594000000E+02  0.51100000000E-03 0.  1.
    9900012    2    1    2    0    0  0.50104599862E+01  0.29752896297E+02 -0.10314586741E+02  0.59301792214E+02  0.49999723128E+02 0.  0.
         12    1    1    2    0    0 -0.50104599862E+01 -0.29752896297E+02  0.10314586741E+02  0.31886207786E+02  0.00000000000E+00 0. -1.
         11    1    3    3    0    0 -0.46402227025E+01  0.10007867145E+02 -0.35513023389E+01  0.11588823068E+02  0.51100000000E-03 0.  1.
        -11    1    3    3    0    0 -0.97272893870E+00  0.10179237339E+02  0.17083221159E+02  0.19909784525E+02  0.51100000000E-03 0. -1.
        -12    1    3    3    0    0  0.10623411627E+02  0.95657918129E+01 -0.23846505561E+02  0.27803184621E+02  0.00000000000E+00 0.  1.
</event>
<event>
 7    1  0.6230310E-012  0.5930195E+02  0.7816164E-02  0.1266605E+00
        -11   -1    0    0    0    0  0.00000000000E+00  0.00000000000E+00  0.45593999997E+02  0.45594000000E+02  0.51100000000E-03 0.  1.
         11   -1    0    0    0    0 -0.00000000000E+00 -0.00000000000E+00 -0.45593999997E+02  0.45594000000E+02  0.51100000000E-03 0. -1.
    9900012    2    1    2    0    0 -0.11509226319E+02 -0.29684562962E+02 -0.17563328401E+01  0.59301948602E+02  0.50000008342E+02 0.  0.
         12    1    1    2    0    0  0.11509226319E+02  0.29684562962E+02  0.17563328401E+01  0.31886051398E+02  0.00000000000E+00 0. -1.
         11    1    3    3    0    0  0.48766255911E+01 -0.14069744026E+02  0.14957891299E+02  0.21106342329E+02  0.51100000000E-03 0. -1.
        -11    1    3    3    0    0 -0.13464751878E+02 -0.26031927419E+01  0.33374942406E+01  0.14114355234E+02  0.51100000000E-03 0.  1.
         12    1    3    3    0    0 -0.29211000319E+01 -0.13011626194E+02 -0.20051718380E+02  0.24081251039E+02  0.00000000000E+00 0. -1.
</event>
<event>
 7    1  0.6230310E-012  0.5930190E+02  0.7816164E-02  0.1266605E+00
        -11   -1    0    0    0    0  0.00000000000E+00  0.00000000000E+00  0.45593999997E+02  0.45594000000E+02  0.51100000000E-03 0. -1.
         11   -1    0    0    0    0 -0.00000000000E+00 -0.00000000000E+00 -0.45593999997E+02  0.45594000000E+02  0.51100000000E-03 0.  1.
    9900012    2    1    2    0    0  0.39747159433E+01 -0.48219980799E+01 -0.31267766472E+02  0.59301901893E+02  0.49999923157E+02 0.  0.
         12    1    1    2    0    0 -0.39747159433E+01  0.48219980799E+01  0.31267766472E+02  0.31886098107E+02  0.00000000000E+00 0. -1.
         11    1    3    3    0    0  0.50890033419E+01 -0.39538119724E+01 -0.79369584482E+01  0.10223790579E+02  0.51100000000E-03 0. -1.
        -11    1    3    3    0    0  0.15850476363E+02  0.12545550223E+02 -0.17349989182E+02  0.26639267186E+02  0.51100000000E-03 0.  1.
         12    1    3    3    0    0 -0.16964763761E+02 -0.13413736330E+02 -0.59808188422E+01  0.22438844129E+02  0.00000000000E+00 0. -1.
</event>
<event>
 7    1  0.6230310E-012  0.5930193E+02  0.7816164E-02  0.1266605E+00
        -11   -1    0    0    0    0  0.00000000000E+00  0.00000000000E+00  0.45593999997E+02  0.45594000000E+02  0.51100000000E-03 0.  1.
         11   -1    0    0    0    0 -0.00000000000E+00 -0.00000000000E+00 -0.45593999997E+02  0.45594000000E+02  0.51100000000E-03 0. -1.
    9900012    2    1    2    0    0 -0.16667611626E+02  0.12571011618E+02  0.24101494823E+02  0.59301926815E+02  0.49999968608E+02 0.  0.
         12    1    1    2    0    0  0.16667611626E+02 -0.12571011618E+02 -0.24101494823E+02  0.31886073185E+02  0.00000000000E+00 0. -1.
         11    1    3    3    0    0 -0.13415517485E+02  0.74454335542E+01 -0.48426499120E+01  0.16089184213E+02  0.51100000000E-03 0. -1.
        -11    1    3    3    0    0 -0.16146804205E+02  0.80155666534E+01  0.11713632818E+02  0.21498320606E+02  0.51100000000E-03 0.  1.
         12    1    3    3    0    0  0.12894710064E+02 -0.28899885897E+01  0.17230511918E+02  0.21714421996E+02  0.00000000000E+00 0. -1.
</event>
<event>
 7    1  0.6230310E-012  0.5930195E+02  0.7816164E-02  0.1266605E+00
        -11   -1    0    0    0    0  0.00000000000E+00  0.00000000000E+00  0.45593999997E+02  0.45594000000E+02  0.51100000000E-03 0.  1.
         11   -1    0    0    0    0 -0.00000000000E+00 -0.00000000000E+00 -0.45593999997E+02  0.45594000000E+02  0.51100000000E-03 0. -1.
    9900012    2    1    2    0    0  0.48155425288E+01 -0.61467303339E+01  0.30915185601E+02  0.59301945927E+02  0.50000003463E+02 0.  0.
         12    1    1    2    0    0 -0.48155425288E+01  0.61467303339E+01 -0.30915185601E+02  0.31886054073E+02  0.00000000000E+00 0. -1.
         11    1    3    3    0    0 -0.13091502286E+02  0.46515033045E+00  0.15348592678E+02  0.20178778317E+02  0.51100000000E-03 0. -1.
        -11    1    3    3    0    0 -0.34400908835E+01 -0.71762625013E+01 -0.50623576072E+01  0.94318838828E+01  0.51100000000E-03 0.  1.
        -12    1    3    3    0    0  0.21347135698E+02  0.56438183693E+00  0.20628950530E+02  0.29691283727E+02  0.00000000000E+00 0.  1.
</event>
<event>
 7    1  0.6230310E-012  0.5930195E+02  0.7816164E-02  0.1266605E+00
        -11   -1    0    0    0    0  0.00000000000E+00  0.00000000000E+00  0.45593999997E+02  0.45594000000E+02  0.51100000000E-03 0.  1.
         11   -1    0    0    0    0 -0.00000000000E+00 -0.00000000000E+00 -0.45593999997E+02  0.45594000000E+02  0.51100000000E-03 0. -1.
    9900012    2    1    2    0    0 -0.96744794585E+00 -0.31636891237E+01  0.31713959133E+02  0.59301951511E+02  0.50000013647E+02 0.  0.
         12    1    1    2    0    0  0.96744794585E+00  0.31636891237E+01 -0.31713959133E+02  0.31886048489E+02  0.00000000000E+00 0. -1.
         11    1    3    3    0    0  0.18056616176E+02 -0.34509144841E+01  0.13171905297E+02  0.22615244591E+02  0.51100000000E-03 0. -1.
        -11    1    3    3    0    0 -0.33856977215E+00 -0.47441853536E+01  0.16565733868E+02  0.17235006905E+02  0.51100000000E-03 0.  1.
         12    1    3    3    0    0 -0.18685494349E+02  0.50314107140E+01  0.19763199675E+01  0.19451700015E+02  0.00000000000E+00 0. -1.
</event>
<event>
 7    1  0.6230310E-012  0.5930201E+02  0.7816164E-02  0.1266605E+00
        -11   -1    0    0    0    0  0.00000000000E+00  0.00000000000E+00  0.45593999997E+02  0.45594000000E+02  0.51100000000E-03 0. -1.
         11   -1    0    0    0    0 -0.00000000000E+00 -0.00000000000E+00 -0.45593999997E+02  0.45594000000E+02  0.51100000000E-03 0.  1.
    9900012    2    1    2    0    0  0.27867104971E+01  0.13771745224E+02 -0.28623235378E+02  0.59302010515E+02  0.50000121257E+02 0.  0.
         12    1    1    2    0    0 -0.27867104971E+01 -0.13771745224E+02  0.28623235378E+02  0.31885989485E+02  0.00000000000E+00 0. -1.
         11    1    3    3    0    0 -0.21956967002E+02  0.10837132027E+02 -0.22350982911E+02  0.33152952626E+02  0.51100000000E-03 0.  1.
        -11    1    3    3    0    0  0.98283981495E+01 -0.96464604757E+00 -0.13600368713E+01  0.99688340709E+01  0.51100000000E-03 0. -1.
        -12    1    3    3    0    0  0.14915279350E+02  0.38992592451E+01 -0.49122155958E+01  0.16180223818E+02  0.00000000000E+00 0.  1.
</event>
<event>
 7    1  0.6230310E-012  0.5930194E+02  0.7816164E-02  0.1266605E+00
        -11   -1    0    0    0    0  0.00000000000E+00  0.00000000000E+00  0.45593999997E+02  0.45594000000E+02  0.51100000000E-03 0.  1.
         11   -1    0    0    0    0 -0.00000000000E+00 -0.00000000000E+00 -0.45593999997E+02  0.45594000000E+02  0.51100000000E-03 0. -1.
    9900012    2    1    2    0    0  0.30719352048E+01  0.30769191399E+02  0.77808206500E+01  0.59301935721E+02  0.49999984850E+02 0.  0.
         12    1    1    2    0    0 -0.30719352048E+01 -0.30769191399E+02 -0.77808206500E+01  0.31886064279E+02  0.00000000000E+00 0. -1.
         11    1    3    3    0    0 -0.63032700189E+01  0.12833402785E+02 -0.48855988433E+01  0.15109484315E+02  0.51100000000E-03 0. -1.
        -11    1    3    3    0    0  0.12972329741E+02  0.19526648551E+02 -0.67390925505E+01  0.24392349440E+02  0.51100000000E-03 0.  1.
        -12    1    3    3    0    0 -0.35971245174E+01 -0.15908599367E+01  0.19405512044E+02  0.19800101965E+02  0.00000000000E+00 0.  1.
</event>
<event>
 7    1  0.6230310E-012  0.5930199E+02  0.7816164E-02  0.1266605E+00
        -11   -1    0    0    0    0  0.00000000000E+00  0.00000000000E+00  0.45593999997E+02  0.45594000000E+02  0.51100000000E-03 0. -1.
         11   -1    0    0    0    0 -0.00000000000E+00 -0.00000000000E+00 -0.45593999997E+02  0.45594000000E+02  0.51100000000E-03 0.  1.
    9900012    2    1    2    0    0 -0.31041857239E+02 -0.36083568491E+01  0.63324996239E+01  0.59301989094E+02  0.50000082190E+02 0.  0.
         12    1    1    2    0    0  0.31041857239E+02  0.36083568491E+01 -0.63324996239E+01  0.31886010906E+02  0.00000000000E+00 0. -1.
         11    1    3    3    0    0 -0.25485574890E+02 -0.11598924436E+02 -0.12932729588E+02  0.30843233787E+02  0.51100000000E-03 0. -1.
        -11    1    3    3    0    0 -0.10725727745E+02  0.33760716669E+01  0.44313372784E+01  0.12086184092E+02  0.51100000000E-03 0.  1.
         12    1    3    3    0    0  0.51694453966E+01  0.46144959201E+01  0.14833891934E+02  0.16372571215E+02  0.00000000000E+00 0. -1.
</event>
<event>
 7    1  0.6230310E-012  0.5930194E+02  0.7816164E-02  0.1266605E+00
        -11   -1    0    0    0    0  0.00000000000E+00  0.00000000000E+00  0.45593999997E+02  0.45594000000E+02  0.51100000000E-03 0. -1.
         11   -1    0    0    0    0 -0.00000000000E+00 -0.00000000000E+00 -0.45593999997E+02  0.45594000000E+02  0.51100000000E-03 0.  1.
    9900012    2    1    2    0    0 -0.27156378448E+02  0.74648128122E+01 -0.14950863939E+02  0.59301942651E+02  0.49999997489E+02 0.  0.
         12    1    1    2    0    0  0.27156378448E+02 -0.74648128122E+01  0.14950863939E+02  0.31886057349E+02  0.00000000000E+00 0. -1.
         11    1    3    3    0    0  0.48652747287E+01  0.10137775475E+01  0.12527491651E+01  0.51252340272E+01  0.51100000000E-03 0. -1.
        -11    1    3    3    0    0 -0.87303430533E+00  0.14432411631E+02 -0.16606959613E+02  0.22019259802E+02  0.51100000000E-03 0.  1.
         12    1    3    3    0    0 -0.31148618872E+02 -0.79813763663E+01  0.40334650953E+00  0.32157448822E+02  0.00000000000E+00 0. -1.
</event>
<event>
 7    1  0.6230310E-012  0.5930193E+02  0.7816164E-02  0.1266605E+00
        -11   -1    0    0    0    0  0.00000000000E+00  0.00000000000E+00  0.45593999997E+02  0.45594000000E+02  0.51100000000E-03 0.  1.
         11   -1    0    0    0    0 -0.00000000000E+00 -0.00000000000E+00 -0.45593999997E+02  0.45594000000E+02  0.51100000000E-03 0. -1.
    9900012    2    1    2    0    0 -0.28277502564E+02 -0.14669580184E+02  0.13811100788E+01  0.59301934092E+02  0.49999981880E+02 0.  0.
         12    1    1    2    0    0  0.28277502564E+02  0.14669580184E+02 -0.13811100788E+01  0.31886065908E+02  0.00000000000E+00 0. -1.
         11    1    3    3    0    0 -0.12137786608E+02 -0.14333699371E+02  0.10268408897E+02  0.21406097798E+02  0.51100000000E-03 0. -1.
        -11    1    3    3    0    0 -0.19853441658E+02 -0.11515308505E+02  0.30549688323E+00  0.22953317935E+02  0.51100000000E-03 0.  1.
         12    1    3    3    0    0  0.37137257027E+01  0.11179427692E+02 -0.91927957010E+01  0.14942518359E+02  0.00000000000E+00 0. -1.
</event>
<event>
 7    1  0.6230310E-012  0.5930195E+02  0.7816164E-02  0.1266605E+00
        -11   -1    0    0    0    0  0.00000000000E+00  0.00000000000E+00  0.45593999997E+02  0.45594000000E+02  0.51100000000E-03 0.  1.
         11   -1    0    0    0    0 -0.00000000000E+00 -0.00000000000E+00 -0.45593999997E+02  0.45594000000E+02  0.51100000000E-03 0. -1.
    9900012    2    1    2    0    0  0.29717880489E+01  0.31571469581E+02  0.33363384210E+01  0.59301947096E+02  0.50000005596E+02 0.  0.
         12    1    1    2    0    0 -0.29717880489E+01 -0.31571469581E+02 -0.33363384210E+01  0.31886052904E+02  0.00000000000E+00 0. -1.
         11    1    3    3    0    0 -0.87096110350E+01  0.16737560649E+02 -0.12679857494E+02  0.22732840720E+02  0.51100000000E-03 0. -1.
        -11    1    3    3    0    0 -0.80023248738E+01  0.57763994638E+01  0.43137518419E+00  0.98787691016E+01  0.51100000000E-03 0.  1.
        -12    1    3    3    0    0  0.19683723958E+02  0.90575094681E+01  0.15584820731E+02  0.26690337274E+02  0.00000000000E+00 0.  1.
</event>
<event>
 7    1  0.6230310E-012  0.5930197E+02  0.7816164E-02  0.1266605E+00
        -11   -1    0    0    0    0  0.00000000000E+00  0.00000000000E+00  0.45593999997E+02  0.45594000000E+02  0.51100000000E-03 0. -1.
         11   -1    0    0    0    0 -0.00000000000E+00 -0.00000000000E+00 -0.45593999997E+02  0.45594000000E+02  0.51100000000E-03 0.  1.
    9900012    2    1    2    0    0 -0.78102816184E+01 -0.22200602403E+02 -0.21513990395E+02  0.59301968125E+02  0.50000043947E+02 0.  0.
         12    1    1    2    0    0  0.78102816184E+01  0.22200602403E+02  0.21513990395E+02  0.31886031875E+02  0.00000000000E+00 0. -1.
         11    1    3    3    0    0 -0.14933420999E+02 -0.60104364933E+01  0.53530603561E+01  0.16964305616E+02  0.51100000000E-03 0. -1.
        -11    1    3    3    0    0  0.10669167168E+02 -0.70237369602E+01  0.97604034333E+00  0.12810802627E+02  0.51100000000E-03 0.  1.
         12    1    3    3    0    0 -0.35460277873E+01 -0.91664289499E+01 -0.27843091095E+02  0.29526859882E+02  0.00000000000E+00 0. -1.
</event>
<event>
 7    1  0.6230310E-012  0.5930194E+02  0.7816164E-02  0.1266605E+00
        -11   -1    0    0    0    0  0.00000000000E+00  0.00000000000E+00  0.45593999997E+02  0.45594000000E+02  0.51100000000E-03 0. -1.
         11   -1    0    0    0    0 -0.00000000000E+00 -0.00000000000E+00 -0.45593999997E+02  0.45594000000E+02  0.51100000000E-03 0.  1.
    9900012    2    1    2    0    0 -0.87355571884E+01 -0.29255870209E+02 -0.91926639507E+01  0.59301937659E+02  0.49999988386E+02 0.  0.
         12    1    1    2    0    0  0.87355571884E+01  0.29255870209E+02  0.91926639507E+01  0.31886062341E+02  0.00000000000E+00 0. -1.
         11    1    3    3    0    0 -0.69846823314E+01 -0.12051357900E+02  0.86702254443E+01  0.16407127232E+02  0.51100000000E-03 0. -1.
        -11    1    3    3    0    0  0.57701283058E+01 -0.25559566256E+02 -0.66856280086E+01  0.27042252680E+02  0.51100000000E-03 0.  1.
        -12    1    3    3    0    0 -0.75210031628E+01  0.83550539469E+01 -0.11177261386E+02  0.15852557747E+02  0.00000000000E+00 0.  1.
</event>
<event>
 7    1  0.6230310E-012  0.5930195E+02  0.7816164E-02  0.1266605E+00
        -11   -1    0    0    0    0  0.00000000000E+00  0.00000000000E+00  0.45593999997E+02  0.45594000000E+02  0.51100000000E-03 0.  1.
         11   -1    0    0    0    0 -0.00000000000E+00 -0.00000000000E+00 -0.45593999997E+02  0.45594000000E+02  0.51100000000E-03 0. -1.
    9900012    2    1    2    0    0 -0.26776669718E+01 -0.17045417830E+02  0.26814255368E+02  0.59301945676E+02  0.50000003006E+02 0.  0.
         12    1    1    2    0    0  0.26776669718E+01  0.17045417830E+02 -0.26814255368E+02  0.31886054324E+02  0.00000000000E+00 0. -1.
         11    1    3    3    0    0 -0.14314084423E+02 -0.55250351115E+01  0.20178288020E+02  0.25349207750E+02  0.51100000000E-03 0. -1.
        -11    1    3    3    0    0  0.82985132425E+01 -0.16589719844E+02  0.14834639049E+02  0.23751855559E+02  0.51100000000E-03 0.  1.
        -12    1    3    3    0    0  0.33379042092E+01  0.50693371255E+01 -0.81986717009E+01  0.10200882367E+02  0.00000000000E+00 0.  1.
</event>
<event>
 7    1  0.6230310E-012  0.5930195E+02  0.7816164E-02  0.1266605E+00
        -11   -1    0    0    0    0  0.00000000000E+00  0.00000000000E+00  0.45593999997E+02  0.45594000000E+02  0.51100000000E-03 0.  1.
         11   -1    0    0    0    0 -0.00000000000E+00 -0.00000000000E+00 -0.45593999997E+02  0.45594000000E+02  0.51100000000E-03 0. -1.
    9900012    2    1    2    0    0 -0.21341499072E+02  0.23637511241E+02 -0.15901388999E+01  0.59301951923E+02  0.50000014398E+02 0.  0.
         12    1    1    2    0    0  0.21341499072E+02 -0.23637511241E+02  0.15901388999E+01  0.31886048077E+02  0.00000000000E+00 0. -1.
         11    1    3    3    0    0  0.36013577834E+01  0.14016829207E+02  0.98408758449E+01  0.17500974732E+02  0.51100000000E-03 0. -1.
        -11    1    3    3    0    0  0.57512577536E+01  0.73330887295E+01 -0.39737761537E+01  0.10131241446E+02  0.51100000000E-03 0.  1.
        -12    1    3    3    0    0 -0.30694114609E+02  0.22875933043E+01 -0.74572385912E+01  0.31669735745E+02  0.00000000000E+00 0.  1.
</event>
<event>
 7    1  0.6230310E-012  0.5930193E+02  0.7816164E-02  0.1266605E+00
        -11   -1    0    0    0    0  0.00000000000E+00  0.00000000000E+00  0.45593999997E+02  0.45594000000E+02  0.51100000000E-03 0.  1.
         11   -1    0    0    0    0 -0.00000000000E+00 -0.00000000000E+00 -0.45593999997E+02  0.45594000000E+02  0.51100000000E-03 0. -1.
    9900012    2    1    2    0    0  0.10324345351E+02 -0.10446973000E+02  0.28301769899E+02  0.59301928884E+02  0.49999972381E+02 0.  0.
         12    1    1    2    0    0 -0.10324345351E+02  0.10446973000E+02 -0.28301769899E+02  0.31886071116E+02  0.00000000000E+00 0. -1.
         11    1    3    3    0    0  0.13642391957E+02  0.12185660986E+02  0.48760836608E+01  0.18930963634E+02  0.51100000000E-03 0. -1.
        -11    1    3    3    0    0 -0.48673611488E+01  0.47362603640E+00  0.14918662165E+02  0.15699745451E+02  0.51100000000E-03 0.  1.
         12    1    3    3    0    0  0.15493145433E+01 -0.23106260022E+02  0.85070240738E+01  0.24671219799E+02  0.00000000000E+00 0. -1.
</event>
<event>
 7    1  0.6230310E-012  0.5930197E+02  0.7816164E-02  0.1266605E+00
        -11   -1    0    0    0    0  0.00000000000E+00  0.00000000000E+00  0.45593999997E+02  0.45594000000E+02  0.51100000000E-03 0. -1.
         11   -1    0    0    0    0 -0.00000000000E+00 -0.00000000000E+00 -0.45593999997E+02  0.45594000000E+02  0.51100000000E-03 0.  1.
    9900012    2    1    2    0    0 -0.24780124395E+02  0.19858372059E+02  0.28825550229E+01  0.59301974389E+02  0.50000055371E+02 0.  0.
         12    1    1    2    0    0  0.24780124395E+02 -0.19858372059E+02 -0.28825550229E+01  0.31886025611E+02  0.00000000000E+00 0. -1.
         11    1    3    3    0    0 -0.75039671600E+01 -0.91760459522E+01  0.11309723710E+02  0.16383503688E+02  0.51100000000E-03 0. -1.
        -11    1    3    3    0    0 -0.10026020638E+02  0.51204780919E-01 -0.83409958063E+01  0.13042082773E+02  0.51100000000E-03 0.  1.
        -12    1    3    3    0    0 -0.72501365967E+01  0.28983213230E+02 -0.86172880392E-01  0.29876387927E+02  0.00000000000E+00 0.  1.
</event>
<event>
 7    1  0.6230310E-012  0.5930192E+02  0.7816164E-02  0.1266605E+00
        -11   -1    0    0    0    0  0.00000000000E+00  0.00000000000E+00  0.45593999997E+02  0.45594000000E+02  0.51100000000E-03 0.  1.
         11   -1    0    0    0    0 -0.00000000000E+00 -0.00000000000E+00 -0.45593999997E+02  0.45594000000E+02  0.51100000000E-03 0. -1.
    9900012    2    1    2    0    0 -0.25636143862E+01 -0.17107296056E+02  0.26786015057E+02  0.59301916834E+02  0.49999950404E+02 0.  0.
         12    1    1    2    0    0  0.25636143862E+01  0.17107296056E+02 -0.26786015057E+02  0.31886083166E+02  0.00000000000E+00 0. -1.
         11    1    3    3    0    0  0.22719740420E+01  0.31657323793E+01 -0.46963761159E+00  0.39248295877E+01  0.51100000000E-03 0. -1.
        -11    1    3    3    0    0 -0.16185017355E+02 -0.15744744874E+02 -0.29704514627E+01  0.22774445330E+02  0.51100000000E-03 0.  1.
        -12    1    3    3    0    0  0.11349428926E+02 -0.45282835612E+01  0.30226104131E+02  0.32602641916E+02  0.00000000000E+00 0.  1.
</event>
<event>
 7    1  0.6230310E-012  0.5930195E+02  0.7816164E-02  0.1266605E+00
        -11   -1    0    0    0    0  0.00000000000E+00  0.00000000000E+00  0.45593999997E+02  0.45594000000E+02  0.51100000000E-03 0.  1.
         11   -1    0    0    0    0 -0.00000000000E+00 -0.00000000000E+00 -0.45593999997E+02  0.45594000000E+02  0.51100000000E-03 0. -1.
    9900012    2    1    2    0    0 -0.18547357065E+02 -0.53844191399E+01  0.25371716357E+02  0.59301946395E+02  0.50000004318E+02 0.  0.
         12    1    1    2    0    0  0.18547357065E+02  0.53844191399E+01 -0.25371716357E+02  0.31886053605E+02  0.00000000000E+00 0. -1.
         11    1    3    3    0    0  0.42947086394E+01  0.14629492473E+02 -0.12949915293E+01  0.15301750738E+02  0.51100000000E-03 0. -1.
        -11    1    3    3    0    0 -0.83709228137E+01  0.20441680182E+01  0.66596746778E+01  0.10890465496E+02  0.51100000000E-03 0.  1.
        -12    1    3    3    0    0 -0.14471142891E+02 -0.22058079631E+02  0.20007033209E+02  0.33109730162E+02  0.00000000000E+00 0.  1.
</event>
<event>
 7    1  0.6230310E-012  0.5930196E+02  0.7816164E-02  0.1266605E+00
        -11   -1    0    0    0    0  0.00000000000E+00  0.00000000000E+00  0.45593999997E+02  0.45594000000E+02  0.51100000000E-03 0.  1.
         11   -1    0    0    0    0 -0.00000000000E+00 -0.00000000000E+00 -0.45593999997E+02  0.45594000000E+02  0.51100000000E-03 0. -1.
    9900012    2    1    2    0    0 -0.15126040754E+02 -0.26880406285E+02  0.80849436960E+01  0.59301958139E+02  0.50000025736E+02 0.  0.
         12    1    1    2    0    0  0.15126040754E+02  0.26880406285E+02 -0.80849436960E+01  0.31886041861E+02  0.00000000000E+00 0. -1.
         11    1    3    3    0    0  0.13138541897E+02 -0.44157922670E+01  0.14759786414E+02  0.20247760364E+02  0.51100000000E-03 0.  1.
        -11    1    3    3    0    0 -0.14820875491E+02 -0.10153201104E+02  0.33130946147E+01  0.18268071577E+02  0.51100000000E-03 0. -1.
        -12    1    3    3    0    0 -0.13443707160E+02 -0.12311412915E+02 -0.99879373325E+01  0.20786126198E+02  0.00000000000E+00 0.  1.
</event>
<event>
 7    1  0.6230310E-012  0.5930198E+02  0.7816164E-02  0.1266605E+00
        -11   -1    0    0    0    0  0.00000000000E+00  0.00000000000E+00  0.45593999997E+02  0.45594000000E+02  0.51100000000E-03 0.  1.
         11   -1    0    0    0    0 -0.00000000000E+00 -0.00000000000E+00 -0.45593999997E+02  0.45594000000E+02  0.51100000000E-03 0. -1.
    9900012    2    1    2    0    0 -0.29887277471E+02  0.95991323668E+01 -0.55969381928E+01  0.59301977766E+02  0.50000061530E+02 0.  0.
         12    1    1    2    0    0  0.29887277471E+02 -0.95991323668E+01  0.55969381928E+01  0.31886022234E+02  0.00000000000E+00 0. -1.
         11    1    3    3    0    0 -0.17640822327E+02  0.18517493851E+02  0.26840295262E+01  0.25715757925E+02  0.51100000000E-03 0. -1.
        -11    1    3    3    0    0 -0.88193689963E+01 -0.17443017427E+02  0.21757083248E+01  0.19666566386E+02  0.51100000000E-03 0.  1.
         12    1    3    3    0    0 -0.34270861478E+01  0.85246559426E+01 -0.10456676044E+02  0.13919653454E+02  0.00000000000E+00 0. -1.
</event>
<event>
 7    1  0.6230310E-012  0.5930206E+02  0.7816164E-02  0.1266604E+00
        -11   -1    0    0    0    0  0.00000000000E+00  0.00000000000E+00  0.45593999997E+02  0.45594000000E+02  0.51100000000E-03 0.  1.
         11   -1    0    0    0    0 -0.00000000000E+00 -0.00000000000E+00 -0.45593999997E+02  0.45594000000E+02  0.51100000000E-03 0. -1.
    9900012    2    1    2    0    0  0.21810206793E+01  0.31105269132E+02  0.66647395694E+01  0.59302056820E+02  0.50000205705E+02 0.  0.
         12    1    1    2    0    0 -0.21810206793E+01 -0.31105269132E+02 -0.66647395694E+01  0.31885943180E+02  0.00000000000E+00 0. -1.
         11    1    3    3    0    0 -0.53460044580E+01  0.88999698805E+01  0.51296283401E+01  0.11580255382E+02  0.51100000000E-03 0. -1.
        -11    1    3    3    0    0 -0.11495610780E+02  0.70532391920E+01 -0.13538239908E+02  0.19109714555E+02  0.51100000000E-03 0.  1.
        -12    1    3    3    0    0  0.19022635918E+02  0.15152060059E+02  0.15073351137E+02  0.28612086883E+02  0.00000000000E+00 0.  1.
</event>
<event>
 7    1  0.6230310E-012  0.5930200E+02  0.7816164E-02  0.1266605E+00
        -11   -1    0    0    0    0  0.00000000000E+00  0.00000000000E+00  0.45593999997E+02  0.45594000000E+02  0.51100000000E-03 0.  1.
         11   -1    0    0    0    0 -0.00000000000E+00 -0.00000000000E+00 -0.45593999997E+02  0.45594000000E+02  0.51100000000E-03 0. -1.
    9900012    2    1    2    0    0  0.10900370292E+02  0.26603581090E+02  0.13789423785E+02  0.59302002954E+02  0.50000107467E+02 0.  0.
         12    1    1    2    0    0 -0.10900370292E+02 -0.26603581090E+02 -0.13789423785E+02  0.31885997046E+02  0.00000000000E+00 0. -1.
         11    1    3    3    0    0  0.48716554273E+01 -0.64053965476E+01  0.45653320547E+00  0.80604314006E+01  0.51100000000E-03 0. -1.
        -11    1    3    3    0    0  0.11087792643E+02  0.13315162798E+01  0.15483575907E+02  0.19090657517E+02  0.51100000000E-03 0.  1.
        -12    1    3    3    0    0 -0.50590777782E+01  0.31677461357E+02 -0.21506853274E+01  0.32150914037E+02  0.00000000000E+00 0.  1.
</event>
<event>
 7    1  0.6230310E-012  0.5930194E+02  0.7816164E-02  0.1266605E+00
        -11   -1    0    0    0    0  0.00000000000E+00  0.00000000000E+00  0.45593999997E+02  0.45594000000E+02  0.51100000000E-03 0. -1.
         11   -1    0    0    0    0 -0.00000000000E+00 -0.00000000000E+00 -0.45593999997E+02  0.45594000000E+02  0.51100000000E-03 0.  1.
    9900012    2    1    2    0    0  0.22811347064E+02 -0.21367927475E+02 -0.63067349522E+01  0.59301940582E+02  0.49999993715E+02 0.  0.
         12    1    1    2    0    0 -0.22811347064E+02  0.21367927475E+02  0.63067349522E+01  0.31886059418E+02  0.00000000000E+00 0. -1.
         11    1    3    3    0    0 -0.88490185248E+01  0.29693292376E+01  0.14808377587E+01  0.94506574217E+01  0.51100000000E-03 0. -1.
        -11    1    3    3    0    0  0.18654080782E+02 -0.13561677705E+02  0.10163875282E+02  0.25203138555E+02  0.51100000000E-03 0.  1.
        -12    1    3    3    0    0  0.13006284807E+02 -0.10775579008E+02 -0.17951447993E+02  0.24648144605E+02  0.00000000000E+00 0.  1.
</event>
<event>
 7    1  0.6230310E-012  0.5930195E+02  0.7816164E-02  0.1266605E+00
        -11   -1    0    0    0    0  0.00000000000E+00  0.00000000000E+00  0.45593999997E+02  0.45594000000E+02  0.51100000000E-03 0.  1.
         11   -1    0    0    0    0 -0.00000000000E+00 -0.00000000000E+00 -0.45593999997E+02  0.45594000000E+02  0.51100000000E-03 0. -1.
    9900012    2    1    2    0    0  0.14039961693E+02 -0.13948346494E+02  0.25000871856E+02  0.59301945245E+02  0.50000002220E+02 0.  0.
         12    1    1    2    0    0 -0.14039961693E+02  0.13948346494E+02 -0.25000871856E+02  0.31886054755E+02  0.00000000000E+00 0. -1.
         11    1    3    3    0    0 -0.43830623644E+01 -0.17068603219E+01  0.11710929000E+02  0.12620240337E+02  0.51100000000E-03 0. -1.
        -11    1    3    3    0    0  0.16904181177E+02 -0.60665678306E+01  0.26504761182E+02  0.32016510617E+02  0.51100000000E-03 0.  1.
         12    1    3    3    0    0  0.15188428811E+01 -0.61749183416E+01 -0.13214818326E+02  0.14665194292E+02  0.00000000000E+00 0. -1.
</event>
<event>
 7    1  0.6230310E-012  0.5930193E+02  0.7816164E-02  0.1266605E+00
        -11   -1    0    0    0    0  0.00000000000E+00  0.00000000000E+00  0.45593999997E+02  0.45594000000E+02  0.51100000000E-03 0.  1.
         11   -1    0    0    0    0 -0.00000000000E+00 -0.00000000000E+00 -0.45593999997E+02  0.45594000000E+02  0.51100000000E-03 0. -1.
    9900012    2    1    2    0    0 -0.16324704977E+02  0.14039070323E+02  0.23518715293E+02  0.59301930045E+02  0.49999974498E+02 0.  0.
         12    1    1    2    0    0  0.16324704977E+02 -0.14039070323E+02 -0.23518715293E+02  0.31886069955E+02  0.00000000000E+00 0. -1.
         11    1    3    3    0    0 -0.11508809005E+02  0.15882305492E+02 -0.98559793174E+01  0.21950868799E+02  0.51100000000E-03 0. -1.
        -11    1    3    3    0    0  0.41139407137E+00 -0.69280875351E+01  0.65152720703E+01  0.95192653281E+01  0.51100000000E-03 0.  1.
        -12    1    3    3    0    0 -0.52272900434E+01  0.50848523663E+01  0.26859422541E+02  0.27831795918E+02  0.00000000000E+00 0.  1.
</event>
<event>
 7    1  0.6230310E-012  0.5930195E+02  0.7816164E-02  0.1266605E+00
        -11   -1    0    0    0    0  0.00000000000E+00  0.00000000000E+00  0.45593999997E+02  0.45594000000E+02  0.51100000000E-03 0.  1.
         11   -1    0    0    0    0 -0.00000000000E+00 -0.00000000000E+00 -0.45593999997E+02  0.45594000000E+02  0.51100000000E-03 0. -1.
    9900012    2    1    2    0    0 -0.53385201086E+01  0.70103995791E+01  0.30644327527E+02  0.59301948052E+02  0.50000007340E+02 0.  0.
         12    1    1    2    0    0  0.53385201086E+01 -0.70103995791E+01 -0.30644327527E+02  0.31886051948E+02  0.00000000000E+00 0. -1.
         11    1    3    3    0    0  0.66462945932E+01 -0.11417946335E+01 -0.85705115199E+01  0.10905530468E+02  0.51100000000E-03 0. -1.
        -11    1    3    3    0    0  0.72524253350E+01 -0.20560662168E+00  0.81233225105E+01  0.10891662692E+02  0.51100000000E-03 0.  1.
         12    1    3    3    0    0 -0.19237240037E+02  0.83578008343E+01  0.31091516537E+02  0.37504754893E+02  0.00000000000E+00 0. -1.
</event>
<event>
 7    1  0.6230310E-012  0.5930203E+02  0.7816164E-02  0.1266604E+00
        -11   -1    0    0    0    0  0.00000000000E+00  0.00000000000E+00  0.45593999997E+02  0.45594000000E+02  0.51100000000E-03 0. -1.
         11   -1    0    0    0    0 -0.00000000000E+00 -0.00000000000E+00 -0.45593999997E+02  0.45594000000E+02  0.51100000000E-03 0.  1.
    9900012    2    1    2    0    0 -0.50362311146E+01 -0.30349640196E+02 -0.83815652754E+01  0.59302032548E+02  0.50000161439E+02 0.  0.
         12    1    1    2    0    0  0.50362311146E+01  0.30349640196E+02  0.83815652754E+01  0.31885967452E+02  0.00000000000E+00 0. -1.
         11    1    3    3    0    0  0.31239920667E+01 -0.26789740310E+02 -0.49378502439E+01  0.27419552834E+02  0.51100000000E-03 0. -1.
        -11    1    3    3    0    0 -0.23550660564E+00 -0.17505377185E+01  0.13222323667E+02  0.13339778450E+02  0.51100000000E-03 0.  1.
        -12    1    3    3    0    0 -0.79247165757E+01 -0.18093621676E+01 -0.16666038699E+02  0.18542701264E+02  0.00000000000E+00 0.  1.
</event>
<event>
 7    1  0.6230310E-012  0.5930200E+02  0.7816164E-02  0.1266605E+00
        -11   -1    0    0    0    0  0.00000000000E+00  0.00000000000E+00  0.45593999997E+02  0.45594000000E+02  0.51100000000E-03 0. -1.
         11   -1    0    0    0    0 -0.00000000000E+00 -0.00000000000E+00 -0.45593999997E+02  0.45594000000E+02  0.51100000000E-03 0.  1.
    9900012    2    1    2    0    0  0.10604846960E+02 -0.24644682490E+02 -0.17230601833E+02  0.59302003173E+02  0.50000107867E+02 0.  0.
         12    1    1    2    0    0 -0.10604846960E+02  0.24644682490E+02  0.17230601833E+02  0.31885996827E+02  0.00000000000E+00 0. -1.
         11    1    3    3    0    0  0.90488844965E+01 -0.49149354061E+01 -0.15780855898E+02  0.18843415662E+02  0.51100000000E-03 0.  1.
        -11    1    3    3    0    0  0.39445640842E+01 -0.24289200675E+02  0.11024485063E+02  0.26964126657E+02  0.51100000000E-03 0. -1.
         12    1    3    3    0    0 -0.23886016204E+01  0.45594535908E+01 -0.12474230998E+02  0.13494460854E+02  0.00000000000E+00 0. -1.
</event>
<event>
 7    1  0.6230310E-012  0.5930193E+02  0.7816164E-02  0.1266605E+00
        -11   -1    0    0    0    0  0.00000000000E+00  0.00000000000E+00  0.45593999997E+02  0.45594000000E+02  0.51100000000E-03 0. -1.
         11   -1    0    0    0    0 -0.00000000000E+00 -0.00000000000E+00 -0.45593999997E+02  0.45594000000E+02  0.51100000000E-03 0.  1.
    9900012    2    1    2    0    0 -0.19522710162E+00  0.20780785647E+02 -0.24183508438E+02  0.59301933355E+02  0.49999980535E+02 0.  0.
         12    1    1    2    0    0  0.19522710162E+00 -0.20780785647E+02  0.24183508438E+02  0.31886066645E+02  0.00000000000E+00 0. -1.
         11    1    3    3    0    0 -0.96929313302E+01 -0.20141992075E+01 -0.26512381821E+01  0.10248852637E+02  0.51100000000E-03 0.  1.
        -11    1    3    3    0    0  0.74713892332E+01 -0.85393317707E+01 -0.11336988377E+02  0.16039611900E+02  0.51100000000E-03 0. -1.
         12    1    3    3    0    0  0.20263149954E+01  0.31334316625E+02 -0.10195281879E+02  0.33013468818E+02  0.00000000000E+00 0. -1.
</event>
<event>
 7    1  0.6230310E-012  0.5930198E+02  0.7816164E-02  0.1266605E+00
        -11   -1    0    0    0    0  0.00000000000E+00  0.00000000000E+00  0.45593999997E+02  0.45594000000E+02  0.51100000000E-03 0. -1.
         11   -1    0    0    0    0 -0.00000000000E+00 -0.00000000000E+00 -0.45593999997E+02  0.45594000000E+02  0.51100000000E-03 0.  1.
    9900012    2    1    2    0    0  0.22476359518E+02 -0.16011100786E+02 -0.15974238170E+02  0.59301978444E+02  0.50000062766E+02 0.  0.
         12    1    1    2    0    0 -0.22476359518E+02  0.16011100786E+02  0.15974238170E+02  0.31886021556E+02  0.00000000000E+00 0. -1.
         11    1    3    3    0    0  0.16525361008E+02 -0.14575483448E+01 -0.15902836054E+02  0.22980691861E+02  0.51100000000E-03 0. -1.
        -11    1    3    3    0    0  0.17820618830E+02 -0.16313545723E+02  0.15658890890E+01  0.24210705038E+02  0.51100000000E-03 0.  1.
         12    1    3    3    0    0 -0.11869620319E+02  0.17599932812E+01 -0.16372912051E+01  0.12110581545E+02  0.00000000000E+00 0. -1.
</event>
<event>
 7    1  0.6230310E-012  0.5930194E+02  0.7816164E-02  0.1266605E+00
        -11   -1    0    0    0    0  0.00000000000E+00  0.00000000000E+00  0.45593999997E+02  0.45594000000E+02  0.51100000000E-03 0.  1.
         11   -1    0    0    0    0 -0.00000000000E+00 -0.00000000000E+00 -0.45593999997E+02  0.45594000000E+02  0.51100000000E-03 0. -1.
    9900012    2    1    2    0    0  0.38535278197E+01  0.17238074460E+01  0.31605371870E+02  0.59301941608E+02  0.49999995586E+02 0.  0.
         12    1    1    2    0    0 -0.38535278197E+01 -0.17238074460E+01 -0.31605371870E+02  0.31886058392E+02  0.00000000000E+00 0. -1.
         11    1    3    3    0    0  0.17620296502E+02  0.24444931778E+01 -0.67628124183E+00  0.17801903053E+02  0.51100000000E-03 0. -1.
        -11    1    3    3    0    0 -0.11197224893E+02 -0.10055678659E+02  0.25734351250E+02  0.29811933066E+02  0.51100000000E-03 0.  1.
         12    1    3    3    0    0 -0.25695437897E+01  0.93349929277E+01  0.65473018620E+01  0.11688105489E+02  0.00000000000E+00 0. -1.
</event>
<event>
 7    1  0.6230310E-012  0.5930195E+02  0.7816164E-02  0.1266605E+00
        -11   -1    0    0    0    0  0.00000000000E+00  0.00000000000E+00  0.45593999997E+02  0.45594000000E+02  0.51100000000E-03 0. -1.
         11   -1    0    0    0    0 -0.00000000000E+00 -0.00000000000E+00 -0.45593999997E+02  0.45594000000E+02  0.51100000000E-03 0.  1.
    9900012    2    1    2    0    0  0.18013783703E+02 -0.25257562118E+02 -0.73674376311E+01  0.59301953135E+02  0.50000016609E+02 0.  0.
         12    1    1    2    0    0 -0.18013783703E+02  0.25257562118E+02  0.73674376311E+01  0.31886046865E+02  0.00000000000E+00 0. -1.
         11    1    3    3    0    0 -0.12114542919E+02  0.61959225879E+00  0.74129284143E+00  0.12153006214E+02  0.51100000000E-03 0. -1.
        -11    1    3    3    0    0 -0.15725861781E+01 -0.10409487751E+02 -0.52392273625E+01  0.11759250237E+02  0.51100000000E-03 0.  1.
        -12    1    3    3    0    0  0.31700912801E+02 -0.15467666626E+02 -0.28695031101E+01  0.35389696683E+02  0.00000000000E+00 0.  1.
</event>
<event>
 7    1  0.6230310E-012  0.5930189E+02  0.7816164E-02  0.1266605E+00
        -11   -1    0    0    0    0  0.00000000000E+00  0.00000000000E+00  0.45593999997E+02  0.45594000000E+02  0.51100000000E-03 0. -1.
         11   -1    0    0    0    0 -0.00000000000E+00 -0.00000000000E+00 -0.45593999997E+02  0.45594000000E+02  0.51100000000E-03 0.  1.
    9900012    2    1    2    0    0 -0.15464375094E+02 -0.25106888672E+02 -0.12133475625E+02  0.59301890381E+02  0.49999902162E+02 0.  0.
         12    1    1    2    0    0  0.15464375094E+02  0.25106888672E+02  0.12133475625E+02  0.31886109619E+02  0.00000000000E+00 0. -1.
         11    1    3    3    0    0 -0.63839824227E+01 -0.91987389358E+01  0.14675906829E+02  0.18459530631E+02  0.51100000000E-03 0. -1.
        -11    1    3    3    0    0 -0.30651073188E+01 -0.14876606054E+02 -0.20320066380E+01  0.15324403473E+02  0.51100000000E-03 0.  1.
        -12    1    3    3    0    0 -0.60152853530E+01 -0.10315436825E+01 -0.24777375817E+02  0.25517956278E+02  0.00000000000E+00 0.  1.
</event>
<event>
 7    1  0.6230310E-012  0.5930194E+02  0.7816164E-02  0.1266605E+00
        -11   -1    0    0    0    0  0.00000000000E+00  0.00000000000E+00  0.45593999997E+02  0.45594000000E+02  0.51100000000E-03 0.  1.
         11   -1    0    0    0    0 -0.00000000000E+00 -0.00000000000E+00 -0.45593999997E+02  0.45594000000E+02  0.51100000000E-03 0. -1.
    9900012    2    1    2    0    0 -0.22480906029E+02  0.21719166611E+02 -0.62934386657E+01  0.59301941849E+02  0.49999996027E+02 0.  0.
         12    1    1    2    0    0  0.22480906029E+02 -0.21719166611E+02  0.62934386657E+01  0.31886058151E+02  0.00000000000E+00 0. -1.
         11    1    3    3    0    0 -0.57556578635E+01 -0.12303012273E+02 -0.81414132027E+01  0.15835855444E+02  0.51100000000E-03 0. -1.
        -11    1    3    3    0    0 -0.78248391886E+01  0.11497716361E+02  0.10838204461E+02  0.17632137308E+02  0.51100000000E-03 0.  1.
        -12    1    3    3    0    0 -0.89004089771E+01  0.22524462523E+02 -0.89902299243E+01  0.25833949098E+02  0.00000000000E+00 0.  1.
</event>
<event>
 7    1  0.6230310E-012  0.5930194E+02  0.7816164E-02  0.1266605E+00
        -11   -1    0    0    0    0  0.00000000000E+00  0.00000000000E+00  0.45593999997E+02  0.45594000000E+02  0.51100000000E-03 0. -1.
         11   -1    0    0    0    0 -0.00000000000E+00 -0.00000000000E+00 -0.45593999997E+02  0.45594000000E+02  0.51100000000E-03 0.  1.
    9900012    2    1    2    0    0 -0.21906458731E+02 -0.13429864595E+01 -0.23130593732E+02  0.59301938576E+02  0.49999990057E+02 0.  0.
         12    1    1    2    0    0  0.21906458731E+02  0.13429864595E+01  0.23130593732E+02  0.31886061424E+02  0.00000000000E+00 0. -1.
         11    1    3    3    0    0 -0.88346363149E+01 -0.13284165590E+02 -0.22108971824E+02  0.27264014554E+02  0.51100000000E-03 0. -1.
        -11    1    3    3    0    0 -0.12036908677E+02 -0.61619124355E+01 -0.28297504430E+01  0.13815347379E+02  0.51100000000E-03 0.  1.
         12    1    3    3    0    0 -0.10349137386E+01  0.18103091566E+02  0.18081285356E+01  0.18222576643E+02  0.00000000000E+00 0. -1.
</event>
<event>
 7    1  0.6230310E-012  0.5930197E+02  0.7816164E-02  0.1266605E+00
        -11   -1    0    0    0    0  0.00000000000E+00  0.00000000000E+00  0.45593999997E+02  0.45594000000E+02  0.51100000000E-03 0. -1.
         11   -1    0    0    0    0 -0.00000000000E+00 -0.00000000000E+00 -0.45593999997E+02  0.45594000000E+02  0.51100000000E-03 0.  1.
    9900012    2    1    2    0    0  0.15277989801E+02 -0.14155828809E+02 -0.24143615000E+02  0.59301974740E+02  0.50000056011E+02 0.  0.
         12    1    1    2    0    0 -0.15277989801E+02  0.14155828809E+02  0.24143615000E+02  0.31886025260E+02  0.00000000000E+00 0. -1.
         11    1    3    3    0    0  0.13115414262E+01 -0.27786486871E+01  0.19842908258E+01  0.36576549565E+01  0.51100000000E-03 0. -1.
        -11    1    3    3    0    0 -0.14112201352E+02  0.48032647270E+01 -0.15582210445E+02  0.21564574229E+02  0.51100000000E-03 0.  1.
         12    1    3    3    0    0  0.28078649727E+02 -0.16180444849E+02 -0.10545695381E+02  0.34079745554E+02  0.00000000000E+00 0. -1.
</event>
<event>
 7    1  0.6230310E-012  0.5930202E+02  0.7816164E-02  0.1266604E+00
        -11   -1    0    0    0    0  0.00000000000E+00  0.00000000000E+00  0.45593999997E+02  0.45594000000E+02  0.51100000000E-03 0. -1.
         11   -1    0    0    0    0 -0.00000000000E+00 -0.00000000000E+00 -0.45593999997E+02  0.45594000000E+02  0.51100000000E-03 0.  1.
    9900012    2    1    2    0    0  0.35554260638E+00 -0.78226702414E+01 -0.30909465509E+02  0.59302021290E+02  0.50000140907E+02 0.  0.
         12    1    1    2    0    0 -0.35554260638E+00  0.78226702414E+01  0.30909465509E+02  0.31885978710E+02  0.00000000000E+00 0. -1.
         11    1    3    3    0    0  0.47308939780E+01  0.42150937648E+01 -0.17825401196E+02  0.18918068118E+02  0.51100000000E-03 0.  1.
        -11    1    3    3    0    0  0.26087143302E+01  0.10967957165E+02  0.27389568850E+01  0.11601868811E+02  0.51100000000E-03 0. -1.
         12    1    3    3    0    0 -0.69840657018E+01 -0.23005721171E+02 -0.15823021198E+02  0.28782084361E+02  0.00000000000E+00 0. -1.
</event>
<event>
 7    1  0.6230310E-012  0.5930182E+02  0.7816164E-02  0.1266605E+00
        -11   -1    0    0    0    0  0.00000000000E+00  0.00000000000E+00  0.45593999997E+02  0.45594000000E+02  0.51100000000E-03 0.  1.
         11   -1    0    0    0    0 -0.00000000000E+00 -0.00000000000E+00 -0.45593999997E+02  0.45594000000E+02  0.51100000000E-03 0. -1.
    9900012    2    1    2    0    0  0.15198779784E+02 -0.27682744094E+02  0.44035189645E+01  0.59301824206E+02  0.49999781474E+02 0.  0.
         12    1    1    2    0    0 -0.15198779784E+02  0.27682744094E+02 -0.44035189645E+01  0.31886175794E+02  0.00000000000E+00 0. -1.
         11    1    3    3    0    0  0.78258489449E+00  0.61655942347E+01 -0.99394732504E+01  0.11722632816E+02  0.51100000000E-03 0. -1.
        -11    1    3    3    0    0 -0.47794137380E+01  0.15992074317E+01  0.12170923108E+01  0.51847443565E+01  0.51100000000E-03 0.  1.
        -12    1    3    3    0    0  0.19195608627E+02 -0.35447545760E+02  0.13125899904E+02  0.42394447034E+02  0.00000000000E+00 0.  1.
</event>
<event>
 7    1  0.6230310E-012  0.5930203E+02  0.7816164E-02  0.1266604E+00
        -11   -1    0    0    0    0  0.00000000000E+00  0.00000000000E+00  0.45593999997E+02  0.45594000000E+02  0.51100000000E-03 0.  1.
         11   -1    0    0    0    0 -0.00000000000E+00 -0.00000000000E+00 -0.45593999997E+02  0.45594000000E+02  0.51100000000E-03 0. -1.
    9900012    2    1    2    0    0  0.43102834359E+01  0.18300093963E+02  0.25753504269E+02  0.59302031856E+02  0.50000160177E+02 0.  0.
         12    1    1    2    0    0 -0.43102834359E+01 -0.18300093963E+02 -0.25753504269E+02  0.31885968144E+02  0.00000000000E+00 0. -1.
         11    1    3    3    0    0  0.15369800685E+02  0.11101540570E+02  0.35790417325E+01  0.19294675849E+02  0.51100000000E-03 0. -1.
        -11    1    3    3    0    0  0.50626102112E+01  0.16309327302E+01  0.22325432263E+02  0.22950269927E+02  0.51100000000E-03 0.  1.
        -12    1    3    3    0    0 -0.16122127460E+02  0.55676206632E+01 -0.15096972574E+00  0.17057086080E+02  0.00000000000E+00 0.  1.
</event>
<event>
 7    1  0.6230310E-012  0.5930196E+02  0.7816164E-02  0.1266605E+00
        -11   -1    0    0    0    0  0.00000000000E+00  0.00000000000E+00  0.45593999997E+02  0.45594000000E+02  0.51100000000E-03 0.  1.
         11   -1    0    0    0    0 -0.00000000000E+00 -0.00000000000E+00 -0.45593999997E+02  0.45594000000E+02  0.51100000000E-03 0. -1.
    9900012    2    1    2    0    0  0.30010660865E+01 -0.17179825486E+02  0.26693944279E+02  0.59301961322E+02  0.50000031541E+02 0.  0.
         12    1    1    2    0    0 -0.30010660865E+01  0.17179825486E+02 -0.26693944279E+02  0.31886038678E+02  0.00000000000E+00 0. -1.
         11    1    3    3    0    0 -0.34524696954E+01 -0.12312146805E+02  0.49755819473E+01  0.13720966508E+02  0.51100000000E-03 0. -1.
        -11    1    3    3    0    0  0.80141781590E+01 -0.21275632898E+02  0.78862247657E+01  0.24063917971E+02  0.51100000000E-03 0.  1.
        -12    1    3    3    0    0 -0.15606423772E+01  0.16407954217E+02  0.13832137566E+02  0.21517076843E+02  0.00000000000E+00 0.  1.
</event>
<event>
 7    1  0.6230310E-012  0.5930194E+02  0.7816164E-02  0.1266605E+00
        -11   -1    0    0    0    0  0.00000000000E+00  0.00000000000E+00  0.45593999997E+02  0.45594000000E+02  0.51100000000E-03 0. -1.
         11   -1    0    0    0    0 -0.00000000000E+00 -0.00000000000E+00 -0.45593999997E+02  0.45594000000E+02  0.51100000000E-03 0.  1.
    9900012    2    1    2    0    0  0.11476610275E+02  0.28515489548E+02 -0.84779032856E+01  0.59301943930E+02  0.49999999821E+02 0.  0.
         12    1    1    2    0    0 -0.11476610275E+02 -0.28515489548E+02  0.84779032856E+01  0.31886056070E+02  0.00000000000E+00 0. -1.
         11    1    3    3    0    0 -0.14101985199E+02  0.14794320554E+02  0.76012804133E+01  0.21806360801E+02  0.51100000000E-03 0. -1.
        -11    1    3    3    0    0  0.43209061676E+01  0.97288889509E+01 -0.10939164958E+02  0.15263906465E+02  0.51100000000E-03 0.  1.
        -12    1    3    3    0    0  0.21257689307E+02  0.39922800432E+01 -0.51400187407E+01  0.22231676663E+02  0.00000000000E+00 0.  1.
</event>
<event>
 7    1  0.6230310E-012  0.5930196E+02  0.7816164E-02  0.1266605E+00
        -11   -1    0    0    0    0  0.00000000000E+00  0.00000000000E+00  0.45593999997E+02  0.45594000000E+02  0.51100000000E-03 0.  1.
         11   -1    0    0    0    0 -0.00000000000E+00 -0.00000000000E+00 -0.45593999997E+02  0.45594000000E+02  0.51100000000E-03 0. -1.
    9900012    2    1    2    0    0  0.28525882324E+01  0.12107204211E+02  0.29359802145E+02  0.59301958611E+02  0.50000026597E+02 0.  0.
         12    1    1    2    0    0 -0.28525882324E+01 -0.12107204211E+02 -0.29359802145E+02  0.31886041389E+02  0.00000000000E+00 0. -1.
         11    1    3    3    0    0 -0.33827062862E+01  0.28237218681E+02  0.21095559584E+02  0.35409121072E+02  0.51100000000E-03 0. -1.
        -11    1    3    3    0    0 -0.33838290133E+01  0.25570570282E+00  0.86107354427E+00  0.35010187242E+01  0.51100000000E-03 0.  1.
        -12    1    3    3    0    0  0.96191235319E+01 -0.16385720173E+02  0.74031690173E+01  0.20391818815E+02  0.00000000000E+00 0.  1.
</event>
<event>
 7    1  0.6230310E-012  0.5930196E+02  0.7816164E-02  0.1266605E+00
        -11   -1    0    0    0    0  0.00000000000E+00  0.00000000000E+00  0.45593999997E+02  0.45594000000E+02  0.51100000000E-03 0.  1.
         11   -1    0    0    0    0 -0.00000000000E+00 -0.00000000000E+00 -0.45593999997E+02  0.45594000000E+02  0.51100000000E-03 0. -1.
    9900012    2    1    2    0    0 -0.22466119270E+02  0.21439322154E+02  0.72352308041E+01  0.59301958944E+02  0.50000027203E+02 0.  0.
         12    1    1    2    0    0  0.22466119270E+02 -0.21439322154E+02 -0.72352308041E+01  0.31886041056E+02  0.00000000000E+00 0. -1.
         11    1    3    3    0    0 -0.14013164426E+02  0.77260327787E+01 -0.68775976013E+01  0.17417281900E+02  0.51100000000E-03 0. -1.
        -11    1    3    3    0    0  0.11747466504E+02  0.47339541472E+01 -0.40252082881E+01  0.13289679949E+02  0.51100000000E-03 0.  1.
         12    1    3    3    0    0 -0.20200421348E+02  0.89793352277E+01  0.18138036694E+02  0.28594997095E+02  0.00000000000E+00 0. -1.
</event>
<event>
 7    1  0.6230310E-012  0.5930194E+02  0.7816164E-02  0.1266605E+00
        -11   -1    0    0    0    0  0.00000000000E+00  0.00000000000E+00  0.45593999997E+02  0.45594000000E+02  0.51100000000E-03 0.  1.
         11   -1    0    0    0    0 -0.00000000000E+00 -0.00000000000E+00 -0.45593999997E+02  0.45594000000E+02  0.51100000000E-03 0. -1.
    9900012    2    1    2    0    0 -0.31587095965E+02 -0.40189796332E+01  0.16804117906E+01  0.59301943289E+02  0.49999998653E+02 0.  0.
         12    1    1    2    0    0  0.31587095965E+02  0.40189796332E+01 -0.16804117906E+01  0.31886056711E+02  0.00000000000E+00 0. -1.
         11    1    3    3    0    0 -0.36337654901E+01  0.27840980206E+00 -0.67936272359E+01  0.77094185862E+01  0.51100000000E-03 0. -1.
        -11    1    3    3    0    0  0.84897377057E+01 -0.17238414078E+00 -0.77426536710E+01  0.11491477222E+02  0.51100000000E-03 0.  1.
        -12    1    3    3    0    0 -0.36443068180E+02 -0.41250052945E+01  0.16216692698E+02  0.40101047482E+02  0.00000000000E+00 0.  1.
</event>
<event>
 7    1  0.6230310E-012  0.5930199E+02  0.7816164E-02  0.1266605E+00
        -11   -1    0    0    0    0  0.00000000000E+00  0.00000000000E+00  0.45593999997E+02  0.45594000000E+02  0.51100000000E-03 0.  1.
         11   -1    0    0    0    0 -0.00000000000E+00 -0.00000000000E+00 -0.45593999997E+02  0.45594000000E+02  0.51100000000E-03 0. -1.
    9900012    2    1    2    0    0 -0.19438069694E+02  0.23490074648E+01  0.25166668038E+02  0.59301991005E+02  0.50000085675E+02 0.  0.
         12    1    1    2    0    0  0.19438069694E+02 -0.23490074648E+01 -0.25166668038E+02  0.31886008995E+02  0.00000000000E+00 0. -1.
         11    1    3    3    0    0 -0.45417358823E+01  0.10219302007E+02 -0.61324965598E+01  0.12754176283E+02  0.51100000000E-03 0.  1.
        -11    1    3    3    0    0 -0.71935654634E+01 -0.11475956049E+02 -0.57708289884E+00  0.13556473592E+02  0.51100000000E-03 0. -1.
        -12    1    3    3    0    0 -0.77027683485E+01  0.36056615064E+01  0.31876247496E+02  0.32991341130E+02  0.00000000000E+00 0.  1.
</event>
<event>
 7    1  0.6230310E-012  0.5930193E+02  0.7816164E-02  0.1266605E+00
        -11   -1    0    0    0    0  0.00000000000E+00  0.00000000000E+00  0.45593999997E+02  0.45594000000E+02  0.51100000000E-03 0.  1.
         11   -1    0    0    0    0 -0.00000000000E+00 -0.00000000000E+00 -0.45593999997E+02  0.45594000000E+02  0.51100000000E-03 0. -1.
    9900012    2    1    2    0    0  0.14864319431E+02  0.22874642831E+02  0.16508298251E+02  0.59301934267E+02  0.49999982198E+02 0.  0.
         12    1    1    2    0    0 -0.14864319431E+02 -0.22874642831E+02 -0.16508298251E+02  0.31886065733E+02  0.00000000000E+00 0. -1.
         11    1    3    3    0    0  0.16717674619E+02  0.23765896973E+02 -0.86652241832E+01  0.30321355741E+02  0.51100000000E-03 0. -1.
        -11    1    3    3    0    0 -0.11759412490E+01  0.52647450625E+01  0.34781340806E+01  0.64185508753E+01  0.51100000000E-03 0.  1.
        -12    1    3    3    0    0 -0.67741393889E+00 -0.61559992043E+01  0.21695388354E+02  0.22562027650E+02  0.00000000000E+00 0.  1.
</event>
<event>
 7    1  0.6230310E-012  0.5930196E+02  0.7816164E-02  0.1266605E+00
        -11   -1    0    0    0    0  0.00000000000E+00  0.00000000000E+00  0.45593999997E+02  0.45594000000E+02  0.51100000000E-03 0.  1.
         11   -1    0    0    0    0 -0.00000000000E+00 -0.00000000000E+00 -0.45593999997E+02  0.45594000000E+02  0.51100000000E-03 0. -1.
    9900012    2    1    2    0    0 -0.88205433240E+01  0.11945481060E+02  0.28217425395E+02  0.59301959195E+02  0.50000027661E+02 0.  0.
         12    1    1    2    0    0  0.88205433240E+01 -0.11945481060E+02 -0.28217425395E+02  0.31886040805E+02  0.00000000000E+00 0. -1.
         11    1    3    3    0    0 -0.95650407638E+01  0.11306150400E+02  0.20987447835E+02  0.25686416811E+02  0.51100000000E-03 0. -1.
        -11    1    3    3    0    0  0.14233447490E+02  0.69808962341E+01  0.95847234884E+01  0.18525411312E+02  0.51100000000E-03 0.  1.
         12    1    3    3    0    0 -0.13488950050E+02 -0.63415655742E+01 -0.23547459278E+01  0.15090131072E+02  0.00000000000E+00 0. -1.
</event>
<event>
 7    1  0.6230310E-012  0.5930196E+02  0.7816164E-02  0.1266605E+00
        -11   -1    0    0    0    0  0.00000000000E+00  0.00000000000E+00  0.45593999997E+02  0.45594000000E+02  0.51100000000E-03 0. -1.
         11   -1    0    0    0    0 -0.00000000000E+00 -0.00000000000E+00 -0.45593999997E+02  0.45594000000E+02  0.51100000000E-03 0.  1.
    9900012    2    1    2    0    0 -0.15091076476E+02  0.28053994865E+02  0.13973535733E+01  0.59301955810E+02  0.50000021487E+02 0.  0.
         12    1    1    2    0    0  0.15091076476E+02 -0.28053994865E+02 -0.13973535733E+01  0.31886044190E+02  0.00000000000E+00 0. -1.
         11    1    3    3    0    0 -0.33606540785E+01 -0.23640843634E+01  0.11246233525E+02  0.11973331177E+02  0.51100000000E-03 0. -1.
        -11    1    3    3    0    0 -0.19252937684E+02  0.57418996649E+01 -0.12258551306E+01  0.20128282150E+02  0.51100000000E-03 0.  1.
        -12    1    3    3    0    0  0.75225152868E+01  0.24676179564E+02 -0.86230248215E+01  0.27200342483E+02  0.00000000000E+00 0.  1.
</event>
<event>
 7    1  0.6230310E-012  0.5930200E+02  0.7816164E-02  0.1266605E+00
        -11   -1    0    0    0    0  0.00000000000E+00  0.00000000000E+00  0.45593999997E+02  0.45594000000E+02  0.51100000000E-03 0.  1.
         11   -1    0    0    0    0 -0.00000000000E+00 -0.00000000000E+00 -0.45593999997E+02  0.45594000000E+02  0.51100000000E-03 0. -1.
    9900012    2    1    2    0    0  0.83557015353E+01 -0.10046670306E+00  0.30771560255E+02  0.59302003666E+02  0.50000108765E+02 0.  0.
         12    1    1    2    0    0 -0.83557015353E+01  0.10046670306E+00 -0.30771560255E+02  0.31885996334E+02  0.00000000000E+00 0. -1.
         11    1    3    3    0    0  0.13842217778E+02  0.72211662928E+01  0.16849867085E+01  0.15703229481E+02  0.51100000000E-03 0.  1.
        -11    1    3    3    0    0 -0.96371895117E+01 -0.15020716498E+02  0.29892954298E+02  0.34815026393E+02  0.51100000000E-03 0. -1.
         12    1    3    3    0    0  0.41506732687E+01  0.76990835025E+01 -0.80638075134E+00  0.87837477923E+01  0.00000000000E+00 0. -1.
</event>
<event>
 7    1  0.6230310E-012  0.5930196E+02  0.7816164E-02  0.1266605E+00
        -11   -1    0    0    0    0  0.00000000000E+00  0.00000000000E+00  0.45593999997E+02  0.45594000000E+02  0.51100000000E-03 0.  1.
         11   -1    0    0    0    0 -0.00000000000E+00 -0.00000000000E+00 -0.45593999997E+02  0.45594000000E+02  0.51100000000E-03 0. -1.
    9900012    2    1    2    0    0  0.19201648273E+02  0.13867851615E+02  0.21347111424E+02  0.59301956486E+02  0.50000022721E+02 0.  0.
         12    1    1    2    0    0 -0.19201648273E+02 -0.13867851615E+02 -0.21347111424E+02  0.31886043514E+02  0.00000000000E+00 0. -1.
         11    1    3    3    0    0  0.24769535994E+02  0.60841515946E+01  0.14732023532E+02  0.29454699652E+02  0.51100000000E-03 0. -1.
        -11    1    3    3    0    0  0.88729678720E+00  0.12283877311E+02  0.14283325973E+02  0.18859860511E+02  0.51100000000E-03 0.  1.
         12    1    3    3    0    0 -0.64551845084E+01 -0.45001772902E+01 -0.76682380818E+01  0.10987396323E+02  0.00000000000E+00 0. -1.
</event>
<event>
 7    1  0.6230310E-012  0.5930194E+02  0.7816164E-02  0.1266605E+00
        -11   -1    0    0    0    0  0.00000000000E+00  0.00000000000E+00  0.45593999997E+02  0.45594000000E+02  0.51100000000E-03 0.  1.
         11   -1    0    0    0    0 -0.00000000000E+00 -0.00000000000E+00 -0.45593999997E+02  0.45594000000E+02  0.51100000000E-03 0. -1.
    9900012    2    1    2    0    0 -0.26609710196E+01  0.30315379525E+02  0.95193246030E+01  0.59301944374E+02  0.50000000631E+02 0.  0.
         12    1    1    2    0    0  0.26609710196E+01 -0.30315379525E+02 -0.95193246030E+01  0.31886055626E+02  0.00000000000E+00 0. -1.
         11    1    3    3    0    0  0.52544476753E+00  0.22062834067E+02  0.31368974059E+00  0.22071319417E+02  0.51100000000E-03 0. -1.
        -11    1    3    3    0    0  0.10353243218E+02  0.12227057496E+02  0.15027124329E+02  0.21965997496E+02  0.51100000000E-03 0.  1.
         12    1    3    3    0    0 -0.13539659005E+02 -0.39745120381E+01 -0.58214894666E+01  0.15264627461E+02  0.00000000000E+00 0. -1.
</event>
<event>
 7    1  0.6230310E-012  0.5930186E+02  0.7816164E-02  0.1266605E+00
        -11   -1    0    0    0    0  0.00000000000E+00  0.00000000000E+00  0.45593999997E+02  0.45594000000E+02  0.51100000000E-03 0.  1.
         11   -1    0    0    0    0 -0.00000000000E+00 -0.00000000000E+00 -0.45593999997E+02  0.45594000000E+02  0.51100000000E-03 0. -1.
    9900012    2    1    2    0    0 -0.86231584185E+00 -0.30644092944E+02 -0.87705186129E+01  0.59301858533E+02  0.49999844077E+02 0.  0.
         12    1    1    2    0    0  0.86231584185E+00  0.30644092944E+02  0.87705186129E+01  0.31886141467E+02  0.00000000000E+00 0. -1.
         11    1    3    3    0    0 -0.34989271658E+01  0.35440203375E+01 -0.41676282772E+01  0.64939739130E+01  0.51100000000E-03 0. -1.
        -11    1    3    3    0    0 -0.11109064439E+02  0.50799344496E-01  0.81421871673E+01  0.13773492854E+02  0.51100000000E-03 0.  1.
         12    1    3    3    0    0  0.13745675763E+02 -0.34238912626E+02 -0.12745077503E+02  0.39034391765E+02  0.00000000000E+00 0. -1.
</event>
<event>
 7    1  0.6230310E-012  0.5930195E+02  0.7816164E-02  0.1266605E+00
        -11   -1    0    0    0    0  0.00000000000E+00  0.00000000000E+00  0.45593999997E+02  0.45594000000E+02  0.51100000000E-03 0. -1.
         11   -1    0    0    0    0 -0.00000000000E+00 -0.00000000000E+00 -0.45593999997E+02  0.45594000000E+02  0.51100000000E-03 0.  1.
    9900012    2    1    2    0    0  0.13813509985E+01  0.17454276106E+02 -0.26648827915E+02  0.59301954240E+02  0.50000018625E+02 0.  0.
         12    1    1    2    0    0 -0.13813509985E+01 -0.17454276106E+02  0.26648827915E+02  0.31886045760E+02  0.00000000000E+00 0. -1.
         11    1    3    3    0    0 -0.35618904638E+01  0.29118596653E+01  0.32180356020E+01  0.56144228362E+01  0.51100000000E-03 0.  1.
        -11    1    3    3    0    0  0.79465008122E+01  0.26116255709E+02 -0.74754374629E+01  0.28303495419E+02  0.51100000000E-03 0. -1.
        -12    1    3    3    0    0 -0.30032593499E+01 -0.11573839268E+02 -0.22391426054E+02  0.25384035984E+02  0.00000000000E+00 0.  1.
</event>
<event>
 7    1  0.6230310E-012  0.5930195E+02  0.7816164E-02  0.1266605E+00
        -11   -1    0    0    0    0  0.00000000000E+00  0.00000000000E+00  0.45593999997E+02  0.45594000000E+02  0.51100000000E-03 0. -1.
         11   -1    0    0    0    0 -0.00000000000E+00 -0.00000000000E+00 -0.45593999997E+02  0.45594000000E+02  0.51100000000E-03 0.  1.
    9900012    2    1    2    0    0 -0.11259755970E+02  0.21407929447E+02 -0.20775911027E+02  0.59301952476E+02  0.50000015407E+02 0.  0.
         12    1    1    2    0    0  0.11259755970E+02 -0.21407929447E+02  0.20775911027E+02  0.31886047524E+02  0.00000000000E+00 0. -1.
         11    1    3    3    0    0 -0.12867566929E+02  0.32468938807E+01  0.12838423999E+01  0.13332848537E+02  0.51100000000E-03 0. -1.
        -11    1    3    3    0    0 -0.92371937080E+01 -0.78197473848E+01 -0.53703216737E+01  0.13240640162E+02  0.51100000000E-03 0.  1.
         12    1    3    3    0    0  0.10845004666E+02  0.25980782951E+02 -0.16689431754E+02  0.32728463777E+02  0.00000000000E+00 0. -1.
</event>
<event>
 7    1  0.6230310E-012  0.5930194E+02  0.7816164E-02  0.1266605E+00
        -11   -1    0    0    0    0  0.00000000000E+00  0.00000000000E+00  0.45593999997E+02  0.45594000000E+02  0.51100000000E-03 0. -1.
         11   -1    0    0    0    0 -0.00000000000E+00 -0.00000000000E+00 -0.45593999997E+02  0.45594000000E+02  0.51100000000E-03 0.  1.
    9900012    2    1    2    0    0 -0.90180051563E+01  0.19025369323E+02 -0.23946430505E+02  0.59301943035E+02  0.49999998189E+02 0.  0.
         12    1    1    2    0    0  0.90180051563E+01 -0.19025369323E+02  0.23946430505E+02  0.31886056965E+02  0.00000000000E+00 0. -1.
         11    1    3    3    0    0 -0.14075569190E+02  0.44068787827E+01  0.24504830192E+01  0.14951491428E+02  0.51100000000E-03 0. -1.
        -11    1    3    3    0    0 -0.89556887288E+01  0.80990977521E+01 -0.26250255748E+02  0.28894215201E+02  0.51100000000E-03 0.  1.
        -12    1    3    3    0    0  0.14013252763E+02  0.65193927879E+01 -0.14665777641E+00  0.15456236405E+02  0.00000000000E+00 0.  1.
</event>
<event>
 7    1  0.6230310E-012  0.5930193E+02  0.7816164E-02  0.1266605E+00
        -11   -1    0    0    0    0  0.00000000000E+00  0.00000000000E+00  0.45593999997E+02  0.45594000000E+02  0.51100000000E-03 0. -1.
         11   -1    0    0    0    0 -0.00000000000E+00 -0.00000000000E+00 -0.45593999997E+02  0.45594000000E+02  0.51100000000E-03 0.  1.
    9900012    2    1    2    0    0 -0.27374867670E+02  0.51070266181E+01 -0.15532439137E+02  0.59301925196E+02  0.49999965656E+02 0.  0.
         12    1    1    2    0    0  0.27374867670E+02 -0.51070266181E+01  0.15532439137E+02  0.31886074804E+02  0.00000000000E+00 0. -1.
         11    1    3    3    0    0 -0.69882454689E+01  0.42727649280E+01  0.48393121320E+01  0.95137288712E+01  0.51100000000E-03 0. -1.
        -11    1    3    3    0    0 -0.32111323463E+02  0.52786410050E+01 -0.11872908955E+02  0.34640541461E+02  0.51100000000E-03 0.  1.
        -12    1    3    3    0    0  0.11724701262E+02 -0.44443793149E+01 -0.84988423149E+01  0.15147654864E+02  0.00000000000E+00 0.  1.
</event>
<event>
 7    1  0.6230310E-012  0.5930199E+02  0.7816164E-02  0.1266605E+00
        -11   -1    0    0    0    0  0.00000000000E+00  0.00000000000E+00  0.45593999997E+02  0.45594000000E+02  0.51100000000E-03 0.  1.
         11   -1    0    0    0    0 -0.00000000000E+00 -0.00000000000E+00 -0.45593999997E+02  0.45594000000E+02  0.51100000000E-03 0. -1.
    9900012    2    1    2    0    0 -0.18471496420E+01  0.29160659462E+02  0.12765647390E+02  0.59301987779E+02  0.50000079792E+02 0.  0.
         12    1    1    2    0    0  0.18471496420E+01 -0.29160659462E+02 -0.12765647390E+02  0.31886012221E+02  0.00000000000E+00 0. -1.
         11    1    3    3    0    0  0.18096919741E+02  0.94132790896E+01  0.17135971968E+02  0.26641131036E+02  0.51100000000E-03 0. -1.
        -11    1    3    3    0    0 -0.25849426895E+01  0.35143920338E+01  0.54192245243E+01  0.69570737225E+01  0.51100000000E-03 0.  1.
        -12    1    3    3    0    0 -0.17359126693E+02  0.16232988339E+02 -0.97895491024E+01  0.25703783021E+02  0.00000000000E+00 0.  1.
</event>
<event>
 7    1  0.6230310E-012  0.5930192E+02  0.7816164E-02  0.1266605E+00
        -11   -1    0    0    0    0  0.00000000000E+00  0.00000000000E+00  0.45593999997E+02  0.45594000000E+02  0.51100000000E-03 0.  1.
         11   -1    0    0    0    0 -0.00000000000E+00 -0.00000000000E+00 -0.45593999997E+02  0.45594000000E+02  0.51100000000E-03 0. -1.
    9900012    2    1    2    0    0 -0.23639234097E+02  0.21022103923E+02 -0.39975013902E+01  0.59301917465E+02  0.49999951557E+02 0.  0.
         12    1    1    2    0    0  0.23639234097E+02 -0.21022103923E+02  0.39975013902E+01  0.31886082535E+02  0.00000000000E+00 0. -1.
         11    1    3    3    0    0 -0.62488686007E+01  0.81396964243E+01  0.49929914190E+01  0.11411966537E+02  0.51100000000E-03 0. -1.
        -11    1    3    3    0    0  0.70089622848E+01  0.16408732024E+02  0.62507684536E+01  0.18906193310E+02  0.51100000000E-03 0.  1.
         12    1    3    3    0    0 -0.24399327781E+02 -0.35263245252E+01 -0.15241261263E+02  0.28983757619E+02  0.00000000000E+00 0. -1.
</event>
<event>
 7    1  0.6230310E-012  0.5930194E+02  0.7816164E-02  0.1266605E+00
        -11   -1    0    0    0    0  0.00000000000E+00  0.00000000000E+00  0.45593999997E+02  0.45594000000E+02  0.51100000000E-03 0. -1.
         11   -1    0    0    0    0 -0.00000000000E+00 -0.00000000000E+00 -0.45593999997E+02  0.45594000000E+02  0.51100000000E-03 0.  1.
    9900012    2    1    2    0    0 -0.17981539890E+02  0.25139398816E+02 -0.78355264360E+01  0.59301943107E+02  0.49999998321E+02 0.  0.
         12    1    1    2    0    0  0.17981539890E+02 -0.25139398816E+02  0.78355264360E+01  0.31886056893E+02  0.00000000000E+00 0. -1.
         11    1    3    3    0    0  0.12871300965E+02  0.22270449068E+02 -0.20975126775E+01  0.25807805988E+02  0.51100000000E-03 0. -1.
        -11    1    3    3    0    0 -0.50081474886E+00 -0.21543449798E+01 -0.79711377745E-01  0.22132265744E+01  0.51100000000E-03 0.  1.
        -12    1    3    3    0    0 -0.30352026106E+02  0.50232947284E+01 -0.56583023807E+01  0.31280910545E+02  0.00000000000E+00 0.  1.
</event>
<event>
 7    1  0.6230310E-012  0.5930194E+02  0.7816164E-02  0.1266605E+00
        -11   -1    0    0    0    0  0.00000000000E+00  0.00000000000E+00  0.45593999997E+02  0.45594000000E+02  0.51100000000E-03 0.  1.
         11   -1    0    0    0    0 -0.00000000000E+00 -0.00000000000E+00 -0.45593999997E+02  0.45594000000E+02  0.51100000000E-03 0. -1.
    9900012    2    1    2    0    0  0.21926312254E+02  0.14842650624E+02  0.17766633283E+02  0.59301941843E+02  0.49999996015E+02 0.  0.
         12    1    1    2    0    0 -0.21926312254E+02 -0.14842650624E+02 -0.17766633283E+02  0.31886058157E+02  0.00000000000E+00 0. -1.
         11    1    3    3    0    0  0.21384462808E+02  0.14770759268E+01  0.22546778937E+02  0.31110034451E+02  0.51100000000E-03 0.  1.
        -11    1    3    3    0    0  0.27963389035E+01 -0.67682178445E+01  0.21234303042E+00  0.73262114273E+01  0.51100000000E-03 0. -1.
        -12    1    3    3    0    0 -0.22544894574E+01  0.20133792541E+02 -0.49924886839E+01  0.20865695964E+02  0.00000000000E+00 0.  1.
</event>
<event>
 7    1  0.6230310E-012  0.5930193E+02  0.7816164E-02  0.1266605E+00
        -11   -1    0    0    0    0  0.00000000000E+00  0.00000000000E+00  0.45593999997E+02  0.45594000000E+02  0.51100000000E-03 0.  1.
         11   -1    0    0    0    0 -0.00000000000E+00 -0.00000000000E+00 -0.45593999997E+02  0.45594000000E+02  0.51100000000E-03 0. -1.
    9900012    2    1    2    0    0 -0.14332457180E+02  0.13559802074E+02  0.25048636789E+02  0.59301925201E+02  0.49999965665E+02 0.  0.
         12    1    1    2    0    0  0.14332457180E+02 -0.13559802074E+02 -0.25048636789E+02  0.31886074799E+02  0.00000000000E+00 0. -1.
         11    1    3    3    0    0 -0.73245191804E+01  0.11947448194E+02  0.16899841362E+02  0.21954378559E+02  0.51100000000E-03 0. -1.
        -11    1    3    3    0    0 -0.20092010417E+02  0.43876507066E+01 -0.18493543630E+01  0.20648498085E+02  0.51100000000E-03 0.  1.
         12    1    3    3    0    0  0.13084072418E+02 -0.27752968266E+01  0.99981497898E+01  0.16699048558E+02  0.00000000000E+00 0. -1.
</event>
<event>
 7    1  0.6230310E-012  0.5930191E+02  0.7816164E-02  0.1266605E+00
        -11   -1    0    0    0    0  0.00000000000E+00  0.00000000000E+00  0.45593999997E+02  0.45594000000E+02  0.51100000000E-03 0. -1.
         11   -1    0    0    0    0 -0.00000000000E+00 -0.00000000000E+00 -0.45593999997E+02  0.45594000000E+02  0.51100000000E-03 0.  1.
    9900012    2    1    2    0    0 -0.18054223386E+02 -0.12070967641E+01 -0.26254725245E+02  0.59301911147E+02  0.49999940033E+02 0.  0.
         12    1    1    2    0    0  0.18054223386E+02  0.12070967641E+01  0.26254725245E+02  0.31886088853E+02  0.00000000000E+00 0. -1.
         11    1    3    3    0    0 -0.32224005828E+01  0.20103923284E+02 -0.17987056602E+02  0.27167734583E+02  0.51100000000E-03 0. -1.
        -11    1    3    3    0    0  0.30158359408E+01 -0.63899946698E+01 -0.49692168292E+01  0.86383108568E+01  0.51100000000E-03 0.  1.
        -12    1    3    3    0    0 -0.17847658744E+02 -0.14921025378E+02 -0.32984518143E+01  0.23495865707E+02  0.00000000000E+00 0.  1.
</event>
<event>
 7    1  0.6230310E-012  0.5930197E+02  0.7816164E-02  0.1266605E+00
        -11   -1    0    0    0    0  0.00000000000E+00  0.00000000000E+00  0.45593999997E+02  0.45594000000E+02  0.51100000000E-03 0. -1.
         11   -1    0    0    0    0 -0.00000000000E+00 -0.00000000000E+00 -0.45593999997E+02  0.45594000000E+02  0.51100000000E-03 0.  1.
    9900012    2    1    2    0    0  0.65054842990E+01  0.23602620411E+02 -0.20428262875E+02  0.59301969512E+02  0.50000046477E+02 0.  0.
         12    1    1    2    0    0 -0.65054842990E+01 -0.23602620411E+02  0.20428262875E+02  0.31886030488E+02  0.00000000000E+00 0. -1.
         11    1    3    3    0    0 -0.89414018062E+01  0.19558207902E+02 -0.92965946939E+01  0.23428590136E+02  0.51100000000E-03 0. -1.
        -11    1    3    3    0    0  0.83621101724E+01  0.96058474035E+01 -0.19689383414E+02  0.23449285924E+02  0.51100000000E-03 0.  1.
         12    1    3    3    0    0  0.70847759328E+01 -0.55614348943E+01  0.85577152329E+01  0.12424093452E+02  0.00000000000E+00 0. -1.
</event>
<event>
 7    1  0.6230310E-012  0.5930194E+02  0.7816164E-02  0.1266605E+00
        -11   -1    0    0    0    0  0.00000000000E+00  0.00000000000E+00  0.45593999997E+02  0.45594000000E+02  0.51100000000E-03 0.  1.
         11   -1    0    0    0    0 -0.00000000000E+00 -0.00000000000E+00 -0.45593999997E+02  0.45594000000E+02  0.51100000000E-03 0. -1.
    9900012    2    1    2    0    0  0.14521302527E+02 -0.27749003786E+02 -0.59871128927E+01  0.59301937857E+02  0.49999988746E+02 0.  0.
         12    1    1    2    0    0 -0.14521302527E+02  0.27749003786E+02  0.59871128927E+01  0.31886062143E+02  0.00000000000E+00 0. -1.
         11    1    3    3    0    0  0.12671945307E+02 -0.19839573267E+02 -0.22912372102E+02  0.32850626491E+02  0.51100000000E-03 0. -1.
        -11    1    3    3    0    0  0.83618312195E+01 -0.95045822935E+01  0.69774708451E+01  0.14454840213E+02  0.51100000000E-03 0.  1.
        -12    1    3    3    0    0 -0.65124739997E+01  0.15951517742E+01  0.99477883643E+01  0.11996471153E+02  0.00000000000E+00 0.  1.
</event>
<event>
 7    1  0.6230310E-012  0.5930194E+02  0.7816164E-02  0.1266605E+00
        -11   -1    0    0    0    0  0.00000000000E+00  0.00000000000E+00  0.45593999997E+02  0.45594000000E+02  0.51100000000E-03 0.  1.
         11   -1    0    0    0    0 -0.00000000000E+00 -0.00000000000E+00 -0.45593999997E+02  0.45594000000E+02  0.51100000000E-03 0. -1.
    9900012    2    1    2    0    0 -0.19252316125E+02  0.44081074320E+00  0.25414062714E+02  0.59301943895E+02  0.49999999759E+02 0.  0.
         12    1    1    2    0    0  0.19252316125E+02 -0.44081074320E+00 -0.25414062714E+02  0.31886056105E+02  0.00000000000E+00 0. -1.
         11    1    3    3    0    0 -0.83630296164E+01  0.58282640236E+01  0.24528634360E+02  0.26562432677E+02  0.51100000000E-03 0. -1.
        -11    1    3    3    0    0 -0.12666256359E+02 -0.10627188907E+01  0.13944722592E+02  0.18868458072E+02  0.51100000000E-03 0.  1.
         12    1    3    3    0    0  0.17769698505E+01 -0.43247343898E+01 -0.13059294238E+02  0.13871053146E+02  0.00000000000E+00 0. -1.
</event>
<event>
 7    1  0.6230310E-012  0.5930192E+02  0.7816164E-02  0.1266605E+00
        -11   -1    0    0    0    0  0.00000000000E+00  0.00000000000E+00  0.45593999997E+02  0.45594000000E+02  0.51100000000E-03 0.  1.
         11   -1    0    0    0    0 -0.00000000000E+00 -0.00000000000E+00 -0.45593999997E+02  0.45594000000E+02  0.51100000000E-03 0. -1.
    9900012    2    1    2    0    0 -0.20727548607E+02 -0.24189931075E+02 -0.13922490992E+01  0.59301915351E+02  0.49999947701E+02 0.  0.
         12    1    1    2    0    0  0.20727548607E+02  0.24189931075E+02  0.13922490992E+01  0.31886084649E+02  0.00000000000E+00 0. -1.
         11    1    3    3    0    0  0.48630005953E+01 -0.12619594401E+02  0.74181770284E+01  0.15425053916E+02  0.51100000000E-03 0. -1.
        -11    1    3    3    0    0 -0.19128816301E+02 -0.18021371490E+02  0.55490621299E+01  0.26860259386E+02  0.51100000000E-03 0.  1.
         12    1    3    3    0    0 -0.64617329008E+01  0.64510348166E+01 -0.14359488257E+02  0.17016602049E+02  0.00000000000E+00 0. -1.
</event>
<event>
 7    1  0.6230310E-012  0.5930195E+02  0.7816164E-02  0.1266605E+00
        -11   -1    0    0    0    0  0.00000000000E+00  0.00000000000E+00  0.45593999997E+02  0.45594000000E+02  0.51100000000E-03 0.  1.
         11   -1    0    0    0    0 -0.00000000000E+00 -0.00000000000E+00 -0.45593999997E+02  0.45594000000E+02  0.51100000000E-03 0. -1.
    9900012    2    1    2    0    0  0.30284631297E+02  0.67444437721E+01  0.73535049426E+01  0.59301945845E+02  0.50000003315E+02 0.  0.
         12    1    1    2    0    0 -0.30284631297E+02 -0.67444437721E+01 -0.73535049426E+01  0.31886054155E+02  0.00000000000E+00 0. -1.
         11    1    3    3    0    0  0.15210375951E+02 -0.21006622239E+02  0.83266307434E+01  0.27239061920E+02  0.51100000000E-03 0. -1.
        -11    1    3    3    0    0  0.82454381883E+01  0.12397131701E+02  0.19183949837E+01  0.15011874130E+02  0.51100000000E-03 0.  1.
        -12    1    3    3    0    0  0.68288171585E+01  0.15353934310E+02 -0.28915207846E+01  0.17051009795E+02  0.00000000000E+00 0.  1.
</event>
<event>
 7    1  0.6230310E-012  0.5930195E+02  0.7816164E-02  0.1266605E+00
        -11   -1    0    0    0    0  0.00000000000E+00  0.00000000000E+00  0.45593999997E+02  0.45594000000E+02  0.51100000000E-03 0.  1.
         11   -1    0    0    0    0 -0.00000000000E+00 -0.00000000000E+00 -0.45593999997E+02  0.45594000000E+02  0.51100000000E-03 0. -1.
    9900012    2    1    2    0    0 -0.19971317969E+02  0.19817322987E+02  0.15004680377E+02  0.59301948740E+02  0.50000008593E+02 0.  0.
         12    1    1    2    0    0  0.19971317969E+02 -0.19817322987E+02 -0.15004680377E+02  0.31886051260E+02  0.00000000000E+00 0. -1.
         11    1    3    3    0    0 -0.23498597203E+02  0.12523881753E+02  0.33759546503E+01  0.26840803913E+02  0.51100000000E-03 0. -1.
        -11    1    3    3    0    0 -0.26200534228E+01 -0.66198915199E+01 -0.59045334287E+01  0.92493869497E+01  0.51100000000E-03 0.  1.
        -12    1    3    3    0    0  0.61473326566E+01  0.13913332754E+02  0.17533259155E+02  0.23211757877E+02  0.00000000000E+00 0.  1.
</event>
<event>
 7    1  0.6230310E-012  0.5930196E+02  0.7816164E-02  0.1266605E+00
        -11   -1    0    0    0    0  0.00000000000E+00  0.00000000000E+00  0.45593999997E+02  0.45594000000E+02  0.51100000000E-03 0.  1.
         11   -1    0    0    0    0 -0.00000000000E+00 -0.00000000000E+00 -0.45593999997E+02  0.45594000000E+02  0.51100000000E-03 0. -1.
    9900012    2    1    2    0    0 -0.17506444584E+02 -0.23083605519E+02  0.13318830544E+02  0.59301957712E+02  0.50000024957E+02 0.  0.
         12    1    1    2    0    0  0.17506444584E+02  0.23083605519E+02 -0.13318830544E+02  0.31886042288E+02  0.00000000000E+00 0. -1.
         11    1    3    3    0    0  0.78870358043E+01 -0.11454121519E+02 -0.30826701472E+01  0.14244475738E+02  0.51100000000E-03 0. -1.
        -11    1    3    3    0    0  0.86758885308E+00 -0.12656576288E+02  0.13646290281E+02  0.18632307223E+02  0.51100000000E-03 0.  1.
        -12    1    3    3    0    0 -0.26261069241E+02  0.10270922883E+01  0.27552104107E+01  0.26425174752E+02  0.00000000000E+00 0.  1.
</event>
<event>
 7    1  0.6230310E-012  0.5930194E+02  0.7816164E-02  0.1266605E+00
        -11   -1    0    0    0    0  0.00000000000E+00  0.00000000000E+00  0.45593999997E+02  0.45594000000E+02  0.51100000000E-03 0.  1.
         11   -1    0    0    0    0 -0.00000000000E+00 -0.00000000000E+00 -0.45593999997E+02  0.45594000000E+02  0.51100000000E-03 0. -1.
    9900012    2    1    2    0    0 -0.28774791072E+02 -0.95715329039E+01 -0.98548484678E+01  0.59301939069E+02  0.49999990957E+02 0.  0.
         12    1    1    2    0    0  0.28774791072E+02  0.95715329039E+01  0.98548484678E+01  0.31886060931E+02  0.00000000000E+00 0. -1.
         11    1    3    3    0    0 -0.30009139012E+02 -0.30813337147E+01  0.97942498581E+00  0.30182814900E+02  0.51100000000E-03 0. -1.
        -11    1    3    3    0    0 -0.57774930184E+01  0.10111345887E+01 -0.16415670367E+02  0.17432040976E+02  0.51100000000E-03 0.  1.
        -12    1    3    3    0    0  0.70118409584E+01 -0.75013337780E+01  0.55813969131E+01  0.11687083194E+02  0.00000000000E+00 0.  1.
</event>
<event>
 7    1  0.6230310E-012  0.5930193E+02  0.7816164E-02  0.1266605E+00
        -11   -1    0    0    0    0  0.00000000000E+00  0.00000000000E+00  0.45593999997E+02  0.45594000000E+02  0.51100000000E-03 0.  1.
         11   -1    0    0    0    0 -0.00000000000E+00 -0.00000000000E+00 -0.45593999997E+02  0.45594000000E+02  0.51100000000E-03 0. -1.
    9900012    2    1    2    0    0 -0.31371022845E+01 -0.57445619565E+01  0.31207052369E+02  0.59301929054E+02  0.49999972692E+02 0.  0.
         12    1    1    2    0    0  0.31371022845E+01  0.57445619565E+01 -0.31207052369E+02  0.31886070946E+02  0.00000000000E+00 0. -1.
         11    1    3    3    0    0  0.12464841819E+02 -0.71768806214E+01 -0.11671073228E+01  0.14430593778E+02  0.51100000000E-03 0. -1.
        -11    1    3    3    0    0 -0.17904849062E+01  0.61316900122E+01 -0.26611210728E+01  0.69199005940E+01  0.51100000000E-03 0.  1.
        -12    1    3    3    0    0 -0.13811459197E+02 -0.46993713473E+01  0.35035280764E+02  0.37951434682E+02  0.00000000000E+00 0.  1.
</event>
<event>
 7    1  0.6230310E-012  0.5930206E+02  0.7816164E-02  0.1266604E+00
        -11   -1    0    0    0    0  0.00000000000E+00  0.00000000000E+00  0.45593999997E+02  0.45594000000E+02  0.51100000000E-03 0.  1.
         11   -1    0    0    0    0 -0.00000000000E+00 -0.00000000000E+00 -0.45593999997E+02  0.45594000000E+02  0.51100000000E-03 0. -1.
    9900012    2    1    2    0    0  0.14593850787E+02  0.18636641942E+02  0.21363718735E+02  0.59302056673E+02  0.50000205438E+02 0.  0.
         12    1    1    2    0    0 -0.14593850787E+02 -0.18636641942E+02 -0.21363718735E+02  0.31885943327E+02  0.00000000000E+00 0. -1.
         11    1    3    3    0    0  0.12297914087E+01  0.31731509604E+02  0.53727278094E+01  0.32206634301E+02  0.51100000000E-03 0.  1.
        -11    1    3    3    0    0  0.82168930796E+01 -0.34089017055E+01  0.12953359594E+02  0.15713925918E+02  0.51100000000E-03 0. -1.
        -12    1    3    3    0    0  0.51471662986E+01 -0.96859659566E+01  0.30376313315E+01  0.11381496454E+02  0.00000000000E+00 0.  1.
</event>
<event>
 7    1  0.6230310E-012  0.5930187E+02  0.7816164E-02  0.1266605E+00
        -11   -1    0    0    0    0  0.00000000000E+00  0.00000000000E+00  0.45593999997E+02  0.45594000000E+02  0.51100000000E-03 0.  1.
         11   -1    0    0    0    0 -0.00000000000E+00 -0.00000000000E+00 -0.45593999997E+02  0.45594000000E+02  0.51100000000E-03 0. -1.
    9900012    2    1    2    0    0 -0.32926653584E+01  0.84236269045E+00  0.31704476002E+02  0.59301874199E+02  0.49999872649E+02 0.  0.
         12    1    1    2    0    0  0.32926653584E+01 -0.84236269045E+00 -0.31704476002E+02  0.31886125801E+02  0.00000000000E+00 0. -1.
         11    1    3    3    0    0 -0.17383065794E+02  0.16518138165E+02  0.10111259118E+02  0.26024170036E+02  0.51100000000E-03 0. -1.
        -11    1    3    3    0    0  0.96024763794E+01 -0.27894377496E+01  0.15235385839E+02  0.18223761892E+02  0.51100000000E-03 0.  1.
        -12    1    3    3    0    0  0.44879240566E+01 -0.12886337725E+02  0.63578310447E+01  0.15053942271E+02  0.00000000000E+00 0.  1.
</event>
<event>
 7    1  0.6230310E-012  0.5930197E+02  0.7816164E-02  0.1266605E+00
        -11   -1    0    0    0    0  0.00000000000E+00  0.00000000000E+00  0.45593999997E+02  0.45594000000E+02  0.51100000000E-03 0.  1.
         11   -1    0    0    0    0 -0.00000000000E+00 -0.00000000000E+00 -0.45593999997E+02  0.45594000000E+02  0.51100000000E-03 0. -1.
    9900012    2    1    2    0    0  0.37135156647E+01  0.25925341062E+00  0.31667992481E+02  0.59301966087E+02  0.50000040230E+02 0.  0.
         12    1    1    2    0    0 -0.37135156647E+01 -0.25925341062E+00 -0.31667992481E+02  0.31886033913E+02  0.00000000000E+00 0. -1.
         11    1    3    3    0    0  0.61293147023E+01  0.71546470495E+01  0.85816375896E+01  0.12743703430E+02  0.51100000000E-03 0. -1.
        -11    1    3    3    0    0  0.72733593092E+01 -0.13533517806E+02  0.29437694896E+02  0.33205959418E+02  0.51100000000E-03 0.  1.
         12    1    3    3    0    0 -0.96891583468E+01  0.66381241674E+01 -0.63513400039E+01  0.13352303239E+02  0.00000000000E+00 0. -1.
</event>
<event>
 7    1  0.6230310E-012  0.5930189E+02  0.7816164E-02  0.1266605E+00
        -11   -1    0    0    0    0  0.00000000000E+00  0.00000000000E+00  0.45593999997E+02  0.45594000000E+02  0.51100000000E-03 0. -1.
         11   -1    0    0    0    0 -0.00000000000E+00 -0.00000000000E+00 -0.45593999997E+02  0.45594000000E+02  0.51100000000E-03 0.  1.
    9900012    2    1    2    0    0  0.98215479840E+00  0.72820843750E+01 -0.31027899008E+02  0.59301891775E+02  0.49999904703E+02 0.  0.
         12    1    1    2    0    0 -0.98215479840E+00 -0.72820843750E+01  0.31027899008E+02  0.31886108225E+02  0.00000000000E+00 0. -1.
         11    1    3    3    0    0  0.56122640425E+01  0.17038010842E+02  0.25812736058E+01  0.18123308054E+02  0.51100000000E-03 0. -1.
        -11    1    3    3    0    0  0.82291297469E+01 -0.38027026160E+01 -0.17609708060E+02  0.19806083454E+02  0.51100000000E-03 0.  1.
        -12    1    3    3    0    0 -0.12859238991E+02 -0.59532238506E+01 -0.15999464554E+02  0.21372500267E+02  0.00000000000E+00 0.  1.
</event>
<event>
 7    1  0.6230310E-012  0.5930186E+02  0.7816164E-02  0.1266605E+00
        -11   -1    0    0    0    0  0.00000000000E+00  0.00000000000E+00  0.45593999997E+02  0.45594000000E+02  0.51100000000E-03 0.  1.
         11   -1    0    0    0    0 -0.00000000000E+00 -0.00000000000E+00 -0.45593999997E+02  0.45594000000E+02  0.51100000000E-03 0. -1.
    9900012    2    1    2    0    0  0.58816409586E+01  0.31289901852E+02 -0.17533026914E+01  0.59301863065E+02  0.49999852344E+02 0.  0.
         12    1    1    2    0    0 -0.58816409586E+01 -0.31289901852E+02  0.17533026914E+01  0.31886136935E+02  0.00000000000E+00 0. -1.
         11    1    3    3    0    0  0.75512819742E+01  0.40165867166E+02  0.75901847963E+01  0.41568373196E+02  0.51100000000E-03 0. -1.
        -11    1    3    3    0    0  0.11402171140E+01  0.19583998890E+01  0.10149453417E+01  0.24830504425E+01  0.51100000000E-03 0.  1.
        -12    1    3    3    0    0 -0.28098581297E+01 -0.10834365202E+02 -0.10358432829E+02  0.15250439427E+02  0.00000000000E+00 0.  1.
</event>
<event>
 7    1  0.6230310E-012  0.5930194E+02  0.7816164E-02  0.1266605E+00
        -11   -1    0    0    0    0  0.00000000000E+00  0.00000000000E+00  0.45593999997E+02  0.45594000000E+02  0.51100000000E-03 0.  1.
         11   -1    0    0    0    0 -0.00000000000E+00 -0.00000000000E+00 -0.45593999997E+02  0.45594000000E+02  0.51100000000E-03 0. -1.
    9900012    2    1    2    0    0  0.67923241968E+01 -0.20030879292E+02  0.23861038079E+02  0.59301938289E+02  0.49999989534E+02 0.  0.
         12    1    1    2    0    0 -0.67923241968E+01  0.20030879292E+02 -0.23861038079E+02  0.31886061711E+02  0.00000000000E+00 0. -1.
         11    1    3    3    0    0 -0.72387646537E+01 -0.33401448995E+01 -0.76951461834E+01  0.11080232701E+02  0.51100000000E-03 0. -1.
        -11    1    3    3    0    0 -0.91496557006E+01 -0.59261738835E+01  0.91323197169E+01  0.14220935272E+02  0.51100000000E-03 0.  1.
        -12    1    3    3    0    0  0.23180744551E+02 -0.10764560509E+02  0.22423864546E+02  0.34000770316E+02  0.00000000000E+00 0.  1.
</event>
<event>
 7    1  0.6230310E-012  0.5930192E+02  0.7816164E-02  0.1266605E+00
        -11   -1    0    0    0    0  0.00000000000E+00  0.00000000000E+00  0.45593999997E+02  0.45594000000E+02  0.51100000000E-03 0.  1.
         11   -1    0    0    0    0 -0.00000000000E+00 -0.00000000000E+00 -0.45593999997E+02  0.45594000000E+02  0.51100000000E-03 0. -1.
    9900012    2    1    2    0    0 -0.26162986890E+02 -0.10208602447E+02  0.15099825932E+02  0.59301918552E+02  0.49999953539E+02 0.  0.
         12    1    1    2    0    0  0.26162986890E+02  0.10208602447E+02 -0.15099825932E+02  0.31886081448E+02  0.00000000000E+00 0. -1.
         11    1    3    3    0    0 -0.33681068692E+02  0.52571007040E+00  0.11678326299E+02  0.35652125669E+02  0.51100000000E-03 0. -1.
        -11    1    3    3    0    0 -0.20964265485E+01  0.12299381965E-01  0.81962349223E+01  0.84601077245E+01  0.51100000000E-03 0.  1.
        -12    1    3    3    0    0  0.96145083504E+01 -0.10746611899E+02 -0.47747352893E+01  0.15189685159E+02  0.00000000000E+00 0.  1.
</event>
<event>
 7    1  0.6230310E-012  0.5930193E+02  0.7816164E-02  0.1266605E+00
        -11   -1    0    0    0    0  0.00000000000E+00  0.00000000000E+00  0.45593999997E+02  0.45594000000E+02  0.51100000000E-03 0.  1.
         11   -1    0    0    0    0 -0.00000000000E+00 -0.00000000000E+00 -0.45593999997E+02  0.45594000000E+02  0.51100000000E-03 0. -1.
    9900012    2    1    2    0    0  0.93043705453E+01  0.30308655028E+02 -0.33964374957E+01  0.59301926731E+02  0.49999968456E+02 0.  0.
         12    1    1    2    0    0 -0.93043705453E+01 -0.30308655028E+02  0.33964374957E+01  0.31886073269E+02  0.00000000000E+00 0. -1.
         11    1    3    3    0    0  0.30472227451E+01  0.34320320577E+00  0.92071602986E+01  0.97043884879E+01  0.51100000000E-03 0. -1.
        -11    1    3    3    0    0  0.18274442100E+02  0.32456389378E+01 -0.32501144822E+01  0.18842840831E+02  0.51100000000E-03 0.  1.
         12    1    3    3    0    0 -0.12017294300E+02  0.26719812884E+02 -0.93534833122E+01  0.30754697412E+02  0.00000000000E+00 0. -1.
</event>
<event>
 7    1  0.6230310E-012  0.5930193E+02  0.7816164E-02  0.1266605E+00
        -11   -1    0    0    0    0  0.00000000000E+00  0.00000000000E+00  0.45593999997E+02  0.45594000000E+02  0.51100000000E-03 0.  1.
         11   -1    0    0    0    0 -0.00000000000E+00 -0.00000000000E+00 -0.45593999997E+02  0.45594000000E+02  0.51100000000E-03 0. -1.
    9900012    2    1    2    0    0  0.87622048671E+01  0.33944900883E+01  0.30470032306E+02  0.59301926773E+02  0.49999968532E+02 0.  0.
         12    1    1    2    0    0 -0.87622048671E+01 -0.33944900883E+01 -0.30470032306E+02  0.31886073227E+02  0.00000000000E+00 0. -1.
         11    1    3    3    0    0  0.50648277341E+01 -0.20532813268E+01 -0.73386460271E+01  0.91500912539E+01  0.51100000000E-03 0. -1.
        -11    1    3    3    0    0  0.13960086970E+02  0.26648820325E+01  0.40792491999E+01  0.14786003475E+02  0.51100000000E-03 0.  1.
        -12    1    3    3    0    0 -0.10262709837E+02  0.27828893826E+01  0.33729429133E+02  0.35365832044E+02  0.00000000000E+00 0.  1.
</event>
<event>
 7    1  0.6230310E-012  0.5930194E+02  0.7816164E-02  0.1266605E+00
        -11   -1    0    0    0    0  0.00000000000E+00  0.00000000000E+00  0.45593999997E+02  0.45594000000E+02  0.51100000000E-03 0.  1.
         11   -1    0    0    0    0 -0.00000000000E+00 -0.00000000000E+00 -0.45593999997E+02  0.45594000000E+02  0.51100000000E-03 0. -1.
    9900012    2    1    2    0    0  0.11562745831E+02 -0.29598042778E+02  0.26418794295E+01  0.59301941066E+02  0.49999994598E+02 0.  0.
         12    1    1    2    0    0 -0.11562745831E+02  0.29598042778E+02 -0.26418794295E+01  0.31886058934E+02  0.00000000000E+00 0. -1.
         11    1    3    3    0    0 -0.41664493980E+01 -0.71304098186E+01 -0.52405287813E+01  0.97808581902E+01  0.51100000000E-03 0. -1.
        -11    1    3    3    0    0  0.13409104774E+02  0.45626600896E+01 -0.97224965725E+01  0.17179898073E+02  0.51100000000E-03 0.  1.
        -12    1    3    3    0    0  0.23200904551E+01 -0.27030293049E+02  0.17604904783E+02  0.32341184803E+02  0.00000000000E+00 0.  1.
</event>
<event>
 7    1  0.7073969E-012  0.5930194E+02  0.7816164E-02  0.1266605E+00
        -11   -1    0    0    0    0  0.00000000000E+00  0.00000000000E+00  0.45593999997E+02  0.45594000000E+02  0.51100000000E-03 0. -1.
         11   -1    0    0    0    0 -0.00000000000E+00 -0.00000000000E+00 -0.45593999997E+02  0.45594000000E+02  0.51100000000E-03 0.  1.
    9900012    2    1    2    0    0  0.21782891330E+02 -0.52037861559E+01 -0.22696850774E+02  0.59301940662E+02  0.49999993862E+02 0.  0.
         12    1    1    2    0    0 -0.21782891330E+02  0.52037861559E+01  0.22696850774E+02  0.31886059338E+02  0.00000000000E+00 0. -1.
         11    1    3    3    0    0  0.93905117079E+01  0.53975473863E+00  0.66192803960E+01  0.11501648514E+02  0.51100000000E-03 0. -1.
        -11    1    3    3    0    0  0.11939488256E+02  0.10950500051E+02 -0.26211347243E+02  0.30813950667E+02  0.51100000000E-03 0.  1.
         12    1    3    3    0    0  0.45289136637E+00 -0.16694040945E+02 -0.31047839270E+01  0.16986341481E+02  0.00000000000E+00 0. -1.
</event>
<event>
 7    1  0.6230310E-012  0.5930231E+02  0.7816164E-02  0.1266603E+00
        -11   -1    0    0    0    0  0.00000000000E+00  0.00000000000E+00  0.45593999997E+02  0.45594000000E+02  0.51100000000E-03 0.  1.
         11   -1    0    0    0    0 -0.00000000000E+00 -0.00000000000E+00 -0.45593999997E+02  0.45594000000E+02  0.51100000000E-03 0. -1.
    9900012    2    1    2    0    0 -0.29987446965E+02 -0.10584625928E+02 -0.23272344727E+01  0.59302308824E+02  0.50000665296E+02 0.  0.
         12    1    1    2    0    0  0.29987446965E+02  0.10584625928E+02  0.23272344727E+01  0.31885691176E+02  0.00000000000E+00 0. -1.
         11    1    3    3    0    0  0.63466642830E+01  0.74027416657E+01 -0.29177853989E+01  0.10178123775E+02  0.51100000000E-03 0. -1.
        -11    1    3    3    0    0 -0.89926357033E+01  0.74221594438E+01 -0.14103106298E+01  0.11744995702E+02  0.51100000000E-03 0.  1.
        -12    1    3    3    0    0 -0.27341475544E+02 -0.25409527038E+02  0.20008615559E+01  0.37379189346E+02  0.00000000000E+00 0.  1.
</event>
<event>
 7    1  0.6230310E-012  0.5930193E+02  0.7816164E-02  0.1266605E+00
        -11   -1    0    0    0    0  0.00000000000E+00  0.00000000000E+00  0.45593999997E+02  0.45594000000E+02  0.51100000000E-03 0.  1.
         11   -1    0    0    0    0 -0.00000000000E+00 -0.00000000000E+00 -0.45593999997E+02  0.45594000000E+02  0.51100000000E-03 0. -1.
    9900012    2    1    2    0    0  0.23082710190E+02  0.16984670734E+02  0.13979663957E+02  0.59301928526E+02  0.49999971729E+02 0.  0.
         12    1    1    2    0    0 -0.23082710190E+02 -0.16984670734E+02 -0.13979663957E+02  0.31886071474E+02  0.00000000000E+00 0. -1.
         11    1    3    3    0    0  0.26848496722E+01  0.16365913910E+02 -0.14275769573E+02  0.21882622170E+02  0.51100000000E-03 0. -1.
        -11    1    3    3    0    0 -0.95929823080E+00  0.28617761974E+01  0.28176403163E+01  0.41290571941E+01  0.51100000000E-03 0.  1.
         12    1    3    3    0    0  0.21357158749E+02 -0.22430193730E+01  0.25437793213E+02  0.33290249162E+02  0.00000000000E+00 0. -1.
</event>
<event>
 7    1  0.6230310E-012  0.5930195E+02  0.7816164E-02  0.1266605E+00
        -11   -1    0    0    0    0  0.00000000000E+00  0.00000000000E+00  0.45593999997E+02  0.45594000000E+02  0.51100000000E-03 0.  1.
         11   -1    0    0    0    0 -0.00000000000E+00 -0.00000000000E+00 -0.45593999997E+02  0.45594000000E+02  0.51100000000E-03 0. -1.
    9900012    2    1    2    0    0 -0.79724771161E+00 -0.19360434884E+02  0.25323079413E+02  0.59301946720E+02  0.50000004910E+02 0.  0.
         12    1    1    2    0    0  0.79724771161E+00  0.19360434884E+02 -0.25323079413E+02  0.31886053280E+02  0.00000000000E+00 0. -1.
         11    1    3    3    0    0 -0.29715670659E+01  0.15808637692E+01 -0.40869575644E+01  0.52945786875E+01  0.51100000000E-03 0. -1.
        -11    1    3    3    0    0  0.20251526251E+02 -0.16956899250E+02  0.20654151006E+02  0.33529907571E+02  0.51100000000E-03 0.  1.
         12    1    3    3    0    0 -0.18077206897E+02 -0.39843994035E+01  0.87558859715E+01  0.20477460462E+02  0.00000000000E+00 0. -1.
</event>
<event>
 7    1  0.6230310E-012  0.5930202E+02  0.7816164E-02  0.1266604E+00
        -11   -1    0    0    0    0  0.00000000000E+00  0.00000000000E+00  0.45593999997E+02  0.45594000000E+02  0.51100000000E-03 0.  1.
         11   -1    0    0    0    0 -0.00000000000E+00 -0.00000000000E+00 -0.45593999997E+02  0.45594000000E+02  0.51100000000E-03 0. -1.
    9900012    2    1    2    0    0 -0.89794672403E+01 -0.21858530235E+02  0.21407698274E+02  0.59302019988E+02  0.50000138532E+02 0.  0.
         12    1    1    2    0    0  0.89794672403E+01  0.21858530235E+02 -0.21407698274E+02  0.31885980012E+02  0.00000000000E+00 0. -1.
         11    1    3    3    0    0 -0.11452562464E+01 -0.35514717311E+01  0.22228163644E+00  0.37381777263E+01  0.51100000000E-03 0. -1.
        -11    1    3    3    0    0 -0.21237085504E+02 -0.10152513908E+02  0.29554114256E+02  0.37782707805E+02  0.51100000000E-03 0.  1.
         12    1    3    3    0    0  0.13402874510E+02 -0.81545445957E+01 -0.83686976190E+01  0.17781134456E+02  0.00000000000E+00 0. -1.
</event>
<event>
 7    1  0.6230310E-012  0.5930194E+02  0.7816164E-02  0.1266605E+00
        -11   -1    0    0    0    0  0.00000000000E+00  0.00000000000E+00  0.45593999997E+02  0.45594000000E+02  0.51100000000E-03 0.  1.
         11   -1    0    0    0    0 -0.00000000000E+00 -0.00000000000E+00 -0.45593999997E+02  0.45594000000E+02  0.51100000000E-03 0. -1.
    9900012    2    1    2    0    0 -0.82595330489E+01 -0.13356291319E+02  0.27750857899E+02  0.59301944771E+02  0.50000001355E+02 0.  0.
         12    1    1    2    0    0  0.82595330489E+01  0.13356291319E+02 -0.27750857899E+02  0.31886055229E+02  0.00000000000E+00 0. -1.
         11    1    3    3    0    0  0.39976226889E+00 -0.16499385236E+01 -0.61168374825E+01  0.63480554543E+01  0.51100000000E-03 0. -1.
        -11    1    3    3    0    0  0.12926123972E+02 -0.13931650058E+02  0.16132059063E+02  0.24928274793E+02  0.51100000000E-03 0.  1.
        -12    1    3    3    0    0 -0.21585419289E+02  0.22252972633E+01  0.17735636318E+02  0.28025614524E+02  0.00000000000E+00 0.  1.
</event>
<event>
 7    1  0.6230310E-012  0.5930193E+02  0.7816164E-02  0.1266605E+00
        -11   -1    0    0    0    0  0.00000000000E+00  0.00000000000E+00  0.45593999997E+02  0.45594000000E+02  0.51100000000E-03 0. -1.
         11   -1    0    0    0    0 -0.00000000000E+00 -0.00000000000E+00 -0.45593999997E+02  0.45594000000E+02  0.51100000000E-03 0.  1.
    9900012    2    1    2    0    0 -0.19523112693E+02  0.51557141298E+01  0.24677686433E+02  0.59301928980E+02  0.49999972556E+02 0.  0.
         12    1    1    2    0    0  0.19523112693E+02 -0.51557141298E+01 -0.24677686433E+02  0.31886071020E+02  0.00000000000E+00 0. -1.
         11    1    3    3    0    0 -0.61558666969E+01 -0.11367483909E+02  0.12700475439E+02  0.18122264258E+02  0.51100000000E-03 0. -1.
        -11    1    3    3    0    0  0.54937056184E+01 -0.64535874500E+01  0.70988828777E+01  0.11055484194E+02  0.51100000000E-03 0.  1.
        -12    1    3    3    0    0 -0.18860951615E+02  0.22976785489E+02  0.48783281166E+01  0.30124180527E+02  0.00000000000E+00 0.  1.
</event>
<event>
 7    1  0.6230310E-012  0.5930192E+02  0.7816164E-02  0.1266605E+00
        -11   -1    0    0    0    0  0.00000000000E+00  0.00000000000E+00  0.45593999997E+02  0.45594000000E+02  0.51100000000E-03 0. -1.
         11   -1    0    0    0    0 -0.00000000000E+00 -0.00000000000E+00 -0.45593999997E+02  0.45594000000E+02  0.51100000000E-03 0.  1.
    9900012    2    1    2    0    0 -0.59370863850E+01  0.33158230888E+01 -0.31152503372E+02  0.59301919277E+02  0.49999954861E+02 0.  0.
         12    1    1    2    0    0  0.59370863850E+01 -0.33158230888E+01  0.31152503372E+02  0.31886080723E+02  0.00000000000E+00 0. -1.
         11    1    3    3    0    0 -0.49379001308E+00 -0.59353537179E+01  0.66453776331E+00  0.59928176206E+01  0.51100000000E-03 0. -1.
        -11    1    3    3    0    0 -0.14742940651E+02  0.50513145264E+01 -0.38211329512E+02  0.41267127121E+02  0.51100000000E-03 0.  1.
         12    1    3    3    0    0  0.92996442789E+01  0.41998622803E+01  0.63942883765E+01  0.12041974536E+02  0.00000000000E+00 0. -1.
</event>
<event>
 7    1  0.6230310E-012  0.5930196E+02  0.7816164E-02  0.1266605E+00
        -11   -1    0    0    0    0  0.00000000000E+00  0.00000000000E+00  0.45593999997E+02  0.45594000000E+02  0.51100000000E-03 0.  1.
         11   -1    0    0    0    0 -0.00000000000E+00 -0.00000000000E+00 -0.45593999997E+02  0.45594000000E+02  0.51100000000E-03 0. -1.
    9900012    2    1    2    0    0  0.29751181977E+02 -0.11350881925E+02  0.16566505117E+01  0.59301955397E+02  0.50000020735E+02 0.  0.
         12    1    1    2    0    0 -0.29751181977E+02  0.11350881925E+02 -0.16566505117E+01  0.31886044603E+02  0.00000000000E+00 0. -1.
         11    1    3    3    0    0  0.10535705748E+02  0.66479577197E+01 -0.13988608408E+02  0.18731727174E+02  0.51100000000E-03 0. -1.
        -11    1    3    3    0    0  0.56988531544E+01 -0.15816353801E+02 -0.33624707029E+01  0.17144683850E+02  0.51100000000E-03 0.  1.
        -12    1    3    3    0    0  0.13516623074E+02 -0.21824858438E+01  0.19007729623E+02  0.23425544373E+02  0.00000000000E+00 0.  1.
</event>
<event>
 7    1  0.6230310E-012  0.5930194E+02  0.7816164E-02  0.1266605E+00
        -11   -1    0    0    0    0  0.00000000000E+00  0.00000000000E+00  0.45593999997E+02  0.45594000000E+02  0.51100000000E-03 0. -1.
         11   -1    0    0    0    0 -0.00000000000E+00 -0.00000000000E+00 -0.45593999997E+02  0.45594000000E+02  0.51100000000E-03 0.  1.
    9900012    2    1    2    0    0 -0.24012322391E+02 -0.11673457341E+02 -0.17431565028E+02  0.59301942040E+02  0.49999996375E+02 0.  0.
         12    1    1    2    0    0  0.24012322391E+02  0.11673457341E+02  0.17431565028E+02  0.31886057960E+02  0.00000000000E+00 0. -1.
         11    1    3    3    0    0 -0.47353641152E+01 -0.73539778009E+00  0.17785509424E+01  0.51115288236E+01  0.51100000000E-03 0. -1.
        -11    1    3    3    0    0 -0.26144483801E+02  0.93220639812E+01 -0.17314164741E+02  0.32714143899E+02  0.51100000000E-03 0.  1.
        -12    1    3    3    0    0  0.68675255246E+01 -0.20260123542E+02 -0.18959512290E+01  0.21476269318E+02  0.00000000000E+00 0.  1.
</event>
<event>
 7    1  0.6230310E-012  0.5930175E+02  0.7816164E-02  0.1266605E+00
        -11   -1    0    0    0    0  0.00000000000E+00  0.00000000000E+00  0.45593999997E+02  0.45594000000E+02  0.51100000000E-03 0. -1.
         11   -1    0    0    0    0 -0.00000000000E+00 -0.00000000000E+00 -0.45593999997E+02  0.45594000000E+02  0.51100000000E-03 0.  1.
    9900012    2    1    2    0    0 -0.10266735796E+02 -0.29009930108E+02 -0.83517181541E+01  0.59301747399E+02  0.49999641395E+02 0.  0.
         12    1    1    2    0    0  0.10266735796E+02  0.29009930108E+02  0.83517181541E+01  0.31886252601E+02  0.00000000000E+00 0. -1.
         11    1    3    3    0    0 -0.12945099939E+02 -0.13467517491E+02 -0.95426888128E+01  0.20976476107E+02  0.51100000000E-03 0. -1.
        -11    1    3    3    0    0 -0.76942702763E+01  0.53172673719E+01 -0.89245571140E+01  0.12927600215E+02  0.51100000000E-03 0.  1.
        -12    1    3    3    0    0  0.10372634419E+02 -0.20859679989E+02  0.10115527773E+02  0.25397671077E+02  0.00000000000E+00 0.  1.
</event>
<event>
 7    1  0.6230310E-012  0.5930195E+02  0.7816164E-02  0.1266605E+00
        -11   -1    0    0    0    0  0.00000000000E+00  0.00000000000E+00  0.45593999997E+02  0.45594000000E+02  0.51100000000E-03 0.  1.
         11   -1    0    0    0    0 -0.00000000000E+00 -0.00000000000E+00 -0.45593999997E+02  0.45594000000E+02  0.51100000000E-03 0. -1.
    9900012    2    1    2    0    0 -0.26326911541E+02  0.85669733608E+01  0.15818362525E+02  0.59301954513E+02  0.50000019122E+02 0.  0.
         12    1    1    2    0    0  0.26326911541E+02 -0.85669733608E+01 -0.15818362525E+02  0.31886045487E+02  0.00000000000E+00 0. -1.
         11    1    3    3    0    0 -0.19311422665E+02  0.51951192581E+01 -0.68051945841E+01  0.21124180056E+02  0.51100000000E-03 0.  1.
        -11    1    3    3    0    0  0.20472989641E+01  0.14496498238E+02  0.50423154995E+01  0.15484341771E+02  0.51100000000E-03 0. -1.
        -12    1    3    3    0    0 -0.90627878399E+01 -0.11124644135E+02  0.17581241609E+02  0.22693432686E+02  0.00000000000E+00 0.  1.
</event>
<event>
 7    1  0.6230310E-012  0.5930194E+02  0.7816164E-02  0.1266605E+00
        -11   -1    0    0    0    0  0.00000000000E+00  0.00000000000E+00  0.45593999997E+02  0.45594000000E+02  0.51100000000E-03 0. -1.
         11   -1    0    0    0    0 -0.00000000000E+00 -0.00000000000E+00 -0.45593999997E+02  0.45594000000E+02  0.51100000000E-03 0.  1.
    9900012    2    1    2    0    0 -0.29056745552E+02  0.12793942282E+02  0.29565832474E+01  0.59301940261E+02  0.49999993131E+02 0.  0.
         12    1    1    2    0    0  0.29056745552E+02 -0.12793942282E+02 -0.29565832474E+01  0.31886059739E+02  0.00000000000E+00 0. -1.
         11    1    3    3    0    0 -0.11732635869E+01 -0.92080121486E+01 -0.27377019322E+01  0.96777604487E+01  0.51100000000E-03 0. -1.
        -11    1    3    3    0    0 -0.33844331059E+02  0.90965988892E+01  0.31970687687E+01  0.35191023076E+02  0.51100000000E-03 0.  1.
         12    1    3    3    0    0  0.59608490943E+01  0.12905355541E+02  0.24972164109E+01  0.14433156736E+02  0.00000000000E+00 0. -1.
</event>
<event>
 7    1  0.6230310E-012  0.5930196E+02  0.7816164E-02  0.1266605E+00
        -11   -1    0    0    0    0  0.00000000000E+00  0.00000000000E+00  0.45593999997E+02  0.45594000000E+02  0.51100000000E-03 0.  1.
         11   -1    0    0    0    0 -0.00000000000E+00 -0.00000000000E+00 -0.45593999997E+02  0.45594000000E+02  0.51100000000E-03 0. -1.
    9900012    2    1    2    0    0  0.21632102237E+02 -0.12497391289E+02  0.19813812586E+02  0.59301955946E+02  0.50000021736E+02 0.  0.
         12    1    1    2    0    0 -0.21632102237E+02  0.12497391289E+02 -0.19813812586E+02  0.31886044054E+02  0.00000000000E+00 0. -1.
         11    1    3    3    0    0 -0.78326778107E+00 -0.50962974722E+01 -0.22761839665E+01  0.56362017399E+01  0.51100000000E-03 0. -1.
        -11    1    3    3    0    0 -0.14371922410E+01 -0.19995946575E+02  0.16849159740E+02  0.26187737305E+02  0.51100000000E-03 0.  1.
         12    1    3    3    0    0  0.23852562259E+02  0.12594852758E+02  0.52408368133E+01  0.27478016901E+02  0.00000000000E+00 0. -1.
</event>
<event>
 7    1  0.6230310E-012  0.5930195E+02  0.7816164E-02  0.1266605E+00
        -11   -1    0    0    0    0  0.00000000000E+00  0.00000000000E+00  0.45593999997E+02  0.45594000000E+02  0.51100000000E-03 0. -1.
         11   -1    0    0    0    0 -0.00000000000E+00 -0.00000000000E+00 -0.45593999997E+02  0.45594000000E+02  0.51100000000E-03 0.  1.
    9900012    2    1    2    0    0 -0.53602416265E+01  0.27759158842E+02 -0.14745069234E+02  0.59301950438E+02  0.50000011691E+02 0.  0.
         12    1    1    2    0    0  0.53602416265E+01 -0.27759158842E+02  0.14745069234E+02  0.31886049562E+02  0.00000000000E+00 0. -1.
         11    1    3    3    0    0  0.76018941677E+01  0.17885172391E+02 -0.86518931529E+01  0.21272598379E+02  0.51100000000E-03 0. -1.
        -11    1    3    3    0    0 -0.16371272139E+02  0.19799115628E+02  0.39013651966E+00  0.25693885223E+02  0.51100000000E-03 0.  1.
         12    1    3    3    0    0  0.34091363446E+01 -0.99251291766E+01 -0.64833126010E+01  0.12335466836E+02  0.00000000000E+00 0. -1.
</event>
<event>
 7    1  0.6230310E-012  0.5930199E+02  0.7816164E-02  0.1266605E+00
        -11   -1    0    0    0    0  0.00000000000E+00  0.00000000000E+00  0.45593999997E+02  0.45594000000E+02  0.51100000000E-03 0. -1.
         11   -1    0    0    0    0 -0.00000000000E+00 -0.00000000000E+00 -0.45593999997E+02  0.45594000000E+02  0.51100000000E-03 0.  1.
    9900012    2    1    2    0    0  0.22329403241E+02  0.22615835543E+02 -0.25767345364E+01  0.59301986965E+02  0.50000078307E+02 0.  0.
         12    1    1    2    0    0 -0.22329403241E+02 -0.22615835543E+02  0.25767345364E+01  0.31886013035E+02  0.00000000000E+00 0. -1.
         11    1    3    3    0    0  0.89732811877E+01 -0.71071382982E+01  0.50849854728E+01  0.12525504684E+02  0.51100000000E-03 0. -1.
        -11    1    3    3    0    0  0.23296896315E+01  0.15373473266E+00 -0.14332079427E+02  0.14521005100E+02  0.51100000000E-03 0.  1.
         12    1    3    3    0    0  0.11026432422E+02  0.29569239109E+02  0.66703594179E+01  0.32255477181E+02  0.00000000000E+00 0. -1.
</event>
<event>
 7    1  0.6230310E-012  0.5930194E+02  0.7816164E-02  0.1266605E+00
        -11   -1    0    0    0    0  0.00000000000E+00  0.00000000000E+00  0.45593999997E+02  0.45594000000E+02  0.51100000000E-03 0.  1.
         11   -1    0    0    0    0 -0.00000000000E+00 -0.00000000000E+00 -0.45593999997E+02  0.45594000000E+02  0.51100000000E-03 0. -1.
    9900012    2    1    2    0    0 -0.51947723547E+01 -0.22266438042E+02  0.22224778319E+02  0.59301942009E+02  0.49999996318E+02 0.  0.
         12    1    1    2    0    0  0.51947723547E+01  0.22266438042E+02 -0.22224778319E+02  0.31886057991E+02  0.00000000000E+00 0. -1.
         11    1    3    3    0    0 -0.11171171443E+02 -0.11168526934E+01  0.43728487638E+00  0.11235374923E+02  0.51100000000E-03 0. -1.
        -11    1    3    3    0    0  0.19470529798E+02 -0.35708667049E+01  0.15167613485E+02  0.24938105757E+02  0.51100000000E-03 0.  1.
         12    1    3    3    0    0 -0.13494130710E+02 -0.17578718643E+02  0.66198799581E+01  0.23128461328E+02  0.00000000000E+00 0. -1.
</event>
<event>
 7    1  0.6230310E-012  0.5930195E+02  0.7816164E-02  0.1266605E+00
        -11   -1    0    0    0    0  0.00000000000E+00  0.00000000000E+00  0.45593999997E+02  0.45594000000E+02  0.51100000000E-03 0. -1.
         11   -1    0    0    0    0 -0.00000000000E+00 -0.00000000000E+00 -0.45593999997E+02  0.45594000000E+02  0.51100000000E-03 0.  1.
    9900012    2    1    2    0    0  0.21193751571E+02  0.23535908871E+02 -0.36886287982E+01  0.59301951414E+02  0.50000013471E+02 0.  0.
         12    1    1    2    0    0 -0.21193751571E+02 -0.23535908871E+02  0.36886287982E+01  0.31886048586E+02  0.00000000000E+00 0. -1.
         11    1    3    3    0    0  0.33795743265E+01  0.90418577519E+01  0.12260018229E+00  0.96535871727E+01  0.51100000000E-03 0.  1.
        -11    1    3    3    0    0  0.30841528796E+02  0.16792263586E+02 -0.75136641206E+01  0.35911490690E+02  0.51100000000E-03 0. -1.
         12    1    3    3    0    0 -0.13027351551E+02 -0.22982124673E+01  0.37024351401E+01  0.13736873551E+02  0.00000000000E+00 0. -1.
</event>
<event>
 7    1  0.6230310E-012  0.5930201E+02  0.7816164E-02  0.1266605E+00
        -11   -1    0    0    0    0  0.00000000000E+00  0.00000000000E+00  0.45593999997E+02  0.45594000000E+02  0.51100000000E-03 0.  1.
         11   -1    0    0    0    0 -0.00000000000E+00 -0.00000000000E+00 -0.45593999997E+02  0.45594000000E+02  0.51100000000E-03 0. -1.
    9900012    2    1    2    0    0  0.28019853591E+02  0.29438571806E+01  0.14931101450E+02  0.59302011214E+02  0.50000122531E+02 0.  0.
         12    1    1    2    0    0 -0.28019853591E+02 -0.29438571806E+01 -0.14931101450E+02  0.31885988786E+02  0.00000000000E+00 0. -1.
         11    1    3    3    0    0  0.25268734611E+02 -0.10718766605E+02 -0.55751045736E+01  0.28008618274E+02  0.51100000000E-03 0. -1.
        -11    1    3    3    0    0  0.77299742066E+01 -0.90644767593E+00  0.41097263713E+01  0.88013635155E+01  0.51100000000E-03 0.  1.
        -12    1    3    3    0    0 -0.49788552263E+01  0.14569071462E+02  0.16396479652E+02  0.22492029424E+02  0.00000000000E+00 0.  1.
</event>
<event>
 7    1  0.6230310E-012  0.5930191E+02  0.7816164E-02  0.1266605E+00
        -11   -1    0    0    0    0  0.00000000000E+00  0.00000000000E+00  0.45593999997E+02  0.45594000000E+02  0.51100000000E-03 0. -1.
         11   -1    0    0    0    0 -0.00000000000E+00 -0.00000000000E+00 -0.45593999997E+02  0.45594000000E+02  0.51100000000E-03 0.  1.
    9900012    2    1    2    0    0  0.31142198976E+02 -0.65981872634E+01  0.18302778695E+01  0.59301912919E+02  0.49999943266E+02 0.  0.
         12    1    1    2    0    0 -0.31142198976E+02  0.65981872634E+01 -0.18302778695E+01  0.31886087081E+02  0.00000000000E+00 0. -1.
         11    1    3    3    0    0  0.17224609629E+02 -0.12822497424E+02 -0.20734407707E+01  0.21573195729E+02  0.51100000000E-03 0. -1.
        -11    1    3    3    0    0  0.22538592972E+01  0.43826880217E+01 -0.14805824706E+02  0.15604495555E+02  0.51100000000E-03 0.  1.
         12    1    3    3    0    0  0.11663730050E+02  0.18416221388E+01  0.18709543346E+02  0.22124221636E+02  0.00000000000E+00 0. -1.
</event>
<event>
 7    1  0.6230310E-012  0.5930197E+02  0.7816164E-02  0.1266605E+00
        -11   -1    0    0    0    0  0.00000000000E+00  0.00000000000E+00  0.45593999997E+02  0.45594000000E+02  0.51100000000E-03 0.  1.
         11   -1    0    0    0    0 -0.00000000000E+00 -0.00000000000E+00 -0.45593999997E+02  0.45594000000E+02  0.51100000000E-03 0. -1.
    9900012    2    1    2    0    0  0.13233172225E+00 -0.27915196134E+02 -0.15409183803E+02  0.59301974340E+02  0.50000055283E+02 0.  0.
         12    1    1    2    0    0 -0.13233172225E+00  0.27915196134E+02  0.15409183803E+02  0.31886025660E+02  0.00000000000E+00 0. -1.
         11    1    3    3    0    0  0.16725236969E+02 -0.75693292802E+01 -0.20760835244E+01  0.18475346288E+02  0.51100000000E-03 0. -1.
        -11    1    3    3    0    0 -0.11351504882E+02  0.47803442021E+01 -0.10207163087E+01  0.12359215826E+02  0.51100000000E-03 0.  1.
        -12    1    3    3    0    0 -0.52414003644E+01 -0.25126211056E+02 -0.12312383970E+02  0.28467412226E+02  0.00000000000E+00 0.  1.
</event>
<event>
 7    1  0.6230310E-012  0.5930195E+02  0.7816164E-02  0.1266605E+00
        -11   -1    0    0    0    0  0.00000000000E+00  0.00000000000E+00  0.45593999997E+02  0.45594000000E+02  0.51100000000E-03 0. -1.
         11   -1    0    0    0    0 -0.00000000000E+00 -0.00000000000E+00 -0.45593999997E+02  0.45594000000E+02  0.51100000000E-03 0.  1.
    9900012    2    1    2    0    0  0.26548094978E+02  0.78832157320E+01  0.15804224878E+02  0.59301953502E+02  0.50000017280E+02 0.  0.
         12    1    1    2    0    0 -0.26548094978E+02 -0.78832157320E+01 -0.15804224878E+02  0.31886046498E+02  0.00000000000E+00 0. -1.
         11    1    3    3    0    0  0.30626509636E+01 -0.13741728780E+01  0.20308752516E+02  0.20584304969E+02  0.51100000000E-03 0. -1.
        -11    1    3    3    0    0 -0.40674258452E+01  0.66641076216E+01  0.52116054661E+01  0.93869651749E+01  0.51100000000E-03 0.  1.
        -12    1    3    3    0    0  0.27552869860E+02  0.25932809883E+01 -0.97161331043E+01  0.29330683359E+02  0.00000000000E+00 0.  1.
</event>
<event>
 7    1  0.6230310E-012  0.5930205E+02  0.7816164E-02  0.1266604E+00
        -11   -1    0    0    0    0  0.00000000000E+00  0.00000000000E+00  0.45593999997E+02  0.45594000000E+02  0.51100000000E-03 0.  1.
         11   -1    0    0    0    0 -0.00000000000E+00 -0.00000000000E+00 -0.45593999997E+02  0.45594000000E+02  0.51100000000E-03 0. -1.
    9900012    2    1    2    0    0  0.10242293667E+02 -0.29986553649E+02 -0.35518718048E+01  0.59302050545E+02  0.50000194262E+02 0.  0.
         12    1    1    2    0    0 -0.10242293667E+02  0.29986553649E+02  0.35518718048E+01  0.31885949455E+02  0.00000000000E+00 0. -1.
         11    1    3    3    0    0  0.13207448626E+02 -0.27518200663E+02 -0.21438661360E+02  0.37300191261E+02  0.51100000000E-03 0. -1.
        -11    1    3    3    0    0  0.29375570026E+01  0.21865322500E+01  0.14703906379E+01  0.39461643799E+01  0.51100000000E-03 0.  1.
         12    1    3    3    0    0 -0.59027119617E+01 -0.46548852356E+01  0.16416398917E+02  0.18055694904E+02  0.00000000000E+00 0. -1.
</event>
<event>
 7    1  0.6230310E-012  0.5930185E+02  0.7816164E-02  0.1266605E+00
        -11   -1    0    0    0    0  0.00000000000E+00  0.00000000000E+00  0.45593999997E+02  0.45594000000E+02  0.51100000000E-03 0. -1.
         11   -1    0    0    0    0 -0.00000000000E+00 -0.00000000000E+00 -0.45593999997E+02  0.45594000000E+02  0.51100000000E-03 0.  1.
    9900012    2    1    2    0    0  0.17723008629E+02  0.96989262448E+01 -0.24668859947E+02  0.59301845383E+02  0.49999820095E+02 0.  0.
         12    1    1    2    0    0 -0.17723008629E+02 -0.96989262448E+01  0.24668859947E+02  0.31886154617E+02  0.00000000000E+00 0. -1.
         11    1    3    3    0    0  0.12110920590E+02  0.68065962379E+01  0.54866814759E+01  0.14936794293E+02  0.51100000000E-03 0. -1.
        -11    1    3    3    0    0 -0.82102040362E+01  0.13014693521E+02 -0.13485401149E+02  0.20460834347E+02  0.51100000000E-03 0.  1.
        -12    1    3    3    0    0  0.13822292075E+02 -0.10122363514E+02 -0.16670140275E+02  0.23904216743E+02  0.00000000000E+00 0.  1.
</event>
<event>
 7    1  0.6230310E-012  0.5930195E+02  0.7816164E-02  0.1266605E+00
        -11   -1    0    0    0    0  0.00000000000E+00  0.00000000000E+00  0.45593999997E+02  0.45594000000E+02  0.51100000000E-03 0. -1.
         11   -1    0    0    0    0 -0.00000000000E+00 -0.00000000000E+00 -0.45593999997E+02  0.45594000000E+02  0.51100000000E-03 0.  1.
    9900012    2    1    2    0    0 -0.44530220324E+01  0.64612545467E+01 -0.30905382646E+02  0.59301954587E+02  0.50000019258E+02 0.  0.
         12    1    1    2    0    0  0.44530220324E+01 -0.64612545467E+01  0.30905382646E+02  0.31886045413E+02  0.00000000000E+00 0. -1.
         11    1    3    3    0    0 -0.44126690997E+01 -0.56943670811E+01 -0.20137745229E+02  0.21387525528E+02  0.51100000000E-03 0. -1.
        -11    1    3    3    0    0  0.83785576652E+01  0.12656721814E+02 -0.20196240474E+02  0.25264223028E+02  0.51100000000E-03 0.  1.
         12    1    3    3    0    0 -0.84189105979E+01 -0.50110018628E+00  0.94286030568E+01  0.12650206032E+02  0.00000000000E+00 0. -1.
</event>
<event>
 7    1  0.6230310E-012  0.5930194E+02  0.7816164E-02  0.1266605E+00
        -11   -1    0    0    0    0  0.00000000000E+00  0.00000000000E+00  0.45593999997E+02  0.45594000000E+02  0.51100000000E-03 0. -1.
         11   -1    0    0    0    0 -0.00000000000E+00 -0.00000000000E+00 -0.45593999997E+02  0.45594000000E+02  0.51100000000E-03 0.  1.
    9900012    2    1    2    0    0  0.29697700045E+01 -0.29872990703E+02 -0.10747353469E+02  0.59301941698E+02  0.49999995751E+02 0.  0.
         12    1    1    2    0    0 -0.29697700045E+01  0.29872990703E+02  0.10747353469E+02  0.31886058302E+02  0.00000000000E+00 0. -1.
         11    1    3    3    0    0 -0.51669818918E+01  0.33512947551E+01  0.60305548161E+01  0.86195400142E+01  0.51100000000E-03 0. -1.
        -11    1    3    3    0    0  0.13207793156E+02 -0.10203950016E+02  0.61608677024E+01  0.17791084484E+02  0.51100000000E-03 0.  1.
        -12    1    3    3    0    0 -0.50710412600E+01 -0.23020335442E+02 -0.22938775988E+02  0.32891317200E+02  0.00000000000E+00 0.  1.
</event>
<event>
 7    1  0.6230310E-012  0.5930195E+02  0.7816164E-02  0.1266605E+00
        -11   -1    0    0    0    0  0.00000000000E+00  0.00000000000E+00  0.45593999997E+02  0.45594000000E+02  0.51100000000E-03 0.  1.
         11   -1    0    0    0    0 -0.00000000000E+00 -0.00000000000E+00 -0.45593999997E+02  0.45594000000E+02  0.51100000000E-03 0. -1.
    9900012    2    1    2    0    0 -0.26070029110E+02 -0.18584173543E+01  0.18265260387E+02  0.59301954936E+02  0.50000019893E+02 0.  0.
         12    1    1    2    0    0  0.26070029110E+02  0.18584173543E+01 -0.18265260387E+02  0.31886045064E+02  0.00000000000E+00 0. -1.
         11    1    3    3    0    0  0.49438738453E+01 -0.36036347634E+01  0.21614561577E+01  0.64884485887E+01  0.51100000000E-03 0. -1.
        -11    1    3    3    0    0 -0.20025919238E+02 -0.70817269171E+01  0.27457767125E+02  0.34714799052E+02  0.51100000000E-03 0.  1.
         12    1    3    3    0    0 -0.10987983717E+02  0.88269443263E+01 -0.11353962896E+02  0.18098707295E+02  0.00000000000E+00 0. -1.
</event>
<event>
 7    1  0.6230310E-012  0.5930194E+02  0.7816164E-02  0.1266605E+00
        -11   -1    0    0    0    0  0.00000000000E+00  0.00000000000E+00  0.45593999997E+02  0.45594000000E+02  0.51100000000E-03 0. -1.
         11   -1    0    0    0    0 -0.00000000000E+00 -0.00000000000E+00 -0.45593999997E+02  0.45594000000E+02  0.51100000000E-03 0.  1.
    9900012    2    1    2    0    0  0.17290496012E+02 -0.25725343655E+02 -0.74810402800E+01  0.59301944706E+02  0.50000001238E+02 0.  0.
         12    1    1    2    0    0 -0.17290496012E+02  0.25725343655E+02  0.74810402800E+01  0.31886055294E+02  0.00000000000E+00 0. -1.
         11    1    3    3    0    0 -0.49028271997E+01  0.39661971663E+01 -0.13735136233E+01  0.64540665046E+01  0.51100000000E-03 0. -1.
        -11    1    3    3    0    0  0.71913601250E+01  0.45534990905E+01 -0.12293559134E+02  0.14952645614E+02  0.51100000000E-03 0.  1.
        -12    1    3    3    0    0  0.15001963086E+02 -0.34245039912E+02  0.61860324777E+01  0.37895232587E+02  0.00000000000E+00 0.  1.
</event>
<event>
 7    1  0.6230310E-012  0.5930193E+02  0.7816164E-02  0.1266605E+00
        -11   -1    0    0    0    0  0.00000000000E+00  0.00000000000E+00  0.45593999997E+02  0.45594000000E+02  0.51100000000E-03 0. -1.
         11   -1    0    0    0    0 -0.00000000000E+00 -0.00000000000E+00 -0.45593999997E+02  0.45594000000E+02  0.51100000000E-03 0.  1.
    9900012    2    1    2    0    0 -0.95515314599E+01  0.13673532547E+02  0.27175806752E+02  0.59301925953E+02  0.49999967035E+02 0.  0.
         12    1    1    2    0    0  0.95515314599E+01 -0.13673532547E+02 -0.27175806752E+02  0.31886074047E+02  0.00000000000E+00 0. -1.
         11    1    3    3    0    0  0.77549461373E+01 -0.19689362983E+01  0.10654523115E+02  0.13324217156E+02  0.51100000000E-03 0. -1.
        -11    1    3    3    0    0 -0.52968387700E+01  0.26310606822E+02  0.10664475257E+02  0.28879673908E+02  0.51100000000E-03 0.  1.
         12    1    3    3    0    0 -0.12009638827E+02 -0.10668137977E+02  0.58568083797E+01  0.17098034888E+02  0.00000000000E+00 0. -1.
</event>
<event>
 7    1  0.6230310E-012  0.5930194E+02  0.7816164E-02  0.1266605E+00
        -11   -1    0    0    0    0  0.00000000000E+00  0.00000000000E+00  0.45593999997E+02  0.45594000000E+02  0.51100000000E-03 0.  1.
         11   -1    0    0    0    0 -0.00000000000E+00 -0.00000000000E+00 -0.45593999997E+02  0.45594000000E+02  0.51100000000E-03 0. -1.
    9900012    2    1    2    0    0 -0.12573024145E+02  0.25811476455E+02  0.13871116779E+02  0.59301935118E+02  0.49999983752E+02 0.  0.
         12    1    1    2    0    0  0.12573024145E+02 -0.25811476455E+02 -0.13871116779E+02  0.31886064882E+02  0.00000000000E+00 0. -1.
         11    1    3    3    0    0 -0.17356317451E+02  0.34703612665E+01  0.83079805706E+01  0.19552690460E+02  0.51100000000E-03 0. -1.
        -11    1    3    3    0    0 -0.37503024367E+01  0.21080600527E+02  0.15617072033E+02  0.26501875898E+02  0.51100000000E-03 0.  1.
        -12    1    3    3    0    0  0.85335957430E+01  0.12605146615E+01 -0.10053935825E+02  0.13247368761E+02  0.00000000000E+00 0.  1.
</event>
<event>
 7    1  0.6230310E-012  0.5930187E+02  0.7816164E-02  0.1266605E+00
        -11   -1    0    0    0    0  0.00000000000E+00  0.00000000000E+00  0.45593999997E+02  0.45594000000E+02  0.51100000000E-03 0. -1.
         11   -1    0    0    0    0 -0.00000000000E+00 -0.00000000000E+00 -0.45593999997E+02  0.45594000000E+02  0.51100000000E-03 0.  1.
    9900012    2    1    2    0    0  0.48166856763E+01 -0.76272647418E+01 -0.30583485650E+02  0.59301870996E+02  0.49999866808E+02 0.  0.
         12    1    1    2    0    0 -0.48166856763E+01  0.76272647418E+01  0.30583485650E+02  0.31886129004E+02  0.00000000000E+00 0. -1.
         11    1    3    3    0    0 -0.13120753183E+02 -0.89517167296E+01 -0.22869510454E+02  0.27844243663E+02  0.51100000000E-03 0. -1.
        -11    1    3    3    0    0  0.11517088200E+02  0.47499229304E+01 -0.16098240433E+02  0.20355796073E+02  0.51100000000E-03 0.  1.
        -12    1    3    3    0    0  0.64203506598E+01 -0.34254709426E+01  0.83842652368E+01  0.11101831260E+02  0.00000000000E+00 0.  1.
</event>
<event>
 7    1  0.6230310E-012  0.5930195E+02  0.7816164E-02  0.1266605E+00
        -11   -1    0    0    0    0  0.00000000000E+00  0.00000000000E+00  0.45593999997E+02  0.45594000000E+02  0.51100000000E-03 0. -1.
         11   -1    0    0    0    0 -0.00000000000E+00 -0.00000000000E+00 -0.45593999997E+02  0.45594000000E+02  0.51100000000E-03 0.  1.
    9900012    2    1    2    0    0  0.75907637900E+01 -0.30220597572E+02  0.67687687906E+01  0.59301945941E+02  0.50000003489E+02 0.  0.
         12    1    1    2    0    0 -0.75907637900E+01  0.30220597572E+02 -0.67687687906E+01  0.31886054059E+02  0.00000000000E+00 0. -1.
         11    1    3    3    0    0  0.10701516056E+02 -0.14980519108E+02  0.15526792372E+02  0.24083597744E+02  0.51100000000E-03 0. -1.
        -11    1    3    3    0    0 -0.10907780734E+02 -0.18814279322E+02  0.15568668655E+01  0.21803225028E+02  0.51100000000E-03 0.  1.
        -12    1    3    3    0    0  0.77970284676E+01  0.35742008580E+01 -0.10314890447E+02  0.13415123169E+02  0.00000000000E+00 0.  1.
</event>
<event>
 7    1  0.6230310E-012  0.5930193E+02  0.7816164E-02  0.1266605E+00
        -11   -1    0    0    0    0  0.00000000000E+00  0.00000000000E+00  0.45593999997E+02  0.45594000000E+02  0.51100000000E-03 0.  1.
         11   -1    0    0    0    0 -0.00000000000E+00 -0.00000000000E+00 -0.45593999997E+02  0.45594000000E+02  0.51100000000E-03 0. -1.
    9900012    2    1    2    0    0  0.29987344247E+02  0.10718814113E+02  0.16086025808E+01  0.59301931048E+02  0.49999976328E+02 0.  0.
         12    1    1    2    0    0 -0.29987344247E+02 -0.10718814113E+02 -0.16086025808E+01  0.31886068952E+02  0.00000000000E+00 0. -1.
         11    1    3    3    0    0  0.25741348614E+02  0.12114976862E+02 -0.14620699369E+02  0.31986787009E+02  0.51100000000E-03 0. -1.
        -11    1    3    3    0    0  0.82034499222E+01  0.81790019543E+01  0.79010216876E+01  0.14022082854E+02  0.51100000000E-03 0.  1.
        -12    1    3    3    0    0 -0.39574542895E+01 -0.95751647034E+01  0.83282802621E+01  0.13293061185E+02  0.00000000000E+00 0.  1.
</event>
<event>
 7    1  0.6230310E-012  0.5930195E+02  0.7816164E-02  0.1266605E+00
        -11   -1    0    0    0    0  0.00000000000E+00  0.00000000000E+00  0.45593999997E+02  0.45594000000E+02  0.51100000000E-03 0.  1.
         11   -1    0    0    0    0 -0.00000000000E+00 -0.00000000000E+00 -0.45593999997E+02  0.45594000000E+02  0.51100000000E-03 0. -1.
    9900012    2    1    2    0    0  0.23017286108E+02  0.19449842392E+02  0.10422489687E+02  0.59301951011E+02  0.50000012736E+02 0.  0.
         12    1    1    2    0    0 -0.23017286108E+02 -0.19449842392E+02 -0.10422489687E+02  0.31886048989E+02  0.00000000000E+00 0. -1.
         11    1    3    3    0    0 -0.65436046562E+01  0.19085569471E+00 -0.77017865957E+01  0.10108051485E+02  0.51100000000E-03 0. -1.
        -11    1    3    3    0    0  0.13241688809E+02  0.22454078278E+02  0.21845266122E+01  0.26159130540E+02  0.51100000000E-03 0.  1.
         12    1    3    3    0    0  0.16319201955E+02 -0.31950915813E+01  0.15939749671E+02  0.23034768986E+02  0.00000000000E+00 0. -1.
</event>
<event>
 7    1  0.6230310E-012  0.5930194E+02  0.7816164E-02  0.1266605E+00
        -11   -1    0    0    0    0  0.00000000000E+00  0.00000000000E+00  0.45593999997E+02  0.45594000000E+02  0.51100000000E-03 0.  1.
         11   -1    0    0    0    0 -0.00000000000E+00 -0.00000000000E+00 -0.45593999997E+02  0.45594000000E+02  0.51100000000E-03 0. -1.
    9900012    2    1    2    0    0 -0.15422941955E+01  0.11934877050E+01  0.31826371417E+02  0.59301937184E+02  0.49999987519E+02 0.  0.
         12    1    1    2    0    0  0.15422941955E+01 -0.11934877050E+01 -0.31826371417E+02  0.31886062816E+02  0.00000000000E+00 0. -1.
         11    1    3    3    0    0  0.26470850807E+00 -0.46293023257E+01  0.30112174497E+02  0.30467089848E+02  0.51100000000E-03 0.  1.
        -11    1    3    3    0    0 -0.33276059091E+01 -0.10262926053E+02 -0.42723384402E+01  0.11604028967E+02  0.51100000000E-03 0. -1.
         12    1    3    3    0    0  0.15206032055E+01  0.16085716084E+02  0.59865353606E+01  0.17230818369E+02  0.00000000000E+00 0. -1.
</event>
<event>
 7    1  0.6230310E-012  0.5930196E+02  0.7816164E-02  0.1266605E+00
        -11   -1    0    0    0    0  0.00000000000E+00  0.00000000000E+00  0.45593999997E+02  0.45594000000E+02  0.51100000000E-03 0. -1.
         11   -1    0    0    0    0 -0.00000000000E+00 -0.00000000000E+00 -0.45593999997E+02  0.45594000000E+02  0.51100000000E-03 0.  1.
    9900012    2    1    2    0    0  0.44777744788E+01 -0.15745099980E+02 -0.27363497550E+02  0.59301958605E+02  0.50000026585E+02 0.  0.
         12    1    1    2    0    0 -0.44777744788E+01  0.15745099980E+02  0.27363497550E+02  0.31886041395E+02  0.00000000000E+00 0. -1.
         11    1    3    3    0    0 -0.44453848358E+01  0.14377190013E+01 -0.29651533436E+01  0.55335898725E+01  0.51100000000E-03 0. -1.
        -11    1    3    3    0    0 -0.97217505738E+01 -0.25653109874E+02 -0.14205667353E+02  0.30893291596E+02  0.51100000000E-03 0.  1.
        -12    1    3    3    0    0  0.18644909888E+02  0.84702908926E+01 -0.10192676854E+02  0.22875077136E+02  0.00000000000E+00 0.  1.
</event>
<event>
 7    1  0.6230310E-012  0.5930192E+02  0.7816164E-02  0.1266605E+00
        -11   -1    0    0    0    0  0.00000000000E+00  0.00000000000E+00  0.45593999997E+02  0.45594000000E+02  0.51100000000E-03 0.  1.
         11   -1    0    0    0    0 -0.00000000000E+00 -0.00000000000E+00 -0.45593999997E+02  0.45594000000E+02  0.51100000000E-03 0. -1.
    9900012    2    1    2    0    0 -0.23897255532E+02  0.15693054330E+02  0.14119881339E+02  0.59301924274E+02  0.49999963974E+02 0.  0.
         12    1    1    2    0    0  0.23897255532E+02 -0.15693054330E+02 -0.14119881339E+02  0.31886075726E+02  0.00000000000E+00 0. -1.
         11    1    3    3    0    0 -0.76459051854E+01 -0.35459335943E+01  0.16639321693E+02  0.18652092049E+02  0.51100000000E-03 0. -1.
        -11    1    3    3    0    0 -0.19050708894E+01  0.70730305032E+01  0.13880130609E+02  0.15694428361E+02  0.51100000000E-03 0.  1.
         12    1    3    3    0    0 -0.14346279457E+02  0.12165957421E+02 -0.16399570963E+02  0.24955403864E+02  0.00000000000E+00 0. -1.
</event>
<event>
 7    1  0.6230310E-012  0.5930199E+02  0.7816164E-02  0.1266605E+00
        -11   -1    0    0    0    0  0.00000000000E+00  0.00000000000E+00  0.45593999997E+02  0.45594000000E+02  0.51100000000E-03 0. -1.
         11   -1    0    0    0    0 -0.00000000000E+00 -0.00000000000E+00 -0.45593999997E+02  0.45594000000E+02  0.51100000000E-03 0.  1.
    9900012    2    1    2    0    0 -0.54161136849E+01  0.14351382259E+02 -0.27953911586E+02  0.59301990008E+02  0.50000083858E+02 0.  0.
         12    1    1    2    0    0  0.54161136849E+01 -0.14351382259E+02  0.27953911586E+02  0.31886009992E+02  0.00000000000E+00 0. -1.
         11    1    3    3    0    0  0.54611140667E+01 -0.81519536969E+01 -0.23135546155E+02  0.25130292717E+02  0.51100000000E-03 0. -1.
        -11    1    3    3    0    0 -0.96090158429E+01  0.17851152082E+02 -0.13418799354E+02  0.24311745978E+02  0.51100000000E-03 0.  1.
         12    1    3    3    0    0 -0.12682119087E+01  0.46521838744E+01  0.86004339223E+01  0.98599513132E+01  0.00000000000E+00 0. -1.
</event>
<event>
 7    1  0.6230310E-012  0.5930197E+02  0.7816164E-02  0.1266605E+00
        -11   -1    0    0    0    0  0.00000000000E+00  0.00000000000E+00  0.45593999997E+02  0.45594000000E+02  0.51100000000E-03 0. -1.
         11   -1    0    0    0    0 -0.00000000000E+00 -0.00000000000E+00 -0.45593999997E+02  0.45594000000E+02  0.51100000000E-03 0.  1.
    9900012    2    1    2    0    0  0.19150048014E+02 -0.24761021202E+02 -0.60734256608E+01  0.59301968432E+02  0.50000044508E+02 0.  0.
         12    1    1    2    0    0 -0.19150048014E+02  0.24761021202E+02  0.60734256608E+01  0.31886031568E+02  0.00000000000E+00 0. -1.
         11    1    3    3    0    0  0.55098463050E+01 -0.13506462835E+02 -0.52340091655E+01  0.15497670690E+02  0.51100000000E-03 0. -1.
        -11    1    3    3    0    0 -0.12192738975E+02 -0.12210218227E+02 -0.41362094917E+01  0.17744310133E+02  0.51100000000E-03 0.  1.
         12    1    3    3    0    0  0.25832940684E+02  0.95565986084E+00  0.32967929963E+01  0.26059987609E+02  0.00000000000E+00 0. -1.
</event>
<event>
 7    1  0.6230310E-012  0.5930192E+02  0.7816164E-02  0.1266605E+00
        -11   -1    0    0    0    0  0.00000000000E+00  0.00000000000E+00  0.45593999997E+02  0.45594000000E+02  0.51100000000E-03 0. -1.
         11   -1    0    0    0    0 -0.00000000000E+00 -0.00000000000E+00 -0.45593999997E+02  0.45594000000E+02  0.51100000000E-03 0.  1.
    9900012    2    1    2    0    0  0.13412549356E+02  0.19972235422E+02 -0.20926907189E+02  0.59301919769E+02  0.49999955758E+02 0.  0.
         12    1    1    2    0    0 -0.13412549356E+02 -0.19972235422E+02  0.20926907189E+02  0.31886080231E+02  0.00000000000E+00 0. -1.
         11    1    3    3    0    0  0.10306044149E+02  0.75951994208E+01  0.10743252704E+02  0.16712841744E+02  0.51100000000E-03 0. -1.
        -11    1    3    3    0    0  0.98686258900E+01  0.95028292747E+01 -0.44653186863E+01  0.14409462600E+02  0.51100000000E-03 0.  1.
         12    1    3    3    0    0 -0.67621206830E+01  0.28742067266E+01 -0.27204841207E+02  0.28179615425E+02  0.00000000000E+00 0. -1.
</event>
<event>
 7    1  0.6230310E-012  0.5930191E+02  0.7816164E-02  0.1266605E+00
        -11   -1    0    0    0    0  0.00000000000E+00  0.00000000000E+00  0.45593999997E+02  0.45594000000E+02  0.51100000000E-03 0.  1.
         11   -1    0    0    0    0 -0.00000000000E+00 -0.00000000000E+00 -0.45593999997E+02  0.45594000000E+02  0.51100000000E-03 0. -1.
    9900012    2    1    2    0    0  0.29781783219E+02 -0.10133545129E+02  0.52037867589E+01  0.59301909847E+02  0.49999937663E+02 0.  0.
         12    1    1    2    0    0 -0.29781783219E+02  0.10133545129E+02 -0.52037867589E+01  0.31886090153E+02  0.00000000000E+00 0. -1.
         11    1    3    3    0    0 -0.36411881167E+00  0.35289775190E+01 -0.12766509109E+01  0.37704247305E+01  0.51100000000E-03 0. -1.
        -11    1    3    3    0    0  0.32890468960E+02  0.68123206536E+01  0.88585567916E+01  0.34737079465E+02  0.51100000000E-03 0.  1.
         12    1    3    3    0    0 -0.27445669291E+01 -0.20474843301E+02 -0.23781191218E+01  0.20794405652E+02  0.00000000000E+00 0. -1.
</event>
<event>
 7    1  0.6230310E-012  0.5930197E+02  0.7816164E-02  0.1266605E+00
        -11   -1    0    0    0    0  0.00000000000E+00  0.00000000000E+00  0.45593999997E+02  0.45594000000E+02  0.51100000000E-03 0.  1.
         11   -1    0    0    0    0 -0.00000000000E+00 -0.00000000000E+00 -0.45593999997E+02  0.45594000000E+02  0.51100000000E-03 0. -1.
    9900012    2    1    2    0    0  0.14909991681E+02 -0.67976789665E+01  0.27353296190E+02  0.59301966949E+02  0.50000041803E+02 0.  0.
         12    1    1    2    0    0 -0.14909991681E+02  0.67976789665E+01 -0.27353296190E+02  0.31886033051E+02  0.00000000000E+00 0. -1.
         11    1    3    3    0    0  0.28176837098E+02 -0.12436485268E+02  0.51056401825E+01  0.31219671308E+02  0.51100000000E-03 0. -1.
        -11    1    3    3    0    0 -0.22671176010E+01 -0.18786634262E+01  0.82408776294E+01  0.87510720972E+01  0.51100000000E-03 0.  1.
        -12    1    3    3    0    0 -0.10999727816E+02  0.75174697279E+01  0.14006778378E+02  0.19331223543E+02  0.00000000000E+00 0.  1.
</event>
<event>
 7    1  0.6230310E-012  0.5930197E+02  0.7816164E-02  0.1266605E+00
        -11   -1    0    0    0    0  0.00000000000E+00  0.00000000000E+00  0.45593999997E+02  0.45594000000E+02  0.51100000000E-03 0. -1.
         11   -1    0    0    0    0 -0.00000000000E+00 -0.00000000000E+00 -0.45593999997E+02  0.45594000000E+02  0.51100000000E-03 0.  1.
    9900012    2    1    2    0    0  0.21506295567E+02 -0.21842697330E+02 -0.87803747751E+01  0.59301966116E+02  0.50000040284E+02 0.  0.
         12    1    1    2    0    0 -0.21506295567E+02  0.21842697330E+02  0.87803747751E+01  0.31886033884E+02  0.00000000000E+00 0. -1.
         11    1    3    3    0    0  0.77478475827E+01 -0.53454284003E+01 -0.10893854647E+02  0.14397180845E+02  0.51100000000E-03 0. -1.
        -11    1    3    3    0    0  0.18929278019E+02 -0.26157487822E+02 -0.37024645860E+01  0.32499845842E+02  0.51100000000E-03 0.  1.
         12    1    3    3    0    0 -0.51708300349E+01  0.96602188927E+01  0.58159444580E+01  0.12404939429E+02  0.00000000000E+00 0. -1.
</event>
<event>
 7    1  0.6230310E-012  0.5930196E+02  0.7816164E-02  0.1266605E+00
        -11   -1    0    0    0    0  0.00000000000E+00  0.00000000000E+00  0.45593999997E+02  0.45594000000E+02  0.51100000000E-03 0.  1.
         11   -1    0    0    0    0 -0.00000000000E+00 -0.00000000000E+00 -0.45593999997E+02  0.45594000000E+02  0.51100000000E-03 0. -1.
    9900012    2    1    2    0    0  0.14251032282E+02  0.34919005888E+01  0.28309609708E+02  0.59301963986E+02  0.50000036400E+02 0.  0.
         12    1    1    2    0    0 -0.14251032282E+02 -0.34919005888E+01 -0.28309609708E+02  0.31886036014E+02  0.00000000000E+00 0. -1.
         11    1    3    3    0    0  0.68662409959E+01  0.14629743057E+02  0.56210305323E+01  0.17110541541E+02  0.51100000000E-03 0. -1.
        -11    1    3    3    0    0 -0.43310294852E+01  0.95909129161E+01  0.21372673730E+01  0.10738311741E+02  0.51100000000E-03 0.  1.
        -12    1    3    3    0    0  0.11715820771E+02 -0.20728755384E+02  0.20551311803E+02  0.31453110704E+02  0.00000000000E+00 0.  1.
</event>
<event>
 7    1  0.6230310E-012  0.5930200E+02  0.7816164E-02  0.1266605E+00
        -11   -1    0    0    0    0  0.00000000000E+00  0.00000000000E+00  0.45593999997E+02  0.45594000000E+02  0.51100000000E-03 0.  1.
         11   -1    0    0    0    0 -0.00000000000E+00 -0.00000000000E+00 -0.45593999997E+02  0.45594000000E+02  0.51100000000E-03 0. -1.
    9900012    2    1    2    0    0 -0.13551410766E+02 -0.11701319387E+02  0.26384761562E+02  0.59301995988E+02  0.50000094763E+02 0.  0.
         12    1    1    2    0    0  0.13551410766E+02  0.11701319387E+02 -0.26384761562E+02  0.31886004012E+02  0.00000000000E+00 0. -1.
         11    1    3    3    0    0  0.92623802753E+01 -0.98100524792E+00 -0.57241839524E+01  0.10932535929E+02  0.51100000000E-03 0. -1.
        -11    1    3    3    0    0 -0.76700023312E+01 -0.16299997435E+02  0.88796543874E+01  0.20084001455E+02  0.51100000000E-03 0.  1.
        -12    1    3    3    0    0 -0.15143788710E+02  0.55796832956E+01  0.23229291127E+02  0.28285458604E+02  0.00000000000E+00 0.  1.
</event>
<event>
 7    1  0.6230310E-012  0.5930190E+02  0.7816164E-02  0.1266605E+00
        -11   -1    0    0    0    0  0.00000000000E+00  0.00000000000E+00  0.45593999997E+02  0.45594000000E+02  0.51100000000E-03 0. -1.
         11   -1    0    0    0    0 -0.00000000000E+00 -0.00000000000E+00 -0.45593999997E+02  0.45594000000E+02  0.51100000000E-03 0.  1.
    9900012    2    1    2    0    0  0.18796764849E+01 -0.18287310084E+02 -0.26053102712E+02  0.59301904994E+02  0.49999928812E+02 0.  0.
         12    1    1    2    0    0 -0.18796764849E+01  0.18287310084E+02  0.26053102712E+02  0.31886095006E+02  0.00000000000E+00 0. -1.
         11    1    3    3    0    0 -0.10478626072E+02 -0.41242388643E+01 -0.45788368969E+01  0.12156343947E+02  0.51100000000E-03 0. -1.
        -11    1    3    3    0    0 -0.89539445438E+01  0.48643133921E+01  0.17346222807E+01  0.10336516937E+02  0.51100000000E-03 0.  1.
         12    1    3    3    0    0  0.21312247101E+02 -0.19027384612E+02 -0.23208888096E+02  0.36809044110E+02  0.00000000000E+00 0. -1.
</event>
