<event>
 7    1  0.7749294E-012  0.5930196E+02  0.7816164E-02  0.1266605E+00
        -11   -1    0    0    0    0  0.00000000000E+00  0.00000000000E+00  0.45593999997E+02  0.45594000000E+02  0.51100000000E-03 0.  1.
         11   -1    0    0    0    0 -0.00000000000E+00 -0.00000000000E+00 -0.45593999997E+02  0.45594000000E+02  0.51100000000E-03 0. -1.
    9900012    2    1    2    0    0  0.17331175919E+02 -0.25387375979E+02 -0.84753147320E+01  0.59301961085E+02  0.50000031109E+02 0.  0.
         12    1    1    2    0    0 -0.17331175919E+02  0.25387375979E+02  0.84753147320E+01  0.31886038915E+02  0.00000000000E+00 0. -1.
         11    1    3    3    0    0  0.84698737838E+01  0.30773859512E+01 -0.17332485992E+01  0.91767759684E+01  0.51100000000E-03 0. -1.
        -11    1    3    3    0    0 -0.49607731649E+01 -0.31301529068E+02 -0.13539316563E+02  0.34463140972E+02  0.51100000000E-03 0.  1.
        -12    1    3    3    0    0  0.13822075300E+02  0.28367671374E+01  0.67972504302E+01  0.15662044145E+02  0.00000000000E+00 0.  1.
</event>
<event>
 7    1  0.7749294E-012  0.5930196E+02  0.7816164E-02  0.1266605E+00
        -11   -1    0    0    0    0  0.00000000000E+00  0.00000000000E+00  0.45593999997E+02  0.45594000000E+02  0.51100000000E-03 0.  1.
         11   -1    0    0    0    0 -0.00000000000E+00 -0.00000000000E+00 -0.45593999997E+02  0.45594000000E+02  0.51100000000E-03 0. -1.
    9900012    2    1    2    0    0  0.14701609639E+02 -0.24320478659E+02  0.14460167269E+02  0.59301961588E+02  0.50000032025E+02 0.  0.
         12    1    1    2    0    0 -0.14701609639E+02  0.24320478659E+02 -0.14460167269E+02  0.31886038412E+02  0.00000000000E+00 0. -1.
         11    1    3    3    0    0  0.13762496001E+02  0.66006425901E+00 -0.38183916847E+01  0.14297625549E+02  0.51100000000E-03 0. -1.
        -11    1    3    3    0    0 -0.12225752108E+02 -0.31555582145E+01  0.14517587238E+02  0.19240241728E+02  0.51100000000E-03 0.  1.
         12    1    3    3    0    0  0.13164865746E+02 -0.21824984704E+02  0.37609717152E+01  0.25764094311E+02  0.00000000000E+00 0. -1.
</event>
<event>
 7    1  0.7749294E-012  0.5930194E+02  0.7816164E-02  0.1266605E+00
        -11   -1    0    0    0    0  0.00000000000E+00  0.00000000000E+00  0.45593999997E+02  0.45594000000E+02  0.51100000000E-03 0.  1.
         11   -1    0    0    0    0 -0.00000000000E+00 -0.00000000000E+00 -0.45593999997E+02  0.45594000000E+02  0.51100000000E-03 0. -1.
    9900012    2    1    2    0    0  0.27652087529E+02 -0.13958712594E+02 -0.75655125372E+01  0.59301943769E+02  0.49999999528E+02 0.  0.
         12    1    1    2    0    0 -0.27652087529E+02  0.13958712594E+02  0.75655125372E+01  0.31886056231E+02  0.00000000000E+00 0. -1.
         11    1    3    3    0    0  0.13328373092E+02 -0.12137135939E+02 -0.52354859729E+01  0.18771412086E+02  0.51100000000E-03 0. -1.
        -11    1    3    3    0    0  0.39044564595E+01  0.90408131555E+01  0.14768578890E+02  0.17750831120E+02  0.51100000000E-03 0.  1.
         12    1    3    3    0    0  0.10419257977E+02 -0.10862389811E+02 -0.17098605455E+02  0.22779700562E+02  0.00000000000E+00 0. -1.
</event>
<event>
 7    1  0.7749294E-012  0.5930191E+02  0.7816164E-02  0.1266605E+00
        -11   -1    0    0    0    0  0.00000000000E+00  0.00000000000E+00  0.45593999997E+02  0.45594000000E+02  0.51100000000E-03 0. -1.
         11   -1    0    0    0    0 -0.00000000000E+00 -0.00000000000E+00 -0.45593999997E+02  0.45594000000E+02  0.51100000000E-03 0.  1.
    9900012    2    1    2    0    0 -0.14984439959E+02 -0.14373412685E+02  0.24199049658E+02  0.59301914673E+02  0.49999946465E+02 0.  0.
         12    1    1    2    0    0  0.14984439959E+02  0.14373412685E+02 -0.24199049658E+02  0.31886085327E+02  0.00000000000E+00 0. -1.
         11    1    3    3    0    0 -0.10273025005E+02 -0.21797031355E+02  0.32643558025E+02  0.40573975642E+02  0.51100000000E-03 0. -1.
        -11    1    3    3    0    0 -0.61270747207E+01  0.10126321938E+02 -0.25746149066E+01  0.12112476329E+02  0.51100000000E-03 0.  1.
        -12    1    3    3    0    0  0.14156597665E+01 -0.27027032690E+01 -0.58698934603E+01  0.66154627027E+01  0.00000000000E+00 0.  1.
</event>
<event>
 7    1  0.7749294E-012  0.5930193E+02  0.7816164E-02  0.1266605E+00
        -11   -1    0    0    0    0  0.00000000000E+00  0.00000000000E+00  0.45593999997E+02  0.45594000000E+02  0.51100000000E-03 0.  1.
         11   -1    0    0    0    0 -0.00000000000E+00 -0.00000000000E+00 -0.45593999997E+02  0.45594000000E+02  0.51100000000E-03 0. -1.
    9900012    2    1    2    0    0 -0.65523372106E+01  0.16644060259E+02 -0.26396276832E+02  0.59301932582E+02  0.49999979126E+02 0.  0.
         12    1    1    2    0    0  0.65523372106E+01 -0.16644060259E+02  0.26396276832E+02  0.31886067418E+02  0.00000000000E+00 0. -1.
         11    1    3    3    0    0  0.50888370169E-02 -0.54710490827E+01 -0.68548787442E+01  0.87705055054E+01  0.51100000000E-03 0. -1.
        -11    1    3    3    0    0  0.94511557439E+01  0.25584911831E+02 -0.20504977939E+02  0.34122810242E+02  0.51100000000E-03 0.  1.
        -12    1    3    3    0    0 -0.16008581791E+02 -0.34698024896E+01  0.96357985143E+00  0.16408616835E+02  0.00000000000E+00 0.  1.
</event>
<event>
 7    1  0.7749294E-012  0.5930187E+02  0.7816164E-02  0.1266605E+00
        -11   -1    0    0    0    0  0.00000000000E+00  0.00000000000E+00  0.45593999997E+02  0.45594000000E+02  0.51100000000E-03 0. -1.
         11   -1    0    0    0    0 -0.00000000000E+00 -0.00000000000E+00 -0.45593999997E+02  0.45594000000E+02  0.51100000000E-03 0.  1.
    9900012    2    1    2    0    0 -0.13075521224E+02 -0.54836371138E+01 -0.28560215134E+02  0.59301867908E+02  0.49999861176E+02 0.  0.
         12    1    1    2    0    0  0.13075521224E+02  0.54836371138E+01  0.28560215134E+02  0.31886132092E+02  0.00000000000E+00 0. -1.
         11    1    3    3    0    0  0.52015829383E+01  0.13258555673E+02 -0.31441921256E+01  0.14585325090E+02  0.51100000000E-03 0.  1.
        -11    1    3    3    0    0 -0.14561090217E+02 -0.68018354379E+01  0.35106724322E+00  0.16075246875E+02  0.51100000000E-03 0. -1.
        -12    1    3    3    0    0 -0.37160139458E+01 -0.11940357349E+02 -0.25767090252E+02  0.28641295943E+02  0.00000000000E+00 0.  1.
</event>
<event>
 7    1  0.7749294E-012  0.5930196E+02  0.7816164E-02  0.1266605E+00
        -11   -1    0    0    0    0  0.00000000000E+00  0.00000000000E+00  0.45593999997E+02  0.45594000000E+02  0.51100000000E-03 0.  1.
         11   -1    0    0    0    0 -0.00000000000E+00 -0.00000000000E+00 -0.45593999997E+02  0.45594000000E+02  0.51100000000E-03 0. -1.
    9900012    2    1    2    0    0 -0.30537416621E+02 -0.29122579338E+01  0.87008419569E+01  0.59301957428E+02  0.50000024439E+02 0.  0.
         12    1    1    2    0    0  0.30537416621E+02  0.29122579338E+01 -0.87008419569E+01  0.31886042572E+02  0.00000000000E+00 0. -1.
         11    1    3    3    0    0  0.21779005841E+01  0.40829594925E+00 -0.15046813319E+02  0.15209094248E+02  0.51100000000E-03 0. -1.
        -11    1    3    3    0    0 -0.12520766821E+02  0.51470139479E+01  0.15778413188E+02  0.20789893635E+02  0.51100000000E-03 0.  1.
         12    1    3    3    0    0 -0.20194550384E+02 -0.84675678309E+01  0.79692420880E+01  0.23302969545E+02  0.00000000000E+00 0. -1.
</event>
<event>
 7    1  0.7749294E-012  0.5930194E+02  0.7816164E-02  0.1266605E+00
        -11   -1    0    0    0    0  0.00000000000E+00  0.00000000000E+00  0.45593999997E+02  0.45594000000E+02  0.51100000000E-03 0. -1.
         11   -1    0    0    0    0 -0.00000000000E+00 -0.00000000000E+00 -0.45593999997E+02  0.45594000000E+02  0.51100000000E-03 0.  1.
    9900012    2    1    2    0    0 -0.11127713927E+02 -0.29874098860E+02  0.65798053762E+00  0.59301941317E+02  0.49999995057E+02 0.  0.
         12    1    1    2    0    0  0.11127713927E+02  0.29874098860E+02 -0.65798053762E+00  0.31886058683E+02  0.00000000000E+00 0. -1.
         11    1    3    3    0    0 -0.22900634389E+02 -0.13021806919E+02  0.13825317928E+02  0.29751402100E+02  0.51100000000E-03 0. -1.
        -11    1    3    3    0    0  0.10857276707E+02 -0.52221782442E+01 -0.12035259179E+00  0.12048489039E+02  0.51100000000E-03 0.  1.
        -12    1    3    3    0    0  0.91564375506E+00 -0.11630113697E+02 -0.13046984799E+02  0.17502050178E+02  0.00000000000E+00 0.  1.
</event>
<event>
 7    1  0.7749294E-012  0.5930197E+02  0.7816164E-02  0.1266605E+00
        -11   -1    0    0    0    0  0.00000000000E+00  0.00000000000E+00  0.45593999997E+02  0.45594000000E+02  0.51100000000E-03 0. -1.
         11   -1    0    0    0    0 -0.00000000000E+00 -0.00000000000E+00 -0.45593999997E+02  0.45594000000E+02  0.51100000000E-03 0.  1.
    9900012    2    1    2    0    0 -0.14937091878E+02 -0.27828151098E+02  0.43813808813E+01  0.59301965350E+02  0.50000038886E+02 0.  0.
         12    1    1    2    0    0  0.14937091878E+02  0.27828151098E+02 -0.43813808813E+01  0.31886034650E+02  0.00000000000E+00 0. -1.
         11    1    3    3    0    0 -0.12753292302E+02  0.70279788434E+01  0.12250218349E+02  0.19029104052E+02  0.51100000000E-03 0. -1.
        -11    1    3    3    0    0 -0.99314899488E+01 -0.23178603390E+02 -0.28057374962E+01  0.25372313865E+02  0.51100000000E-03 0.  1.
        -12    1    3    3    0    0  0.77476903727E+01 -0.11677526551E+02 -0.50630999715E+01  0.14900547432E+02  0.00000000000E+00 0.  1.
</event>
<event>
 7    1  0.7749294E-012  0.5930235E+02  0.7816164E-02  0.1266603E+00
        -11   -1    0    0    0    0  0.00000000000E+00  0.00000000000E+00  0.45593999997E+02  0.45594000000E+02  0.51100000000E-03 0. -1.
         11   -1    0    0    0    0 -0.00000000000E+00 -0.00000000000E+00 -0.45593999997E+02  0.45594000000E+02  0.51100000000E-03 0.  1.
    9900012    2    1    2    0    0  0.16993504706E+02  0.21153527576E+02  0.16746446266E+02  0.59302354427E+02  0.50000748463E+02 0.  0.
         12    1    1    2    0    0 -0.16993504706E+02 -0.21153527576E+02 -0.16746446266E+02  0.31885645573E+02  0.00000000000E+00 0. -1.
         11    1    3    3    0    0  0.24258500594E+02  0.67157869120E+01 -0.13955185448E+01  0.25209603670E+02  0.51100000000E-03 0. -1.
        -11    1    3    3    0    0 -0.11960881895E+02  0.17092728118E+02  0.75137138779E+01  0.22173857281E+02  0.51100000000E-03 0.  1.
        -12    1    3    3    0    0  0.46958860067E+01 -0.26549874547E+01  0.10628250933E+02  0.11918893475E+02  0.00000000000E+00 0.  1.
</event>
<event>
 7    1  0.7749294E-012  0.5930193E+02  0.7816164E-02  0.1266605E+00
        -11   -1    0    0    0    0  0.00000000000E+00  0.00000000000E+00  0.45593999997E+02  0.45594000000E+02  0.51100000000E-03 0. -1.
         11   -1    0    0    0    0 -0.00000000000E+00 -0.00000000000E+00 -0.45593999997E+02  0.45594000000E+02  0.51100000000E-03 0.  1.
    9900012    2    1    2    0    0 -0.15030296633E+02 -0.53478614175E+01 -0.27608187980E+02  0.59301929653E+02  0.49999973784E+02 0.  0.
         12    1    1    2    0    0  0.15030296633E+02  0.53478614175E+01  0.27608187980E+02  0.31886070347E+02  0.00000000000E+00 0. -1.
         11    1    3    3    0    0 -0.16547169977E+02 -0.23506553769E+02 -0.24800331139E+02  0.37966081299E+02  0.51100000000E-03 0. -1.
        -11    1    3    3    0    0  0.30650346129E+01  0.42486043541E+01 -0.49134006733E+01  0.71823800076E+01  0.51100000000E-03 0.  1.
         12    1    3    3    0    0 -0.15481612697E+01  0.13910087997E+02  0.21055438318E+01  0.14153468347E+02  0.00000000000E+00 0. -1.
</event>
<event>
 7    1  0.7749294E-012  0.5930197E+02  0.7816164E-02  0.1266605E+00
        -11   -1    0    0    0    0  0.00000000000E+00  0.00000000000E+00  0.45593999997E+02  0.45594000000E+02  0.51100000000E-03 0.  1.
         11   -1    0    0    0    0 -0.00000000000E+00 -0.00000000000E+00 -0.45593999997E+02  0.45594000000E+02  0.51100000000E-03 0. -1.
    9900012    2    1    2    0    0  0.13593445920E+02  0.27936814104E+02 -0.71743493852E+01  0.59301974168E+02  0.50000054968E+02 0.  0.
         12    1    1    2    0    0 -0.13593445920E+02 -0.27936814104E+02  0.71743493852E+01  0.31886025832E+02  0.00000000000E+00 0. -1.
         11    1    3    3    0    0  0.40167316497E+01 -0.72710794066E+01 -0.20751047300E+01  0.85620551730E+01  0.51100000000E-03 0. -1.
        -11    1    3    3    0    0  0.55524370351E+01  0.41926250837E+02 -0.64856622773E+01  0.42786725532E+02  0.51100000000E-03 0.  1.
        -12    1    3    3    0    0  0.40242772355E+01 -0.67183573266E+01  0.13864176221E+01  0.79531934629E+01  0.00000000000E+00 0.  1.
</event>
<event>
 7    1  0.7749294E-012  0.5930194E+02  0.7816164E-02  0.1266605E+00
        -11   -1    0    0    0    0  0.00000000000E+00  0.00000000000E+00  0.45593999997E+02  0.45594000000E+02  0.51100000000E-03 0. -1.
         11   -1    0    0    0    0 -0.00000000000E+00 -0.00000000000E+00 -0.45593999997E+02  0.45594000000E+02  0.51100000000E-03 0.  1.
    9900012    2    1    2    0    0  0.30397999928E+02 -0.62124315006E+01 -0.73544462660E+01  0.59301943726E+02  0.49999999451E+02 0.  0.
         12    1    1    2    0    0 -0.30397999928E+02  0.62124315006E+01  0.73544462660E+01  0.31886056274E+02  0.00000000000E+00 0. -1.
         11    1    3    3    0    0  0.30036828856E+02 -0.19462448451E+02 -0.19132648387E+02  0.40583940444E+02  0.51100000000E-03 0.  1.
        -11    1    3    3    0    0 -0.26896329343E+01  0.78131311976E+01  0.59375378485E+01  0.10175141296E+02  0.51100000000E-03 0. -1.
        -12    1    3    3    0    0  0.30508040071E+01  0.54368857526E+01  0.58406642724E+01  0.85428619864E+01  0.00000000000E+00 0.  1.
</event>
<event>
 7    1  0.7749294E-012  0.5930186E+02  0.7816164E-02  0.1266605E+00
        -11   -1    0    0    0    0  0.00000000000E+00  0.00000000000E+00  0.45593999997E+02  0.45594000000E+02  0.51100000000E-03 0.  1.
         11   -1    0    0    0    0 -0.00000000000E+00 -0.00000000000E+00 -0.45593999997E+02  0.45594000000E+02  0.51100000000E-03 0. -1.
    9900012    2    1    2    0    0  0.31551247152E+02  0.39863176512E+00  0.45919322396E+01  0.59301859659E+02  0.49999846132E+02 0.  0.
         12    1    1    2    0    0 -0.31551247152E+02 -0.39863176512E+00 -0.45919322396E+01  0.31886140341E+02  0.00000000000E+00 0. -1.
         11    1    3    3    0    0 -0.87454507430E+01  0.32550654921E+01  0.67018141609E+01  0.11488806438E+02  0.51100000000E-03 0. -1.
        -11    1    3    3    0    0  0.26178756363E+02 -0.87149455509E+01  0.88823425574E+01  0.28985747709E+02  0.51100000000E-03 0.  1.
        -12    1    3    3    0    0  0.14117941532E+02  0.58585118240E+01 -0.10992224479E+02  0.18827305513E+02  0.00000000000E+00 0.  1.
</event>
<event>
 7    1  0.7749294E-012  0.5930193E+02  0.7816164E-02  0.1266605E+00
        -11   -1    0    0    0    0  0.00000000000E+00  0.00000000000E+00  0.45593999997E+02  0.45594000000E+02  0.51100000000E-03 0.  1.
         11   -1    0    0    0    0 -0.00000000000E+00 -0.00000000000E+00 -0.45593999997E+02  0.45594000000E+02  0.51100000000E-03 0. -1.
    9900012    2    1    2    0    0  0.14038729245E+02 -0.22512132460E+02  0.17687275605E+02  0.59301925530E+02  0.49999966265E+02 0.  0.
         12    1    1    2    0    0 -0.14038729245E+02  0.22512132460E+02 -0.17687275605E+02  0.31886074470E+02  0.00000000000E+00 0. -1.
         11    1    3    3    0    0 -0.12027685568E+01 -0.27311262295E+02  0.12004003668E+02  0.29857123182E+02  0.51100000000E-03 0. -1.
        -11    1    3    3    0    0  0.36082574897E+01  0.12956743562E+02 -0.14832938928E+01  0.13531329827E+02  0.51100000000E-03 0.  1.
        -12    1    3    3    0    0  0.11633240313E+02 -0.81576137274E+01  0.71665658304E+01  0.15913472522E+02  0.00000000000E+00 0.  1.
</event>
<event>
 7    1  0.7749294E-012  0.5930195E+02  0.7816164E-02  0.1266605E+00
        -11   -1    0    0    0    0  0.00000000000E+00  0.00000000000E+00  0.45593999997E+02  0.45594000000E+02  0.51100000000E-03 0.  1.
         11   -1    0    0    0    0 -0.00000000000E+00 -0.00000000000E+00 -0.45593999997E+02  0.45594000000E+02  0.51100000000E-03 0. -1.
    9900012    2    1    2    0    0  0.74079936665E+01  0.10213744077E+02  0.29283467002E+02  0.59301946969E+02  0.50000005364E+02 0.  0.
         12    1    1    2    0    0 -0.74079936665E+01 -0.10213744077E+02 -0.29283467002E+02  0.31886053031E+02  0.00000000000E+00 0. -1.
         11    1    3    3    0    0 -0.13635697505E+02 -0.28885759871E+01 -0.56823979427E+01  0.15052101658E+02  0.51100000000E-03 0. -1.
        -11    1    3    3    0    0  0.12708720015E+02  0.13082533370E+02  0.19631615224E+02  0.26796726673E+02  0.51100000000E-03 0.  1.
         12    1    3    3    0    0  0.83349711564E+01  0.19786694321E-01  0.15334249721E+02  0.17453118638E+02  0.00000000000E+00 0. -1.
</event>
<event>
 7    1  0.7749294E-012  0.5930195E+02  0.7816164E-02  0.1266605E+00
        -11   -1    0    0    0    0  0.00000000000E+00  0.00000000000E+00  0.45593999997E+02  0.45594000000E+02  0.51100000000E-03 0. -1.
         11   -1    0    0    0    0 -0.00000000000E+00 -0.00000000000E+00 -0.45593999997E+02  0.45594000000E+02  0.51100000000E-03 0.  1.
    9900012    2    1    2    0    0 -0.30542564665E+02  0.91570730735E+01 -0.14190023724E+00  0.59301946947E+02  0.50000005324E+02 0.  0.
         12    1    1    2    0    0  0.30542564665E+02 -0.91570730735E+01  0.14190023724E+00  0.31886053053E+02  0.00000000000E+00 0. -1.
         11    1    3    3    0    0  0.85233813119E+01 -0.45609289804E+01  0.10512696428E+02  0.14281697679E+02  0.51100000000E-03 0. -1.
        -11    1    3    3    0    0 -0.26976143351E+02  0.95084381627E+01 -0.38013829333E+00  0.28605370331E+02  0.51100000000E-03 0.  1.
         12    1    3    3    0    0 -0.12089802627E+02  0.42095638913E+01 -0.10274458372E+02  0.16414878938E+02  0.00000000000E+00 0. -1.
</event>
<event>
 7    1  0.7749294E-012  0.5930203E+02  0.7816164E-02  0.1266604E+00
        -11   -1    0    0    0    0  0.00000000000E+00  0.00000000000E+00  0.45593999997E+02  0.45594000000E+02  0.51100000000E-03 0.  1.
         11   -1    0    0    0    0 -0.00000000000E+00 -0.00000000000E+00 -0.45593999997E+02  0.45594000000E+02  0.51100000000E-03 0. -1.
    9900012    2    1    2    0    0 -0.27973036957E+02  0.11371571146E+02 -0.10242630048E+02  0.59302032911E+02  0.50000162101E+02 0.  0.
         12    1    1    2    0    0  0.27973036957E+02 -0.11371571146E+02  0.10242630048E+02  0.31885967089E+02  0.00000000000E+00 0. -1.
         11    1    3    3    0    0  0.62416073017E+01 -0.16562863996E+00  0.11769870821E+02  0.13323473794E+02  0.51100000000E-03 0. -1.
        -11    1    3    3    0    0 -0.80685628217E+01  0.10833713452E+02 -0.11674784878E+02  0.17854177533E+02  0.51100000000E-03 0.  1.
         12    1    3    3    0    0 -0.26146081437E+02  0.70348633382E+00 -0.10337715991E+02  0.28124381583E+02  0.00000000000E+00 0. -1.
</event>
<event>
 7    1  0.7749294E-012  0.5930208E+02  0.7816164E-02  0.1266604E+00
        -11   -1    0    0    0    0  0.00000000000E+00  0.00000000000E+00  0.45593999997E+02  0.45594000000E+02  0.51100000000E-03 0.  1.
         11   -1    0    0    0    0 -0.00000000000E+00 -0.00000000000E+00 -0.45593999997E+02  0.45594000000E+02  0.51100000000E-03 0. -1.
    9900012    2    1    2    0    0 -0.27962249042E+02 -0.15555415698E+01  0.15244838718E+02  0.59302075384E+02  0.50000239562E+02 0.  0.
         12    1    1    2    0    0  0.27962249042E+02  0.15555415698E+01 -0.15244838718E+02  0.31885924616E+02  0.00000000000E+00 0. -1.
         11    1    3    3    0    0 -0.24743608535E+01  0.14143185797E+02  0.31632567919E+01  0.14702324983E+02  0.51100000000E-03 0. -1.
        -11    1    3    3    0    0 -0.23723132124E+02 -0.12492935077E+02  0.21582172747E+02  0.34418753687E+02  0.51100000000E-03 0.  1.
         12    1    3    3    0    0 -0.17647560649E+01 -0.32057922890E+01 -0.95005908206E+01  0.10180996715E+02  0.00000000000E+00 0. -1.
</event>
<event>
 7    1  0.7749294E-012  0.5930193E+02  0.7816164E-02  0.1266605E+00
        -11   -1    0    0    0    0  0.00000000000E+00  0.00000000000E+00  0.45593999997E+02  0.45594000000E+02  0.51100000000E-03 0.  1.
         11   -1    0    0    0    0 -0.00000000000E+00 -0.00000000000E+00 -0.45593999997E+02  0.45594000000E+02  0.51100000000E-03 0. -1.
    9900012    2    1    2    0    0 -0.12106343029E+02  0.98134177752E+00  0.29482114866E+02  0.59301926704E+02  0.49999968407E+02 0.  0.
         12    1    1    2    0    0  0.12106343029E+02 -0.98134177752E+00 -0.29482114866E+02  0.31886073296E+02  0.00000000000E+00 0. -1.
         11    1    3    3    0    0 -0.12345250467E+02  0.59922785894E+01 -0.20778147749E+00  0.13724277219E+02  0.51100000000E-03 0. -1.
        -11    1    3    3    0    0  0.13756364074E+02 -0.12951018758E+02  0.16779353720E+02  0.25268817760E+02  0.51100000000E-03 0.  1.
        -12    1    3    3    0    0 -0.13517456636E+02  0.79400819467E+01  0.12910542623E+02  0.20308831726E+02  0.00000000000E+00 0.  1.
</event>
<event>
 7    1  0.7749294E-012  0.5930197E+02  0.7816164E-02  0.1266605E+00
        -11   -1    0    0    0    0  0.00000000000E+00  0.00000000000E+00  0.45593999997E+02  0.45594000000E+02  0.51100000000E-03 0.  1.
         11   -1    0    0    0    0 -0.00000000000E+00 -0.00000000000E+00 -0.45593999997E+02  0.45594000000E+02  0.51100000000E-03 0. -1.
    9900012    2    1    2    0    0  0.15487629903E+02  0.89745114801E+01  0.26387692754E+02  0.59301970690E+02  0.50000048625E+02 0.  0.
         12    1    1    2    0    0 -0.15487629903E+02 -0.89745114801E+01 -0.26387692754E+02  0.31886029310E+02  0.00000000000E+00 0. -1.
         11    1    3    3    0    0  0.15057462160E+02 -0.34665015249E+01 -0.79657333665E+01  0.17383805908E+02  0.51100000000E-03 0. -1.
        -11    1    3    3    0    0  0.67135601712E+01  0.44093187592E+01  0.29594085025E+02  0.30664700403E+02  0.51100000000E-03 0.  1.
        -12    1    3    3    0    0 -0.62833924278E+01  0.80316942457E+01  0.47593410956E+01  0.11253464379E+02  0.00000000000E+00 0.  1.
</event>
<event>
 7    1  0.7749294E-012  0.5930194E+02  0.7816164E-02  0.1266605E+00
        -11   -1    0    0    0    0  0.00000000000E+00  0.00000000000E+00  0.45593999997E+02  0.45594000000E+02  0.51100000000E-03 0. -1.
         11   -1    0    0    0    0 -0.00000000000E+00 -0.00000000000E+00 -0.45593999997E+02  0.45594000000E+02  0.51100000000E-03 0.  1.
    9900012    2    1    2    0    0  0.97245050653E+01  0.25452493028E+02 -0.16562766947E+02  0.59301942717E+02  0.49999997610E+02 0.  0.
         12    1    1    2    0    0 -0.97245050653E+01 -0.25452493028E+02  0.16562766947E+02  0.31886057283E+02  0.00000000000E+00 0. -1.
         11    1    3    3    0    0 -0.14870247195E+02 -0.27178302347E+01 -0.15395992249E+02  0.21576548158E+02  0.51100000000E-03 0.  1.
        -11    1    3    3    0    0  0.21210321920E+02  0.21637998936E+02 -0.17122468377E+01  0.30348188470E+02  0.51100000000E-03 0. -1.
        -12    1    3    3    0    0  0.33844303402E+01  0.65323243258E+01  0.54547213909E+00  0.73772060890E+01  0.00000000000E+00 0.  1.
</event>
<event>
 7    1  0.7749294E-012  0.5930197E+02  0.7816164E-02  0.1266605E+00
        -11   -1    0    0    0    0  0.00000000000E+00  0.00000000000E+00  0.45593999997E+02  0.45594000000E+02  0.51100000000E-03 0.  1.
         11   -1    0    0    0    0 -0.00000000000E+00 -0.00000000000E+00 -0.45593999997E+02  0.45594000000E+02  0.51100000000E-03 0. -1.
    9900012    2    1    2    0    0  0.30162626764E+02  0.50141872814E+01  0.90439286752E+01  0.59301972130E+02  0.50000051253E+02 0.  0.
         12    1    1    2    0    0 -0.30162626764E+02 -0.50141872814E+01 -0.90439286752E+01  0.31886027870E+02  0.00000000000E+00 0. -1.
         11    1    3    3    0    0  0.13839142239E+00  0.14348679500E+02  0.54003813225E-01  0.14349448500E+02  0.51100000000E-03 0. -1.
        -11    1    3    3    0    0  0.14218873293E+02 -0.20315947418E+02  0.49018584874E+01  0.25277307889E+02  0.51100000000E-03 0.  1.
        -12    1    3    3    0    0  0.15805362049E+02  0.10981455199E+02  0.40880663746E+01  0.19675215742E+02  0.00000000000E+00 0.  1.
</event>
<event>
 7    1  0.7749294E-012  0.5930205E+02  0.7816164E-02  0.1266604E+00
        -11   -1    0    0    0    0  0.00000000000E+00  0.00000000000E+00  0.45593999997E+02  0.45594000000E+02  0.51100000000E-03 0.  1.
         11   -1    0    0    0    0 -0.00000000000E+00 -0.00000000000E+00 -0.45593999997E+02  0.45594000000E+02  0.51100000000E-03 0. -1.
    9900012    2    1    2    0    0  0.30566469599E+02 -0.86356957232E+01 -0.27981582384E+01  0.59302047076E+02  0.50000187935E+02 0.  0.
         12    1    1    2    0    0 -0.30566469599E+02  0.86356957232E+01  0.27981582384E+01  0.31885952924E+02  0.00000000000E+00 0. -1.
         11    1    3    3    0    0 -0.12802095436E+01 -0.71126360971E+01 -0.62303491959E+00  0.72537370712E+01  0.51100000000E-03 0. -1.
        -11    1    3    3    0    0  0.17345673354E+02  0.16170067344E+02 -0.12662372803E+02  0.26882692337E+02  0.51100000000E-03 0.  1.
        -12    1    3    3    0    0  0.14501005789E+02 -0.17693126970E+02  0.10487249484E+02  0.25165617668E+02  0.00000000000E+00 0.  1.
</event>
<event>
 7    1  0.7749294E-012  0.5930193E+02  0.7816164E-02  0.1266605E+00
        -11   -1    0    0    0    0  0.00000000000E+00  0.00000000000E+00  0.45593999997E+02  0.45594000000E+02  0.51100000000E-03 0.  1.
         11   -1    0    0    0    0 -0.00000000000E+00 -0.00000000000E+00 -0.45593999997E+02  0.45594000000E+02  0.51100000000E-03 0. -1.
    9900012    2    1    2    0    0  0.58125805228E+01  0.24566906287E+02  0.19478254142E+02  0.59301931549E+02  0.49999977241E+02 0.  0.
         12    1    1    2    0    0 -0.58125805228E+01 -0.24566906287E+02 -0.19478254142E+02  0.31886068451E+02  0.00000000000E+00 0. -1.
         11    1    3    3    0    0 -0.43584538161E+01 -0.84834376233E+01  0.11439727866E+02  0.14894032613E+02  0.51100000000E-03 0.  1.
        -11    1    3    3    0    0  0.19250624318E+02  0.24873922955E+02  0.55705654119E+01  0.31942601319E+02  0.51100000000E-03 0. -1.
         12    1    3    3    0    0 -0.90795899787E+01  0.81764209561E+01  0.24679608637E+01  0.12465297616E+02  0.00000000000E+00 0. -1.
</event>
<event>
 7    1  0.7749294E-012  0.5930185E+02  0.7816164E-02  0.1266605E+00
        -11   -1    0    0    0    0  0.00000000000E+00  0.00000000000E+00  0.45593999997E+02  0.45594000000E+02  0.51100000000E-03 0. -1.
         11   -1    0    0    0    0 -0.00000000000E+00 -0.00000000000E+00 -0.45593999997E+02  0.45594000000E+02  0.51100000000E-03 0.  1.
    9900012    2    1    2    0    0 -0.20731600927E+02 -0.75431439785E+01 -0.23022348461E+02  0.59301845846E+02  0.49999820939E+02 0.  0.
         12    1    1    2    0    0  0.20731600927E+02  0.75431439785E+01  0.23022348461E+02  0.31886154154E+02  0.00000000000E+00 0. -1.
         11    1    3    3    0    0 -0.17412684873E+02 -0.92276649063E+01  0.42864761267E+01  0.20167430970E+02  0.51100000000E-03 0. -1.
        -11    1    3    3    0    0 -0.11605700303E+02  0.10589641754E+02 -0.17414722047E+02  0.23454324467E+02  0.51100000000E-03 0.  1.
        -12    1    3    3    0    0  0.82867842485E+01 -0.89051208260E+01 -0.98941025411E+01  0.15680090408E+02  0.00000000000E+00 0.  1.
</event>
<event>
 7    1  0.7749294E-012  0.5930195E+02  0.7816164E-02  0.1266605E+00
        -11   -1    0    0    0    0  0.00000000000E+00  0.00000000000E+00  0.45593999997E+02  0.45594000000E+02  0.51100000000E-03 0.  1.
         11   -1    0    0    0    0 -0.00000000000E+00 -0.00000000000E+00 -0.45593999997E+02  0.45594000000E+02  0.51100000000E-03 0. -1.
    9900012    2    1    2    0    0  0.30885116739E+02  0.79265123538E+01 -0.11559565581E-01  0.59301950265E+02  0.50000011375E+02 0.  0.
         12    1    1    2    0    0 -0.30885116739E+02 -0.79265123538E+01  0.11559565581E-01  0.31886049735E+02  0.00000000000E+00 0. -1.
         11    1    3    3    0    0 -0.74146560266E+01  0.13158998728E+02  0.40284225401E+00  0.15109555045E+02  0.51100000000E-03 0. -1.
        -11    1    3    3    0    0  0.29977233404E+02  0.56281379792E+01 -0.64197534058E+00  0.30507746431E+02  0.51100000000E-03 0.  1.
         12    1    3    3    0    0  0.83225393618E+01 -0.10860624354E+02  0.22757352099E+00  0.13684648789E+02  0.00000000000E+00 0. -1.
</event>
<event>
 7    1  0.7749294E-012  0.5930195E+02  0.7816164E-02  0.1266605E+00
        -11   -1    0    0    0    0  0.00000000000E+00  0.00000000000E+00  0.45593999997E+02  0.45594000000E+02  0.51100000000E-03 0.  1.
         11   -1    0    0    0    0 -0.00000000000E+00 -0.00000000000E+00 -0.45593999997E+02  0.45594000000E+02  0.51100000000E-03 0. -1.
    9900012    2    1    2    0    0 -0.85950624079E+01  0.75781864764E+01  0.29755946701E+02  0.59301947059E+02  0.50000005529E+02 0.  0.
         12    1    1    2    0    0  0.85950624079E+01 -0.75781864764E+01 -0.29755946701E+02  0.31886052941E+02  0.00000000000E+00 0. -1.
         11    1    3    3    0    0  0.51793103904E+00  0.61662422561E+01  0.10664178140E+02  0.12329456265E+02  0.51100000000E-03 0.  1.
        -11    1    3    3    0    0 -0.30317047999E+01  0.11100791713E+02 -0.10293363245E+02  0.15439304965E+02  0.51100000000E-03 0. -1.
        -12    1    3    3    0    0 -0.60812886471E+01 -0.96888474922E+01  0.29385131806E+02  0.31533185830E+02  0.00000000000E+00 0.  1.
</event>
<event>
 7    1  0.7749294E-012  0.5930193E+02  0.7816164E-02  0.1266605E+00
        -11   -1    0    0    0    0  0.00000000000E+00  0.00000000000E+00  0.45593999997E+02  0.45594000000E+02  0.51100000000E-03 0. -1.
         11   -1    0    0    0    0 -0.00000000000E+00 -0.00000000000E+00 -0.45593999997E+02  0.45594000000E+02  0.51100000000E-03 0.  1.
    9900012    2    1    2    0    0 -0.11232835806E+02  0.29668194284E+02 -0.32160266790E+01  0.59301934393E+02  0.49999982429E+02 0.  0.
         12    1    1    2    0    0  0.11232835806E+02 -0.29668194284E+02  0.32160266790E+01  0.31886065607E+02  0.00000000000E+00 0. -1.
         11    1    3    3    0    0  0.92191472427E+01  0.32722211394E+02 -0.12688374406E+02  0.36286783265E+02  0.51100000000E-03 0.  1.
        -11    1    3    3    0    0 -0.14485377312E+02 -0.16019339327E+01  0.82737844447E+01  0.16758515969E+02  0.51100000000E-03 0. -1.
        -12    1    3    3    0    0 -0.59666057368E+01 -0.14520831773E+01  0.11985632825E+01  0.62566351591E+01  0.00000000000E+00 0.  1.
</event>
<event>
 7    1  0.7749294E-012  0.5930199E+02  0.7816164E-02  0.1266605E+00
        -11   -1    0    0    0    0  0.00000000000E+00  0.00000000000E+00  0.45593999997E+02  0.45594000000E+02  0.51100000000E-03 0.  1.
         11   -1    0    0    0    0 -0.00000000000E+00 -0.00000000000E+00 -0.45593999997E+02  0.45594000000E+02  0.51100000000E-03 0. -1.
    9900012    2    1    2    0    0 -0.86016802045E+01 -0.15682678282E+02  0.26396640728E+02  0.59301985163E+02  0.50000075021E+02 0.  0.
         12    1    1    2    0    0  0.86016802045E+01  0.15682678282E+02 -0.26396640728E+02  0.31886014837E+02  0.00000000000E+00 0. -1.
         11    1    3    3    0    0 -0.46869249468E+01  0.15045031063E+02  0.26974210636E+01  0.15987379579E+02  0.51100000000E-03 0. -1.
        -11    1    3    3    0    0 -0.20263040103E+01 -0.17607462638E+02  0.24263202204E+02  0.30047156769E+02  0.51100000000E-03 0.  1.
         12    1    3    3    0    0 -0.18884512473E+01 -0.13120246707E+02 -0.56398253913E+00  0.13267448815E+02  0.00000000000E+00 0. -1.
</event>
<event>
 7    1  0.7749294E-012  0.5930189E+02  0.7816164E-02  0.1266605E+00
        -11   -1    0    0    0    0  0.00000000000E+00  0.00000000000E+00  0.45593999997E+02  0.45594000000E+02  0.51100000000E-03 0. -1.
         11   -1    0    0    0    0 -0.00000000000E+00 -0.00000000000E+00 -0.45593999997E+02  0.45594000000E+02  0.51100000000E-03 0.  1.
    9900012    2    1    2    0    0 -0.94458025843E+00  0.22460352759E+02 -0.22613360283E+02  0.59301894229E+02  0.49999909179E+02 0.  0.
         12    1    1    2    0    0  0.94458025843E+00 -0.22460352759E+02  0.22613360283E+02  0.31886105771E+02  0.00000000000E+00 0. -1.
         11    1    3    3    0    0  0.12824897892E+01 -0.54357779835E+01  0.11027959073E+02  0.12361567212E+02  0.51100000000E-03 0. -1.
        -11    1    3    3    0    0  0.14989715112E+01  0.25848730213E+02 -0.20191167391E+02  0.32834235336E+02  0.51100000000E-03 0.  1.
        -12    1    3    3    0    0 -0.37260415588E+01  0.20474005292E+01 -0.13450151965E+02  0.14106091681E+02  0.00000000000E+00 0.  1.
</event>
<event>
 7    1  0.7749294E-012  0.5930219E+02  0.7816164E-02  0.1266604E+00
        -11   -1    0    0    0    0  0.00000000000E+00  0.00000000000E+00  0.45593999997E+02  0.45594000000E+02  0.51100000000E-03 0.  1.
         11   -1    0    0    0    0 -0.00000000000E+00 -0.00000000000E+00 -0.45593999997E+02  0.45594000000E+02  0.51100000000E-03 0. -1.
    9900012    2    1    2    0    0 -0.24841355612E+01  0.12293115834E+02  0.29315747023E+02  0.59302193598E+02  0.50000455155E+02 0.  0.
         12    1    1    2    0    0  0.24841355612E+01 -0.12293115834E+02 -0.29315747023E+02  0.31885806402E+02  0.00000000000E+00 0. -1.
         11    1    3    3    0    0 -0.15967106810E+02 -0.20646888048E+01  0.30021137824E+01  0.16377549486E+02  0.51100000000E-03 0. -1.
        -11    1    3    3    0    0  0.33953830222E+01  0.15799871058E+02  0.28256054537E+02  0.32551024094E+02  0.51100000000E-03 0.  1.
        -12    1    3    3    0    0  0.10087588227E+02 -0.14420664197E+01 -0.19424212963E+01  0.10373620018E+02  0.00000000000E+00 0.  1.
</event>
<event>
 7    1  0.7749294E-012  0.5930190E+02  0.7816164E-02  0.1266605E+00
        -11   -1    0    0    0    0  0.00000000000E+00  0.00000000000E+00  0.45593999997E+02  0.45594000000E+02  0.51100000000E-03 0.  1.
         11   -1    0    0    0    0 -0.00000000000E+00 -0.00000000000E+00 -0.45593999997E+02  0.45594000000E+02  0.51100000000E-03 0. -1.
    9900012    2    1    2    0    0 -0.31429958727E+02  0.12376994899E+01 -0.52296548869E+01  0.59301898077E+02  0.49999916197E+02 0.  0.
         12    1    1    2    0    0  0.31429958727E+02 -0.12376994899E+01  0.52296548869E+01  0.31886101923E+02  0.00000000000E+00 0. -1.
         11    1    3    3    0    0  0.51955447573E+01 -0.15001085866E+02  0.58530985870E+01  0.16919959391E+02  0.51100000000E-03 0. -1.
        -11    1    3    3    0    0 -0.19507666873E+02  0.12049691868E+02 -0.34911491244E+01  0.23193366798E+02  0.51100000000E-03 0.  1.
         12    1    3    3    0    0 -0.17117836611E+02  0.41890934872E+01 -0.75916043495E+01  0.19188571887E+02  0.00000000000E+00 0. -1.
</event>
<event>
 7    1  0.7749294E-012  0.5930195E+02  0.7816164E-02  0.1266605E+00
        -11   -1    0    0    0    0  0.00000000000E+00  0.00000000000E+00  0.45593999997E+02  0.45594000000E+02  0.51100000000E-03 0. -1.
         11   -1    0    0    0    0 -0.00000000000E+00 -0.00000000000E+00 -0.45593999997E+02  0.45594000000E+02  0.51100000000E-03 0.  1.
    9900012    2    1    2    0    0 -0.59181645505E+01  0.29861145685E+02 -0.94872408506E+01  0.59301946117E+02  0.50000003810E+02 0.  0.
         12    1    1    2    0    0  0.59181645505E+01 -0.29861145685E+02  0.94872408506E+01  0.31886053883E+02  0.00000000000E+00 0. -1.
         11    1    3    3    0    0 -0.20520411461E+02  0.12695165927E+02 -0.19229670508E+00  0.24130716996E+02  0.51100000000E-03 0. -1.
        -11    1    3    3    0    0  0.12656889457E+02 -0.16214269484E+01 -0.10088601433E+02  0.16266706957E+02  0.51100000000E-03 0.  1.
         12    1    3    3    0    0  0.19453574542E+01  0.18787406706E+02  0.79365728788E+00  0.18904522164E+02  0.00000000000E+00 0. -1.
</event>
<event>
 7    1  0.7749294E-012  0.5930195E+02  0.7816164E-02  0.1266605E+00
        -11   -1    0    0    0    0  0.00000000000E+00  0.00000000000E+00  0.45593999997E+02  0.45594000000E+02  0.51100000000E-03 0.  1.
         11   -1    0    0    0    0 -0.00000000000E+00 -0.00000000000E+00 -0.45593999997E+02  0.45594000000E+02  0.51100000000E-03 0. -1.
    9900012    2    1    2    0    0 -0.82850194459E+01 -0.30779685969E+02  0.83041368032E+00  0.59301949720E+02  0.50000010381E+02 0.  0.
         12    1    1    2    0    0  0.82850194459E+01  0.30779685969E+02 -0.83041368032E+00  0.31886050280E+02  0.00000000000E+00 0. -1.
         11    1    3    3    0    0 -0.28242075189E+01 -0.75386348282E+01 -0.14204439194E+02  0.16327071270E+02  0.51100000000E-03 0. -1.
        -11    1    3    3    0    0  0.84325657445E+01  0.10057305273E+01  0.12229943047E+02  0.14889297033E+02  0.51100000000E-03 0.  1.
        -12    1    3    3    0    0 -0.13893377671E+02 -0.24246781668E+02  0.28049098271E+01  0.28085581417E+02  0.00000000000E+00 0.  1.
</event>
<event>
 7    1  0.7749294E-012  0.5930196E+02  0.7816164E-02  0.1266605E+00
        -11   -1    0    0    0    0  0.00000000000E+00  0.00000000000E+00  0.45593999997E+02  0.45594000000E+02  0.51100000000E-03 0. -1.
         11   -1    0    0    0    0 -0.00000000000E+00 -0.00000000000E+00 -0.45593999997E+02  0.45594000000E+02  0.51100000000E-03 0.  1.
    9900012    2    1    2    0    0 -0.26667853412E+02  0.23519141025E+01 -0.17320906443E+02  0.59301957512E+02  0.50000024592E+02 0.  0.
         12    1    1    2    0    0  0.26667853412E+02 -0.23519141025E+01  0.17320906443E+02  0.31886042488E+02  0.00000000000E+00 0. -1.
         11    1    3    3    0    0 -0.26877753352E+02  0.88378558642E+01 -0.22873500496E+02  0.36382940325E+02  0.51100000000E-03 0. -1.
        -11    1    3    3    0    0  0.42599876209E+01 -0.34837371510E+01 -0.72833091692E+01  0.91285547478E+01  0.51100000000E-03 0.  1.
         12    1    3    3    0    0 -0.40500876808E+01 -0.30022046107E+01  0.12835903222E+02  0.13790462439E+02  0.00000000000E+00 0. -1.
</event>
<event>
 7    1  0.7749294E-012  0.5930195E+02  0.7816164E-02  0.1266605E+00
        -11   -1    0    0    0    0  0.00000000000E+00  0.00000000000E+00  0.45593999997E+02  0.45594000000E+02  0.51100000000E-03 0. -1.
         11   -1    0    0    0    0 -0.00000000000E+00 -0.00000000000E+00 -0.45593999997E+02  0.45594000000E+02  0.51100000000E-03 0.  1.
    9900012    2    1    2    0    0 -0.27195263485E+02  0.15405356706E+02  0.63097631455E+01  0.59301945333E+02  0.50000002381E+02 0.  0.
         12    1    1    2    0    0  0.27195263485E+02 -0.15405356706E+02 -0.63097631455E+01  0.31886054667E+02  0.00000000000E+00 0. -1.
         11    1    3    3    0    0 -0.14888376094E+02 -0.12046747100E+02  0.31523260412E+01  0.19409405404E+02  0.51100000000E-03 0. -1.
        -11    1    3    3    0    0  0.34106344141E+01  0.22415429040E+02  0.51992961864E+01  0.23261912373E+02  0.51100000000E-03 0.  1.
        -12    1    3    3    0    0 -0.15717521805E+02  0.50366747666E+01 -0.20418590822E+01  0.16630627556E+02  0.00000000000E+00 0.  1.
</event>
<event>
 7    1  0.7749294E-012  0.5930195E+02  0.7816164E-02  0.1266605E+00
        -11   -1    0    0    0    0  0.00000000000E+00  0.00000000000E+00  0.45593999997E+02  0.45594000000E+02  0.51100000000E-03 0. -1.
         11   -1    0    0    0    0 -0.00000000000E+00 -0.00000000000E+00 -0.45593999997E+02  0.45594000000E+02  0.51100000000E-03 0.  1.
    9900012    2    1    2    0    0  0.18919015843E+02  0.25625405915E+02 -0.14592937736E+01  0.59301950902E+02  0.50000012537E+02 0.  0.
         12    1    1    2    0    0 -0.18919015843E+02 -0.25625405915E+02  0.14592937736E+01  0.31886049098E+02  0.00000000000E+00 0. -1.
         11    1    3    3    0    0  0.46739705146E+00  0.22016234863E+02  0.19962414311E+02  0.29722567906E+02  0.51100000000E-03 0.  1.
        -11    1    3    3    0    0  0.10781443154E+02  0.54081144396E+00 -0.17187446107E+02  0.20296312410E+02  0.51100000000E-03 0. -1.
        -12    1    3    3    0    0  0.76701756376E+01  0.30683596079E+01 -0.42342619775E+01  0.92830705852E+01  0.00000000000E+00 0.  1.
</event>
<event>
 7    1  0.7749294E-012  0.5930197E+02  0.7816164E-02  0.1266605E+00
        -11   -1    0    0    0    0  0.00000000000E+00  0.00000000000E+00  0.45593999997E+02  0.45594000000E+02  0.51100000000E-03 0.  1.
         11   -1    0    0    0    0 -0.00000000000E+00 -0.00000000000E+00 -0.45593999997E+02  0.45594000000E+02  0.51100000000E-03 0. -1.
    9900012    2    1    2    0    0  0.41523577054E+01 -0.13184466889E+02  0.28734069800E+02  0.59301968435E+02  0.50000044514E+02 0.  0.
         12    1    1    2    0    0 -0.41523577054E+01  0.13184466889E+02 -0.28734069800E+02  0.31886031565E+02  0.00000000000E+00 0. -1.
         11    1    3    3    0    0  0.20874687101E+02 -0.34560847482E+01  0.25202979683E+01  0.21308425222E+02  0.51100000000E-03 0. -1.
        -11    1    3    3    0    0 -0.76301851889E+01 -0.12375463227E+02  0.24323119757E+02  0.28337007095E+02  0.51100000000E-03 0.  1.
         12    1    3    3    0    0 -0.90921442061E+01  0.26470810866E+01  0.18906520746E+01  0.96565361187E+01  0.00000000000E+00 0. -1.
</event>
<event>
 7    1  0.7749294E-012  0.5930194E+02  0.7816164E-02  0.1266605E+00
        -11   -1    0    0    0    0  0.00000000000E+00  0.00000000000E+00  0.45593999997E+02  0.45594000000E+02  0.51100000000E-03 0.  1.
         11   -1    0    0    0    0 -0.00000000000E+00 -0.00000000000E+00 -0.45593999997E+02  0.45594000000E+02  0.51100000000E-03 0. -1.
    9900012    2    1    2    0    0  0.37377719699E+01 -0.30768347687E+02 -0.74872317268E+01  0.59301940388E+02  0.49999993361E+02 0.  0.
         12    1    1    2    0    0 -0.37377719699E+01  0.30768347687E+02  0.74872317268E+01  0.31886059612E+02  0.00000000000E+00 0. -1.
         11    1    3    3    0    0  0.41173857341E+01 -0.35364245512E+02 -0.31711264259E+01  0.35744073200E+02  0.51100000000E-03 0. -1.
        -11    1    3    3    0    0 -0.63044324103E+01 -0.20079866627E+01  0.66979318240E+01  0.94148908350E+01  0.51100000000E-03 0.  1.
         12    1    3    3    0    0  0.59248186461E+01  0.66038844874E+01 -0.11014037125E+02  0.14142976352E+02  0.00000000000E+00 0. -1.
</event>
<event>
 7    1  0.7749294E-012  0.5930198E+02  0.7816164E-02  0.1266605E+00
        -11   -1    0    0    0    0  0.00000000000E+00  0.00000000000E+00  0.45593999997E+02  0.45594000000E+02  0.51100000000E-03 0.  1.
         11   -1    0    0    0    0 -0.00000000000E+00 -0.00000000000E+00 -0.45593999997E+02  0.45594000000E+02  0.51100000000E-03 0. -1.
    9900012    2    1    2    0    0  0.19039816005E+02  0.13949310157E+02  0.21438760765E+02  0.59301979387E+02  0.50000064487E+02 0.  0.
         12    1    1    2    0    0 -0.19039816005E+02 -0.13949310157E+02 -0.21438760765E+02  0.31886020613E+02  0.00000000000E+00 0. -1.
         11    1    3    3    0    0 -0.55256102244E+01  0.92892849197E+01  0.22799417395E+02  0.25231659012E+02  0.51100000000E-03 0. -1.
        -11    1    3    3    0    0  0.22938486225E+02  0.11228306816E+02  0.34453336999E+01  0.25770513165E+02  0.51100000000E-03 0.  1.
         12    1    3    3    0    0  0.16269400050E+01 -0.65682815789E+01 -0.48059903294E+01  0.82998072102E+01  0.00000000000E+00 0. -1.
</event>
<event>
 7    1  0.7749294E-012  0.5930194E+02  0.7816164E-02  0.1266605E+00
        -11   -1    0    0    0    0  0.00000000000E+00  0.00000000000E+00  0.45593999997E+02  0.45594000000E+02  0.51100000000E-03 0.  1.
         11   -1    0    0    0    0 -0.00000000000E+00 -0.00000000000E+00 -0.45593999997E+02  0.45594000000E+02  0.51100000000E-03 0. -1.
    9900012    2    1    2    0    0  0.93092086473E+01  0.25504158293E+02  0.16721168104E+02  0.59301938490E+02  0.49999989900E+02 0.  0.
         12    1    1    2    0    0 -0.93092086473E+01 -0.25504158293E+02 -0.16721168104E+02  0.31886061510E+02  0.00000000000E+00 0. -1.
         11    1    3    3    0    0  0.21683073945E+02  0.23868996561E+02  0.68855425541E+01  0.32974162447E+02  0.51100000000E-03 0. -1.
        -11    1    3    3    0    0  0.16535508358E+01 -0.28217873837E+01  0.11084017395E+02  0.11556476811E+02  0.51100000000E-03 0.  1.
         12    1    3    3    0    0 -0.14027416133E+02  0.44569491155E+01 -0.12483918456E+01  0.14771299232E+02  0.00000000000E+00 0. -1.
</event>
<event>
 7    1  0.7749294E-012  0.5930194E+02  0.7816164E-02  0.1266605E+00
        -11   -1    0    0    0    0  0.00000000000E+00  0.00000000000E+00  0.45593999997E+02  0.45594000000E+02  0.51100000000E-03 0.  1.
         11   -1    0    0    0    0 -0.00000000000E+00 -0.00000000000E+00 -0.45593999997E+02  0.45594000000E+02  0.51100000000E-03 0. -1.
    9900012    2    1    2    0    0 -0.28386446030E+02  0.94323737582E+01  0.11043584073E+02  0.59301941258E+02  0.49999994949E+02 0.  0.
         12    1    1    2    0    0  0.28386446030E+02 -0.94323737582E+01 -0.11043584073E+02  0.31886058742E+02  0.00000000000E+00 0. -1.
         11    1    3    3    0    0 -0.32043868697E+02  0.43520957636E+01  0.83548119338E+00  0.32348852958E+02  0.51100000000E-03 0.  1.
        -11    1    3    3    0    0  0.93883312653E+01 -0.37892462126E+01  0.12562095219E+02  0.16133982378E+02  0.51100000000E-03 0. -1.
         12    1    3    3    0    0 -0.57309085978E+01  0.88695242072E+01 -0.23539923394E+01  0.10819105922E+02  0.00000000000E+00 0. -1.
</event>
<event>
 7    1  0.7749294E-012  0.5930194E+02  0.7816164E-02  0.1266605E+00
        -11   -1    0    0    0    0  0.00000000000E+00  0.00000000000E+00  0.45593999997E+02  0.45594000000E+02  0.51100000000E-03 0.  1.
         11   -1    0    0    0    0 -0.00000000000E+00 -0.00000000000E+00 -0.45593999997E+02  0.45594000000E+02  0.51100000000E-03 0. -1.
    9900012    2    1    2    0    0 -0.13760752651E+02  0.68637343717E+00  0.28755723805E+02  0.59301936060E+02  0.49999985469E+02 0.  0.
         12    1    1    2    0    0  0.13760752651E+02 -0.68637343717E+00 -0.28755723805E+02  0.31886063940E+02  0.00000000000E+00 0. -1.
         11    1    3    3    0    0 -0.23774794437E+02 -0.56948560628E+01  0.24390313747E+02  0.34533456836E+02  0.51100000000E-03 0. -1.
        -11    1    3    3    0    0  0.11424226826E+02  0.50958236458E+01  0.11737353948E+02  0.17153595984E+02  0.51100000000E-03 0.  1.
         12    1    3    3    0    0 -0.14101850405E+01  0.12854058541E+01 -0.73719438897E+01  0.76148832408E+01  0.00000000000E+00 0. -1.
</event>
<event>
 7    1  0.7749294E-012  0.5930192E+02  0.7816164E-02  0.1266605E+00
        -11   -1    0    0    0    0  0.00000000000E+00  0.00000000000E+00  0.45593999997E+02  0.45594000000E+02  0.51100000000E-03 0.  1.
         11   -1    0    0    0    0 -0.00000000000E+00 -0.00000000000E+00 -0.45593999997E+02  0.45594000000E+02  0.51100000000E-03 0. -1.
    9900012    2    1    2    0    0 -0.62384553652E+01 -0.34752732121E+01  0.31076133498E+02  0.59301922750E+02  0.49999961194E+02 0.  0.
         12    1    1    2    0    0  0.62384553652E+01  0.34752732121E+01 -0.31076133498E+02  0.31886077250E+02  0.00000000000E+00 0. -1.
         11    1    3    3    0    0  0.37190366371E+01 -0.23813359107E+01 -0.84480969497E+01  0.95326982833E+01  0.51100000000E-03 0. -1.
        -11    1    3    3    0    0  0.49783202478E+01  0.44732608005E+01  0.30958749455E+02  0.31673930965E+02  0.51100000000E-03 0.  1.
        -12    1    3    3    0    0 -0.14935812250E+02 -0.55671981019E+01  0.85654809926E+01  0.18095293502E+02  0.00000000000E+00 0.  1.
</event>
<event>
 7    1  0.7749294E-012  0.5930195E+02  0.7816164E-02  0.1266605E+00
        -11   -1    0    0    0    0  0.00000000000E+00  0.00000000000E+00  0.45593999997E+02  0.45594000000E+02  0.51100000000E-03 0. -1.
         11   -1    0    0    0    0 -0.00000000000E+00 -0.00000000000E+00 -0.45593999997E+02  0.45594000000E+02  0.51100000000E-03 0.  1.
    9900012    2    1    2    0    0 -0.18678199154E+02  0.75213876130E+01 -0.24723950023E+02  0.59301951327E+02  0.50000013312E+02 0.  0.
         12    1    1    2    0    0  0.18678199154E+02 -0.75213876130E+01  0.24723950023E+02  0.31886048673E+02  0.00000000000E+00 0. -1.
         11    1    3    3    0    0  0.78707536829E+01 -0.17765093943E+01  0.23873075152E+01  0.84145104788E+01  0.51100000000E-03 0. -1.
        -11    1    3    3    0    0 -0.24680964940E+02  0.20267150878E+02 -0.19963393819E+02  0.37662242739E+02  0.51100000000E-03 0.  1.
        -12    1    3    3    0    0 -0.18679878965E+01 -0.10969253871E+02 -0.71478637188E+01  0.13225198109E+02  0.00000000000E+00 0.  1.
</event>
<event>
 7    1  0.7749294E-012  0.5930195E+02  0.7816164E-02  0.1266605E+00
        -11   -1    0    0    0    0  0.00000000000E+00  0.00000000000E+00  0.45593999997E+02  0.45594000000E+02  0.51100000000E-03 0.  1.
         11   -1    0    0    0    0 -0.00000000000E+00 -0.00000000000E+00 -0.45593999997E+02  0.45594000000E+02  0.51100000000E-03 0. -1.
    9900012    2    1    2    0    0 -0.25071974842E+02 -0.16996673730E+02 -0.99614027070E+01  0.59301946869E+02  0.50000005183E+02 0.  0.
         12    1    1    2    0    0  0.25071974842E+02  0.16996673730E+02  0.99614027070E+01  0.31886053131E+02  0.00000000000E+00 0. -1.
         11    1    3    3    0    0 -0.38747931405E+02 -0.85517187919E+01 -0.10418178806E+02  0.41025267000E+02  0.51100000000E-03 0. -1.
        -11    1    3    3    0    0  0.11656716426E+02 -0.58307364587E+01 -0.31262220203E+01  0.13403349949E+02  0.51100000000E-03 0.  1.
         12    1    3    3    0    0  0.20192401376E+01 -0.26142184791E+01  0.35829981195E+01  0.48733299205E+01  0.00000000000E+00 0. -1.
</event>
<event>
 7    1  0.7749294E-012  0.5930193E+02  0.7816164E-02  0.1266605E+00
        -11   -1    0    0    0    0  0.00000000000E+00  0.00000000000E+00  0.45593999997E+02  0.45594000000E+02  0.51100000000E-03 0.  1.
         11   -1    0    0    0    0 -0.00000000000E+00 -0.00000000000E+00 -0.45593999997E+02  0.45594000000E+02  0.51100000000E-03 0. -1.
    9900012    2    1    2    0    0  0.25273716599E+02  0.23462741285E+00  0.19439789774E+02  0.59301933651E+02  0.49999981076E+02 0.  0.
         12    1    1    2    0    0 -0.25273716599E+02 -0.23462741285E+00 -0.19439789774E+02  0.31886066349E+02  0.00000000000E+00 0. -1.
         11    1    3    3    0    0  0.23832168958E+00 -0.63462362611E-01 -0.15180897012E+02  0.15182900218E+02  0.51100000000E-03 0. -1.
        -11    1    3    3    0    0  0.89470801587E+01  0.19520677825E+01  0.21233708608E+02  0.23124255523E+02  0.51100000000E-03 0.  1.
         12    1    3    3    0    0  0.16088314751E+02 -0.16539780070E+01  0.13386978177E+02  0.20994777910E+02  0.00000000000E+00 0. -1.
</event>
<event>
 7    1  0.7749294E-012  0.5930190E+02  0.7816164E-02  0.1266605E+00
        -11   -1    0    0    0    0  0.00000000000E+00  0.00000000000E+00  0.45593999997E+02  0.45594000000E+02  0.51100000000E-03 0.  1.
         11   -1    0    0    0    0 -0.00000000000E+00 -0.00000000000E+00 -0.45593999997E+02  0.45594000000E+02  0.51100000000E-03 0. -1.
    9900012    2    1    2    0    0 -0.16357703039E+02 -0.26432069603E+02 -0.71059539626E+01  0.59301900616E+02  0.49999920827E+02 0.  0.
         12    1    1    2    0    0  0.16357703039E+02  0.26432069603E+02  0.71059539626E+01  0.31886099384E+02  0.00000000000E+00 0. -1.
         11    1    3    3    0    0  0.47442863489E+01  0.95273652816E+01  0.52826705358E+01  0.11882152600E+02  0.51100000000E-03 0. -1.
        -11    1    3    3    0    0 -0.21441407796E+02 -0.19138439262E+02 -0.56197325351E+01  0.29284726730E+02  0.51100000000E-03 0.  1.
         12    1    3    3    0    0  0.33941840796E+00 -0.16820995623E+02 -0.67688919633E+01  0.18135021285E+02  0.00000000000E+00 0. -1.
</event>
<event>
 7    1  0.7749294E-012  0.5930193E+02  0.7816164E-02  0.1266605E+00
        -11   -1    0    0    0    0  0.00000000000E+00  0.00000000000E+00  0.45593999997E+02  0.45594000000E+02  0.51100000000E-03 0.  1.
         11   -1    0    0    0    0 -0.00000000000E+00 -0.00000000000E+00 -0.45593999997E+02  0.45594000000E+02  0.51100000000E-03 0. -1.
    9900012    2    1    2    0    0  0.30523932329E+02  0.86626959181E+01  0.31572847379E+01  0.59301934198E+02  0.49999982073E+02 0.  0.
         12    1    1    2    0    0 -0.30523932329E+02 -0.86626959181E+01 -0.31572847379E+01  0.31886065802E+02  0.00000000000E+00 0. -1.
         11    1    3    3    0    0  0.15933849445E+02  0.11695406248E+02 -0.66388618545E+01  0.20850529308E+02  0.51100000000E-03 0. -1.
        -11    1    3    3    0    0  0.17144002356E+02 -0.11328666901E+02 -0.51347734115E+01  0.21180684804E+02  0.51100000000E-03 0.  1.
        -12    1    3    3    0    0 -0.25539194715E+01  0.82959565718E+01  0.14930920004E+02  0.17270720086E+02  0.00000000000E+00 0.  1.
</event>
<event>
 7    1  0.7749294E-012  0.5930180E+02  0.7816164E-02  0.1266605E+00
        -11   -1    0    0    0    0  0.00000000000E+00  0.00000000000E+00  0.45593999997E+02  0.45594000000E+02  0.51100000000E-03 0.  1.
         11   -1    0    0    0    0 -0.00000000000E+00 -0.00000000000E+00 -0.45593999997E+02  0.45594000000E+02  0.51100000000E-03 0. -1.
    9900012    2    1    2    0    0 -0.23104092777E+02  0.55688139798E+01  0.21258392010E+02  0.59301795725E+02  0.49999729531E+02 0.  0.
         12    1    1    2    0    0  0.23104092777E+02 -0.55688139798E+01 -0.21258392010E+02  0.31886204275E+02  0.00000000000E+00 0. -1.
         11    1    3    3    0    0  0.79574419110E+01 -0.99277108871E+01  0.11860061951E+00  0.12723772695E+02  0.51100000000E-03 0. -1.
        -11    1    3    3    0    0 -0.16088529281E+02 -0.20765025499E+01  0.16285622377E+02  0.22986390185E+02  0.51100000000E-03 0.  1.
         12    1    3    3    0    0 -0.14973005407E+02  0.17573027417E+02  0.48541690135E+01  0.23591632846E+02  0.00000000000E+00 0. -1.
</event>
<event>
 7    1  0.7749294E-012  0.5930193E+02  0.7816164E-02  0.1266605E+00
        -11   -1    0    0    0    0  0.00000000000E+00  0.00000000000E+00  0.45593999997E+02  0.45594000000E+02  0.51100000000E-03 0.  1.
         11   -1    0    0    0    0 -0.00000000000E+00 -0.00000000000E+00 -0.45593999997E+02  0.45594000000E+02  0.51100000000E-03 0. -1.
    9900012    2    1    2    0    0  0.30491365100E+02 -0.18616458482E+01 -0.91395904219E+01  0.59301934329E+02  0.49999982311E+02 0.  0.
         12    1    1    2    0    0 -0.30491365100E+02  0.18616458482E+01  0.91395904219E+01  0.31886065671E+02  0.00000000000E+00 0. -1.
         11    1    3    3    0    0  0.11973645505E+02 -0.22580001231E+02 -0.11812415604E+02  0.28155955053E+02  0.51100000000E-03 0. -1.
        -11    1    3    3    0    0  0.10354461056E+02  0.14434851413E+02 -0.48210029710E+01  0.18407114630E+02  0.51100000000E-03 0.  1.
        -12    1    3    3    0    0  0.81632585386E+01  0.62835039691E+01  0.74938281526E+01  0.12738864646E+02  0.00000000000E+00 0.  1.
</event>
<event>
 7    1  0.7749294E-012  0.5930195E+02  0.7816164E-02  0.1266605E+00
        -11   -1    0    0    0    0  0.00000000000E+00  0.00000000000E+00  0.45593999997E+02  0.45594000000E+02  0.51100000000E-03 0.  1.
         11   -1    0    0    0    0 -0.00000000000E+00 -0.00000000000E+00 -0.45593999997E+02  0.45594000000E+02  0.51100000000E-03 0. -1.
    9900012    2    1    2    0    0  0.10983944894E+02  0.27060818961E+02  0.12797849905E+02  0.59301953984E+02  0.50000018159E+02 0.  0.
         12    1    1    2    0    0 -0.10983944894E+02 -0.27060818961E+02 -0.12797849905E+02  0.31886046016E+02  0.00000000000E+00 0. -1.
         11    1    3    3    0    0 -0.46970215885E+01  0.30780132092E+01 -0.12851116857E+02  0.14024527866E+02  0.51100000000E-03 0. -1.
        -11    1    3    3    0    0  0.19162374998E+02  0.92887309193E+01  0.19817552362E+02  0.29089732201E+02  0.51100000000E-03 0.  1.
        -12    1    3    3    0    0 -0.34814085154E+01  0.14694074833E+02  0.58314144009E+01  0.16187693917E+02  0.00000000000E+00 0.  1.
</event>
<event>
 7    1  0.7749294E-012  0.5930194E+02  0.7816164E-02  0.1266605E+00
        -11   -1    0    0    0    0  0.00000000000E+00  0.00000000000E+00  0.45593999997E+02  0.45594000000E+02  0.51100000000E-03 0.  1.
         11   -1    0    0    0    0 -0.00000000000E+00 -0.00000000000E+00 -0.45593999997E+02  0.45594000000E+02  0.51100000000E-03 0. -1.
    9900012    2    1    2    0    0 -0.93431537135E+01 -0.29520111603E+02 -0.76150905629E+01  0.59301935416E+02  0.49999984295E+02 0.  0.
         12    1    1    2    0    0  0.93431537135E+01  0.29520111603E+02  0.76150905629E+01  0.31886064584E+02  0.00000000000E+00 0. -1.
         11    1    3    3    0    0  0.50736560079E+01 -0.29047029984E+01  0.87860487756E+01  0.10553385151E+02  0.51100000000E-03 0. -1.
        -11    1    3    3    0    0 -0.17400105603E+02 -0.33679573983E+02 -0.11370223840E+02  0.39577258231E+02  0.51100000000E-03 0.  1.
        -12    1    3    3    0    0  0.29832958816E+01  0.70641653787E+01 -0.50309154988E+01  0.91712920339E+01  0.00000000000E+00 0.  1.
</event>
<event>
 7    1  0.7749294E-012  0.5930193E+02  0.7816164E-02  0.1266605E+00
        -11   -1    0    0    0    0  0.00000000000E+00  0.00000000000E+00  0.45593999997E+02  0.45594000000E+02  0.51100000000E-03 0. -1.
         11   -1    0    0    0    0 -0.00000000000E+00 -0.00000000000E+00 -0.45593999997E+02  0.45594000000E+02  0.51100000000E-03 0.  1.
    9900012    2    1    2    0    0 -0.16471154832E+02  0.21502907365E+01 -0.27217616510E+02  0.59301931879E+02  0.49999977843E+02 0.  0.
         12    1    1    2    0    0  0.16471154832E+02 -0.21502907365E+01  0.27217616510E+02  0.31886068121E+02  0.00000000000E+00 0. -1.
         11    1    3    3    0    0  0.11915028591E+02 -0.90811517470E+01 -0.14063208691E+02  0.20547726452E+02  0.51100000000E-03 0. -1.
        -11    1    3    3    0    0 -0.17290053698E+02 -0.17625266796E+01 -0.12936494538E+02  0.21665764430E+02  0.51100000000E-03 0.  1.
         12    1    3    3    0    0 -0.11096129725E+02  0.12993969163E+02 -0.21791328118E+00  0.17088440996E+02  0.00000000000E+00 0. -1.
</event>
<event>
 7    1  0.7749294E-012  0.5930195E+02  0.7816164E-02  0.1266605E+00
        -11   -1    0    0    0    0  0.00000000000E+00  0.00000000000E+00  0.45593999997E+02  0.45594000000E+02  0.51100000000E-03 0.  1.
         11   -1    0    0    0    0 -0.00000000000E+00 -0.00000000000E+00 -0.45593999997E+02  0.45594000000E+02  0.51100000000E-03 0. -1.
    9900012    2    1    2    0    0 -0.41222573720E+01  0.11034209101E+02  0.29630620727E+02  0.59301945665E+02  0.50000002987E+02 0.  0.
         12    1    1    2    0    0  0.41222573720E+01 -0.11034209101E+02 -0.29630620727E+02  0.31886054335E+02  0.00000000000E+00 0. -1.
         11    1    3    3    0    0  0.14493164912E+02  0.21485468349E+00  0.24851354461E+01  0.14706253437E+02  0.51100000000E-03 0. -1.
        -11    1    3    3    0    0 -0.19461619467E+02 -0.13565043408E+01  0.25757695940E+02  0.32311818840E+02  0.51100000000E-03 0.  1.
        -12    1    3    3    0    0  0.84619718318E+00  0.12175858758E+02  0.13877893411E+01  0.12283873389E+02  0.00000000000E+00 0.  1.
</event>
<event>
 7    1  0.7749294E-012  0.5930196E+02  0.7816164E-02  0.1266605E+00
        -11   -1    0    0    0    0  0.00000000000E+00  0.00000000000E+00  0.45593999997E+02  0.45594000000E+02  0.51100000000E-03 0. -1.
         11   -1    0    0    0    0 -0.00000000000E+00 -0.00000000000E+00 -0.45593999997E+02  0.45594000000E+02  0.51100000000E-03 0.  1.
    9900012    2    1    2    0    0  0.12871825599E+02 -0.38014120175E+01 -0.28923778937E+02  0.59301958923E+02  0.50000027165E+02 0.  0.
         12    1    1    2    0    0 -0.12871825599E+02  0.38014120175E+01  0.28923778937E+02  0.31886041077E+02  0.00000000000E+00 0. -1.
         11    1    3    3    0    0  0.82465322630E+01 -0.21385072838E+01 -0.42937959572E+01  0.95401882450E+01  0.51100000000E-03 0. -1.
        -11    1    3    3    0    0 -0.14133276168E+02  0.40903357114E+01  0.38207581689E+01  0.15201267537E+02  0.51100000000E-03 0.  1.
        -12    1    3    3    0    0  0.18758569504E+02 -0.57532404451E+01 -0.28450741149E+02  0.34560503141E+02  0.00000000000E+00 0.  1.
</event>
<event>
 7    1  0.7749294E-012  0.5930194E+02  0.7816164E-02  0.1266605E+00
        -11   -1    0    0    0    0  0.00000000000E+00  0.00000000000E+00  0.45593999997E+02  0.45594000000E+02  0.51100000000E-03 0. -1.
         11   -1    0    0    0    0 -0.00000000000E+00 -0.00000000000E+00 -0.45593999997E+02  0.45594000000E+02  0.51100000000E-03 0.  1.
    9900012    2    1    2    0    0 -0.71989660479E+01 -0.94330793891E+01 -0.29595826043E+02  0.59301936930E+02  0.49999987055E+02 0.  0.
         12    1    1    2    0    0  0.71989660479E+01  0.94330793891E+01  0.29595826043E+02  0.31886063070E+02  0.00000000000E+00 0. -1.
         11    1    3    3    0    0 -0.14837762798E+02  0.53271201236E+01 -0.11482087166E+01  0.15806827550E+02  0.51100000000E-03 0. -1.
        -11    1    3    3    0    0 -0.19341207111E+01 -0.52644094221E+01 -0.29445169615E+02  0.29974536584E+02  0.51100000000E-03 0.  1.
         12    1    3    3    0    0  0.95729174616E+01 -0.94957900906E+01  0.99755228816E+00  0.13520572796E+02  0.00000000000E+00 0. -1.
</event>
<event>
 7    1  0.7749294E-012  0.5930191E+02  0.7816164E-02  0.1266605E+00
        -11   -1    0    0    0    0  0.00000000000E+00  0.00000000000E+00  0.45593999997E+02  0.45594000000E+02  0.51100000000E-03 0. -1.
         11   -1    0    0    0    0 -0.00000000000E+00 -0.00000000000E+00 -0.45593999997E+02  0.45594000000E+02  0.51100000000E-03 0.  1.
    9900012    2    1    2    0    0 -0.12913420726E+02  0.13831581186E+02 -0.25664244751E+02  0.59301913197E+02  0.49999943772E+02 0.  0.
         12    1    1    2    0    0  0.12913420726E+02 -0.13831581186E+02  0.25664244751E+02  0.31886086803E+02  0.00000000000E+00 0. -1.
         11    1    3    3    0    0 -0.15855004020E+02 -0.11765673159E+02 -0.22743371553E+02  0.30117655407E+02  0.51100000000E-03 0. -1.
        -11    1    3    3    0    0 -0.48301847009E+01  0.73951344474E+01 -0.31881990178E+01  0.93905969447E+01  0.51100000000E-03 0.  1.
         12    1    3    3    0    0  0.77717679948E+01  0.18202119898E+02  0.26732582005E+00  0.19793660845E+02  0.00000000000E+00 0. -1.
</event>
<event>
 7    1  0.7749294E-012  0.5930195E+02  0.7816164E-02  0.1266605E+00
        -11   -1    0    0    0    0  0.00000000000E+00  0.00000000000E+00  0.45593999997E+02  0.45594000000E+02  0.51100000000E-03 0.  1.
         11   -1    0    0    0    0 -0.00000000000E+00 -0.00000000000E+00 -0.45593999997E+02  0.45594000000E+02  0.51100000000E-03 0. -1.
    9900012    2    1    2    0    0  0.25795302074E+01  0.26330817135E+01  0.31672273768E+02  0.59301952565E+02  0.50000015570E+02 0.  0.
         12    1    1    2    0    0 -0.25795302074E+01 -0.26330817135E+01 -0.31672273768E+02  0.31886047435E+02  0.00000000000E+00 0. -1.
         11    1    3    3    0    0  0.22428202347E+01  0.18551268662E+02  0.25843731655E+01  0.18864220007E+02  0.51100000000E-03 0. -1.
        -11    1    3    3    0    0 -0.92434127566E+01 -0.15790125148E+02  0.16657830018E+02  0.24743727139E+02  0.51100000000E-03 0.  1.
        -12    1    3    3    0    0  0.95801227293E+01 -0.12806180077E+00  0.12430070584E+02  0.15694005418E+02  0.00000000000E+00 0.  1.
</event>
<event>
 7    1  0.7749294E-012  0.5930191E+02  0.7816164E-02  0.1266605E+00
        -11   -1    0    0    0    0  0.00000000000E+00  0.00000000000E+00  0.45593999997E+02  0.45594000000E+02  0.51100000000E-03 0. -1.
         11   -1    0    0    0    0 -0.00000000000E+00 -0.00000000000E+00 -0.45593999997E+02  0.45594000000E+02  0.51100000000E-03 0.  1.
    9900012    2    1    2    0    0 -0.24780206494E+01  0.28457201066E+02 -0.14169323357E+02  0.59301912074E+02  0.49999941723E+02 0.  0.
         12    1    1    2    0    0  0.24780206494E+01 -0.28457201066E+02  0.14169323357E+02  0.31886087926E+02  0.00000000000E+00 0. -1.
         11    1    3    3    0    0 -0.79474923387E+01  0.15409736152E+02 -0.29417641022E+01  0.17586261087E+02  0.51100000000E-03 0. -1.
        -11    1    3    3    0    0  0.19107657209E+02  0.17283172200E+02 -0.88259497910E+01  0.27234316501E+02  0.51100000000E-03 0.  1.
        -12    1    3    3    0    0 -0.13638185519E+02 -0.42357072849E+01 -0.24016094634E+01  0.14481334485E+02  0.00000000000E+00 0.  1.
</event>
<event>
 7    1  0.7749294E-012  0.5930194E+02  0.7816164E-02  0.1266605E+00
        -11   -1    0    0    0    0  0.00000000000E+00  0.00000000000E+00  0.45593999997E+02  0.45594000000E+02  0.51100000000E-03 0.  1.
         11   -1    0    0    0    0 -0.00000000000E+00 -0.00000000000E+00 -0.45593999997E+02  0.45594000000E+02  0.51100000000E-03 0. -1.
    9900012    2    1    2    0    0 -0.99309249691E+00 -0.31255582046E+02  0.62308503157E+01  0.59301935059E+02  0.49999983643E+02 0.  0.
         12    1    1    2    0    0  0.99309249691E+00  0.31255582046E+02 -0.62308503157E+01  0.31886064941E+02  0.00000000000E+00 0. -1.
         11    1    3    3    0    0 -0.89859954461E+01 -0.64980296607E+01 -0.18829583885E+02  0.21852362188E+02  0.51100000000E-03 0. -1.
        -11    1    3    3    0    0  0.50315609482E+01 -0.29767796267E+01  0.51067730504E+01  0.77625352670E+01  0.51100000000E-03 0.  1.
         12    1    3    3    0    0  0.29613420010E+01 -0.21780772759E+02  0.19953661150E+02  0.29687037604E+02  0.00000000000E+00 0. -1.
</event>
<event>
 7    1  0.7749294E-012  0.5930195E+02  0.7816164E-02  0.1266605E+00
        -11   -1    0    0    0    0  0.00000000000E+00  0.00000000000E+00  0.45593999997E+02  0.45594000000E+02  0.51100000000E-03 0.  1.
         11   -1    0    0    0    0 -0.00000000000E+00 -0.00000000000E+00 -0.45593999997E+02  0.45594000000E+02  0.51100000000E-03 0. -1.
    9900012    2    1    2    0    0  0.29602772317E+02 -0.11040462608E+02  0.43016551966E+01  0.59301950058E+02  0.50000010998E+02 0.  0.
         12    1    1    2    0    0 -0.29602772317E+02  0.11040462608E+02 -0.43016551966E+01  0.31886049942E+02  0.00000000000E+00 0. -1.
         11    1    3    3    0    0 -0.24152745507E+01  0.99045125097E+00 -0.55694208582E+01  0.61508530947E+01  0.51100000000E-03 0. -1.
        -11    1    3    3    0    0  0.24088285935E+02  0.11655583790E+02  0.87239851691E+01  0.28146155515E+02  0.51100000000E-03 0.  1.
        -12    1    3    3    0    0  0.79297609330E+01 -0.23686497649E+02  0.11470908858E+01  0.25004941449E+02  0.00000000000E+00 0.  1.
</event>
<event>
 7    1  0.7749294E-012  0.5930194E+02  0.7816164E-02  0.1266605E+00
        -11   -1    0    0    0    0  0.00000000000E+00  0.00000000000E+00  0.45593999997E+02  0.45594000000E+02  0.51100000000E-03 0.  1.
         11   -1    0    0    0    0 -0.00000000000E+00 -0.00000000000E+00 -0.45593999997E+02  0.45594000000E+02  0.51100000000E-03 0. -1.
    9900012    2    1    2    0    0 -0.23464977850E+02  0.81592102146E+01  0.19988565503E+02  0.59301942739E+02  0.49999997649E+02 0.  0.
         12    1    1    2    0    0  0.23464977850E+02 -0.81592102146E+01 -0.19988565503E+02  0.31886057261E+02  0.00000000000E+00 0. -1.
         11    1    3    3    0    0 -0.14991219243E+02 -0.14471231176E+01 -0.58635731194E+01  0.16162063905E+02  0.51100000000E-03 0. -1.
        -11    1    3    3    0    0 -0.19752612143E+02  0.20863956624E+01  0.20560920511E+02  0.28587937769E+02  0.51100000000E-03 0.  1.
        -12    1    3    3    0    0  0.11278853536E+02  0.75199376698E+01  0.52912181109E+01  0.14551941065E+02  0.00000000000E+00 0.  1.
</event>
<event>
 7    1  0.7749294E-012  0.5930195E+02  0.7816164E-02  0.1266605E+00
        -11   -1    0    0    0    0  0.00000000000E+00  0.00000000000E+00  0.45593999997E+02  0.45594000000E+02  0.51100000000E-03 0. -1.
         11   -1    0    0    0    0 -0.00000000000E+00 -0.00000000000E+00 -0.45593999997E+02  0.45594000000E+02  0.51100000000E-03 0.  1.
    9900012    2    1    2    0    0 -0.21180906669E+02 -0.19363453728E+02 -0.13897703455E+02  0.59301948051E+02  0.50000007337E+02 0.  0.
         12    1    1    2    0    0  0.21180906669E+02  0.19363453728E+02  0.13897703455E+02  0.31886051949E+02  0.00000000000E+00 0. -1.
         11    1    3    3    0    0  0.62880093372E+01  0.57425405163E+01 -0.18789663606E+01  0.87204557135E+01  0.51100000000E-03 0. -1.
        -11    1    3    3    0    0 -0.32583647226E+02 -0.13420721207E+02 -0.38840188827E+01  0.35452721013E+02  0.51100000000E-03 0.  1.
         12    1    3    3    0    0  0.51147312201E+01 -0.11685273037E+02 -0.81347182120E+01  0.15128771325E+02  0.00000000000E+00 0. -1.
</event>
<event>
 7    1  0.7749294E-012  0.5930194E+02  0.7816164E-02  0.1266605E+00
        -11   -1    0    0    0    0  0.00000000000E+00  0.00000000000E+00  0.45593999997E+02  0.45594000000E+02  0.51100000000E-03 0. -1.
         11   -1    0    0    0    0 -0.00000000000E+00 -0.00000000000E+00 -0.45593999997E+02  0.45594000000E+02  0.51100000000E-03 0.  1.
    9900012    2    1    2    0    0  0.29084642955E+02  0.44333401498E+01 -0.12294313334E+02  0.59301935629E+02  0.49999984684E+02 0.  0.
         12    1    1    2    0    0 -0.29084642955E+02 -0.44333401498E+01  0.12294313334E+02  0.31886064371E+02  0.00000000000E+00 0. -1.
         11    1    3    3    0    0 -0.37718960336E+01  0.56009075311E+01  0.45276658796E+01  0.81300137416E+01  0.51100000000E-03 0. -1.
        -11    1    3    3    0    0  0.23986454378E+02  0.16118339566E+02 -0.10019472980E+02  0.30586609865E+02  0.51100000000E-03 0.  1.
        -12    1    3    3    0    0  0.88700846105E+01 -0.17285906948E+02 -0.68025062344E+01  0.20585312023E+02  0.00000000000E+00 0.  1.
</event>
<event>
 7    1  0.7749294E-012  0.5930184E+02  0.7816164E-02  0.1266605E+00
        -11   -1    0    0    0    0  0.00000000000E+00  0.00000000000E+00  0.45593999997E+02  0.45594000000E+02  0.51100000000E-03 0.  1.
         11   -1    0    0    0    0 -0.00000000000E+00 -0.00000000000E+00 -0.45593999997E+02  0.45594000000E+02  0.51100000000E-03 0. -1.
    9900012    2    1    2    0    0 -0.10287621942E+02 -0.11057038399E+02  0.28082629923E+02  0.59301837378E+02  0.49999805496E+02 0.  0.
         12    1    1    2    0    0  0.10287621942E+02  0.11057038399E+02 -0.28082629923E+02  0.31886162622E+02  0.00000000000E+00 0. -1.
         11    1    3    3    0    0 -0.14317226137E+02 -0.11997475833E+02 -0.78765563670E+01  0.20272210809E+02  0.51100000000E-03 0. -1.
        -11    1    3    3    0    0  0.91947163579E+01  0.14381344420E+01  0.28193640307E+02  0.29689937581E+02  0.51100000000E-03 0.  1.
         12    1    3    3    0    0 -0.51651121639E+01 -0.49769700849E+00  0.77655459830E+01  0.93396889879E+01  0.00000000000E+00 0. -1.
</event>
<event>
 7    1  0.7749294E-012  0.5930195E+02  0.7816164E-02  0.1266605E+00
        -11   -1    0    0    0    0  0.00000000000E+00  0.00000000000E+00  0.45593999997E+02  0.45594000000E+02  0.51100000000E-03 0.  1.
         11   -1    0    0    0    0 -0.00000000000E+00 -0.00000000000E+00 -0.45593999997E+02  0.45594000000E+02  0.51100000000E-03 0. -1.
    9900012    2    1    2    0    0  0.50711307979E+01  0.73438169218E+01  0.30611634842E+02  0.59301949723E+02  0.50000010388E+02 0.  0.
         12    1    1    2    0    0 -0.50711307979E+01 -0.73438169218E+01 -0.30611634842E+02  0.31886050277E+02  0.00000000000E+00 0. -1.
         11    1    3    3    0    0 -0.74382060382E+01 -0.10228984240E+02 -0.34060994265E+01  0.13098112124E+02  0.51100000000E-03 0. -1.
        -11    1    3    3    0    0  0.10440518712E+02  0.20006307595E+02  0.35968176925E+02  0.42461353324E+02  0.51100000000E-03 0.  1.
        -12    1    3    3    0    0  0.20688181245E+01 -0.24335064340E+01 -0.19504426564E+01  0.37424842755E+01  0.00000000000E+00 0.  1.
</event>
<event>
 7    1  0.7749294E-012  0.5930195E+02  0.7816164E-02  0.1266605E+00
        -11   -1    0    0    0    0  0.00000000000E+00  0.00000000000E+00  0.45593999997E+02  0.45594000000E+02  0.51100000000E-03 0.  1.
         11   -1    0    0    0    0 -0.00000000000E+00 -0.00000000000E+00 -0.45593999997E+02  0.45594000000E+02  0.51100000000E-03 0. -1.
    9900012    2    1    2    0    0 -0.28184510262E+02  0.12698383570E+01  0.14857364723E+02  0.59301946706E+02  0.50000004885E+02 0.  0.
         12    1    1    2    0    0  0.28184510262E+02 -0.12698383570E+01 -0.14857364723E+02  0.31886053294E+02  0.00000000000E+00 0. -1.
         11    1    3    3    0    0 -0.17926624367E+01 -0.30778733798E+01 -0.75991733088E+01  0.83925191923E+01  0.51100000000E-03 0. -1.
        -11    1    3    3    0    0 -0.22712840655E+02 -0.99969316427E+01  0.25725812061E+02  0.35743939058E+02  0.51100000000E-03 0.  1.
        -12    1    3    3    0    0 -0.36790071695E+01  0.14344643380E+02 -0.32692740292E+01  0.15165488456E+02  0.00000000000E+00 0.  1.
</event>
<event>
 7    1  0.7749294E-012  0.5930195E+02  0.7816164E-02  0.1266605E+00
        -11   -1    0    0    0    0  0.00000000000E+00  0.00000000000E+00  0.45593999997E+02  0.45594000000E+02  0.51100000000E-03 0. -1.
         11   -1    0    0    0    0 -0.00000000000E+00 -0.00000000000E+00 -0.45593999997E+02  0.45594000000E+02  0.51100000000E-03 0.  1.
    9900012    2    1    2    0    0 -0.27530822827E+02  0.91336060632E+01  0.13242032794E+02  0.59301946658E+02  0.50000004796E+02 0.  0.
         12    1    1    2    0    0  0.27530822827E+02 -0.91336060632E+01 -0.13242032794E+02  0.31886053342E+02  0.00000000000E+00 0. -1.
         11    1    3    3    0    0 -0.17206932516E+01 -0.39607143849E+01  0.12227270909E+02  0.12967428343E+02  0.51100000000E-03 0. -1.
        -11    1    3    3    0    0 -0.68235457855E+01  0.17879490004E+01 -0.16624850627E+02  0.18059435133E+02  0.51100000000E-03 0.  1.
        -12    1    3    3    0    0 -0.18986583790E+02  0.11306371448E+02  0.17639612512E+02  0.28275083181E+02  0.00000000000E+00 0.  1.
</event>
<event>
 7    1  0.7749294E-012  0.5930195E+02  0.7816164E-02  0.1266605E+00
        -11   -1    0    0    0    0  0.00000000000E+00  0.00000000000E+00  0.45593999997E+02  0.45594000000E+02  0.51100000000E-03 0.  1.
         11   -1    0    0    0    0 -0.00000000000E+00 -0.00000000000E+00 -0.45593999997E+02  0.45594000000E+02  0.51100000000E-03 0. -1.
    9900012    2    1    2    0    0  0.16481465916E+02  0.50116750338E+00  0.27291579451E+02  0.59301949813E+02  0.50000010550E+02 0.  0.
         12    1    1    2    0    0 -0.16481465916E+02 -0.50116750338E+00 -0.27291579451E+02  0.31886050187E+02  0.00000000000E+00 0. -1.
         11    1    3    3    0    0  0.50470238849E+01  0.15030342083E+01 -0.10878658914E+02  0.12086222816E+02  0.51100000000E-03 0. -1.
        -11    1    3    3    0    0  0.14717104308E+02 -0.96248276192E+01  0.30548052678E+02  0.35247893392E+02  0.51100000000E-03 0.  1.
         12    1    3    3    0    0 -0.32826622765E+01  0.86229609143E+01  0.76221856873E+01  0.11967833605E+02  0.00000000000E+00 0. -1.
</event>
<event>
 7    1  0.7749294E-012  0.5930192E+02  0.7816164E-02  0.1266605E+00
        -11   -1    0    0    0    0  0.00000000000E+00  0.00000000000E+00  0.45593999997E+02  0.45594000000E+02  0.51100000000E-03 0. -1.
         11   -1    0    0    0    0 -0.00000000000E+00 -0.00000000000E+00 -0.45593999997E+02  0.45594000000E+02  0.51100000000E-03 0.  1.
    9900012    2    1    2    0    0  0.79274274699E+01  0.29310699616E+02 -0.97345168736E+01  0.59301920952E+02  0.49999957916E+02 0.  0.
         12    1    1    2    0    0 -0.79274274699E+01 -0.29310699616E+02  0.97345168736E+01  0.31886079048E+02  0.00000000000E+00 0. -1.
         11    1    3    3    0    0 -0.39111049913E+01  0.14869163216E+02  0.27718853345E+01  0.15622807224E+02  0.51100000000E-03 0.  1.
        -11    1    3    3    0    0 -0.58033833500E+01 -0.68377004277E+01 -0.13282609664E+02  0.16026887570E+02  0.51100000000E-03 0. -1.
        -12    1    3    3    0    0  0.17641915811E+02  0.21279236828E+02  0.77620745599E+00  0.27652226158E+02  0.00000000000E+00 0.  1.
</event>
<event>
 7    1  0.7749294E-012  0.5930197E+02  0.7816164E-02  0.1266605E+00
        -11   -1    0    0    0    0  0.00000000000E+00  0.00000000000E+00  0.45593999997E+02  0.45594000000E+02  0.51100000000E-03 0. -1.
         11   -1    0    0    0    0 -0.00000000000E+00 -0.00000000000E+00 -0.45593999997E+02  0.45594000000E+02  0.51100000000E-03 0.  1.
    9900012    2    1    2    0    0 -0.30999147153E+02 -0.17631458750E+01 -0.72569494613E+01  0.59301966646E+02  0.50000041249E+02 0.  0.
         12    1    1    2    0    0  0.30999147153E+02  0.17631458750E+01  0.72569494613E+01  0.31886033354E+02  0.00000000000E+00 0. -1.
         11    1    3    3    0    0 -0.68667612463E+00 -0.18190653685E+02 -0.27701445075E+01  0.18413177522E+02  0.51100000000E-03 0. -1.
        -11    1    3    3    0    0 -0.14267081312E+02  0.12534286045E+02 -0.12296110402E+02  0.22624152296E+02  0.51100000000E-03 0.  1.
         12    1    3    3    0    0 -0.16045389717E+02  0.38932217651E+01  0.78093054486E+01  0.18264636828E+02  0.00000000000E+00 0. -1.
</event>
<event>
 7    1  0.7749294E-012  0.5930192E+02  0.7816164E-02  0.1266605E+00
        -11   -1    0    0    0    0  0.00000000000E+00  0.00000000000E+00  0.45593999997E+02  0.45594000000E+02  0.51100000000E-03 0.  1.
         11   -1    0    0    0    0 -0.00000000000E+00 -0.00000000000E+00 -0.45593999997E+02  0.45594000000E+02  0.51100000000E-03 0. -1.
    9900012    2    1    2    0    0  0.94293903951E+01  0.99418111455E+01  0.28791827805E+02  0.59301915881E+02  0.49999948667E+02 0.  0.
         12    1    1    2    0    0 -0.94293903951E+01 -0.99418111455E+01 -0.28791827805E+02  0.31886084119E+02  0.00000000000E+00 0. -1.
         11    1    3    3    0    0 -0.96741997099E+01 -0.66178222660E+01  0.37862583135E+01  0.12317526694E+02  0.51100000000E-03 0. -1.
        -11    1    3    3    0    0  0.19512719744E+02  0.79091295997E+01  0.30253026706E+02  0.36858461552E+02  0.51100000000E-03 0.  1.
        -12    1    3    3    0    0 -0.40912963884E+00  0.86505038118E+01 -0.52474572145E+01  0.10125927635E+02  0.00000000000E+00 0.  1.
</event>
<event>
 7    1  0.7749294E-012  0.5930195E+02  0.7816164E-02  0.1266605E+00
        -11   -1    0    0    0    0  0.00000000000E+00  0.00000000000E+00  0.45593999997E+02  0.45594000000E+02  0.51100000000E-03 0. -1.
         11   -1    0    0    0    0 -0.00000000000E+00 -0.00000000000E+00 -0.45593999997E+02  0.45594000000E+02  0.51100000000E-03 0.  1.
    9900012    2    1    2    0    0 -0.66215259176E+01  0.53614647497E+01 -0.30726705152E+02  0.59301947889E+02  0.50000007042E+02 0.  0.
         12    1    1    2    0    0  0.66215259176E+01 -0.53614647497E+01  0.30726705152E+02  0.31886052111E+02  0.00000000000E+00 0. -1.
         11    1    3    3    0    0 -0.19452651975E+02 -0.10691714354E+02 -0.72828737984E+01  0.23361478457E+02  0.51100000000E-03 0. -1.
        -11    1    3    3    0    0  0.14951779312E+02  0.15307494625E+02 -0.25220720420E+02  0.33075063644E+02  0.51100000000E-03 0.  1.
        -12    1    3    3    0    0 -0.21206532551E+01  0.74568447882E+00  0.17768890670E+01  0.28654057875E+01  0.00000000000E+00 0.  1.
</event>
<event>
 7    1  0.7749294E-012  0.5930194E+02  0.7816164E-02  0.1266605E+00
        -11   -1    0    0    0    0  0.00000000000E+00  0.00000000000E+00  0.45593999997E+02  0.45594000000E+02  0.51100000000E-03 0.  1.
         11   -1    0    0    0    0 -0.00000000000E+00 -0.00000000000E+00 -0.45593999997E+02  0.45594000000E+02  0.51100000000E-03 0. -1.
    9900012    2    1    2    0    0 -0.26893106423E+02  0.11269274557E+02  0.12902906445E+02  0.59301941654E+02  0.49999995671E+02 0.  0.
         12    1    1    2    0    0  0.26893106423E+02 -0.11269274557E+02 -0.12902906445E+02  0.31886058346E+02  0.00000000000E+00 0. -1.
         11    1    3    3    0    0 -0.11577590633E+02 -0.13094736910E+01  0.49377751722E+00  0.11661867033E+02  0.51100000000E-03 0. -1.
        -11    1    3    3    0    0  0.13910005009E+02  0.17032856138E+01 -0.17034541311E+00  0.14014936284E+02  0.51100000000E-03 0.  1.
        -12    1    3    3    0    0 -0.29225520799E+02  0.10875462634E+02  0.12579474341E+02  0.33625138337E+02  0.00000000000E+00 0.  1.
</event>
<event>
 7    1  0.7749294E-012  0.5930194E+02  0.7816164E-02  0.1266605E+00
        -11   -1    0    0    0    0  0.00000000000E+00  0.00000000000E+00  0.45593999997E+02  0.45594000000E+02  0.51100000000E-03 0. -1.
         11   -1    0    0    0    0 -0.00000000000E+00 -0.00000000000E+00 -0.45593999997E+02  0.45594000000E+02  0.51100000000E-03 0.  1.
    9900012    2    1    2    0    0 -0.42936136850E+01  0.31265602033E+02  0.45549869457E+01  0.59301938859E+02  0.49999990574E+02 0.  0.
         12    1    1    2    0    0  0.42936136850E+01 -0.31265602033E+02 -0.45549869457E+01  0.31886061141E+02  0.00000000000E+00 0. -1.
         11    1    3    3    0    0 -0.59247452929E+01 -0.10555957174E+02  0.31485961172E+01  0.12507777437E+02  0.51100000000E-03 0. -1.
        -11    1    3    3    0    0 -0.69406188715E+01  0.27409909997E+02  0.69803056458E+01  0.29123873773E+02  0.51100000000E-03 0.  1.
         12    1    3    3    0    0  0.85717504794E+01  0.14411649210E+02 -0.55739148173E+01  0.17670287650E+02  0.00000000000E+00 0. -1.
</event>
<event>
 7    1  0.7749294E-012  0.5930197E+02  0.7816164E-02  0.1266605E+00
        -11   -1    0    0    0    0  0.00000000000E+00  0.00000000000E+00  0.45593999997E+02  0.45594000000E+02  0.51100000000E-03 0.  1.
         11   -1    0    0    0    0 -0.00000000000E+00 -0.00000000000E+00 -0.45593999997E+02  0.45594000000E+02  0.51100000000E-03 0. -1.
    9900012    2    1    2    0    0  0.29246861196E+02 -0.10073527404E+02  0.77371946358E+01  0.59301968184E+02  0.50000044054E+02 0.  0.
         12    1    1    2    0    0 -0.29246861196E+02  0.10073527404E+02 -0.77371946358E+01  0.31886031816E+02  0.00000000000E+00 0. -1.
         11    1    3    3    0    0 -0.85613777645E+00  0.78353445675E+01 -0.53054158170E+01  0.95012122193E+01  0.51100000000E-03 0. -1.
        -11    1    3    3    0    0  0.77572848744E+01 -0.17079185563E+02  0.18958639625E+02  0.26670284303E+02  0.51100000000E-03 0.  1.
        -12    1    3    3    0    0  0.22345714098E+02 -0.82968640801E+00 -0.59160291723E+01  0.23130471661E+02  0.00000000000E+00 0.  1.
</event>
<event>
 7    1  0.7749294E-012  0.5930196E+02  0.7816164E-02  0.1266605E+00
        -11   -1    0    0    0    0  0.00000000000E+00  0.00000000000E+00  0.45593999997E+02  0.45594000000E+02  0.51100000000E-03 0.  1.
         11   -1    0    0    0    0 -0.00000000000E+00 -0.00000000000E+00 -0.45593999997E+02  0.45594000000E+02  0.51100000000E-03 0. -1.
    9900012    2    1    2    0    0  0.16179559641E+02 -0.20694046220E+02  0.18074789864E+02  0.59301957163E+02  0.50000023956E+02 0.  0.
         12    1    1    2    0    0 -0.16179559641E+02  0.20694046220E+02 -0.18074789864E+02  0.31886042837E+02  0.00000000000E+00 0. -1.
         11    1    3    3    0    0  0.19432232266E+02 -0.65237983311E+01  0.10265582531E+02  0.22924959770E+02  0.51100000000E-03 0.  1.
        -11    1    3    3    0    0 -0.12263721591E+02  0.32732367087E+00 -0.66960567443E+01  0.13976522609E+02  0.51100000000E-03 0. -1.
        -12    1    3    3    0    0  0.90110489659E+01 -0.14497571560E+02  0.14505264078E+02  0.22400474784E+02  0.00000000000E+00 0.  1.
</event>
<event>
 7    1  0.7749294E-012  0.5930198E+02  0.7816164E-02  0.1266605E+00
        -11   -1    0    0    0    0  0.00000000000E+00  0.00000000000E+00  0.45593999997E+02  0.45594000000E+02  0.51100000000E-03 0. -1.
         11   -1    0    0    0    0 -0.00000000000E+00 -0.00000000000E+00 -0.45593999997E+02  0.45594000000E+02  0.51100000000E-03 0.  1.
    9900012    2    1    2    0    0  0.30922833620E+02 -0.48641332237E+00 -0.77627279091E+01  0.59301981409E+02  0.50000068174E+02 0.  0.
         12    1    1    2    0    0 -0.30922833620E+02  0.48641332237E+00  0.77627279091E+01  0.31886018591E+02  0.00000000000E+00 0. -1.
         11    1    3    3    0    0  0.18795606957E+02 -0.82736038951E+01 -0.57613469963E+01  0.21328864990E+02  0.51100000000E-03 0. -1.
        -11    1    3    3    0    0  0.15203519964E+02  0.19816655974E+02 -0.43033841408E+01  0.25344940099E+02  0.51100000000E-03 0.  1.
        -12    1    3    3    0    0 -0.30762933011E+01 -0.12029465401E+02  0.23020032280E+01  0.12628176320E+02  0.00000000000E+00 0.  1.
</event>
<event>
 7    1  0.7749294E-012  0.5930220E+02  0.7816164E-02  0.1266604E+00
        -11   -1    0    0    0    0  0.00000000000E+00  0.00000000000E+00  0.45593999997E+02  0.45594000000E+02  0.51100000000E-03 0. -1.
         11   -1    0    0    0    0 -0.00000000000E+00 -0.00000000000E+00 -0.45593999997E+02  0.45594000000E+02  0.51100000000E-03 0.  1.
    9900012    2    1    2    0    0 -0.21560894557E+02 -0.16130706074E+02  0.17077250532E+02  0.59302198485E+02  0.50000464067E+02 0.  0.
         12    1    1    2    0    0  0.21560894557E+02  0.16130706074E+02 -0.17077250532E+02  0.31885801515E+02  0.00000000000E+00 0. -1.
         11    1    3    3    0    0 -0.69225099057E+01  0.85842609069E+01 -0.28152213390E+00  0.11031316045E+02  0.51100000000E-03 0. -1.
        -11    1    3    3    0    0 -0.19426780656E+02 -0.29831226977E+02  0.78423031339E+01  0.36452758857E+02  0.51100000000E-03 0.  1.
        -12    1    3    3    0    0  0.47883960052E+01  0.51162599963E+01  0.95164695323E+01  0.11818123583E+02  0.00000000000E+00 0.  1.
</event>
<event>
 7    1  0.7749294E-012  0.5930195E+02  0.7816164E-02  0.1266605E+00
        -11   -1    0    0    0    0  0.00000000000E+00  0.00000000000E+00  0.45593999997E+02  0.45594000000E+02  0.51100000000E-03 0. -1.
         11   -1    0    0    0    0 -0.00000000000E+00 -0.00000000000E+00 -0.45593999997E+02  0.45594000000E+02  0.51100000000E-03 0.  1.
    9900012    2    1    2    0    0  0.18141161348E+02  0.10511889233E+02 -0.24023297686E+02  0.59301946905E+02  0.50000005247E+02 0.  0.
         12    1    1    2    0    0 -0.18141161348E+02 -0.10511889233E+02  0.24023297686E+02  0.31886053095E+02  0.00000000000E+00 0. -1.
         11    1    3    3    0    0  0.26370680529E-01  0.69666813297E+01  0.78667855435E+01  0.10508171069E+02  0.51100000000E-03 0. -1.
        -11    1    3    3    0    0  0.17409244170E+02  0.16388431467E+02 -0.22847730756E+02  0.33070852264E+02  0.51100000000E-03 0.  1.
        -12    1    3    3    0    0  0.70554649763E+00 -0.12843223564E+02 -0.90423524732E+01  0.15722923571E+02  0.00000000000E+00 0.  1.
</event>
<event>
 7    1  0.7749294E-012  0.5930192E+02  0.7816164E-02  0.1266605E+00
        -11   -1    0    0    0    0  0.00000000000E+00  0.00000000000E+00  0.45593999997E+02  0.45594000000E+02  0.51100000000E-03 0.  1.
         11   -1    0    0    0    0 -0.00000000000E+00 -0.00000000000E+00 -0.45593999997E+02  0.45594000000E+02  0.51100000000E-03 0. -1.
    9900012    2    1    2    0    0 -0.31445839040E+02  0.25376995193E+01  0.46304908984E+01  0.59301919059E+02  0.49999954463E+02 0.  0.
         12    1    1    2    0    0  0.31445839040E+02 -0.25376995193E+01 -0.46304908984E+01  0.31886080941E+02  0.00000000000E+00 0. -1.
         11    1    3    3    0    0 -0.39632428389E+02  0.11853014032E+02  0.10891835974E+01  0.41381271643E+02  0.51100000000E-03 0. -1.
        -11    1    3    3    0    0  0.17507815629E+01  0.20644692403E+01  0.40106120213E+01  0.48386236031E+01  0.51100000000E-03 0.  1.
         12    1    3    3    0    0  0.64358077854E+01 -0.11379783753E+02 -0.46930472036E+00  0.13082023813E+02  0.00000000000E+00 0. -1.
</event>
<event>
 7    1  0.7749294E-012  0.5930198E+02  0.7816164E-02  0.1266605E+00
        -11   -1    0    0    0    0  0.00000000000E+00  0.00000000000E+00  0.45593999997E+02  0.45594000000E+02  0.51100000000E-03 0.  1.
         11   -1    0    0    0    0 -0.00000000000E+00 -0.00000000000E+00 -0.45593999997E+02  0.45594000000E+02  0.51100000000E-03 0. -1.
    9900012    2    1    2    0    0  0.45223336013E+01 -0.28007387670E+02  0.14555169538E+02  0.59301980719E+02  0.50000066915E+02 0.  0.
         12    1    1    2    0    0 -0.45223336013E+01  0.28007387670E+02 -0.14555169538E+02  0.31886019281E+02  0.00000000000E+00 0. -1.
         11    1    3    3    0    0 -0.39288931710E+01  0.16530589315E+01  0.10198155384E+01  0.43827878540E+01  0.51100000000E-03 0. -1.
        -11    1    3    3    0    0  0.50441057725E+01 -0.41035273069E+02  0.10147682509E+02  0.42571259078E+02  0.51100000000E-03 0.  1.
        -12    1    3    3    0    0  0.34071209998E+01  0.11374826467E+02  0.33876714911E+01  0.12347933787E+02  0.00000000000E+00 0.  1.
</event>
<event>
 7    1  0.7749294E-012  0.5930193E+02  0.7816164E-02  0.1266605E+00
        -11   -1    0    0    0    0  0.00000000000E+00  0.00000000000E+00  0.45593999997E+02  0.45594000000E+02  0.51100000000E-03 0.  1.
         11   -1    0    0    0    0 -0.00000000000E+00 -0.00000000000E+00 -0.45593999997E+02  0.45594000000E+02  0.51100000000E-03 0. -1.
    9900012    2    1    2    0    0  0.17081148386E+02 -0.24898044622E+02  0.10249048515E+02  0.59301933268E+02  0.49999980376E+02 0.  0.
         12    1    1    2    0    0 -0.17081148386E+02  0.24898044622E+02 -0.10249048515E+02  0.31886066732E+02  0.00000000000E+00 0. -1.
         11    1    3    3    0    0  0.27981841396E+02 -0.21761743062E+02 -0.47214752188E+01  0.35761001629E+02  0.51100000000E-03 0. -1.
        -11    1    3    3    0    0 -0.10658828903E+02 -0.73031794155E+01  0.14368939737E+02  0.19323909868E+02  0.51100000000E-03 0.  1.
        -12    1    3    3    0    0 -0.24186410676E+00  0.41668778555E+01  0.60158399684E+00  0.42170217707E+01  0.00000000000E+00 0.  1.
</event>
<event>
 7    1  0.7749294E-012  0.5930192E+02  0.7816164E-02  0.1266605E+00
        -11   -1    0    0    0    0  0.00000000000E+00  0.00000000000E+00  0.45593999997E+02  0.45594000000E+02  0.51100000000E-03 0.  1.
         11   -1    0    0    0    0 -0.00000000000E+00 -0.00000000000E+00 -0.45593999997E+02  0.45594000000E+02  0.51100000000E-03 0. -1.
    9900012    2    1    2    0    0  0.61688803540E+01 -0.20202628034E+02  0.23885577741E+02  0.59301920148E+02  0.49999956450E+02 0.  0.
         12    1    1    2    0    0 -0.61688803540E+01  0.20202628034E+02 -0.23885577741E+02  0.31886079852E+02  0.00000000000E+00 0. -1.
         11    1    3    3    0    0 -0.14011501819E+01  0.13089920606E+02  0.11213491868E+01  0.13212367977E+02  0.51100000000E-03 0. -1.
        -11    1    3    3    0    0  0.55932567791E+01 -0.18459138690E+02  0.24324810548E+02  0.31043851742E+02  0.51100000000E-03 0.  1.
         12    1    3    3    0    0  0.19767737568E+01 -0.14833409950E+02 -0.15605819938E+01  0.15045700429E+02  0.00000000000E+00 0. -1.
</event>
<event>
 7    1  0.7749294E-012  0.5930196E+02  0.7816164E-02  0.1266605E+00
        -11   -1    0    0    0    0  0.00000000000E+00  0.00000000000E+00  0.45593999997E+02  0.45594000000E+02  0.51100000000E-03 0.  1.
         11   -1    0    0    0    0 -0.00000000000E+00 -0.00000000000E+00 -0.45593999997E+02  0.45594000000E+02  0.51100000000E-03 0. -1.
    9900012    2    1    2    0    0 -0.31392086521E+02  0.43989870074E+01 -0.34504260005E+01  0.59301958816E+02  0.50000026970E+02 0.  0.
         12    1    1    2    0    0  0.31392086521E+02 -0.43989870074E+01  0.34504260005E+01  0.31886041184E+02  0.00000000000E+00 0. -1.
         11    1    3    3    0    0 -0.14244507694E+01 -0.15474188329E+02  0.17831769790E+01  0.15641588309E+02  0.51100000000E-03 0.  1.
        -11    1    3    3    0    0 -0.30186729882E+02  0.17557761983E+02  0.30518946202E+01  0.35054639177E+02  0.51100000000E-03 0. -1.
        -12    1    3    3    0    0  0.21909413022E+00  0.23154133534E+01 -0.82854975997E+01  0.86057313291E+01  0.00000000000E+00 0.  1.
</event>
<event>
 7    1  0.7749294E-012  0.5930197E+02  0.7816164E-02  0.1266605E+00
        -11   -1    0    0    0    0  0.00000000000E+00  0.00000000000E+00  0.45593999997E+02  0.45594000000E+02  0.51100000000E-03 0. -1.
         11   -1    0    0    0    0 -0.00000000000E+00 -0.00000000000E+00 -0.45593999997E+02  0.45594000000E+02  0.51100000000E-03 0.  1.
    9900012    2    1    2    0    0  0.49086860381E+01 -0.26463331902E+02 -0.17097241216E+02  0.59301971850E+02  0.50000050741E+02 0.  0.
         12    1    1    2    0    0 -0.49086860381E+01  0.26463331902E+02  0.17097241216E+02  0.31886028150E+02  0.00000000000E+00 0. -1.
         11    1    3    3    0    0 -0.11324327101E+01  0.60180540222E+01 -0.20687968361E+02  0.21575250016E+02  0.51100000000E-03 0. -1.
        -11    1    3    3    0    0 -0.21897506448E+01 -0.10533139077E+02 -0.60935425329E+01  0.12364193769E+02  0.51100000000E-03 0.  1.
         12    1    3    3    0    0  0.82308693930E+01 -0.21948246847E+02  0.96842696787E+01  0.25362528065E+02  0.00000000000E+00 0. -1.
</event>
<event>
 7    1  0.7749294E-012  0.5930193E+02  0.7816164E-02  0.1266605E+00
        -11   -1    0    0    0    0  0.00000000000E+00  0.00000000000E+00  0.45593999997E+02  0.45594000000E+02  0.51100000000E-03 0.  1.
         11   -1    0    0    0    0 -0.00000000000E+00 -0.00000000000E+00 -0.45593999997E+02  0.45594000000E+02  0.51100000000E-03 0. -1.
    9900012    2    1    2    0    0  0.44162934846E+00  0.30282368957E+02  0.99752042998E+01  0.59301927697E+02  0.49999970216E+02 0.  0.
         12    1    1    2    0    0 -0.44162934846E+00 -0.30282368957E+02 -0.99752042998E+01  0.31886072303E+02  0.00000000000E+00 0. -1.
         11    1    3    3    0    0  0.17200886942E+02 -0.43913918345E+01  0.40898208355E+01  0.18217614239E+02  0.51100000000E-03 0. -1.
        -11    1    3    3    0    0 -0.21284882114E+01  0.18187689287E+02  0.51827338456E+01  0.19031112265E+02  0.51100000000E-03 0.  1.
         12    1    3    3    0    0 -0.14630769382E+02  0.16486071504E+02  0.70264961868E+00  0.22053201192E+02  0.00000000000E+00 0. -1.
</event>
<event>
 7    1  0.7749294E-012  0.5930195E+02  0.7816164E-02  0.1266605E+00
        -11   -1    0    0    0    0  0.00000000000E+00  0.00000000000E+00  0.45593999997E+02  0.45594000000E+02  0.51100000000E-03 0.  1.
         11   -1    0    0    0    0 -0.00000000000E+00 -0.00000000000E+00 -0.45593999997E+02  0.45594000000E+02  0.51100000000E-03 0. -1.
    9900012    2    1    2    0    0 -0.13094715437E+02 -0.17257073555E+02  0.23397480857E+02  0.59301948653E+02  0.50000008435E+02 0.  0.
         12    1    1    2    0    0  0.13094715437E+02  0.17257073555E+02 -0.23397480857E+02  0.31886051347E+02  0.00000000000E+00 0. -1.
         11    1    3    3    0    0 -0.26031222140E+01  0.99926890027E+01 -0.39172109935E+00  0.10333611394E+02  0.51100000000E-03 0.  1.
        -11    1    3    3    0    0 -0.89697349660E+01 -0.26777398891E+02  0.30795365783E+02  0.41783247729E+02  0.51100000000E-03 0. -1.
         12    1    3    3    0    0 -0.15218582570E+01 -0.47236366576E+00 -0.70061638268E+01  0.71850895301E+01  0.00000000000E+00 0. -1.
</event>
<event>
 7    1  0.7749294E-012  0.5930187E+02  0.7816164E-02  0.1266605E+00
        -11   -1    0    0    0    0  0.00000000000E+00  0.00000000000E+00  0.45593999997E+02  0.45594000000E+02  0.51100000000E-03 0. -1.
         11   -1    0    0    0    0 -0.00000000000E+00 -0.00000000000E+00 -0.45593999997E+02  0.45594000000E+02  0.51100000000E-03 0.  1.
    9900012    2    1    2    0    0  0.23861552210E+02 -0.95932250806E+00 -0.21128920993E+02  0.59301870165E+02  0.49999865292E+02 0.  0.
         12    1    1    2    0    0 -0.23861552210E+02  0.95932250806E+00  0.21128920993E+02  0.31886129835E+02  0.00000000000E+00 0. -1.
         11    1    3    3    0    0  0.14052448240E+01 -0.11194785447E+02  0.28958149002E+01  0.11648333719E+02  0.51100000000E-03 0. -1.
        -11    1    3    3    0    0  0.62905883592E+01 -0.26389732950E+00 -0.27373929907E+02  0.28088666442E+02  0.51100000000E-03 0.  1.
        -12    1    3    3    0    0  0.16165719027E+02  0.10499360269E+02  0.33491940139E+01  0.19564870004E+02  0.00000000000E+00 0.  1.
</event>
<event>
 7    1  0.7749294E-012  0.5930196E+02  0.7816164E-02  0.1266605E+00
        -11   -1    0    0    0    0  0.00000000000E+00  0.00000000000E+00  0.45593999997E+02  0.45594000000E+02  0.51100000000E-03 0. -1.
         11   -1    0    0    0    0 -0.00000000000E+00 -0.00000000000E+00 -0.45593999997E+02  0.45594000000E+02  0.51100000000E-03 0.  1.
    9900012    2    1    2    0    0  0.88125516267E+01  0.21847868002E+02 -0.21487885858E+02  0.59301958523E+02  0.50000026436E+02 0.  0.
         12    1    1    2    0    0 -0.88125516267E+01 -0.21847868002E+02  0.21487885858E+02  0.31886041477E+02  0.00000000000E+00 0. -1.
         11    1    3    3    0    0  0.11178610115E+02 -0.10112460819E+01 -0.27482983140E+01  0.11555824792E+02  0.51100000000E-03 0. -1.
        -11    1    3    3    0    0  0.22509999971E+01  0.31818550532E+02 -0.19906096268E+02  0.37599731752E+02  0.51100000000E-03 0.  1.
        -12    1    3    3    0    0 -0.46170584854E+01 -0.89594364474E+01  0.11665087240E+01  0.10146401979E+02  0.00000000000E+00 0.  1.
</event>
<event>
 7    1  0.7749294E-012  0.5930197E+02  0.7816164E-02  0.1266605E+00
        -11   -1    0    0    0    0  0.00000000000E+00  0.00000000000E+00  0.45593999997E+02  0.45594000000E+02  0.51100000000E-03 0.  1.
         11   -1    0    0    0    0 -0.00000000000E+00 -0.00000000000E+00 -0.45593999997E+02  0.45594000000E+02  0.51100000000E-03 0. -1.
    9900012    2    1    2    0    0 -0.18243654199E+02  0.36409815637E+01  0.25896554095E+02  0.59301965765E+02  0.50000039643E+02 0.  0.
         12    1    1    2    0    0  0.18243654199E+02 -0.36409815637E+01 -0.25896554095E+02  0.31886034235E+02  0.00000000000E+00 0. -1.
         11    1    3    3    0    0  0.96442716714E+01  0.20527265356E+00  0.13995976573E+02  0.16998278543E+02  0.51100000000E-03 0. -1.
        -11    1    3    3    0    0 -0.30232468842E+02 -0.98405494120E+00  0.17378169076E+02  0.34885115696E+02  0.51100000000E-03 0.  1.
        -12    1    3    3    0    0  0.23445429720E+01  0.44197638513E+01 -0.54775915544E+01  0.74185715260E+01  0.00000000000E+00 0.  1.
</event>
<event>
 7    1  0.7749294E-012  0.5930195E+02  0.7816164E-02  0.1266605E+00
        -11   -1    0    0    0    0  0.00000000000E+00  0.00000000000E+00  0.45593999997E+02  0.45594000000E+02  0.51100000000E-03 0. -1.
         11   -1    0    0    0    0 -0.00000000000E+00 -0.00000000000E+00 -0.45593999997E+02  0.45594000000E+02  0.51100000000E-03 0.  1.
    9900012    2    1    2    0    0  0.20941145734E+00  0.30800509651E+02 -0.82465233876E+01  0.59301946687E+02  0.50000004849E+02 0.  0.
         12    1    1    2    0    0 -0.20941145734E+00 -0.30800509651E+02  0.82465233876E+01  0.31886053313E+02  0.00000000000E+00 0. -1.
         11    1    3    3    0    0 -0.13611844816E+02 -0.63651011476E+00  0.24942930365E+01  0.13853121036E+02  0.51100000000E-03 0. -1.
        -11    1    3    3    0    0  0.14351227481E+02  0.99225327913E+01  0.57125326836E+01  0.18358851193E+02  0.51100000000E-03 0.  1.
        -12    1    3    3    0    0 -0.52997120817E+00  0.21514486975E+02 -0.16453349108E+02  0.27089974458E+02  0.00000000000E+00 0.  1.
</event>
<event>
 7    1  0.7749294E-012  0.5930197E+02  0.7816164E-02  0.1266605E+00
        -11   -1    0    0    0    0  0.00000000000E+00  0.00000000000E+00  0.45593999997E+02  0.45594000000E+02  0.51100000000E-03 0. -1.
         11   -1    0    0    0    0 -0.00000000000E+00 -0.00000000000E+00 -0.45593999997E+02  0.45594000000E+02  0.51100000000E-03 0.  1.
    9900012    2    1    2    0    0  0.85903084379E+01  0.25788794039E+02 -0.16669242111E+02  0.59301969680E+02  0.50000046783E+02 0.  0.
         12    1    1    2    0    0 -0.85903084379E+01 -0.25788794039E+02  0.16669242111E+02  0.31886030320E+02  0.00000000000E+00 0. -1.
         11    1    3    3    0    0 -0.11794415297E+02  0.26263170243E+02 -0.15206533245E+02  0.32559192205E+02  0.51100000000E-03 0. -1.
        -11    1    3    3    0    0  0.67963877166E+01 -0.58453349653E+01 -0.67317092375E+01  0.11210474404E+02  0.51100000000E-03 0.  1.
        -12    1    3    3    0    0  0.13588336019E+02  0.53709587609E+01  0.52690003714E+01  0.15532303071E+02  0.00000000000E+00 0.  1.
</event>
<event>
 7    1  0.7749294E-012  0.5930200E+02  0.7816164E-02  0.1266605E+00
        -11   -1    0    0    0    0  0.00000000000E+00  0.00000000000E+00  0.45593999997E+02  0.45594000000E+02  0.51100000000E-03 0.  1.
         11   -1    0    0    0    0 -0.00000000000E+00 -0.00000000000E+00 -0.45593999997E+02  0.45594000000E+02  0.51100000000E-03 0. -1.
    9900012    2    1    2    0    0 -0.11091898829E+02  0.48895204573E+01  0.29492020179E+02  0.59302001753E+02  0.50000105277E+02 0.  0.
         12    1    1    2    0    0  0.11091898829E+02 -0.48895204573E+01 -0.29492020179E+02  0.31885998247E+02  0.00000000000E+00 0. -1.
         11    1    3    3    0    0  0.79888314779E+00  0.16531110354E+02 -0.81927069724E+00  0.16570667716E+02  0.51100000000E-03 0. -1.
        -11    1    3    3    0    0 -0.88128099514E+00 -0.17438270782E+02  0.15139298708E+02  0.23109917994E+02  0.51100000000E-03 0.  1.
        -12    1    3    3    0    0 -0.11009500982E+02  0.57966808851E+01  0.15171992168E+02  0.19621416043E+02  0.00000000000E+00 0.  1.
</event>
<event>
 7    1  0.7749294E-012  0.5930202E+02  0.7816164E-02  0.1266605E+00
        -11   -1    0    0    0    0  0.00000000000E+00  0.00000000000E+00  0.45593999997E+02  0.45594000000E+02  0.51100000000E-03 0.  1.
         11   -1    0    0    0    0 -0.00000000000E+00 -0.00000000000E+00 -0.45593999997E+02  0.45594000000E+02  0.51100000000E-03 0. -1.
    9900012    2    1    2    0    0  0.37070075098E+01 -0.14564865096E+01  0.31636254147E+02  0.59302018220E+02  0.50000135308E+02 0.  0.
         12    1    1    2    0    0 -0.37070075098E+01  0.14564865096E+01 -0.31636254147E+02  0.31885981780E+02  0.00000000000E+00 0. -1.
         11    1    3    3    0    0 -0.30188397694E+01 -0.64615359385E+01 -0.52795504567E+01  0.88734713345E+01  0.51100000000E-03 0. -1.
        -11    1    3    3    0    0 -0.32735540062E+01  0.25516681613E+01  0.39577133817E+02  0.39794179067E+02  0.51100000000E-03 0.  1.
        -12    1    3    3    0    0  0.99994012853E+01  0.24533812676E+01 -0.26613292125E+01  0.10634367818E+02  0.00000000000E+00 0.  1.
</event>
<event>
 7    1  0.7749294E-012  0.5930194E+02  0.7816164E-02  0.1266605E+00
        -11   -1    0    0    0    0  0.00000000000E+00  0.00000000000E+00  0.45593999997E+02  0.45594000000E+02  0.51100000000E-03 0.  1.
         11   -1    0    0    0    0 -0.00000000000E+00 -0.00000000000E+00 -0.45593999997E+02  0.45594000000E+02  0.51100000000E-03 0. -1.
    9900012    2    1    2    0    0 -0.10038646387E+02 -0.29560607948E+02 -0.64897267931E+01  0.59301944782E+02  0.50000001375E+02 0.  0.
         12    1    1    2    0    0  0.10038646387E+02  0.29560607948E+02  0.64897267931E+01  0.31886055218E+02  0.00000000000E+00 0. -1.
         11    1    3    3    0    0 -0.70615776161E+01 -0.14383164734E+01 -0.16793174445E+02  0.18274171415E+02  0.51100000000E-03 0. -1.
        -11    1    3    3    0    0  0.10377822394E+02 -0.23166608748E+02  0.78689718375E+01  0.26576524916E+02  0.51100000000E-03 0.  1.
        -12    1    3    3    0    0 -0.13354891165E+02 -0.49556827261E+01  0.24344758140E+01  0.14451248451E+02  0.00000000000E+00 0.  1.
</event>
<event>
 7    1  0.7749294E-012  0.5930198E+02  0.7816164E-02  0.1266605E+00
        -11   -1    0    0    0    0  0.00000000000E+00  0.00000000000E+00  0.45593999997E+02  0.45594000000E+02  0.51100000000E-03 0. -1.
         11   -1    0    0    0    0 -0.00000000000E+00 -0.00000000000E+00 -0.45593999997E+02  0.45594000000E+02  0.51100000000E-03 0.  1.
    9900012    2    1    2    0    0  0.27728215606E+02 -0.94272907192E+01 -0.12609150646E+02  0.59301977498E+02  0.50000061041E+02 0.  0.
         12    1    1    2    0    0 -0.27728215606E+02  0.94272907192E+01  0.12609150646E+02  0.31886022502E+02  0.00000000000E+00 0. -1.
         11    1    3    3    0    0 -0.31805620005E+01 -0.44301533901E+01 -0.83413295786E-01  0.54542819635E+01  0.51100000000E-03 0. -1.
        -11    1    3    3    0    0  0.20307193032E+02  0.27093748778E+01  0.13619578299E+02  0.24601132380E+02  0.51100000000E-03 0.  1.
        -12    1    3    3    0    0  0.10601584575E+02 -0.77065122069E+01 -0.26145315650E+02  0.29246563154E+02  0.00000000000E+00 0.  1.
</event>
<event>
 7    1  0.7749294E-012  0.5930194E+02  0.7816164E-02  0.1266605E+00
        -11   -1    0    0    0    0  0.00000000000E+00  0.00000000000E+00  0.45593999997E+02  0.45594000000E+02  0.51100000000E-03 0. -1.
         11   -1    0    0    0    0 -0.00000000000E+00 -0.00000000000E+00 -0.45593999997E+02  0.45594000000E+02  0.51100000000E-03 0.  1.
    9900012    2    1    2    0    0 -0.27039424019E+02  0.15059912460E+02 -0.76674443124E+01  0.59301935381E+02  0.49999984231E+02 0.  0.
         12    1    1    2    0    0  0.27039424019E+02 -0.15059912460E+02  0.76674443124E+01  0.31886064619E+02  0.00000000000E+00 0. -1.
         11    1    3    3    0    0 -0.52845595181E+01  0.37339932410E+00  0.19720776416E+02  0.20419966187E+02  0.51100000000E-03 0. -1.
        -11    1    3    3    0    0 -0.51343713541E+01  0.71685888166E+01 -0.55143128890E+01  0.10399907775E+02  0.51100000000E-03 0.  1.
         12    1    3    3    0    0 -0.16620493147E+02  0.75179243197E+01 -0.21873907840E+02  0.28482061419E+02  0.00000000000E+00 0. -1.
</event>
<event>
 7    1  0.7749294E-012  0.5930193E+02  0.7816164E-02  0.1266605E+00
        -11   -1    0    0    0    0  0.00000000000E+00  0.00000000000E+00  0.45593999997E+02  0.45594000000E+02  0.51100000000E-03 0.  1.
         11   -1    0    0    0    0 -0.00000000000E+00 -0.00000000000E+00 -0.45593999997E+02  0.45594000000E+02  0.51100000000E-03 0. -1.
    9900012    2    1    2    0    0  0.10910651149E+02  0.28314669116E+02  0.97958515095E+01  0.59301929335E+02  0.49999973204E+02 0.  0.
         12    1    1    2    0    0 -0.10910651149E+02 -0.28314669116E+02 -0.97958515095E+01  0.31886070665E+02  0.00000000000E+00 0. -1.
         11    1    3    3    0    0 -0.57341242929E+01  0.21984368494E+02  0.51153531089E+01  0.23288612607E+02  0.51100000000E-03 0. -1.
        -11    1    3    3    0    0 -0.57969208232E+01 -0.69206666185E+01 -0.16891790667E+01  0.91844021937E+01  0.51100000000E-03 0.  1.
        -12    1    3    3    0    0  0.22441696265E+02  0.13250967241E+02  0.63696774673E+01  0.26828914534E+02  0.00000000000E+00 0.  1.
</event>
<event>
 7    1  0.7749294E-012  0.5930192E+02  0.7816164E-02  0.1266605E+00
        -11   -1    0    0    0    0  0.00000000000E+00  0.00000000000E+00  0.45593999997E+02  0.45594000000E+02  0.51100000000E-03 0.  1.
         11   -1    0    0    0    0 -0.00000000000E+00 -0.00000000000E+00 -0.45593999997E+02  0.45594000000E+02  0.51100000000E-03 0. -1.
    9900012    2    1    2    0    0  0.15679146882E+02 -0.36703748825E+01  0.27521166879E+02  0.59301922707E+02  0.49999961117E+02 0.  0.
         12    1    1    2    0    0 -0.15679146882E+02  0.36703748825E+01 -0.27521166879E+02  0.31886077293E+02  0.00000000000E+00 0. -1.
         11    1    3    3    0    0  0.87092437417E+01 -0.66782569827E+01 -0.70073486229E+01  0.13021251010E+02  0.51100000000E-03 0. -1.
        -11    1    3    3    0    0  0.18744733665E+02  0.46801277583E+00  0.21845538276E+02  0.28789088540E+02  0.51100000000E-03 0.  1.
         12    1    3    3    0    0 -0.11774830524E+02  0.25398693244E+01  0.12682977226E+02  0.17491583158E+02  0.00000000000E+00 0. -1.
</event>
<event>
 7    1  0.7749294E-012  0.5930192E+02  0.7816164E-02  0.1266605E+00
        -11   -1    0    0    0    0  0.00000000000E+00  0.00000000000E+00  0.45593999997E+02  0.45594000000E+02  0.51100000000E-03 0.  1.
         11   -1    0    0    0    0 -0.00000000000E+00 -0.00000000000E+00 -0.45593999997E+02  0.45594000000E+02  0.51100000000E-03 0. -1.
    9900012    2    1    2    0    0 -0.62517958895E+01 -0.19048834525E+02  0.24794736697E+02  0.59301921274E+02  0.49999958503E+02 0.  0.
         12    1    1    2    0    0  0.62517958895E+01  0.19048834525E+02 -0.24794736697E+02  0.31886078726E+02  0.00000000000E+00 0. -1.
         11    1    3    3    0    0  0.14509419802E+02  0.30894056370E+01  0.84601740854E+01  0.17077536005E+02  0.51100000000E-03 0. -1.
        -11    1    3    3    0    0 -0.17221649426E+02 -0.15501062799E+02  0.22650513249E+02  0.32402375030E+02  0.51100000000E-03 0.  1.
         12    1    3    3    0    0 -0.35395662650E+01 -0.66371773638E+01 -0.63159506373E+01  0.98220102400E+01  0.00000000000E+00 0. -1.
</event>
<event>
 7    1  0.7749294E-012  0.5930189E+02  0.7816164E-02  0.1266605E+00
        -11   -1    0    0    0    0  0.00000000000E+00  0.00000000000E+00  0.45593999997E+02  0.45594000000E+02  0.51100000000E-03 0. -1.
         11   -1    0    0    0    0 -0.00000000000E+00 -0.00000000000E+00 -0.45593999997E+02  0.45594000000E+02  0.51100000000E-03 0.  1.
    9900012    2    1    2    0    0 -0.28447055144E+02  0.52419276350E+01 -0.13416820904E+02  0.59301892761E+02  0.49999906502E+02 0.  0.
         12    1    1    2    0    0  0.28447055144E+02 -0.52419276350E+01  0.13416820904E+02  0.31886107239E+02  0.00000000000E+00 0. -1.
         11    1    3    3    0    0 -0.12549463180E+02 -0.13219725934E+02  0.11709138390E+02  0.21664581740E+02  0.51100000000E-03 0. -1.
        -11    1    3    3    0    0  0.21291759874E+01  0.15006329881E+00 -0.88175336735E+00  0.23094152162E+01  0.51100000000E-03 0.  1.
         12    1    3    3    0    0 -0.18026767951E+02  0.18311590270E+02 -0.24244205926E+02  0.35327895805E+02  0.00000000000E+00 0. -1.
</event>
<event>
 7    1  0.7749294E-012  0.5930195E+02  0.7816164E-02  0.1266605E+00
        -11   -1    0    0    0    0  0.00000000000E+00  0.00000000000E+00  0.45593999997E+02  0.45594000000E+02  0.51100000000E-03 0.  1.
         11   -1    0    0    0    0 -0.00000000000E+00 -0.00000000000E+00 -0.45593999997E+02  0.45594000000E+02  0.51100000000E-03 0. -1.
    9900012    2    1    2    0    0  0.24080490797E+00  0.22310503572E+01  0.31806993889E+02  0.59301946105E+02  0.50000003789E+02 0.  0.
         12    1    1    2    0    0 -0.24080490797E+00 -0.22310503572E+01 -0.31806993889E+02  0.31886053895E+02  0.00000000000E+00 0. -1.
         11    1    3    3    0    0 -0.13053312029E+02  0.70564593579E+01 -0.37019117834E+01  0.15293355574E+02  0.51100000000E-03 0. -1.
        -11    1    3    3    0    0  0.42017290605E+01  0.39157978448E+01  0.29470454254E+02  0.30024917553E+02  0.51100000000E-03 0.  1.
         12    1    3    3    0    0  0.90923878770E+01 -0.87412068455E+01  0.60384514183E+01  0.13983672978E+02  0.00000000000E+00 0. -1.
</event>
<event>
 7    1  0.7749294E-012  0.5930201E+02  0.7816164E-02  0.1266605E+00
        -11   -1    0    0    0    0  0.00000000000E+00  0.00000000000E+00  0.45593999997E+02  0.45594000000E+02  0.51100000000E-03 0.  1.
         11   -1    0    0    0    0 -0.00000000000E+00 -0.00000000000E+00 -0.45593999997E+02  0.45594000000E+02  0.51100000000E-03 0. -1.
    9900012    2    1    2    0    0  0.17258030463E+01 -0.31806140358E+02 -0.14517187295E+01  0.59302008594E+02  0.50000117754E+02 0.  0.
         12    1    1    2    0    0 -0.17258030463E+01  0.31806140358E+02  0.14517187295E+01  0.31885991406E+02  0.00000000000E+00 0. -1.
         11    1    3    3    0    0 -0.23196336738E+01 -0.21404382178E+02 -0.11999753326E+02  0.24647968617E+02  0.51100000000E-03 0. -1.
        -11    1    3    3    0    0  0.16180697961E+02 -0.88708508098E+01  0.12471788606E+02  0.22272235898E+02  0.51100000000E-03 0.  1.
        -12    1    3    3    0    0 -0.12135261241E+02 -0.15309073703E+01 -0.19237540100E+01  0.12381804079E+02  0.00000000000E+00 0.  1.
</event>
<event>
 7    1  0.7749294E-012  0.5930196E+02  0.7816164E-02  0.1266605E+00
        -11   -1    0    0    0    0  0.00000000000E+00  0.00000000000E+00  0.45593999997E+02  0.45594000000E+02  0.51100000000E-03 0.  1.
         11   -1    0    0    0    0 -0.00000000000E+00 -0.00000000000E+00 -0.45593999997E+02  0.45594000000E+02  0.51100000000E-03 0. -1.
    9900012    2    1    2    0    0  0.12966521470E+01 -0.14647369814E+02  0.28292981046E+02  0.59301960332E+02  0.50000029734E+02 0.  0.
         12    1    1    2    0    0 -0.12966521470E+01  0.14647369814E+02 -0.28292981046E+02  0.31886039668E+02  0.00000000000E+00 0. -1.
         11    1    3    3    0    0  0.13560461069E+02  0.12332208458E+02  0.10489741053E+02  0.21118810040E+02  0.51100000000E-03 0. -1.
        -11    1    3    3    0    0 -0.12852311609E+02 -0.10379258928E+02  0.51568833637E+01  0.17306194725E+02  0.51100000000E-03 0.  1.
         12    1    3    3    0    0  0.58850268716E+00 -0.16600319344E+02  0.12646356629E+02  0.20876955567E+02  0.00000000000E+00 0. -1.
</event>
<event>
 7    1  0.7749294E-012  0.5930194E+02  0.7816164E-02  0.1266605E+00
        -11   -1    0    0    0    0  0.00000000000E+00  0.00000000000E+00  0.45593999997E+02  0.45594000000E+02  0.51100000000E-03 0.  1.
         11   -1    0    0    0    0 -0.00000000000E+00 -0.00000000000E+00 -0.45593999997E+02  0.45594000000E+02  0.51100000000E-03 0. -1.
    9900012    2    1    2    0    0  0.19289838498E+02  0.14567588002E+02  0.20794428280E+02  0.59301941338E+02  0.49999995094E+02 0.  0.
         12    1    1    2    0    0 -0.19289838498E+02 -0.14567588002E+02 -0.20794428280E+02  0.31886058662E+02  0.00000000000E+00 0. -1.
         11    1    3    3    0    0 -0.16527001983E+02  0.63516555171E+01  0.96895557119E+01  0.20183478702E+02  0.51100000000E-03 0. -1.
        -11    1    3    3    0    0  0.21883990771E+02  0.81881014145E+01  0.49376566782E+01  0.23881677298E+02  0.51100000000E-03 0.  1.
         12    1    3    3    0    0  0.13932849710E+02  0.27831070778E-01  0.61672158901E+01  0.15236785338E+02  0.00000000000E+00 0. -1.
</event>
<event>
 7    1  0.7749294E-012  0.5930194E+02  0.7816164E-02  0.1266605E+00
        -11   -1    0    0    0    0  0.00000000000E+00  0.00000000000E+00  0.45593999997E+02  0.45594000000E+02  0.51100000000E-03 0.  1.
         11   -1    0    0    0    0 -0.00000000000E+00 -0.00000000000E+00 -0.45593999997E+02  0.45594000000E+02  0.51100000000E-03 0. -1.
    9900012    2    1    2    0    0 -0.26555781860E+02 -0.17598049353E+02  0.13491595452E+01  0.59301935290E+02  0.49999984064E+02 0.  0.
         12    1    1    2    0    0  0.26555781860E+02  0.17598049353E+02 -0.13491595452E+01  0.31886064710E+02  0.00000000000E+00 0. -1.
         11    1    3    3    0    0  0.70463072595E+01  0.71727557385E+01 -0.86638883171E+01  0.13272597030E+02  0.51100000000E-03 0. -1.
        -11    1    3    3    0    0 -0.13552651144E+02 -0.13213958674E+02 -0.34735937092E+01  0.19244451418E+02  0.51100000000E-03 0.  1.
         12    1    3    3    0    0 -0.20049437975E+02 -0.11556846418E+02  0.13486641572E+02  0.26784886842E+02  0.00000000000E+00 0. -1.
</event>
<event>
 7    1  0.7749294E-012  0.5930194E+02  0.7816164E-02  0.1266605E+00
        -11   -1    0    0    0    0  0.00000000000E+00  0.00000000000E+00  0.45593999997E+02  0.45594000000E+02  0.51100000000E-03 0.  1.
         11   -1    0    0    0    0 -0.00000000000E+00 -0.00000000000E+00 -0.45593999997E+02  0.45594000000E+02  0.51100000000E-03 0. -1.
    9900012    2    1    2    0    0 -0.10020200904E+02  0.13693303347E+02  0.26996483560E+02  0.59301935531E+02  0.49999984504E+02 0.  0.
         12    1    1    2    0    0  0.10020200904E+02 -0.13693303347E+02 -0.26996483560E+02  0.31886064469E+02  0.00000000000E+00 0. -1.
         11    1    3    3    0    0 -0.97965128440E+01 -0.12927055310E+01 -0.59899187161E+01  0.11555166722E+02  0.51100000000E-03 0. -1.
        -11    1    3    3    0    0 -0.34102637667E-01  0.21357243424E+02  0.35052306600E+02  0.41046281292E+02  0.51100000000E-03 0.  1.
         12    1    3    3    0    0 -0.18958542207E+00 -0.63712345469E+01 -0.20659043239E+01  0.67004875165E+01  0.00000000000E+00 0. -1.
</event>
<event>
 7    1  0.7749294E-012  0.5930193E+02  0.7816164E-02  0.1266605E+00
        -11   -1    0    0    0    0  0.00000000000E+00  0.00000000000E+00  0.45593999997E+02  0.45594000000E+02  0.51100000000E-03 0.  1.
         11   -1    0    0    0    0 -0.00000000000E+00 -0.00000000000E+00 -0.45593999997E+02  0.45594000000E+02  0.51100000000E-03 0. -1.
    9900012    2    1    2    0    0  0.16507678089E+01  0.39156394418E+00  0.31840902616E+02  0.59301930376E+02  0.49999975102E+02 0.  0.
         12    1    1    2    0    0 -0.16507678089E+01 -0.39156394418E+00 -0.31840902616E+02  0.31886069624E+02  0.00000000000E+00 0. -1.
         11    1    3    3    0    0 -0.86744616755E+01  0.46357908610E+01  0.82881944891E+01  0.12861998695E+02  0.51100000000E-03 0. -1.
        -11    1    3    3    0    0  0.15531652798E+02  0.73524221059E+01 -0.25827720906E+01  0.17377026828E+02  0.51100000000E-03 0.  1.
        -12    1    3    3    0    0 -0.52064233137E+01 -0.11596649023E+02  0.26135480218E+02  0.29062904853E+02  0.00000000000E+00 0.  1.
</event>
<event>
 7    1  0.7749294E-012  0.5930195E+02  0.7816164E-02  0.1266605E+00
        -11   -1    0    0    0    0  0.00000000000E+00  0.00000000000E+00  0.45593999997E+02  0.45594000000E+02  0.51100000000E-03 0.  1.
         11   -1    0    0    0    0 -0.00000000000E+00 -0.00000000000E+00 -0.45593999997E+02  0.45594000000E+02  0.51100000000E-03 0. -1.
    9900012    2    1    2    0    0 -0.15991345373E+02  0.62173434329E+01  0.26876410163E+02  0.59301954315E+02  0.50000018762E+02 0.  0.
         12    1    1    2    0    0  0.15991345373E+02 -0.62173434329E+01 -0.26876410163E+02  0.31886045685E+02  0.00000000000E+00 0. -1.
         11    1    3    3    0    0  0.12787780455E+02  0.64600568181E+01 -0.30347178232E+01  0.14644766150E+02  0.51100000000E-03 0. -1.
        -11    1    3    3    0    0 -0.21347892750E+02  0.44164616188E+01  0.28326870147E+02  0.35744219542E+02  0.51100000000E-03 0.  1.
        -12    1    3    3    0    0 -0.74312330776E+01 -0.46591750040E+01  0.15842578392E+01  0.89129686229E+01  0.00000000000E+00 0.  1.
</event>
<event>
 7    1  0.7749294E-012  0.5930192E+02  0.7816164E-02  0.1266605E+00
        -11   -1    0    0    0    0  0.00000000000E+00  0.00000000000E+00  0.45593999997E+02  0.45594000000E+02  0.51100000000E-03 0.  1.
         11   -1    0    0    0    0 -0.00000000000E+00 -0.00000000000E+00 -0.45593999997E+02  0.45594000000E+02  0.51100000000E-03 0. -1.
    9900012    2    1    2    0    0  0.84517156959E+00 -0.31714225449E+02  0.31961995804E+01  0.59301919924E+02  0.49999956041E+02 0.  0.
         12    1    1    2    0    0 -0.84517156959E+00  0.31714225449E+02 -0.31961995804E+01  0.31886080076E+02  0.00000000000E+00 0. -1.
         11    1    3    3    0    0 -0.73409573470E+01  0.15726621884E+01 -0.10763645355E+02  0.13123223031E+02  0.51100000000E-03 0. -1.
        -11    1    3    3    0    0 -0.15839333060E+00 -0.35159494914E+02  0.13335543493E+02  0.37603881336E+02  0.51100000000E-03 0.  1.
        -12    1    3    3    0    0  0.83445222472E+01  0.18726072760E+01  0.62430144277E+00  0.85748155569E+01  0.00000000000E+00 0.  1.
</event>
<event>
 7    1  0.7749294E-012  0.5930194E+02  0.7816164E-02  0.1266605E+00
        -11   -1    0    0    0    0  0.00000000000E+00  0.00000000000E+00  0.45593999997E+02  0.45594000000E+02  0.51100000000E-03 0. -1.
         11   -1    0    0    0    0 -0.00000000000E+00 -0.00000000000E+00 -0.45593999997E+02  0.45594000000E+02  0.51100000000E-03 0.  1.
    9900012    2    1    2    0    0  0.27550759781E+02  0.44671100565E+01 -0.15418217544E+02  0.59301939268E+02  0.49999991319E+02 0.  0.
         12    1    1    2    0    0 -0.27550759781E+02 -0.44671100565E+01  0.15418217544E+02  0.31886060732E+02  0.00000000000E+00 0. -1.
         11    1    3    3    0    0  0.30796677681E+01  0.15308304291E+02  0.50557597282E+01  0.16413081384E+02  0.51100000000E-03 0. -1.
        -11    1    3    3    0    0 -0.14089641226E+01 -0.40244751688E+01 -0.14970751174E+02  0.15566148247E+02  0.51100000000E-03 0.  1.
         12    1    3    3    0    0  0.25880056135E+02 -0.68167190656E+01 -0.55032260984E+01  0.27322709637E+02  0.00000000000E+00 0. -1.
</event>
<event>
 7    1  0.7749294E-012  0.5930195E+02  0.7816164E-02  0.1266605E+00
        -11   -1    0    0    0    0  0.00000000000E+00  0.00000000000E+00  0.45593999997E+02  0.45594000000E+02  0.51100000000E-03 0.  1.
         11   -1    0    0    0    0 -0.00000000000E+00 -0.00000000000E+00 -0.45593999997E+02  0.45594000000E+02  0.51100000000E-03 0. -1.
    9900012    2    1    2    0    0 -0.90115431040E+01  0.17099220939E+02  0.25359985729E+02  0.59301950668E+02  0.50000012110E+02 0.  0.
         12    1    1    2    0    0  0.90115431040E+01 -0.17099220939E+02 -0.25359985729E+02  0.31886049332E+02  0.00000000000E+00 0. -1.
         11    1    3    3    0    0 -0.76540561064E+01 -0.36056356191E+01 -0.10950706856E+02  0.13838466823E+02  0.51100000000E-03 0. -1.
        -11    1    3    3    0    0  0.17248201268E+01  0.21188365446E+02  0.21158476353E+02  0.29993381879E+02  0.51100000000E-03 0.  1.
        -12    1    3    3    0    0 -0.30823071244E+01 -0.48350888788E+00  0.15152216233E+02  0.15470101965E+02  0.00000000000E+00 0.  1.
</event>
<event>
 7    1  0.7749294E-012  0.5930196E+02  0.7816164E-02  0.1266605E+00
        -11   -1    0    0    0    0  0.00000000000E+00  0.00000000000E+00  0.45593999997E+02  0.45594000000E+02  0.51100000000E-03 0.  1.
         11   -1    0    0    0    0 -0.00000000000E+00 -0.00000000000E+00 -0.45593999997E+02  0.45594000000E+02  0.51100000000E-03 0. -1.
    9900012    2    1    2    0    0  0.67561869153E+01  0.17405315095E+02  0.25848176970E+02  0.59301963748E+02  0.50000035965E+02 0.  0.
         12    1    1    2    0    0 -0.67561869153E+01 -0.17405315095E+02 -0.25848176970E+02  0.31886036252E+02  0.00000000000E+00 0. -1.
         11    1    3    3    0    0  0.78009094916E+00 -0.48739346905E+01 -0.91563290308E+01  0.10402025901E+02  0.51100000000E-03 0. -1.
        -11    1    3    3    0    0  0.86692828587E+01  0.94971421046E+01  0.33337168048E+02  0.35731204110E+02  0.51100000000E-03 0.  1.
         12    1    3    3    0    0 -0.26931868926E+01  0.12782107681E+02  0.16673379532E+01  0.13168733738E+02  0.00000000000E+00 0. -1.
</event>
<event>
 7    1  0.7749294E-012  0.5930169E+02  0.7816164E-02  0.1266606E+00
        -11   -1    0    0    0    0  0.00000000000E+00  0.00000000000E+00  0.45593999997E+02  0.45594000000E+02  0.51100000000E-03 0. -1.
         11   -1    0    0    0    0 -0.00000000000E+00 -0.00000000000E+00 -0.45593999997E+02  0.45594000000E+02  0.51100000000E-03 0.  1.
    9900012    2    1    2    0    0 -0.11099068582E+02  0.12961115493E+02 -0.26936164130E+02  0.59301689830E+02  0.49999536402E+02 0.  0.
         12    1    1    2    0    0  0.11099068582E+02 -0.12961115493E+02  0.26936164130E+02  0.31886310170E+02  0.00000000000E+00 0. -1.
         11    1    3    3    0    0  0.20922759088E+01  0.15037084003E+02 -0.72887373742E+01  0.16840938411E+02  0.51100000000E-03 0. -1.
        -11    1    3    3    0    0 -0.10152587389E+02 -0.89512004995E+01  0.66711039756E+01  0.15089819402E+02  0.51100000000E-03 0.  1.
         12    1    3    3    0    0 -0.30387571020E+01  0.68752319901E+01 -0.26318530731E+02  0.27370932017E+02  0.00000000000E+00 0. -1.
</event>
<event>
 7    1  0.7749294E-012  0.5930195E+02  0.7816164E-02  0.1266605E+00
        -11   -1    0    0    0    0  0.00000000000E+00  0.00000000000E+00  0.45593999997E+02  0.45594000000E+02  0.51100000000E-03 0. -1.
         11   -1    0    0    0    0 -0.00000000000E+00 -0.00000000000E+00 -0.45593999997E+02  0.45594000000E+02  0.51100000000E-03 0.  1.
    9900012    2    1    2    0    0 -0.27259646219E+02  0.10656705658E+02 -0.12651749298E+02  0.59301945873E+02  0.50000003365E+02 0.  0.
         12    1    1    2    0    0  0.27259646219E+02 -0.10656705658E+02  0.12651749298E+02  0.31886054127E+02  0.00000000000E+00 0. -1.
         11    1    3    3    0    0  0.39637782303E+01  0.99469946727E+01  0.38334270816E+01  0.11373187958E+02  0.51100000000E-03 0. -1.
        -11    1    3    3    0    0 -0.11134339752E+02 -0.12444804353E+02 -0.17109648203E+02  0.23907880270E+02  0.51100000000E-03 0.  1.
         12    1    3    3    0    0 -0.20089084698E+02  0.13154515339E+02  0.62447182330E+00  0.24020877645E+02  0.00000000000E+00 0. -1.
</event>
<event>
 7    1  0.7749294E-012  0.5930196E+02  0.7816164E-02  0.1266605E+00
        -11   -1    0    0    0    0  0.00000000000E+00  0.00000000000E+00  0.45593999997E+02  0.45594000000E+02  0.51100000000E-03 0.  1.
         11   -1    0    0    0    0 -0.00000000000E+00 -0.00000000000E+00 -0.45593999997E+02  0.45594000000E+02  0.51100000000E-03 0. -1.
    9900012    2    1    2    0    0 -0.55738415681E+01  0.25726783911E+02  0.17994004093E+02  0.59301963816E+02  0.50000036090E+02 0.  0.
         12    1    1    2    0    0  0.55738415681E+01 -0.25726783911E+02 -0.17994004093E+02  0.31886036184E+02  0.00000000000E+00 0. -1.
         11    1    3    3    0    0 -0.43248791524E+00  0.24934851520E+02 -0.82637598756E+01  0.26272106761E+02  0.51100000000E-03 0. -1.
        -11    1    3    3    0    0 -0.10514496044E+02 -0.51335826952E+01  0.12545747697E+02  0.17155293174E+02  0.51100000000E-03 0.  1.
        -12    1    3    3    0    0  0.53731423915E+01  0.59255150858E+01  0.13712016272E+02  0.15874563881E+02  0.00000000000E+00 0.  1.
</event>
<event>
 7    1  0.7749294E-012  0.5930195E+02  0.7816164E-02  0.1266605E+00
        -11   -1    0    0    0    0  0.00000000000E+00  0.00000000000E+00  0.45593999997E+02  0.45594000000E+02  0.51100000000E-03 0. -1.
         11   -1    0    0    0    0 -0.00000000000E+00 -0.00000000000E+00 -0.45593999997E+02  0.45594000000E+02  0.51100000000E-03 0.  1.
    9900012    2    1    2    0    0  0.44244488481E+01 -0.28214183830E+02 -0.14181124792E+02  0.59301949489E+02  0.50000009960E+02 0.  0.
         12    1    1    2    0    0 -0.44244488481E+01  0.28214183830E+02  0.14181124792E+02  0.31886050511E+02  0.00000000000E+00 0. -1.
         11    1    3    3    0    0 -0.20270093154E+01 -0.57982750840E+01  0.49579571223E+01  0.78936746704E+01  0.51100000000E-03 0. -1.
        -11    1    3    3    0    0 -0.17356057353E+00  0.59106434536E+01 -0.21426536979E+02  0.22227512603E+02  0.51100000000E-03 0.  1.
        -12    1    3    3    0    0  0.66250187370E+01 -0.28326552200E+02  0.22874550647E+01  0.29180762216E+02  0.00000000000E+00 0.  1.
</event>
<event>
 7    1  0.7749294E-012  0.5930195E+02  0.7816164E-02  0.1266605E+00
        -11   -1    0    0    0    0  0.00000000000E+00  0.00000000000E+00  0.45593999997E+02  0.45594000000E+02  0.51100000000E-03 0.  1.
         11   -1    0    0    0    0 -0.00000000000E+00 -0.00000000000E+00 -0.45593999997E+02  0.45594000000E+02  0.51100000000E-03 0. -1.
    9900012    2    1    2    0    0  0.49033114024E+01  0.15521629042E+02  0.27418177201E+02  0.59301954904E+02  0.50000019836E+02 0.  0.
         12    1    1    2    0    0 -0.49033114024E+01 -0.15521629042E+02 -0.27418177201E+02  0.31886045096E+02  0.00000000000E+00 0. -1.
         11    1    3    3    0    0 -0.99977189495E+01  0.14015642264E+02  0.87851825151E+01  0.19328011909E+02  0.51100000000E-03 0. -1.
        -11    1    3    3    0    0  0.17785021276E+02  0.12159532952E+02  0.19288828840E+02  0.28917471219E+02  0.51100000000E-03 0.  1.
         12    1    3    3    0    0 -0.28839909243E+01 -0.10653546173E+02 -0.65583415431E+00  0.11056471777E+02  0.00000000000E+00 0. -1.
</event>
<event>
 7    1  0.7749294E-012  0.5930193E+02  0.7816164E-02  0.1266605E+00
        -11   -1    0    0    0    0  0.00000000000E+00  0.00000000000E+00  0.45593999997E+02  0.45594000000E+02  0.51100000000E-03 0. -1.
         11   -1    0    0    0    0 -0.00000000000E+00 -0.00000000000E+00 -0.45593999997E+02  0.45594000000E+02  0.51100000000E-03 0.  1.
    9900012    2    1    2    0    0  0.29505003029E+02  0.97576326936E+01  0.71389528402E+01  0.59301933338E+02  0.49999980505E+02 0.  0.
         12    1    1    2    0    0 -0.29505003029E+02 -0.97576326936E+01 -0.71389528402E+01  0.31886066662E+02  0.00000000000E+00 0. -1.
         11    1    3    3    0    0  0.18919603661E+02  0.98304483126E+01 -0.11180690170E+02  0.24074819826E+02  0.51100000000E-03 0. -1.
        -11    1    3    3    0    0  0.16900306118E+02  0.48116051811E+01  0.20451810830E+02  0.26963836110E+02  0.51100000000E-03 0.  1.
         12    1    3    3    0    0 -0.63149067495E+01 -0.48844208001E+01 -0.21321678200E+01  0.82632774019E+01  0.00000000000E+00 0. -1.
</event>
<event>
 7    1  0.7749294E-012  0.5930193E+02  0.7816164E-02  0.1266605E+00
        -11   -1    0    0    0    0  0.00000000000E+00  0.00000000000E+00  0.45593999997E+02  0.45594000000E+02  0.51100000000E-03 0.  1.
         11   -1    0    0    0    0 -0.00000000000E+00 -0.00000000000E+00 -0.45593999997E+02  0.45594000000E+02  0.51100000000E-03 0. -1.
    9900012    2    1    2    0    0  0.25240147335E+02  0.91504565158E+01  0.17202486973E+02  0.59301930158E+02  0.49999974705E+02 0.  0.
         12    1    1    2    0    0 -0.25240147335E+02 -0.91504565158E+01 -0.17202486973E+02  0.31886069842E+02  0.00000000000E+00 0. -1.
         11    1    3    3    0    0  0.31461848128E+02 -0.11120566044E+02  0.36858312568E+01  0.33572313431E+02  0.51100000000E-03 0. -1.
        -11    1    3    3    0    0  0.10117974685E+01  0.19730303110E+01  0.13769860660E+01  0.26101098852E+01  0.51100000000E-03 0.  1.
         12    1    3    3    0    0 -0.72334982621E+01  0.18297992248E+02  0.12139669650E+02  0.23119506842E+02  0.00000000000E+00 0. -1.
</event>
<event>
 7    1  0.7749294E-012  0.5930196E+02  0.7816164E-02  0.1266605E+00
        -11   -1    0    0    0    0  0.00000000000E+00  0.00000000000E+00  0.45593999997E+02  0.45594000000E+02  0.51100000000E-03 0. -1.
         11   -1    0    0    0    0 -0.00000000000E+00 -0.00000000000E+00 -0.45593999997E+02  0.45594000000E+02  0.51100000000E-03 0.  1.
    9900012    2    1    2    0    0  0.26213639326E+02 -0.12607053601E+02 -0.13062424586E+02  0.59301958802E+02  0.50000026945E+02 0.  0.
         12    1    1    2    0    0 -0.26213639326E+02  0.12607053601E+02  0.13062424586E+02  0.31886041198E+02  0.00000000000E+00 0. -1.
         11    1    3    3    0    0 -0.71030138489E+01 -0.17653440839E+02  0.40306420882E+01  0.19451037379E+02  0.51100000000E-03 0. -1.
        -11    1    3    3    0    0 -0.67467682029E-01 -0.17850032344E+01 -0.14264513958E+00  0.17919643779E+01  0.51100000000E-03 0.  1.
         12    1    3    3    0    0  0.33384120857E+02  0.68313904724E+01 -0.16950421535E+02  0.38058957045E+02  0.00000000000E+00 0. -1.
</event>
<event>
 7    1  0.7749294E-012  0.5930202E+02  0.7816164E-02  0.1266605E+00
        -11   -1    0    0    0    0  0.00000000000E+00  0.00000000000E+00  0.45593999997E+02  0.45594000000E+02  0.51100000000E-03 0.  1.
         11   -1    0    0    0    0 -0.00000000000E+00 -0.00000000000E+00 -0.45593999997E+02  0.45594000000E+02  0.51100000000E-03 0. -1.
    9900012    2    1    2    0    0  0.13186365051E+02 -0.29245394353E+01  0.28883955124E+02  0.59302015340E+02  0.50000130056E+02 0.  0.
         12    1    1    2    0    0 -0.13186365051E+02  0.29245394353E+01 -0.28883955124E+02  0.31885984660E+02  0.00000000000E+00 0. -1.
         11    1    3    3    0    0 -0.11189329806E+02  0.14938786987E+02  0.11063110892E+02  0.21697024704E+02  0.51100000000E-03 0. -1.
        -11    1    3    3    0    0  0.18345650071E+02 -0.19525900291E+02  0.13487891303E+02  0.29995780882E+02  0.51100000000E-03 0.  1.
        -12    1    3    3    0    0  0.60300447859E+01  0.16625738685E+01  0.43329529282E+01  0.76092097531E+01  0.00000000000E+00 0.  1.
</event>
<event>
 7    1  0.7749294E-012  0.5930198E+02  0.7816164E-02  0.1266605E+00
        -11   -1    0    0    0    0  0.00000000000E+00  0.00000000000E+00  0.45593999997E+02  0.45594000000E+02  0.51100000000E-03 0.  1.
         11   -1    0    0    0    0 -0.00000000000E+00 -0.00000000000E+00 -0.45593999997E+02  0.45594000000E+02  0.51100000000E-03 0. -1.
    9900012    2    1    2    0    0 -0.10362464834E+02  0.16731237585E+02  0.25087913288E+02  0.59301978271E+02  0.50000062452E+02 0.  0.
         12    1    1    2    0    0  0.10362464834E+02 -0.16731237585E+02 -0.25087913288E+02  0.31886021729E+02  0.00000000000E+00 0. -1.
         11    1    3    3    0    0 -0.13696109153E+02  0.17334077183E+02 -0.60925875012E+01  0.22916659015E+02  0.51100000000E-03 0. -1.
        -11    1    3    3    0    0 -0.47822167029E+01 -0.63666873507E+01  0.19348556194E+02  0.20922976162E+02  0.51100000000E-03 0.  1.
        -12    1    3    3    0    0  0.81158610220E+01  0.57638477531E+01  0.11831944595E+02  0.15462343094E+02  0.00000000000E+00 0.  1.
</event>
<event>
 7    1  0.7749294E-012  0.5930196E+02  0.7816164E-02  0.1266605E+00
        -11   -1    0    0    0    0  0.00000000000E+00  0.00000000000E+00  0.45593999997E+02  0.45594000000E+02  0.51100000000E-03 0.  1.
         11   -1    0    0    0    0 -0.00000000000E+00 -0.00000000000E+00 -0.45593999997E+02  0.45594000000E+02  0.51100000000E-03 0. -1.
    9900012    2    1    2    0    0 -0.12013937499E+02 -0.30299281833E+01  0.29380340460E+02  0.59301959722E+02  0.50000028623E+02 0.  0.
         12    1    1    2    0    0  0.12013937499E+02  0.30299281833E+01 -0.29380340460E+02  0.31886040278E+02  0.00000000000E+00 0. -1.
         11    1    3    3    0    0 -0.17335196592E+01  0.48713251309E+01  0.91356986908E+01  0.10497423006E+02  0.51100000000E-03 0. -1.
        -11    1    3    3    0    0 -0.16151001062E+02 -0.17844968405E+02  0.26395296331E+02  0.35721273793E+02  0.51100000000E-03 0.  1.
        -12    1    3    3    0    0  0.58705832226E+01  0.99437150910E+01 -0.61506545618E+01  0.13083262923E+02  0.00000000000E+00 0.  1.
</event>
<event>
 7    1  0.7749294E-012  0.5930197E+02  0.7816164E-02  0.1266605E+00
        -11   -1    0    0    0    0  0.00000000000E+00  0.00000000000E+00  0.45593999997E+02  0.45594000000E+02  0.51100000000E-03 0. -1.
         11   -1    0    0    0    0 -0.00000000000E+00 -0.00000000000E+00 -0.45593999997E+02  0.45594000000E+02  0.51100000000E-03 0.  1.
    9900012    2    1    2    0    0  0.22477430043E+02 -0.21761556112E+02  0.61578313622E+01  0.59301967434E+02  0.50000042687E+02 0.  0.
         12    1    1    2    0    0 -0.22477430043E+02  0.21761556112E+02 -0.61578313622E+01  0.31886032566E+02  0.00000000000E+00 0. -1.
         11    1    3    3    0    0  0.21890523361E+02 -0.73315877728E+01 -0.10666995239E+02  0.25430925661E+02  0.51100000000E-03 0. -1.
        -11    1    3    3    0    0  0.90302457169E+01  0.28548937401E+01  0.91217448448E+01  0.13149219948E+02  0.51100000000E-03 0.  1.
         12    1    3    3    0    0 -0.84433390349E+01 -0.17284862079E+02  0.77030817567E+01  0.20721821824E+02  0.00000000000E+00 0. -1.
</event>
<event>
 7    1  0.7749294E-012  0.5930196E+02  0.7816164E-02  0.1266605E+00
        -11   -1    0    0    0    0  0.00000000000E+00  0.00000000000E+00  0.45593999997E+02  0.45594000000E+02  0.51100000000E-03 0. -1.
         11   -1    0    0    0    0 -0.00000000000E+00 -0.00000000000E+00 -0.45593999997E+02  0.45594000000E+02  0.51100000000E-03 0.  1.
    9900012    2    1    2    0    0 -0.27762237630E+02 -0.15423464263E+02  0.28451082635E+01  0.59301957142E+02  0.50000023917E+02 0.  0.
         12    1    1    2    0    0  0.27762237630E+02  0.15423464263E+02 -0.28451082635E+01  0.31886042858E+02  0.00000000000E+00 0. -1.
         11    1    3    3    0    0 -0.22728060448E+02 -0.15598346737E+02 -0.18630588286E+02  0.33271188328E+02  0.51100000000E-03 0.  1.
        -11    1    3    3    0    0 -0.56942128231E+01 -0.27812555883E+01  0.22054614060E+02  0.22947013834E+02  0.51100000000E-03 0. -1.
         12    1    3    3    0    0  0.66003564062E+00  0.29561380621E+01 -0.57891751005E+00  0.30837549793E+01  0.00000000000E+00 0. -1.
</event>
<event>
 7    1  0.7749294E-012  0.5930193E+02  0.7816164E-02  0.1266605E+00
        -11   -1    0    0    0    0  0.00000000000E+00  0.00000000000E+00  0.45593999997E+02  0.45594000000E+02  0.51100000000E-03 0. -1.
         11   -1    0    0    0    0 -0.00000000000E+00 -0.00000000000E+00 -0.45593999997E+02  0.45594000000E+02  0.51100000000E-03 0.  1.
    9900012    2    1    2    0    0  0.25878907592E+02  0.77389417323E+01 -0.16944399492E+02  0.59301925431E+02  0.49999966084E+02 0.  0.
         12    1    1    2    0    0 -0.25878907592E+02 -0.77389417323E+01  0.16944399492E+02  0.31886074569E+02  0.00000000000E+00 0. -1.
         11    1    3    3    0    0  0.37641912614E+00  0.18594877736E+01  0.15402085318E+02  0.15518492792E+02  0.51100000000E-03 0. -1.
        -11    1    3    3    0    0  0.21570242607E+02  0.18816339253E+00 -0.18977499130E+02  0.28730754342E+02  0.51100000000E-03 0.  1.
         12    1    3    3    0    0  0.39322458589E+01  0.56912905662E+01 -0.13368985680E+02  0.15052678297E+02  0.00000000000E+00 0. -1.
</event>
<event>
 7    1  0.7749294E-012  0.5930194E+02  0.7816164E-02  0.1266605E+00
        -11   -1    0    0    0    0  0.00000000000E+00  0.00000000000E+00  0.45593999997E+02  0.45594000000E+02  0.51100000000E-03 0.  1.
         11   -1    0    0    0    0 -0.00000000000E+00 -0.00000000000E+00 -0.45593999997E+02  0.45594000000E+02  0.51100000000E-03 0. -1.
    9900012    2    1    2    0    0 -0.12526936184E+02 -0.17119975292E+02 -0.23805523060E+02  0.59301943293E+02  0.49999998661E+02 0.  0.
         12    1    1    2    0    0  0.12526936184E+02  0.17119975292E+02  0.23805523060E+02  0.31886056707E+02  0.00000000000E+00 0. -1.
         11    1    3    3    0    0  0.98272546449E+01  0.94848392810E-01 -0.88108618694E+01  0.13199061225E+02  0.51100000000E-03 0. -1.
        -11    1    3    3    0    0 -0.18174587721E+02 -0.25062677347E+02 -0.19028489015E+02  0.36339191365E+02  0.51100000000E-03 0.  1.
        -12    1    3    3    0    0 -0.41796031074E+01  0.78478536623E+01  0.40338278239E+01  0.97636907035E+01  0.00000000000E+00 0.  1.
</event>
<event>
 7    1  0.7749294E-012  0.5930193E+02  0.7816164E-02  0.1266605E+00
        -11   -1    0    0    0    0  0.00000000000E+00  0.00000000000E+00  0.45593999997E+02  0.45594000000E+02  0.51100000000E-03 0.  1.
         11   -1    0    0    0    0 -0.00000000000E+00 -0.00000000000E+00 -0.45593999997E+02  0.45594000000E+02  0.51100000000E-03 0. -1.
    9900012    2    1    2    0    0  0.21731737815E+02  0.18849486416E+02  0.13753167983E+02  0.59301934137E+02  0.49999981962E+02 0.  0.
         12    1    1    2    0    0 -0.21731737815E+02 -0.18849486416E+02 -0.13753167983E+02  0.31886065863E+02  0.00000000000E+00 0. -1.
         11    1    3    3    0    0 -0.78247432654E+01 -0.22292088541E+01  0.51914000542E+01  0.96512493527E+01  0.51100000000E-03 0. -1.
        -11    1    3    3    0    0  0.19037702672E+02  0.27522566404E+02 -0.18385972710E+01  0.33515760840E+02  0.51100000000E-03 0.  1.
        -12    1    3    3    0    0  0.10518778409E+02 -0.64438711336E+01  0.10400365200E+02  0.16134923945E+02  0.00000000000E+00 0.  1.
</event>
<event>
 7    1  0.7749294E-012  0.5930190E+02  0.7816164E-02  0.1266605E+00
        -11   -1    0    0    0    0  0.00000000000E+00  0.00000000000E+00  0.45593999997E+02  0.45594000000E+02  0.51100000000E-03 0.  1.
         11   -1    0    0    0    0 -0.00000000000E+00 -0.00000000000E+00 -0.45593999997E+02  0.45594000000E+02  0.51100000000E-03 0. -1.
    9900012    2    1    2    0    0 -0.29091413006E+02  0.10145823885E+02  0.82143382288E+01  0.59301899493E+02  0.49999918779E+02 0.  0.
         12    1    1    2    0    0  0.29091413006E+02 -0.10145823885E+02 -0.82143382288E+01  0.31886100507E+02  0.00000000000E+00 0. -1.
         11    1    3    3    0    0 -0.16994408635E+02  0.17873284943E+01 -0.61818485422E+01  0.18171948703E+02  0.51100000000E-03 0. -1.
        -11    1    3    3    0    0 -0.51831894342E+01  0.21335625552E+02  0.14700072570E+02  0.26422840578E+02  0.51100000000E-03 0.  1.
        -12    1    3    3    0    0 -0.69138149369E+01 -0.12977130161E+02 -0.30388579872E+00  0.14707110212E+02  0.00000000000E+00 0.  1.
</event>
<event>
 7    1  0.7749294E-012  0.5930196E+02  0.7816164E-02  0.1266605E+00
        -11   -1    0    0    0    0  0.00000000000E+00  0.00000000000E+00  0.45593999997E+02  0.45594000000E+02  0.51100000000E-03 0. -1.
         11   -1    0    0    0    0 -0.00000000000E+00 -0.00000000000E+00 -0.45593999997E+02  0.45594000000E+02  0.51100000000E-03 0.  1.
    9900012    2    1    2    0    0 -0.21400175665E+02  0.19484695676E+02  0.13382774555E+02  0.59301960126E+02  0.50000029359E+02 0.  0.
         12    1    1    2    0    0  0.21400175665E+02 -0.19484695676E+02 -0.13382774555E+02  0.31886039874E+02  0.00000000000E+00 0. -1.
         11    1    3    3    0    0 -0.12505059603E+02  0.14605955763E+02  0.24781671398E+02  0.31366250923E+02  0.51100000000E-03 0. -1.
        -11    1    3    3    0    0 -0.15663085029E+02 -0.20518007258E+01 -0.76060349321E+01  0.17532652010E+02  0.51100000000E-03 0.  1.
        -12    1    3    3    0    0  0.67679689674E+01  0.69305406386E+01 -0.37928619114E+01  0.10403057193E+02  0.00000000000E+00 0.  1.
</event>
<event>
 7    1  0.7749294E-012  0.5930194E+02  0.7816164E-02  0.1266605E+00
        -11   -1    0    0    0    0  0.00000000000E+00  0.00000000000E+00  0.45593999997E+02  0.45594000000E+02  0.51100000000E-03 0. -1.
         11   -1    0    0    0    0 -0.00000000000E+00 -0.00000000000E+00 -0.45593999997E+02  0.45594000000E+02  0.51100000000E-03 0.  1.
    9900012    2    1    2    0    0  0.30593276183E+02 -0.65773168584E+01 -0.61246159318E+01  0.59301944035E+02  0.50000000014E+02 0.  0.
         12    1    1    2    0    0 -0.30593276183E+02  0.65773168584E+01  0.61246159318E+01  0.31886055965E+02  0.00000000000E+00 0. -1.
         11    1    3    3    0    0  0.87881994679E+01  0.13880047231E+02 -0.19602486855E+02  0.25576271272E+02  0.51100000000E-03 0.  1.
        -11    1    3    3    0    0  0.14546803235E+02 -0.14381053084E+02  0.50925275164E+01  0.21079800970E+02  0.51100000000E-03 0. -1.
        -12    1    3    3    0    0  0.72582734803E+01 -0.60763110057E+01  0.83853434068E+01  0.12645871793E+02  0.00000000000E+00 0.  1.
</event>
<event>
 7    1  0.7749294E-012  0.5930196E+02  0.7816164E-02  0.1266605E+00
        -11   -1    0    0    0    0  0.00000000000E+00  0.00000000000E+00  0.45593999997E+02  0.45594000000E+02  0.51100000000E-03 0.  1.
         11   -1    0    0    0    0 -0.00000000000E+00 -0.00000000000E+00 -0.45593999997E+02  0.45594000000E+02  0.51100000000E-03 0. -1.
    9900012    2    1    2    0    0  0.21241613369E+02  0.16078882665E+02 -0.17520929605E+02  0.59301959473E+02  0.50000028169E+02 0.  0.
         12    1    1    2    0    0 -0.21241613369E+02 -0.16078882665E+02  0.17520929605E+02  0.31886040527E+02  0.00000000000E+00 0. -1.
         11    1    3    3    0    0 -0.59012856208E+01  0.60061267938E+01 -0.18162478422E+02  0.20019349483E+02  0.51100000000E-03 0. -1.
        -11    1    3    3    0    0  0.21266118673E+02  0.17998025373E+02  0.53197088320E+01  0.28363286535E+02  0.51100000000E-03 0.  1.
         12    1    3    3    0    0  0.58767803174E+01 -0.79252695026E+01 -0.46781600151E+01  0.10919323455E+02  0.00000000000E+00 0. -1.
</event>
<event>
 7    1  0.7749294E-012  0.5930195E+02  0.7816164E-02  0.1266605E+00
        -11   -1    0    0    0    0  0.00000000000E+00  0.00000000000E+00  0.45593999997E+02  0.45594000000E+02  0.51100000000E-03 0.  1.
         11   -1    0    0    0    0 -0.00000000000E+00 -0.00000000000E+00 -0.45593999997E+02  0.45594000000E+02  0.51100000000E-03 0. -1.
    9900012    2    1    2    0    0  0.20115453051E+02 -0.15992679759E+02  0.18876519275E+02  0.59301949175E+02  0.50000009387E+02 0.  0.
         12    1    1    2    0    0 -0.20115453051E+02  0.15992679759E+02 -0.18876519275E+02  0.31886050825E+02  0.00000000000E+00 0. -1.
         11    1    3    3    0    0  0.28901471174E+02  0.45473027146E+01  0.74651115852E+01  0.30194385062E+02  0.51100000000E-03 0. -1.
        -11    1    3    3    0    0 -0.50805933129E+01 -0.16328011723E+02  0.14747145895E+02  0.22580848247E+02  0.51100000000E-03 0.  1.
         12    1    3    3    0    0 -0.37054248103E+01 -0.42119707498E+01 -0.33357382056E+01  0.65267158662E+01  0.00000000000E+00 0. -1.
</event>
<event>
 7    1  0.7749294E-012  0.5930195E+02  0.7816164E-02  0.1266605E+00
        -11   -1    0    0    0    0  0.00000000000E+00  0.00000000000E+00  0.45593999997E+02  0.45594000000E+02  0.51100000000E-03 0.  1.
         11   -1    0    0    0    0 -0.00000000000E+00 -0.00000000000E+00 -0.45593999997E+02  0.45594000000E+02  0.51100000000E-03 0. -1.
    9900012    2    1    2    0    0  0.12606872512E+02  0.21126643357E+02  0.20284277883E+02  0.59301949393E+02  0.50000009786E+02 0.  0.
         12    1    1    2    0    0 -0.12606872512E+02 -0.21126643357E+02 -0.20284277883E+02  0.31886050607E+02  0.00000000000E+00 0. -1.
         11    1    3    3    0    0  0.18237549196E+02  0.38993249749E+01  0.11849682733E+02  0.22095880093E+02  0.51100000000E-03 0. -1.
        -11    1    3    3    0    0 -0.82907748275E+01  0.20456953579E+02 -0.54238594563E+01  0.22729763497E+02  0.51100000000E-03 0.  1.
         12    1    3    3    0    0  0.26600981430E+01 -0.32296351969E+01  0.13858454606E+02  0.14476305803E+02  0.00000000000E+00 0. -1.
</event>
<event>
 7    1  0.7749294E-012  0.5930194E+02  0.7816164E-02  0.1266605E+00
        -11   -1    0    0    0    0  0.00000000000E+00  0.00000000000E+00  0.45593999997E+02  0.45594000000E+02  0.51100000000E-03 0. -1.
         11   -1    0    0    0    0 -0.00000000000E+00 -0.00000000000E+00 -0.45593999997E+02  0.45594000000E+02  0.51100000000E-03 0.  1.
    9900012    2    1    2    0    0  0.16734567415E+02  0.25917099237E+02 -0.80609504516E+01  0.59301941893E+02  0.49999996107E+02 0.  0.
         12    1    1    2    0    0 -0.16734567415E+02 -0.25917099237E+02  0.80609504516E+01  0.31886058107E+02  0.00000000000E+00 0. -1.
         11    1    3    3    0    0  0.21617282348E+02  0.12882237805E+02  0.16115860350E+00  0.25165152877E+02  0.51100000000E-03 0.  1.
        -11    1    3    3    0    0 -0.87221348373E+01 -0.61451606908E+01 -0.98336654050E+01  0.14509983170E+02  0.51100000000E-03 0. -1.
         12    1    3    3    0    0  0.38394199046E+01  0.19180022123E+02  0.16115563499E+01  0.19626805846E+02  0.00000000000E+00 0. -1.
</event>
<event>
 7    1  0.7749294E-012  0.5930189E+02  0.7816164E-02  0.1266605E+00
        -11   -1    0    0    0    0  0.00000000000E+00  0.00000000000E+00  0.45593999997E+02  0.45594000000E+02  0.51100000000E-03 0. -1.
         11   -1    0    0    0    0 -0.00000000000E+00 -0.00000000000E+00 -0.45593999997E+02  0.45594000000E+02  0.51100000000E-03 0.  1.
    9900012    2    1    2    0    0 -0.27789975767E+02  0.13231176432E+01 -0.15578528400E+02  0.59301891104E+02  0.49999903480E+02 0.  0.
         12    1    1    2    0    0  0.27789975767E+02 -0.13231176432E+01  0.15578528400E+02  0.31886108896E+02  0.00000000000E+00 0. -1.
         11    1    3    3    0    0 -0.55810552437E+01 -0.11288219254E+02  0.10135549824E+02  0.16164821127E+02  0.51100000000E-03 0. -1.
        -11    1    3    3    0    0 -0.25005544126E+02  0.15900218000E+02 -0.24982269077E+02  0.38758327337E+02  0.51100000000E-03 0.  1.
         12    1    3    3    0    0  0.27966236033E+01 -0.32888811021E+01 -0.73180914715E+00  0.43787426403E+01  0.00000000000E+00 0. -1.
</event>
<event>
 7    1  0.7749294E-012  0.5930225E+02  0.7816164E-02  0.1266604E+00
        -11   -1    0    0    0    0  0.00000000000E+00  0.00000000000E+00  0.45593999997E+02  0.45594000000E+02  0.51100000000E-03 0.  1.
         11   -1    0    0    0    0 -0.00000000000E+00 -0.00000000000E+00 -0.45593999997E+02  0.45594000000E+02  0.51100000000E-03 0. -1.
    9900012    2    1    2    0    0 -0.14083371153E+02 -0.21034815870E+02  0.19388041182E+02  0.59302251419E+02  0.50000560604E+02 0.  0.
         12    1    1    2    0    0  0.14083371153E+02  0.21034815870E+02 -0.19388041182E+02  0.31885748581E+02  0.00000000000E+00 0. -1.
         11    1    3    3    0    0 -0.23822162044E+01 -0.17237266176E+02  0.26260477458E+01  0.17598137012E+02  0.51100000000E-03 0. -1.
        -11    1    3    3    0    0  0.63511968823E+01  0.99982532735E+01  0.14717535905E+02  0.18892025665E+02  0.51100000000E-03 0.  1.
        -12    1    3    3    0    0 -0.18052351831E+02 -0.13795802968E+02  0.20444575312E+01  0.22812088741E+02  0.00000000000E+00 0.  1.
</event>
<event>
 7    1  0.7749294E-012  0.5930190E+02  0.7816164E-02  0.1266605E+00
        -11   -1    0    0    0    0  0.00000000000E+00  0.00000000000E+00  0.45593999997E+02  0.45594000000E+02  0.51100000000E-03 0.  1.
         11   -1    0    0    0    0 -0.00000000000E+00 -0.00000000000E+00 -0.45593999997E+02  0.45594000000E+02  0.51100000000E-03 0. -1.
    9900012    2    1    2    0    0  0.22901479752E+01  0.30494269479E+02  0.90320525937E+01  0.59301902358E+02  0.49999924004E+02 0.  0.
         12    1    1    2    0    0 -0.22901479752E+01 -0.30494269479E+02 -0.90320525937E+01  0.31886097642E+02  0.00000000000E+00 0. -1.
         11    1    3    3    0    0  0.95381088492E+01 -0.79008006444E+00  0.10579222877E+02  0.14266033222E+02  0.51100000000E-03 0. -1.
        -11    1    3    3    0    0 -0.10600495750E+02  0.36552930066E+02 -0.41210107729E+01  0.38281456824E+02  0.51100000000E-03 0.  1.
        -12    1    3    3    0    0  0.33525348763E+01 -0.52685805221E+01  0.25738404894E+01  0.67544123119E+01  0.00000000000E+00 0.  1.
</event>
<event>
 7    1  0.7749294E-012  0.5930190E+02  0.7816164E-02  0.1266605E+00
        -11   -1    0    0    0    0  0.00000000000E+00  0.00000000000E+00  0.45593999997E+02  0.45594000000E+02  0.51100000000E-03 0.  1.
         11   -1    0    0    0    0 -0.00000000000E+00 -0.00000000000E+00 -0.45593999997E+02  0.45594000000E+02  0.51100000000E-03 0. -1.
    9900012    2    1    2    0    0 -0.23671957876E+02 -0.18844747829E+02  0.10061675578E+02  0.59301899175E+02  0.49999918199E+02 0.  0.
         12    1    1    2    0    0  0.23671957876E+02  0.18844747829E+02 -0.10061675578E+02  0.31886100825E+02  0.00000000000E+00 0. -1.
         11    1    3    3    0    0 -0.23808763753E+02  0.49877332764E+01  0.67435015885E+01  0.25243009500E+02  0.51100000000E-03 0.  1.
        -11    1    3    3    0    0  0.79560723405E+01 -0.25228533257E+01  0.72091889857E+01  0.11028883991E+02  0.51100000000E-03 0. -1.
         12    1    3    3    0    0 -0.78192664630E+01 -0.21309627779E+02 -0.38910149961E+01  0.23030005684E+02  0.00000000000E+00 0. -1.
</event>
<event>
 7    1  0.7749294E-012  0.5930195E+02  0.7816164E-02  0.1266605E+00
        -11   -1    0    0    0    0  0.00000000000E+00  0.00000000000E+00  0.45593999997E+02  0.45594000000E+02  0.51100000000E-03 0. -1.
         11   -1    0    0    0    0 -0.00000000000E+00 -0.00000000000E+00 -0.45593999997E+02  0.45594000000E+02  0.51100000000E-03 0.  1.
    9900012    2    1    2    0    0 -0.70736204780E+01  0.19640447892E+02 -0.24102636295E+02  0.59301946992E+02  0.50000005406E+02 0.  0.
         12    1    1    2    0    0  0.70736204780E+01 -0.19640447892E+02  0.24102636295E+02  0.31886053008E+02  0.00000000000E+00 0. -1.
         11    1    3    3    0    0 -0.21721885706E+02 -0.28581836874E+01 -0.10270119188E+02  0.24196794850E+02  0.51100000000E-03 0. -1.
        -11    1    3    3    0    0  0.16938331993E+02  0.12071657747E+02 -0.12698166816E+02  0.24369559951E+02  0.51100000000E-03 0.  1.
        -12    1    3    3    0    0 -0.22900667653E+01  0.10426973833E+02 -0.11343502913E+01  0.10735592191E+02  0.00000000000E+00 0.  1.
</event>
<event>
 7    1  0.7749294E-012  0.5930193E+02  0.7816164E-02  0.1266605E+00
        -11   -1    0    0    0    0  0.00000000000E+00  0.00000000000E+00  0.45593999997E+02  0.45594000000E+02  0.51100000000E-03 0. -1.
         11   -1    0    0    0    0 -0.00000000000E+00 -0.00000000000E+00 -0.45593999997E+02  0.45594000000E+02  0.51100000000E-03 0.  1.
    9900012    2    1    2    0    0 -0.12606814060E+02  0.29203250275E+02  0.22271349173E+01  0.59301925966E+02  0.49999967060E+02 0.  0.
         12    1    1    2    0    0  0.12606814060E+02 -0.29203250275E+02 -0.22271349173E+01  0.31886074034E+02  0.00000000000E+00 0. -1.
         11    1    3    3    0    0 -0.11960362908E+02  0.24475519361E+02  0.23831760915E+02  0.36194670291E+02  0.51100000000E-03 0. -1.
        -11    1    3    3    0    0 -0.18463144126E+01  0.60633891782E+01 -0.17932866811E+02  0.19020023070E+02  0.51100000000E-03 0.  1.
         12    1    3    3    0    0  0.11998632604E+01 -0.13356582647E+01 -0.36717591866E+01  0.40872326051E+01  0.00000000000E+00 0. -1.
</event>
<event>
 7    1  0.7749294E-012  0.5930203E+02  0.7816164E-02  0.1266604E+00
        -11   -1    0    0    0    0  0.00000000000E+00  0.00000000000E+00  0.45593999997E+02  0.45594000000E+02  0.51100000000E-03 0.  1.
         11   -1    0    0    0    0 -0.00000000000E+00 -0.00000000000E+00 -0.45593999997E+02  0.45594000000E+02  0.51100000000E-03 0. -1.
    9900012    2    1    2    0    0  0.10115274405E+02  0.28854399917E+02  0.90454388590E+01  0.59302029182E+02  0.50000155301E+02 0.  0.
         12    1    1    2    0    0 -0.10115274405E+02 -0.28854399917E+02 -0.90454388590E+01  0.31885970818E+02  0.00000000000E+00 0. -1.
         11    1    3    3    0    0 -0.63045450922E+01  0.25362438100E+02 -0.11967810014E+02  0.28744199971E+02  0.51100000000E-03 0. -1.
        -11    1    3    3    0    0  0.16431987482E+02  0.64829283972E+01  0.12793543633E+02  0.21810853541E+02  0.51100000000E-03 0.  1.
         12    1    3    3    0    0 -0.12167985357E-01 -0.29909665808E+01  0.82197052396E+01  0.87469756701E+01  0.00000000000E+00 0. -1.
</event>
<event>
 7    1  0.7749294E-012  0.5930193E+02  0.7816164E-02  0.1266605E+00
        -11   -1    0    0    0    0  0.00000000000E+00  0.00000000000E+00  0.45593999997E+02  0.45594000000E+02  0.51100000000E-03 0. -1.
         11   -1    0    0    0    0 -0.00000000000E+00 -0.00000000000E+00 -0.45593999997E+02  0.45594000000E+02  0.51100000000E-03 0.  1.
    9900012    2    1    2    0    0 -0.28257248341E+02  0.76176030986E+01 -0.12657861830E+02  0.59301930520E+02  0.49999975365E+02 0.  0.
         12    1    1    2    0    0  0.28257248341E+02 -0.76176030986E+01  0.12657861830E+02  0.31886069480E+02  0.00000000000E+00 0. -1.
         11    1    3    3    0    0  0.42942748854E+01 -0.11503850196E+02  0.26315703149E+01  0.12558046373E+02  0.51100000000E-03 0. -1.
        -11    1    3    3    0    0 -0.30196531346E+02  0.14247396620E+02 -0.32539395484E+01  0.33547085397E+02  0.51100000000E-03 0.  1.
         12    1    3    3    0    0 -0.23549918806E+01  0.48740566745E+01 -0.12035492596E+02  0.13196798750E+02  0.00000000000E+00 0. -1.
</event>
<event>
 7    1  0.7749294E-012  0.5930192E+02  0.7816164E-02  0.1266605E+00
        -11   -1    0    0    0    0  0.00000000000E+00  0.00000000000E+00  0.45593999997E+02  0.45594000000E+02  0.51100000000E-03 0.  1.
         11   -1    0    0    0    0 -0.00000000000E+00 -0.00000000000E+00 -0.45593999997E+02  0.45594000000E+02  0.51100000000E-03 0. -1.
    9900012    2    1    2    0    0 -0.31429840641E+01  0.20860372921E+02  0.23910009634E+02  0.59301920468E+02  0.49999957033E+02 0.  0.
         12    1    1    2    0    0  0.31429840641E+01 -0.20860372921E+02 -0.23910009634E+02  0.31886079532E+02  0.00000000000E+00 0. -1.
         11    1    3    3    0    0  0.15037448990E+02 -0.13544925803E+01  0.64956407077E+01  0.16436327775E+02  0.51100000000E-03 0. -1.
        -11    1    3    3    0    0 -0.16964474602E+02  0.39842751324E+01 -0.28362565079E+00  0.17428376018E+02  0.51100000000E-03 0.  1.
        -12    1    3    3    0    0 -0.12159584517E+01  0.18230590369E+02  0.17697994577E+02  0.25437216675E+02  0.00000000000E+00 0.  1.
</event>
<event>
 7    1  0.7749294E-012  0.5930196E+02  0.7816164E-02  0.1266605E+00
        -11   -1    0    0    0    0  0.00000000000E+00  0.00000000000E+00  0.45593999997E+02  0.45594000000E+02  0.51100000000E-03 0.  1.
         11   -1    0    0    0    0 -0.00000000000E+00 -0.00000000000E+00 -0.45593999997E+02  0.45594000000E+02  0.51100000000E-03 0. -1.
    9900012    2    1    2    0    0  0.22638605375E+00 -0.90979997529E+01  0.30559691619E+02  0.59301959136E+02  0.50000027553E+02 0.  0.
         12    1    1    2    0    0 -0.22638605375E+00  0.90979997529E+01 -0.30559691619E+02  0.31886040864E+02  0.00000000000E+00 0. -1.
         11    1    3    3    0    0  0.10131300639E+02 -0.14286927013E+02  0.27306289054E+01  0.17726135241E+02  0.51100000000E-03 0. -1.
        -11    1    3    3    0    0 -0.48579562486E+01  0.14473046062E+02  0.44222168775E+01  0.15894175147E+02  0.51100000000E-03 0.  1.
         12    1    3    3    0    0 -0.50469583367E+01 -0.92841188018E+01  0.23406845836E+02  0.25681648747E+02  0.00000000000E+00 0. -1.
</event>
<event>
 7    1  0.7749294E-012  0.5930200E+02  0.7816164E-02  0.1266605E+00
        -11   -1    0    0    0    0  0.00000000000E+00  0.00000000000E+00  0.45593999997E+02  0.45594000000E+02  0.51100000000E-03 0.  1.
         11   -1    0    0    0    0 -0.00000000000E+00 -0.00000000000E+00 -0.45593999997E+02  0.45594000000E+02  0.51100000000E-03 0. -1.
    9900012    2    1    2    0    0  0.76415220748E+01 -0.28809673528E+02  0.11328155990E+02  0.59301995758E+02  0.50000094344E+02 0.  0.
         12    1    1    2    0    0 -0.76415220748E+01  0.28809673528E+02 -0.11328155990E+02  0.31886004242E+02  0.00000000000E+00 0. -1.
         11    1    3    3    0    0 -0.11227249366E+02 -0.15656098782E+02 -0.36320152696E+01  0.19605001723E+02  0.51100000000E-03 0. -1.
        -11    1    3    3    0    0  0.10622981062E+02 -0.12213776038E+02  0.23011209329E+02  0.28134317244E+02  0.51100000000E-03 0.  1.
        -12    1    3    3    0    0  0.82457903786E+01 -0.93979870817E+00 -0.80510380693E+01  0.11562676791E+02  0.00000000000E+00 0.  1.
</event>
<event>
 7    1  0.7749294E-012  0.5930194E+02  0.7816164E-02  0.1266605E+00
        -11   -1    0    0    0    0  0.00000000000E+00  0.00000000000E+00  0.45593999997E+02  0.45594000000E+02  0.51100000000E-03 0. -1.
         11   -1    0    0    0    0 -0.00000000000E+00 -0.00000000000E+00 -0.45593999997E+02  0.45594000000E+02  0.51100000000E-03 0.  1.
    9900012    2    1    2    0    0  0.42300404588E+01 -0.29827373015E+02 -0.10447735488E+02  0.59301943484E+02  0.49999999009E+02 0.  0.
         12    1    1    2    0    0 -0.42300404588E+01  0.29827373015E+02  0.10447735488E+02  0.31886056516E+02  0.00000000000E+00 0. -1.
         11    1    3    3    0    0 -0.10586653469E+02 -0.22848818632E+02  0.92616375524E+01  0.26831393459E+02  0.51100000000E-03 0. -1.
        -11    1    3    3    0    0  0.61110637658E+01 -0.10051060271E+02 -0.20034931485E+02  0.23232894627E+02  0.51100000000E-03 0.  1.
        -12    1    3    3    0    0  0.87056301617E+01  0.30725058875E+01  0.32555844424E+00  0.92376553974E+01  0.00000000000E+00 0.  1.
</event>
<event>
 7    1  0.7749294E-012  0.5930196E+02  0.7816164E-02  0.1266605E+00
        -11   -1    0    0    0    0  0.00000000000E+00  0.00000000000E+00  0.45593999997E+02  0.45594000000E+02  0.51100000000E-03 0. -1.
         11   -1    0    0    0    0 -0.00000000000E+00 -0.00000000000E+00 -0.45593999997E+02  0.45594000000E+02  0.51100000000E-03 0.  1.
    9900012    2    1    2    0    0 -0.64045434787E+01  0.30453789069E+02 -0.69475162283E+01  0.59301961871E+02  0.50000032542E+02 0.  0.
         12    1    1    2    0    0  0.64045434787E+01 -0.30453789069E+02  0.69475162283E+01  0.31886038129E+02  0.00000000000E+00 0. -1.
         11    1    3    3    0    0 -0.27239002079E+02  0.96192302833E+01 -0.66640318899E+01  0.29646283861E+02  0.51100000000E-03 0. -1.
        -11    1    3    3    0    0  0.13802197417E+02  0.15937871525E+02 -0.34209095769E+00  0.21086332748E+02  0.51100000000E-03 0.  1.
         12    1    3    3    0    0  0.70322611827E+01  0.48966872609E+01  0.58606619228E-01  0.85693452614E+01  0.00000000000E+00 0. -1.
</event>
<event>
 7    1  0.7749294E-012  0.5930199E+02  0.7816164E-02  0.1266605E+00
        -11   -1    0    0    0    0  0.00000000000E+00  0.00000000000E+00  0.45593999997E+02  0.45594000000E+02  0.51100000000E-03 0.  1.
         11   -1    0    0    0    0 -0.00000000000E+00 -0.00000000000E+00 -0.45593999997E+02  0.45594000000E+02  0.51100000000E-03 0. -1.
    9900012    2    1    2    0    0  0.25796063207E+02 -0.17842478154E+02  0.57381540077E+01  0.59301994997E+02  0.50000092955E+02 0.  0.
         12    1    1    2    0    0 -0.25796063207E+02  0.17842478154E+02 -0.57381540077E+01  0.31886005003E+02  0.00000000000E+00 0. -1.
         11    1    3    3    0    0  0.12989551903E+02 -0.28003372871E+02  0.60490601399E+01  0.31456453704E+02  0.51100000000E-03 0. -1.
        -11    1    3    3    0    0  0.18596177334E+02  0.11532616563E+02  0.89787739525E-01  0.21882118689E+02  0.51100000000E-03 0.  1.
         12    1    3    3    0    0 -0.57896660306E+01 -0.13717218464E+01 -0.40069387172E+00  0.59634226035E+01  0.00000000000E+00 0. -1.
</event>
<event>
 7    1  0.7749294E-012  0.5930201E+02  0.7816164E-02  0.1266605E+00
        -11   -1    0    0    0    0  0.00000000000E+00  0.00000000000E+00  0.45593999997E+02  0.45594000000E+02  0.51100000000E-03 0. -1.
         11   -1    0    0    0    0 -0.00000000000E+00 -0.00000000000E+00 -0.45593999997E+02  0.45594000000E+02  0.51100000000E-03 0.  1.
    9900012    2    1    2    0    0 -0.23914741765E+02 -0.86586630532E+01  0.19230932336E+02  0.59302014394E+02  0.50000128331E+02 0.  0.
         12    1    1    2    0    0  0.23914741765E+02  0.86586630532E+01 -0.19230932336E+02  0.31885985606E+02  0.00000000000E+00 0. -1.
         11    1    3    3    0    0 -0.34454326809E+01  0.64588650603E+01  0.65399321213E+01  0.98162445282E+01  0.51100000000E-03 0. -1.
        -11    1    3    3    0    0 -0.11100942056E+02 -0.12043099319E+02 -0.13674572004E+02  0.21336847834E+02  0.51100000000E-03 0.  1.
        -12    1    3    3    0    0 -0.93683670286E+01 -0.30744287947E+01  0.26365572218E+02  0.28148922032E+02  0.00000000000E+00 0.  1.
</event>
<event>
 7    1  0.7749294E-012  0.5930193E+02  0.7816164E-02  0.1266605E+00
        -11   -1    0    0    0    0  0.00000000000E+00  0.00000000000E+00  0.45593999997E+02  0.45594000000E+02  0.51100000000E-03 0. -1.
         11   -1    0    0    0    0 -0.00000000000E+00 -0.00000000000E+00 -0.45593999997E+02  0.45594000000E+02  0.51100000000E-03 0.  1.
    9900012    2    1    2    0    0  0.27446649899E+02  0.12266003505E+02  0.10627701656E+02  0.59301929764E+02  0.49999973986E+02 0.  0.
         12    1    1    2    0    0 -0.27446649899E+02 -0.12266003505E+02 -0.10627701656E+02  0.31886070236E+02  0.00000000000E+00 0. -1.
         11    1    3    3    0    0  0.27838865019E+01  0.25584453561E+02 -0.18452179231E+01  0.25801533239E+02  0.51100000000E-03 0.  1.
        -11    1    3    3    0    0  0.17136533206E+02 -0.13861343429E+02  0.44482327957E+01  0.22485203740E+02  0.51100000000E-03 0. -1.
        -12    1    3    3    0    0  0.75262301909E+01  0.54289337347E+00  0.80246867830E+01  0.11015192784E+02  0.00000000000E+00 0.  1.
</event>
<event>
 7    1  0.7749294E-012  0.5930193E+02  0.7816164E-02  0.1266605E+00
        -11   -1    0    0    0    0  0.00000000000E+00  0.00000000000E+00  0.45593999997E+02  0.45594000000E+02  0.51100000000E-03 0.  1.
         11   -1    0    0    0    0 -0.00000000000E+00 -0.00000000000E+00 -0.45593999997E+02  0.45594000000E+02  0.51100000000E-03 0. -1.
    9900012    2    1    2    0    0 -0.10027023472E+02 -0.39392968569E+01  0.30011038893E+02  0.59301926004E+02  0.49999967129E+02 0.  0.
         12    1    1    2    0    0  0.10027023472E+02  0.39392968569E+01 -0.30011038893E+02  0.31886073996E+02  0.00000000000E+00 0. -1.
         11    1    3    3    0    0 -0.66465086643E+01  0.16664882129E+01 -0.11317434972E+02  0.13230177436E+02  0.51100000000E-03 0. -1.
        -11    1    3    3    0    0  0.71564536562E+01 -0.68590238812E+00  0.25083661045E+02  0.26093588153E+02  0.51100000000E-03 0.  1.
        -12    1    3    3    0    0 -0.10536968464E+02 -0.49198826816E+01  0.16244812820E+02  0.19978160415E+02  0.00000000000E+00 0.  1.
</event>
<event>
 7    1  0.7749294E-012  0.5930192E+02  0.7816164E-02  0.1266605E+00
        -11   -1    0    0    0    0  0.00000000000E+00  0.00000000000E+00  0.45593999997E+02  0.45594000000E+02  0.51100000000E-03 0.  1.
         11   -1    0    0    0    0 -0.00000000000E+00 -0.00000000000E+00 -0.45593999997E+02  0.45594000000E+02  0.51100000000E-03 0. -1.
    9900012    2    1    2    0    0  0.17020386973E+02  0.11495743970E+02  0.24390083998E+02  0.59301923108E+02  0.49999961848E+02 0.  0.
         12    1    1    2    0    0 -0.17020386973E+02 -0.11495743970E+02 -0.24390083998E+02  0.31886076892E+02  0.00000000000E+00 0. -1.
         11    1    3    3    0    0 -0.82322412033E+00 -0.47885617434E+01  0.19117393668E+02  0.19725180923E+02  0.51100000000E-03 0. -1.
        -11    1    3    3    0    0  0.16975543059E+02  0.90597797453E+01 -0.10705672286E+02  0.22019538836E+02  0.51100000000E-03 0.  1.
         12    1    3    3    0    0  0.86806803377E+00  0.72245259677E+01  0.15978362616E+02  0.17557203350E+02  0.00000000000E+00 0. -1.
</event>
<event>
 7    1  0.7749294E-012  0.5930194E+02  0.7816164E-02  0.1266605E+00
        -11   -1    0    0    0    0  0.00000000000E+00  0.00000000000E+00  0.45593999997E+02  0.45594000000E+02  0.51100000000E-03 0.  1.
         11   -1    0    0    0    0 -0.00000000000E+00 -0.00000000000E+00 -0.45593999997E+02  0.45594000000E+02  0.51100000000E-03 0. -1.
    9900012    2    1    2    0    0 -0.77361331423E+01 -0.22791933774E+02  0.20914131474E+02  0.59301938837E+02  0.49999990534E+02 0.  0.
         12    1    1    2    0    0  0.77361331423E+01  0.22791933774E+02 -0.20914131474E+02  0.31886061163E+02  0.00000000000E+00 0. -1.
         11    1    3    3    0    0 -0.63043996497E+01 -0.77532247484E+01 -0.11805741787E+02  0.15467174543E+02  0.51100000000E-03 0. -1.
        -11    1    3    3    0    0 -0.75570252401E+01 -0.19834015310E+02  0.25930922051E+02  0.33509842024E+02  0.51100000000E-03 0.  1.
        -12    1    3    3    0    0  0.61252917476E+01  0.47953062843E+01  0.67889512099E+01  0.10324922270E+02  0.00000000000E+00 0.  1.
</event>
<event>
 7    1  0.7749294E-012  0.5930193E+02  0.7816164E-02  0.1266605E+00
        -11   -1    0    0    0    0  0.00000000000E+00  0.00000000000E+00  0.45593999997E+02  0.45594000000E+02  0.51100000000E-03 0.  1.
         11   -1    0    0    0    0 -0.00000000000E+00 -0.00000000000E+00 -0.45593999997E+02  0.45594000000E+02  0.51100000000E-03 0. -1.
    9900012    2    1    2    0    0 -0.12092100536E+02 -0.18286147591E+02  0.23154252010E+02  0.59301929761E+02  0.49999973982E+02 0.  0.
         12    1    1    2    0    0  0.12092100536E+02  0.18286147591E+02 -0.23154252010E+02  0.31886070239E+02  0.00000000000E+00 0. -1.
         11    1    3    3    0    0  0.16363715090E+01  0.16362548171E+02  0.51504405293E+01  0.17231881275E+02  0.51100000000E-03 0. -1.
        -11    1    3    3    0    0 -0.65956392236E+01 -0.12745809621E+02  0.32482950670E+01  0.14714263174E+02  0.51100000000E-03 0.  1.
         12    1    3    3    0    0 -0.71328328217E+01 -0.21902886142E+02  0.14755516414E+02  0.27355785312E+02  0.00000000000E+00 0. -1.
</event>
<event>
 7    1  0.7749294E-012  0.5930195E+02  0.7816164E-02  0.1266605E+00
        -11   -1    0    0    0    0  0.00000000000E+00  0.00000000000E+00  0.45593999997E+02  0.45594000000E+02  0.51100000000E-03 0.  1.
         11   -1    0    0    0    0 -0.00000000000E+00 -0.00000000000E+00 -0.45593999997E+02  0.45594000000E+02  0.51100000000E-03 0. -1.
    9900012    2    1    2    0    0  0.20969322343E+02 -0.23476444528E+02  0.50856798549E+01  0.59301951847E+02  0.50000014261E+02 0.  0.
         12    1    1    2    0    0 -0.20969322343E+02  0.23476444528E+02 -0.50856798549E+01  0.31886048153E+02  0.00000000000E+00 0. -1.
         11    1    3    3    0    0  0.27895886786E+01 -0.17281985688E+02 -0.18342308478E+02  0.25355258131E+02  0.51100000000E-03 0. -1.
        -11    1    3    3    0    0  0.12042690603E+02  0.39804170898E+01  0.12207396140E+02  0.17603710914E+02  0.51100000000E-03 0.  1.
         12    1    3    3    0    0  0.61370430609E+01 -0.10174875930E+02  0.11220592193E+02  0.16342982802E+02  0.00000000000E+00 0. -1.
</event>
<event>
 7    1  0.7749294E-012  0.5930195E+02  0.7816164E-02  0.1266605E+00
        -11   -1    0    0    0    0  0.00000000000E+00  0.00000000000E+00  0.45593999997E+02  0.45594000000E+02  0.51100000000E-03 0.  1.
         11   -1    0    0    0    0 -0.00000000000E+00 -0.00000000000E+00 -0.45593999997E+02  0.45594000000E+02  0.51100000000E-03 0. -1.
    9900012    2    1    2    0    0 -0.12647094523E+02  0.29270147165E+02  0.17258032356E+00  0.59301948208E+02  0.50000007624E+02 0.  0.
         12    1    1    2    0    0  0.12647094523E+02 -0.29270147165E+02 -0.17258032356E+00  0.31886051792E+02  0.00000000000E+00 0. -1.
         11    1    3    3    0    0  0.82718483043E+00 -0.11037099446E+02 -0.79002799274E+01  0.13598390424E+02  0.51100000000E-03 0. -1.
        -11    1    3    3    0    0 -0.89889425989E+00  0.17548282163E+02 -0.22751834412E+01  0.17717976118E+02  0.51100000000E-03 0.  1.
         12    1    3    3    0    0 -0.12575385093E+02  0.22758964448E+02  0.10348043692E+02  0.27985581667E+02  0.00000000000E+00 0. -1.
</event>
<event>
 7    1  0.7749294E-012  0.5930195E+02  0.7816164E-02  0.1266605E+00
        -11   -1    0    0    0    0  0.00000000000E+00  0.00000000000E+00  0.45593999997E+02  0.45594000000E+02  0.51100000000E-03 0.  1.
         11   -1    0    0    0    0 -0.00000000000E+00 -0.00000000000E+00 -0.45593999997E+02  0.45594000000E+02  0.51100000000E-03 0. -1.
    9900012    2    1    2    0    0 -0.85574528822E+01 -0.12335450111E+02  0.28130530951E+02  0.59301951313E+02  0.50000013287E+02 0.  0.
         12    1    1    2    0    0  0.85574528822E+01  0.12335450111E+02 -0.28130530951E+02  0.31886048687E+02  0.00000000000E+00 0. -1.
         11    1    3    3    0    0  0.85781028291E-02  0.33798955745E+01 -0.73081994999E+01  0.80519282082E+01  0.51100000000E-03 0. -1.
        -11    1    3    3    0    0 -0.68780788019E+01 -0.25789604011E+02  0.23759586400E+02  0.35734151581E+02  0.51100000000E-03 0.  1.
        -12    1    3    3    0    0 -0.16879521831E+01  0.10074258326E+02  0.11679144051E+02  0.15515871524E+02  0.00000000000E+00 0.  1.
</event>
<event>
 7    1  0.7749294E-012  0.5930192E+02  0.7816164E-02  0.1266605E+00
        -11   -1    0    0    0    0  0.00000000000E+00  0.00000000000E+00  0.45593999997E+02  0.45594000000E+02  0.51100000000E-03 0.  1.
         11   -1    0    0    0    0 -0.00000000000E+00 -0.00000000000E+00 -0.45593999997E+02  0.45594000000E+02  0.51100000000E-03 0. -1.
    9900012    2    1    2    0    0 -0.16398396228E+02 -0.14526159415E+02  0.23169057081E+02  0.59301922910E+02  0.49999961486E+02 0.  0.
         12    1    1    2    0    0  0.16398396228E+02  0.14526159415E+02 -0.23169057081E+02  0.31886077090E+02  0.00000000000E+00 0. -1.
         11    1    3    3    0    0 -0.18370232684E+01  0.17822964855E+01 -0.10943725615E+02  0.11239055380E+02  0.51100000000E-03 0. -1.
        -11    1    3    3    0    0 -0.19189600848E+02 -0.88744077830E+01  0.33060641553E+02  0.39242858131E+02  0.51100000000E-03 0.  1.
        -12    1    3    3    0    0  0.46282278879E+01 -0.74340481174E+01  0.10521411428E+01  0.88200093978E+01  0.00000000000E+00 0.  1.
</event>
<event>
 7    1  0.7749294E-012  0.5930200E+02  0.7816164E-02  0.1266605E+00
        -11   -1    0    0    0    0  0.00000000000E+00  0.00000000000E+00  0.45593999997E+02  0.45594000000E+02  0.51100000000E-03 0. -1.
         11   -1    0    0    0    0 -0.00000000000E+00 -0.00000000000E+00 -0.45593999997E+02  0.45594000000E+02  0.51100000000E-03 0.  1.
    9900012    2    1    2    0    0  0.28971307424E+02 -0.59384729991E+01  0.11921186532E+02  0.59302003015E+02  0.50000107579E+02 0.  0.
         12    1    1    2    0    0 -0.28971307424E+02  0.59384729991E+01 -0.11921186532E+02  0.31885996985E+02  0.00000000000E+00 0. -1.
         11    1    3    3    0    0  0.11851267178E+02 -0.15386225969E+01  0.30207525888E+02  0.32485604716E+02  0.51100000000E-03 0. -1.
        -11    1    3    3    0    0  0.77357658353E+01 -0.58997008264E+01 -0.66117155428E+01  0.11762794123E+02  0.51100000000E-03 0.  1.
         12    1    3    3    0    0  0.93842744102E+01  0.14998504242E+01 -0.11674623814E+02  0.15053604176E+02  0.00000000000E+00 0. -1.
</event>
<event>
 7    1  0.7749294E-012  0.5930196E+02  0.7816164E-02  0.1266605E+00
        -11   -1    0    0    0    0  0.00000000000E+00  0.00000000000E+00  0.45593999997E+02  0.45594000000E+02  0.51100000000E-03 0.  1.
         11   -1    0    0    0    0 -0.00000000000E+00 -0.00000000000E+00 -0.45593999997E+02  0.45594000000E+02  0.51100000000E-03 0. -1.
    9900012    2    1    2    0    0 -0.65020625138E+01  0.25225380153E+02  0.18388125725E+02  0.59301956211E+02  0.50000022220E+02 0.  0.
         12    1    1    2    0    0  0.65020625138E+01 -0.25225380153E+02 -0.18388125725E+02  0.31886043789E+02  0.00000000000E+00 0. -1.
         11    1    3    3    0    0 -0.63408410635E+01 -0.86588341102E+01 -0.36167892168E+01  0.11325318452E+02  0.51100000000E-03 0. -1.
        -11    1    3    3    0    0  0.11783393742E+02  0.23949926192E+02  0.10670298625E+02  0.28745479744E+02  0.51100000000E-03 0.  1.
         12    1    3    3    0    0 -0.11944615193E+02  0.99342880719E+01  0.11334616316E+02  0.19231158016E+02  0.00000000000E+00 0. -1.
</event>
<event>
 7    1  0.7749294E-012  0.5930195E+02  0.7816164E-02  0.1266605E+00
        -11   -1    0    0    0    0  0.00000000000E+00  0.00000000000E+00  0.45593999997E+02  0.45594000000E+02  0.51100000000E-03 0.  1.
         11   -1    0    0    0    0 -0.00000000000E+00 -0.00000000000E+00 -0.45593999997E+02  0.45594000000E+02  0.51100000000E-03 0. -1.
    9900012    2    1    2    0    0  0.17444646500E+02 -0.24453104803E+02 -0.10698140664E+02  0.59301949136E+02  0.50000009317E+02 0.  0.
         12    1    1    2    0    0 -0.17444646500E+02  0.24453104803E+02  0.10698140664E+02  0.31886050864E+02  0.00000000000E+00 0. -1.
         11    1    3    3    0    0  0.82101297413E+01 -0.10981242376E+02 -0.17107152711E+02  0.21923699246E+02  0.51100000000E-03 0. -1.
        -11    1    3    3    0    0 -0.22793712282E+01 -0.93089852353E+01  0.18080199362E+02  0.20463292710E+02  0.51100000000E-03 0.  1.
        -12    1    3    3    0    0  0.11513887987E+02 -0.41628771916E+01 -0.11671187315E+02  0.16914957181E+02  0.00000000000E+00 0.  1.
</event>
<event>
 7    1  0.7749294E-012  0.5930196E+02  0.7816164E-02  0.1266605E+00
        -11   -1    0    0    0    0  0.00000000000E+00  0.00000000000E+00  0.45593999997E+02  0.45594000000E+02  0.51100000000E-03 0. -1.
         11   -1    0    0    0    0 -0.00000000000E+00 -0.00000000000E+00 -0.45593999997E+02  0.45594000000E+02  0.51100000000E-03 0.  1.
    9900012    2    1    2    0    0 -0.24868485457E+02 -0.14227240788E+02 -0.13995130103E+02  0.59301958917E+02  0.50000027154E+02 0.  0.
         12    1    1    2    0    0  0.24868485457E+02  0.14227240788E+02  0.13995130103E+02  0.31886041083E+02  0.00000000000E+00 0. -1.
         11    1    3    3    0    0 -0.12926063308E+02  0.12596188231E+02 -0.10668459245E+02  0.20965760027E+02  0.51100000000E-03 0. -1.
        -11    1    3    3    0    0 -0.19145932276E+02 -0.17422103879E+02 -0.50304822031E+01  0.26370479285E+02  0.51100000000E-03 0.  1.
         12    1    3    3    0    0  0.72035101274E+01 -0.94013251403E+01  0.17038113453E+01  0.11965719604E+02  0.00000000000E+00 0. -1.
</event>
<event>
 7    1  0.7749294E-012  0.5930194E+02  0.7816164E-02  0.1266605E+00
        -11   -1    0    0    0    0  0.00000000000E+00  0.00000000000E+00  0.45593999997E+02  0.45594000000E+02  0.51100000000E-03 0.  1.
         11   -1    0    0    0    0 -0.00000000000E+00 -0.00000000000E+00 -0.45593999997E+02  0.45594000000E+02  0.51100000000E-03 0. -1.
    9900012    2    1    2    0    0  0.12163701376E+02  0.27092466146E+02  0.11608764576E+02  0.59301940852E+02  0.49999994208E+02 0.  0.
         12    1    1    2    0    0 -0.12163701376E+02 -0.27092466146E+02 -0.11608764576E+02  0.31886059148E+02  0.00000000000E+00 0. -1.
         11    1    3    3    0    0 -0.48142360261E+01 -0.11005997203E+02  0.68764264399E+01  0.13841751471E+02  0.51100000000E-03 0. -1.
        -11    1    3    3    0    0  0.11598801673E+02  0.32259171267E+02  0.10263141512E+02  0.35784331838E+02  0.51100000000E-03 0.  1.
         12    1    3    3    0    0  0.53791357289E+01  0.58392920815E+01 -0.55308033762E+01  0.96758575428E+01  0.00000000000E+00 0. -1.
</event>
<event>
 7    1  0.7749294E-012  0.5930195E+02  0.7816164E-02  0.1266605E+00
        -11   -1    0    0    0    0  0.00000000000E+00  0.00000000000E+00  0.45593999997E+02  0.45594000000E+02  0.51100000000E-03 0.  1.
         11   -1    0    0    0    0 -0.00000000000E+00 -0.00000000000E+00 -0.45593999997E+02  0.45594000000E+02  0.51100000000E-03 0. -1.
    9900012    2    1    2    0    0 -0.10296051008E+02  0.95867167459E+00  0.30162765065E+02  0.59301951106E+02  0.50000012909E+02 0.  0.
         12    1    1    2    0    0  0.10296051008E+02 -0.95867167459E+00 -0.30162765065E+02  0.31886048894E+02  0.00000000000E+00 0. -1.
         11    1    3    3    0    0  0.16126651454E+02 -0.10000887474E+01  0.12370868016E+02  0.20349629981E+02  0.51100000000E-03 0. -1.
        -11    1    3    3    0    0 -0.28799488820E+02  0.27798787167E+01  0.20343837489E+02  0.35369619818E+02  0.51100000000E-03 0.  1.
        -12    1    3    3    0    0  0.23767863584E+01 -0.82111829474E+00 -0.25519404403E+01  0.35827013074E+01  0.00000000000E+00 0.  1.
</event>
<event>
 7    1  0.7749294E-012  0.5930195E+02  0.7816164E-02  0.1266605E+00
        -11   -1    0    0    0    0  0.00000000000E+00  0.00000000000E+00  0.45593999997E+02  0.45594000000E+02  0.51100000000E-03 0. -1.
         11   -1    0    0    0    0 -0.00000000000E+00 -0.00000000000E+00 -0.45593999997E+02  0.45594000000E+02  0.51100000000E-03 0.  1.
    9900012    2    1    2    0    0 -0.23201632270E+02  0.53690206991E+01 -0.21203257374E+02  0.59301949029E+02  0.50000009120E+02 0.  0.
         12    1    1    2    0    0  0.23201632270E+02 -0.53690206991E+01  0.21203257374E+02  0.31886050971E+02  0.00000000000E+00 0. -1.
         11    1    3    3    0    0 -0.12059754438E+02  0.11861730208E+02 -0.19979758266E+02  0.26178790294E+02  0.51100000000E-03 0. -1.
        -11    1    3    3    0    0  0.12703798316E+01 -0.36272452611E+01  0.13276889367E+02  0.13821959507E+02  0.51100000000E-03 0.  1.
        -12    1    3    3    0    0 -0.12412257664E+02 -0.28654642481E+01 -0.14500388475E+02  0.19301199227E+02  0.00000000000E+00 0.  1.
</event>
<event>
 7    1  0.7749294E-012  0.5930194E+02  0.7816164E-02  0.1266605E+00
        -11   -1    0    0    0    0  0.00000000000E+00  0.00000000000E+00  0.45593999997E+02  0.45594000000E+02  0.51100000000E-03 0.  1.
         11   -1    0    0    0    0 -0.00000000000E+00 -0.00000000000E+00 -0.45593999997E+02  0.45594000000E+02  0.51100000000E-03 0. -1.
    9900012    2    1    2    0    0  0.82920395715E+01  0.20941860722E+01  0.30717701337E+02  0.59301941746E+02  0.49999995838E+02 0.  0.
         12    1    1    2    0    0 -0.82920395715E+01 -0.20941860722E+01 -0.30717701337E+02  0.31886058254E+02  0.00000000000E+00 0. -1.
         11    1    3    3    0    0 -0.10948501055E+02  0.97672840667E+01  0.11628721116E+02  0.18721556251E+02  0.51100000000E-03 0. -1.
        -11    1    3    3    0    0  0.87827157251E+01 -0.18283392126E+02  0.14698046863E+02  0.25048974130E+02  0.51100000000E-03 0.  1.
        -12    1    3    3    0    0  0.10457824901E+02  0.10610294131E+02  0.43909333581E+01  0.15531411365E+02  0.00000000000E+00 0.  1.
</event>
<event>
 7    1  0.7749294E-012  0.5930194E+02  0.7816164E-02  0.1266605E+00
        -11   -1    0    0    0    0  0.00000000000E+00  0.00000000000E+00  0.45593999997E+02  0.45594000000E+02  0.51100000000E-03 0. -1.
         11   -1    0    0    0    0 -0.00000000000E+00 -0.00000000000E+00 -0.45593999997E+02  0.45594000000E+02  0.51100000000E-03 0.  1.
    9900012    2    1    2    0    0  0.22277032343E+02 -0.21174180194E+02 -0.84916886866E+01  0.59301939509E+02  0.49999991758E+02 0.  0.
         12    1    1    2    0    0 -0.22277032343E+02  0.21174180194E+02  0.84916886866E+01  0.31886060491E+02  0.00000000000E+00 0. -1.
         11    1    3    3    0    0  0.31805069902E+01  0.15683120335E-01  0.15377314168E+02  0.15702791534E+02  0.51100000000E-03 0. -1.
        -11    1    3    3    0    0  0.72264842665E+01  0.41590856481E+01 -0.72338382476E+01  0.11038500094E+02  0.51100000000E-03 0.  1.
         12    1    3    3    0    0  0.11870041086E+02 -0.25348948963E+02 -0.16635164607E+02  0.32560647880E+02  0.00000000000E+00 0. -1.
</event>
<event>
 7    1  0.7749294E-012  0.5930194E+02  0.7816164E-02  0.1266605E+00
        -11   -1    0    0    0    0  0.00000000000E+00  0.00000000000E+00  0.45593999997E+02  0.45594000000E+02  0.51100000000E-03 0.  1.
         11   -1    0    0    0    0 -0.00000000000E+00 -0.00000000000E+00 -0.45593999997E+02  0.45594000000E+02  0.51100000000E-03 0. -1.
    9900012    2    1    2    0    0 -0.28175469848E+02  0.66770247225E+01  0.13352181921E+02  0.59301944704E+02  0.50000001233E+02 0.  0.
         12    1    1    2    0    0  0.28175469848E+02 -0.66770247225E+01 -0.13352181921E+02  0.31886055296E+02  0.00000000000E+00 0. -1.
         11    1    3    3    0    0  0.20677472493E+01  0.10438406274E+02 -0.10477219537E+02  0.14933453509E+02  0.51100000000E-03 0. -1.
        -11    1    3    3    0    0 -0.60641278653E+01  0.35336020863E+01  0.16716893791E+02  0.18130486170E+02  0.51100000000E-03 0.  1.
         12    1    3    3    0    0 -0.24179089232E+02 -0.72949836380E+01  0.71125076671E+01  0.26238005025E+02  0.00000000000E+00 0. -1.
</event>
<event>
 7    1  0.7749294E-012  0.5930193E+02  0.7816164E-02  0.1266605E+00
        -11   -1    0    0    0    0  0.00000000000E+00  0.00000000000E+00  0.45593999997E+02  0.45594000000E+02  0.51100000000E-03 0.  1.
         11   -1    0    0    0    0 -0.00000000000E+00 -0.00000000000E+00 -0.45593999997E+02  0.45594000000E+02  0.51100000000E-03 0. -1.
    9900012    2    1    2    0    0  0.16381993835E+02 -0.12950843905E+02  0.24096213026E+02  0.59301928400E+02  0.49999971498E+02 0.  0.
         12    1    1    2    0    0 -0.16381993835E+02  0.12950843905E+02 -0.24096213026E+02  0.31886071600E+02  0.00000000000E+00 0. -1.
         11    1    3    3    0    0 -0.59656765110E+01 -0.17721679846E+02  0.16051271667E+02  0.24643265920E+02  0.51100000000E-03 0. -1.
        -11    1    3    3    0    0  0.26021703966E+02  0.23650682753E+01  0.11996156332E+02  0.28751180710E+02  0.51100000000E-03 0.  1.
        -12    1    3    3    0    0 -0.36740336190E+01  0.24057676657E+01 -0.39512149729E+01  0.59074817695E+01  0.00000000000E+00 0.  1.
</event>
<event>
 7    1  0.7749294E-012  0.5930193E+02  0.7816164E-02  0.1266605E+00
        -11   -1    0    0    0    0  0.00000000000E+00  0.00000000000E+00  0.45593999997E+02  0.45594000000E+02  0.51100000000E-03 0.  1.
         11   -1    0    0    0    0 -0.00000000000E+00 -0.00000000000E+00 -0.45593999997E+02  0.45594000000E+02  0.51100000000E-03 0. -1.
    9900012    2    1    2    0    0  0.20705852978E+02 -0.15123639824E+02  0.18954284160E+02  0.59301925969E+02  0.49999967065E+02 0.  0.
         12    1    1    2    0    0 -0.20705852978E+02  0.15123639824E+02 -0.18954284160E+02  0.31886074031E+02  0.00000000000E+00 0. -1.
         11    1    3    3    0    0  0.45621018466E+01  0.11424511894E+02  0.20782053185E+02  0.24150072052E+02  0.51100000000E-03 0. -1.
        -11    1    3    3    0    0  0.16965021886E+02 -0.25889472713E+02  0.21593898548E+01  0.31028047470E+02  0.51100000000E-03 0.  1.
         12    1    3    3    0    0 -0.82127075498E+00 -0.65867900539E+00 -0.39871588793E+01  0.41238064472E+01  0.00000000000E+00 0. -1.
</event>
<event>
 7    1  0.7749294E-012  0.5930195E+02  0.7816164E-02  0.1266605E+00
        -11   -1    0    0    0    0  0.00000000000E+00  0.00000000000E+00  0.45593999997E+02  0.45594000000E+02  0.51100000000E-03 0. -1.
         11   -1    0    0    0    0 -0.00000000000E+00 -0.00000000000E+00 -0.45593999997E+02  0.45594000000E+02  0.51100000000E-03 0.  1.
    9900012    2    1    2    0    0  0.21889872764E+02 -0.18327701765E+02  0.14200321513E+02  0.59301947991E+02  0.50000007228E+02 0.  0.
         12    1    1    2    0    0 -0.21889872764E+02  0.18327701765E+02 -0.14200321513E+02  0.31886052009E+02  0.00000000000E+00 0. -1.
         11    1    3    3    0    0 -0.27639629313E+01  0.12261945696E+02  0.13363530426E+02  0.18346082662E+02  0.51100000000E-03 0. -1.
        -11    1    3    3    0    0  0.12614577067E+02 -0.14968261662E+02 -0.53376639322E+01  0.20289580288E+02  0.51100000000E-03 0.  1.
         12    1    3    3    0    0  0.12039258629E+02 -0.15621385799E+02  0.61744550197E+01  0.20666285041E+02  0.00000000000E+00 0. -1.
</event>
<event>
 7    1  0.7749294E-012  0.5930189E+02  0.7816164E-02  0.1266605E+00
        -11   -1    0    0    0    0  0.00000000000E+00  0.00000000000E+00  0.45593999997E+02  0.45594000000E+02  0.51100000000E-03 0. -1.
         11   -1    0    0    0    0 -0.00000000000E+00 -0.00000000000E+00 -0.45593999997E+02  0.45594000000E+02  0.51100000000E-03 0.  1.
    9900012    2    1    2    0    0  0.19977137845E+02  0.24425742077E+02 -0.45848540244E+01  0.59301893324E+02  0.49999907529E+02 0.  0.
         12    1    1    2    0    0 -0.19977137845E+02 -0.24425742077E+02  0.45848540244E+01  0.31886106676E+02  0.00000000000E+00 0. -1.
         11    1    3    3    0    0 -0.41748521467E+01  0.17749569934E+01  0.44958146092E+01  0.63868781135E+01  0.51100000000E-03 0. -1.
        -11    1    3    3    0    0  0.26395574412E+02  0.30330814197E+02 -0.15050214496E+02  0.42932430574E+02  0.51100000000E-03 0.  1.
        -12    1    3    3    0    0 -0.22435844202E+01 -0.76800291127E+01  0.59695458621E+01  0.99825846364E+01  0.00000000000E+00 0.  1.
</event>
<event>
 7    1  0.7749294E-012  0.5930195E+02  0.7816164E-02  0.1266605E+00
        -11   -1    0    0    0    0  0.00000000000E+00  0.00000000000E+00  0.45593999997E+02  0.45594000000E+02  0.51100000000E-03 0. -1.
         11   -1    0    0    0    0 -0.00000000000E+00 -0.00000000000E+00 -0.45593999997E+02  0.45594000000E+02  0.51100000000E-03 0.  1.
    9900012    2    1    2    0    0 -0.89412209196E+01 -0.27119391235E+01 -0.30486388653E+02  0.59301953860E+02  0.50000017932E+02 0.  0.
         12    1    1    2    0    0  0.89412209196E+01  0.27119391235E+01  0.30486388653E+02  0.31886046140E+02  0.00000000000E+00 0. -1.
         11    1    3    3    0    0  0.34861142977E+01 -0.10249559007E+01  0.10083696055E+01  0.37709862129E+01  0.51100000000E-03 0. -1.
        -11    1    3    3    0    0 -0.48481024188E+00  0.17112887990E+02 -0.28237241039E+02  0.33021625612E+02  0.51100000000E-03 0.  1.
        -12    1    3    3    0    0 -0.11942524975E+02 -0.18799871213E+02 -0.32575172200E+01  0.22509342035E+02  0.00000000000E+00 0.  1.
</event>
<event>
 7    1  0.7749294E-012  0.5930192E+02  0.7816164E-02  0.1266605E+00
        -11   -1    0    0    0    0  0.00000000000E+00  0.00000000000E+00  0.45593999997E+02  0.45594000000E+02  0.51100000000E-03 0. -1.
         11   -1    0    0    0    0 -0.00000000000E+00 -0.00000000000E+00 -0.45593999997E+02  0.45594000000E+02  0.51100000000E-03 0.  1.
    9900012    2    1    2    0    0  0.13343089879E+02 -0.24034329561E+02 -0.16156577851E+02  0.59301920704E+02  0.49999957464E+02 0.  0.
         12    1    1    2    0    0 -0.13343089879E+02  0.24034329561E+02  0.16156577851E+02  0.31886079296E+02  0.00000000000E+00 0. -1.
         11    1    3    3    0    0 -0.21416387895E+01 -0.26477540646E+02  0.63581703872E+01  0.27314338841E+02  0.51100000000E-03 0. -1.
        -11    1    3    3    0    0  0.94373889237E+01  0.95256384457E+01 -0.13324446613E+02  0.18903517538E+02  0.51100000000E-03 0.  1.
        -12    1    3    3    0    0  0.60473397452E+01 -0.70824273604E+01 -0.91903016257E+01  0.13084064326E+02  0.00000000000E+00 0.  1.
</event>
<event>
 7    1  0.7749294E-012  0.5930194E+02  0.7816164E-02  0.1266605E+00
        -11   -1    0    0    0    0  0.00000000000E+00  0.00000000000E+00  0.45593999997E+02  0.45594000000E+02  0.51100000000E-03 0.  1.
         11   -1    0    0    0    0 -0.00000000000E+00 -0.00000000000E+00 -0.45593999997E+02  0.45594000000E+02  0.51100000000E-03 0. -1.
    9900012    2    1    2    0    0 -0.16031650141E+02 -0.22568270539E+02  0.15823406410E+02  0.59301939851E+02  0.49999992383E+02 0.  0.
         12    1    1    2    0    0  0.16031650141E+02  0.22568270539E+02 -0.15823406410E+02  0.31886060149E+02  0.00000000000E+00 0. -1.
         11    1    3    3    0    0 -0.12305355735E+02  0.47501965170E+01 -0.27985076199E+01  0.13483982790E+02  0.51100000000E-03 0. -1.
        -11    1    3    3    0    0 -0.10639175553E+02 -0.30259729213E+02  0.20509233225E+02  0.38071930818E+02  0.51100000000E-03 0.  1.
         12    1    3    3    0    0  0.69128811462E+01  0.29412621568E+01 -0.18873191955E+01  0.77460262433E+01  0.00000000000E+00 0. -1.
</event>
<event>
 7    1  0.7749294E-012  0.5930193E+02  0.7816164E-02  0.1266605E+00
        -11   -1    0    0    0    0  0.00000000000E+00  0.00000000000E+00  0.45593999997E+02  0.45594000000E+02  0.51100000000E-03 0.  1.
         11   -1    0    0    0    0 -0.00000000000E+00 -0.00000000000E+00 -0.45593999997E+02  0.45594000000E+02  0.51100000000E-03 0. -1.
    9900012    2    1    2    0    0 -0.55746776842E+01  0.31394909522E+02 -0.64512421610E-01  0.59301928793E+02  0.49999972216E+02 0.  0.
         12    1    1    2    0    0  0.55746776842E+01 -0.31394909522E+02  0.64512421610E-01  0.31886071207E+02  0.00000000000E+00 0. -1.
         11    1    3    3    0    0 -0.28499299070E+01 -0.77547107065E+01  0.10981678537E+02  0.13742448922E+02  0.51100000000E-03 0.  1.
        -11    1    3    3    0    0 -0.11330601617E+01  0.23952161507E+02 -0.16749173227E+02  0.29249353330E+02  0.51100000000E-03 0. -1.
        -12    1    3    3    0    0 -0.15916876155E+01  0.15197458721E+02  0.57029822684E+01  0.16310126542E+02  0.00000000000E+00 0.  1.
</event>
<event>
 7    1  0.7749294E-012  0.5930192E+02  0.7816164E-02  0.1266605E+00
        -11   -1    0    0    0    0  0.00000000000E+00  0.00000000000E+00  0.45593999997E+02  0.45594000000E+02  0.51100000000E-03 0. -1.
         11   -1    0    0    0    0 -0.00000000000E+00 -0.00000000000E+00 -0.45593999997E+02  0.45594000000E+02  0.51100000000E-03 0.  1.
    9900012    2    1    2    0    0 -0.11869985953E+02 -0.21985262625E+02 -0.19810942588E+02  0.59301924897E+02  0.49999965110E+02 0.  0.
         12    1    1    2    0    0  0.11869985953E+02  0.21985262625E+02  0.19810942588E+02  0.31886075103E+02  0.00000000000E+00 0. -1.
         11    1    3    3    0    0 -0.24459363706E+02 -0.94129190158E+01 -0.14958153927E+02  0.30176313335E+02  0.51100000000E-03 0. -1.
        -11    1    3    3    0    0  0.48741698285E+01  0.18073749319E+01 -0.10614884344E+02  0.11819471458E+02  0.51100000000E-03 0.  1.
         12    1    3    3    0    0  0.77152079241E+01 -0.14379718542E+02  0.57620956827E+01  0.17306140104E+02  0.00000000000E+00 0. -1.
</event>
<event>
 7    1  0.7749294E-012  0.5930194E+02  0.7816164E-02  0.1266605E+00
        -11   -1    0    0    0    0  0.00000000000E+00  0.00000000000E+00  0.45593999997E+02  0.45594000000E+02  0.51100000000E-03 0.  1.
         11   -1    0    0    0    0 -0.00000000000E+00 -0.00000000000E+00 -0.45593999997E+02  0.45594000000E+02  0.51100000000E-03 0. -1.
    9900012    2    1    2    0    0 -0.90536169168E+01 -0.10002747076E+02  0.28891142774E+02  0.59301936287E+02  0.49999985882E+02 0.  0.
         12    1    1    2    0    0  0.90536169168E+01  0.10002747076E+02 -0.28891142774E+02  0.31886063713E+02  0.00000000000E+00 0. -1.
         11    1    3    3    0    0 -0.15596548751E+02  0.58446001488E+01  0.35877261593E+01  0.17037707096E+02  0.51100000000E-03 0. -1.
        -11    1    3    3    0    0  0.14509665685E+02 -0.61904732372E+01  0.21202933955E+01  0.15916909296E+02  0.51100000000E-03 0.  1.
        -12    1    3    3    0    0 -0.79667338503E+01 -0.96568739874E+01  0.23183123219E+02  0.26347319895E+02  0.00000000000E+00 0.  1.
</event>
<event>
 7    1  0.7749294E-012  0.5930196E+02  0.7816164E-02  0.1266605E+00
        -11   -1    0    0    0    0  0.00000000000E+00  0.00000000000E+00  0.45593999997E+02  0.45594000000E+02  0.51100000000E-03 0. -1.
         11   -1    0    0    0    0 -0.00000000000E+00 -0.00000000000E+00 -0.45593999997E+02  0.45594000000E+02  0.51100000000E-03 0.  1.
    9900012    2    1    2    0    0 -0.59527439368E+01 -0.17623896678E+02 -0.25897541663E+02  0.59301959815E+02  0.50000028791E+02 0.  0.
         12    1    1    2    0    0  0.59527439368E+01  0.17623896678E+02  0.25897541663E+02  0.31886040185E+02  0.00000000000E+00 0. -1.
         11    1    3    3    0    0  0.62094169314E+01 -0.45450632809E+01  0.11376214085E+02  0.13734362236E+02  0.51100000000E-03 0. -1.
        -11    1    3    3    0    0 -0.19981747950E+01  0.37449912598E+01 -0.16213475447E+02  0.16759905977E+02  0.51100000000E-03 0.  1.
         12    1    3    3    0    0 -0.10163986073E+02 -0.16823824657E+02 -0.21060280302E+02  0.28807691601E+02  0.00000000000E+00 0. -1.
</event>
<event>
 7    1  0.7749294E-012  0.5930194E+02  0.7816164E-02  0.1266605E+00
        -11   -1    0    0    0    0  0.00000000000E+00  0.00000000000E+00  0.45593999997E+02  0.45594000000E+02  0.51100000000E-03 0.  1.
         11   -1    0    0    0    0 -0.00000000000E+00 -0.00000000000E+00 -0.45593999997E+02  0.45594000000E+02  0.51100000000E-03 0. -1.
    9900012    2    1    2    0    0  0.40064526906E+01  0.20607846554E+02  0.23999698495E+02  0.59301944574E+02  0.50000000997E+02 0.  0.
         12    1    1    2    0    0 -0.40064526906E+01 -0.20607846554E+02 -0.23999698495E+02  0.31886055426E+02  0.00000000000E+00 0. -1.
         11    1    3    3    0    0  0.69900298483E+01  0.25310268261E+01  0.33934468527E+02  0.34739239608E+02  0.51100000000E-03 0. -1.
        -11    1    3    3    0    0  0.14123109377E+01  0.12032108629E+02  0.19613684173E-01  0.12114728441E+02  0.51100000000E-03 0.  1.
         12    1    3    3    0    0 -0.43958880954E+01  0.60447110988E+01 -0.99543837158E+01  0.12447976525E+02  0.00000000000E+00 0. -1.
</event>
<event>
 7    1  0.7749294E-012  0.5930190E+02  0.7816164E-02  0.1266605E+00
        -11   -1    0    0    0    0  0.00000000000E+00  0.00000000000E+00  0.45593999997E+02  0.45594000000E+02  0.51100000000E-03 0. -1.
         11   -1    0    0    0    0 -0.00000000000E+00 -0.00000000000E+00 -0.45593999997E+02  0.45594000000E+02  0.51100000000E-03 0.  1.
    9900012    2    1    2    0    0  0.27220997123E+02 -0.11011082097E+02 -0.12429684299E+02  0.59301895423E+02  0.49999911357E+02 0.  0.
         12    1    1    2    0    0 -0.27220997123E+02  0.11011082097E+02  0.12429684299E+02  0.31886104577E+02  0.00000000000E+00 0. -1.
         11    1    3    3    0    0 -0.78543577972E+01  0.30564314488E+01 -0.89176123870E+01  0.12270147536E+02  0.51100000000E-03 0. -1.
        -11    1    3    3    0    0  0.32505105422E+02  0.95239199385E-01 -0.22854834856E+01  0.32585493460E+02  0.51100000000E-03 0.  1.
         12    1    3    3    0    0  0.25702494975E+01 -0.14162752745E+02 -0.12265884265E+01  0.14446254427E+02  0.00000000000E+00 0. -1.
</event>
<event>
 7    1  0.7749294E-012  0.5930193E+02  0.7816164E-02  0.1266605E+00
        -11   -1    0    0    0    0  0.00000000000E+00  0.00000000000E+00  0.45593999997E+02  0.45594000000E+02  0.51100000000E-03 0.  1.
         11   -1    0    0    0    0 -0.00000000000E+00 -0.00000000000E+00 -0.45593999997E+02  0.45594000000E+02  0.51100000000E-03 0. -1.
    9900012    2    1    2    0    0  0.28548304437E+02  0.13107372633E+02  0.54692122083E+01  0.59301934302E+02  0.49999982262E+02 0.  0.
         12    1    1    2    0    0 -0.28548304437E+02 -0.13107372633E+02 -0.54692122083E+01  0.31886065698E+02  0.00000000000E+00 0. -1.
         11    1    3    3    0    0  0.93244869802E+01  0.24165266209E+01  0.23944144277E+02  0.25809062435E+02  0.51100000000E-03 0. -1.
        -11    1    3    3    0    0  0.12373598538E+02  0.63214857734E+01 -0.65764127959E+00  0.13910413922E+02  0.51100000000E-03 0.  1.
         12    1    3    3    0    0  0.68502189180E+01  0.43693602384E+01 -0.17817290789E+02  0.19582457945E+02  0.00000000000E+00 0. -1.
</event>
<event>
 7    1  0.7749294E-012  0.5930195E+02  0.7816164E-02  0.1266605E+00
        -11   -1    0    0    0    0  0.00000000000E+00  0.00000000000E+00  0.45593999997E+02  0.45594000000E+02  0.51100000000E-03 0. -1.
         11   -1    0    0    0    0 -0.00000000000E+00 -0.00000000000E+00 -0.45593999997E+02  0.45594000000E+02  0.51100000000E-03 0.  1.
    9900012    2    1    2    0    0  0.20785800478E+01  0.80156493865E+01 -0.30792029587E+02  0.59301949505E+02  0.50000009989E+02 0.  0.
         12    1    1    2    0    0 -0.20785800478E+01 -0.80156493865E+01  0.30792029587E+02  0.31886050495E+02  0.00000000000E+00 0. -1.
         11    1    3    3    0    0  0.19472000241E+02  0.32233211728E+01  0.22718653824E+01  0.19867308961E+02  0.51100000000E-03 0. -1.
        -11    1    3    3    0    0 -0.79890391201E+01  0.18858738922E+01 -0.48073875686E+01  0.95127410296E+01  0.51100000000E-03 0.  1.
         12    1    3    3    0    0 -0.94043810729E+01  0.29064543214E+01 -0.28256507401E+02  0.29921899515E+02  0.00000000000E+00 0. -1.
</event>
<event>
 7    1  0.7749294E-012  0.5930194E+02  0.7816164E-02  0.1266605E+00
        -11   -1    0    0    0    0  0.00000000000E+00  0.00000000000E+00  0.45593999997E+02  0.45594000000E+02  0.51100000000E-03 0. -1.
         11   -1    0    0    0    0 -0.00000000000E+00 -0.00000000000E+00 -0.45593999997E+02  0.45594000000E+02  0.51100000000E-03 0.  1.
    9900012    2    1    2    0    0  0.14584213709E+02  0.16100509416E+02 -0.23340843730E+02  0.59301942248E+02  0.49999996754E+02 0.  0.
         12    1    1    2    0    0 -0.14584213709E+02 -0.16100509416E+02  0.23340843730E+02  0.31886057752E+02  0.00000000000E+00 0. -1.
         11    1    3    3    0    0 -0.54186164712E+01 -0.70711890654E+00  0.13392601030E+01  0.56262811425E+01  0.51100000000E-03 0. -1.
        -11    1    3    3    0    0  0.16613457885E+02  0.20858500410E+02 -0.33850940904E+02  0.43092577349E+02  0.51100000000E-03 0.  1.
         12    1    3    3    0    0  0.33893722945E+01 -0.40508720871E+01  0.91708370713E+01  0.10583083757E+02  0.00000000000E+00 0. -1.
</event>
<event>
 7    1  0.7749294E-012  0.5930194E+02  0.7816164E-02  0.1266605E+00
        -11   -1    0    0    0    0  0.00000000000E+00  0.00000000000E+00  0.45593999997E+02  0.45594000000E+02  0.51100000000E-03 0.  1.
         11   -1    0    0    0    0 -0.00000000000E+00 -0.00000000000E+00 -0.45593999997E+02  0.45594000000E+02  0.51100000000E-03 0. -1.
    9900012    2    1    2    0    0 -0.30846008917E+02 -0.73271272552E+01 -0.33996411610E+01  0.59301943174E+02  0.49999998443E+02 0.  0.
         12    1    1    2    0    0  0.30846008917E+02  0.73271272552E+01  0.33996411610E+01  0.31886056826E+02  0.00000000000E+00 0. -1.
         11    1    3    3    0    0 -0.46119247262E+01  0.10929764120E+02  0.74607737342E+01  0.14014019351E+02  0.51100000000E-03 0. -1.
        -11    1    3    3    0    0 -0.26858885047E+02 -0.15901830820E+02  0.28682010721E+01  0.31344768415E+02  0.51100000000E-03 0.  1.
         12    1    3    3    0    0  0.62480085622E+00 -0.23550605559E+01 -0.13728615967E+02  0.13943155407E+02  0.00000000000E+00 0. -1.
</event>
<event>
 7    1  0.7749294E-012  0.5930193E+02  0.7816164E-02  0.1266605E+00
        -11   -1    0    0    0    0  0.00000000000E+00  0.00000000000E+00  0.45593999997E+02  0.45594000000E+02  0.51100000000E-03 0. -1.
         11   -1    0    0    0    0 -0.00000000000E+00 -0.00000000000E+00 -0.45593999997E+02  0.45594000000E+02  0.51100000000E-03 0.  1.
    9900012    2    1    2    0    0 -0.15136070327E+02  0.13155957810E+00 -0.28064277832E+02  0.59301927443E+02  0.49999969754E+02 0.  0.
         12    1    1    2    0    0  0.15136070327E+02 -0.13155957810E+00  0.28064277832E+02  0.31886072557E+02  0.00000000000E+00 0. -1.
         11    1    3    3    0    0 -0.58348849155E+01  0.16753250071E+02 -0.19034362867E+00  0.17741293664E+02  0.51100000000E-03 0. -1.
        -11    1    3    3    0    0 -0.26397864024E+01 -0.34780227003E+01 -0.26392236270E+02  0.26750985959E+02  0.51100000000E-03 0.  1.
         12    1    3    3    0    0 -0.66613990087E+01 -0.13143667792E+02 -0.14816979333E+01  0.14809647820E+02  0.00000000000E+00 0. -1.
</event>
<event>
 7    1  0.7749294E-012  0.5930193E+02  0.7816164E-02  0.1266605E+00
        -11   -1    0    0    0    0  0.00000000000E+00  0.00000000000E+00  0.45593999997E+02  0.45594000000E+02  0.51100000000E-03 0. -1.
         11   -1    0    0    0    0 -0.00000000000E+00 -0.00000000000E+00 -0.45593999997E+02  0.45594000000E+02  0.51100000000E-03 0.  1.
    9900012    2    1    2    0    0  0.16955103818E+01  0.29944016416E+02 -0.10826018489E+02  0.59301928575E+02  0.49999971819E+02 0.  0.
         12    1    1    2    0    0 -0.16955103818E+01 -0.29944016416E+02  0.10826018489E+02  0.31886071425E+02  0.00000000000E+00 0. -1.
         11    1    3    3    0    0 -0.37240827706E+01  0.96833432444E+01  0.29965963544E+01  0.10798866554E+02  0.51100000000E-03 0. -1.
        -11    1    3    3    0    0  0.18682851442E+02  0.13013603024E+02 -0.21705511157E+02  0.31456827820E+02  0.51100000000E-03 0.  1.
        -12    1    3    3    0    0 -0.13263258290E+02  0.72470701471E+01  0.78828963127E+01  0.17046234202E+02  0.00000000000E+00 0.  1.
</event>
<event>
 7    1  0.7749294E-012  0.5930198E+02  0.7816164E-02  0.1266605E+00
        -11   -1    0    0    0    0  0.00000000000E+00  0.00000000000E+00  0.45593999997E+02  0.45594000000E+02  0.51100000000E-03 0.  1.
         11   -1    0    0    0    0 -0.00000000000E+00 -0.00000000000E+00 -0.45593999997E+02  0.45594000000E+02  0.51100000000E-03 0. -1.
    9900012    2    1    2    0    0 -0.97303785694E+01  0.34818302968E+01  0.30164792402E+02  0.59301982532E+02  0.50000070222E+02 0.  0.
         12    1    1    2    0    0  0.97303785694E+01 -0.34818302968E+01 -0.30164792402E+02  0.31886017468E+02  0.00000000000E+00 0. -1.
         11    1    3    3    0    0 -0.15618754779E+01 -0.90972132025E+01 -0.44092420804E+01  0.10229377256E+02  0.51100000000E-03 0. -1.
        -11    1    3    3    0    0  0.70195448384E+01  0.16386100283E+02  0.25050743381E+02  0.30746024725E+02  0.51100000000E-03 0.  1.
        -12    1    3    3    0    0 -0.15188047930E+02 -0.38070567834E+01  0.95232911016E+01  0.18326580551E+02  0.00000000000E+00 0.  1.
</event>
<event>
 7    1  0.7749294E-012  0.5930195E+02  0.7816164E-02  0.1266605E+00
        -11   -1    0    0    0    0  0.00000000000E+00  0.00000000000E+00  0.45593999997E+02  0.45594000000E+02  0.51100000000E-03 0. -1.
         11   -1    0    0    0    0 -0.00000000000E+00 -0.00000000000E+00 -0.45593999997E+02  0.45594000000E+02  0.51100000000E-03 0.  1.
    9900012    2    1    2    0    0 -0.27979767313E+02 -0.79010735326E+01 -0.13092976994E+02  0.59301946804E+02  0.50000005063E+02 0.  0.
         12    1    1    2    0    0  0.27979767313E+02  0.79010735326E+01  0.13092976994E+02  0.31886053196E+02  0.00000000000E+00 0. -1.
         11    1    3    3    0    0 -0.27174871359E+02  0.95074656775E-02 -0.27116957213E+01  0.27309833718E+02  0.51100000000E-03 0. -1.
        -11    1    3    3    0    0  0.11757708601E+02 -0.20974622974E+00 -0.12434779037E+02  0.17114655561E+02  0.51100000000E-03 0.  1.
        -12    1    3    3    0    0 -0.12562604554E+02 -0.77008347685E+01  0.20534977644E+01  0.14877457524E+02  0.00000000000E+00 0.  1.
</event>
<event>
 7    1  0.7749294E-012  0.5930196E+02  0.7816164E-02  0.1266605E+00
        -11   -1    0    0    0    0  0.00000000000E+00  0.00000000000E+00  0.45593999997E+02  0.45594000000E+02  0.51100000000E-03 0.  1.
         11   -1    0    0    0    0 -0.00000000000E+00 -0.00000000000E+00 -0.45593999997E+02  0.45594000000E+02  0.51100000000E-03 0. -1.
    9900012    2    1    2    0    0  0.20408969724E+02  0.19080522088E+02  0.15366423000E+02  0.59301963493E+02  0.50000035500E+02 0.  0.
         12    1    1    2    0    0 -0.20408969724E+02 -0.19080522088E+02 -0.15366423000E+02  0.31886036507E+02  0.00000000000E+00 0. -1.
         11    1    3    3    0    0 -0.51894742818E+01 -0.25656342306E+01  0.22186436330E+02  0.22929262518E+02  0.51100000000E-03 0. -1.
        -11    1    3    3    0    0  0.11462235797E+02  0.10568292584E+02  0.30400121350E+01  0.15884373820E+02  0.51100000000E-03 0.  1.
         12    1    3    3    0    0  0.14136208208E+02  0.11077863735E+02 -0.98600254651E+01  0.20488327155E+02  0.00000000000E+00 0. -1.
</event>
<event>
 7    1  0.7749294E-012  0.5930204E+02  0.7816164E-02  0.1266604E+00
        -11   -1    0    0    0    0  0.00000000000E+00  0.00000000000E+00  0.45593999997E+02  0.45594000000E+02  0.51100000000E-03 0.  1.
         11   -1    0    0    0    0 -0.00000000000E+00 -0.00000000000E+00 -0.45593999997E+02  0.45594000000E+02  0.51100000000E-03 0. -1.
    9900012    2    1    2    0    0  0.23954223728E+02 -0.26252633625E+00  0.21043783962E+02  0.59302037604E+02  0.50000170660E+02 0.  0.
         12    1    1    2    0    0 -0.23954223728E+02  0.26252633625E+00 -0.21043783962E+02  0.31885962396E+02  0.00000000000E+00 0. -1.
         11    1    3    3    0    0  0.16895327101E+02  0.75022211345E+01 -0.21351701182E+01  0.18608985773E+02  0.51100000000E-03 0. -1.
        -11    1    3    3    0    0  0.75386950419E+01 -0.15833037019E+02  0.26645672800E+02  0.31898414747E+02  0.51100000000E-03 0.  1.
        -12    1    3    3    0    0 -0.47979841525E+00  0.80682895478E+01 -0.34667187196E+01  0.87946370833E+01  0.00000000000E+00 0.  1.
</event>
<event>
 7    1  0.7749294E-012  0.5930196E+02  0.7816164E-02  0.1266605E+00
        -11   -1    0    0    0    0  0.00000000000E+00  0.00000000000E+00  0.45593999997E+02  0.45594000000E+02  0.51100000000E-03 0. -1.
         11   -1    0    0    0    0 -0.00000000000E+00 -0.00000000000E+00 -0.45593999997E+02  0.45594000000E+02  0.51100000000E-03 0.  1.
    9900012    2    1    2    0    0  0.28146887764E+02  0.18789549675E+01 -0.14864120167E+02  0.59301955546E+02  0.50000021007E+02 0.  0.
         12    1    1    2    0    0 -0.28146887764E+02 -0.18789549675E+01  0.14864120167E+02  0.31886044454E+02  0.00000000000E+00 0. -1.
         11    1    3    3    0    0 -0.10844169503E+02  0.61189154548E+01 -0.67437764582E+01  0.14160355212E+02  0.51100000000E-03 0. -1.
        -11    1    3    3    0    0  0.20122144058E+02  0.26938458519E+01  0.52862491072E+01  0.20978606171E+02  0.51100000000E-03 0.  1.
        -12    1    3    3    0    0  0.18868913208E+02 -0.69338063392E+01 -0.13406592816E+02  0.24162994164E+02  0.00000000000E+00 0.  1.
</event>
<event>
 7    1  0.7749294E-012  0.5930193E+02  0.7816164E-02  0.1266605E+00
        -11   -1    0    0    0    0  0.00000000000E+00  0.00000000000E+00  0.45593999997E+02  0.45594000000E+02  0.51100000000E-03 0. -1.
         11   -1    0    0    0    0 -0.00000000000E+00 -0.00000000000E+00 -0.45593999997E+02  0.45594000000E+02  0.51100000000E-03 0.  1.
    9900012    2    1    2    0    0 -0.31250437097E+02  0.63348563009E+01  0.30322282059E-01  0.59301934978E+02  0.49999983496E+02 0.  0.
         12    1    1    2    0    0  0.31250437097E+02 -0.63348563009E+01 -0.30322282059E-01  0.31886065022E+02  0.00000000000E+00 0. -1.
         11    1    3    3    0    0 -0.65198125247E+01 -0.62045623519E+01  0.10051904042E+02  0.13492417295E+02  0.51100000000E-03 0. -1.
        -11    1    3    3    0    0 -0.23481036846E+02  0.59464306935E+00 -0.19485527070E+02  0.30518821360E+02  0.51100000000E-03 0.  1.
        -12    1    3    3    0    0 -0.12495877263E+01  0.11944775583E+02  0.94639453099E+01  0.15290696323E+02  0.00000000000E+00 0.  1.
</event>
<event>
 7    1  0.7749294E-012  0.5930194E+02  0.7816164E-02  0.1266605E+00
        -11   -1    0    0    0    0  0.00000000000E+00  0.00000000000E+00  0.45593999997E+02  0.45594000000E+02  0.51100000000E-03 0.  1.
         11   -1    0    0    0    0 -0.00000000000E+00 -0.00000000000E+00 -0.45593999997E+02  0.45594000000E+02  0.51100000000E-03 0. -1.
    9900012    2    1    2    0    0  0.19831044185E+02  0.22910107505E+02  0.99286127805E+01  0.59301942057E+02  0.49999996406E+02 0.  0.
         12    1    1    2    0    0 -0.19831044185E+02 -0.22910107505E+02 -0.99286127805E+01  0.31886057943E+02  0.00000000000E+00 0. -1.
         11    1    3    3    0    0  0.16835713051E+02 -0.52785349863E+01 -0.11610161966E+02  0.21121080149E+02  0.51100000000E-03 0. -1.
        -11    1    3    3    0    0  0.69938237643E+01  0.14936293355E+02  0.64622675527E+01  0.17713478829E+02  0.51100000000E-03 0.  1.
         12    1    3    3    0    0 -0.39984926302E+01  0.13252349137E+02  0.15076507194E+02  0.20467383079E+02  0.00000000000E+00 0. -1.
</event>
<event>
 7    1  0.7749294E-012  0.5930196E+02  0.7816164E-02  0.1266605E+00
        -11   -1    0    0    0    0  0.00000000000E+00  0.00000000000E+00  0.45593999997E+02  0.45594000000E+02  0.51100000000E-03 0.  1.
         11   -1    0    0    0    0 -0.00000000000E+00 -0.00000000000E+00 -0.45593999997E+02  0.45594000000E+02  0.51100000000E-03 0. -1.
    9900012    2    1    2    0    0  0.58071901307E+01 -0.13135143369E+02  0.28468653883E+02  0.59301957561E+02  0.50000024681E+02 0.  0.
         12    1    1    2    0    0 -0.58071901307E+01  0.13135143369E+02 -0.28468653883E+02  0.31886042439E+02  0.00000000000E+00 0. -1.
         11    1    3    3    0    0  0.12846885529E+02  0.64097972428E+01 -0.17743940957E+01  0.14466390122E+02  0.51100000000E-03 0. -1.
        -11    1    3    3    0    0 -0.24839044275E+01 -0.20731501469E+02  0.84251040927E+01  0.22515490525E+02  0.51100000000E-03 0.  1.
        -12    1    3    3    0    0 -0.45557909704E+01  0.11865608575E+01  0.21817943886E+02  0.22320076914E+02  0.00000000000E+00 0.  1.
</event>
<event>
 7    1  0.7749294E-012  0.5930195E+02  0.7816164E-02  0.1266605E+00
        -11   -1    0    0    0    0  0.00000000000E+00  0.00000000000E+00  0.45593999997E+02  0.45594000000E+02  0.51100000000E-03 0.  1.
         11   -1    0    0    0    0 -0.00000000000E+00 -0.00000000000E+00 -0.45593999997E+02  0.45594000000E+02  0.51100000000E-03 0. -1.
    9900012    2    1    2    0    0 -0.29944048009E+01 -0.31715197296E+02 -0.13783243218E+01  0.59301953246E+02  0.50000016812E+02 0.  0.
         12    1    1    2    0    0  0.29944048009E+01  0.31715197296E+02  0.13783243218E+01  0.31886046754E+02  0.00000000000E+00 0. -1.
         11    1    3    3    0    0  0.84975435071E+01  0.10516874051E+02 -0.46143286265E+01  0.14286529124E+02  0.51100000000E-03 0. -1.
        -11    1    3    3    0    0 -0.41681873521E+01 -0.10665788728E+02 -0.33850702086E+01  0.11941169774E+02  0.51100000000E-03 0.  1.
         12    1    3    3    0    0 -0.73237609558E+01 -0.31566282620E+02  0.66210745133E+01  0.33074254348E+02  0.00000000000E+00 0. -1.
</event>
<event>
 7    1  0.7749294E-012  0.5930179E+02  0.7816164E-02  0.1266605E+00
        -11   -1    0    0    0    0  0.00000000000E+00  0.00000000000E+00  0.45593999997E+02  0.45594000000E+02  0.51100000000E-03 0. -1.
         11   -1    0    0    0    0 -0.00000000000E+00 -0.00000000000E+00 -0.45593999997E+02  0.45594000000E+02  0.51100000000E-03 0.  1.
    9900012    2    1    2    0    0 -0.28042883963E+02 -0.72086767156E+01 -0.13355214359E+02  0.59301794338E+02  0.49999727001E+02 0.  0.
         12    1    1    2    0    0  0.28042883963E+02  0.72086767156E+01  0.13355214359E+02  0.31886205662E+02  0.00000000000E+00 0. -1.
         11    1    3    3    0    0  0.85437147032E+01  0.44895323362E+01 -0.91689388130E+01  0.13312415286E+02  0.51100000000E-03 0. -1.
        -11    1    3    3    0    0 -0.18868923431E+02 -0.60714090895E+01  0.10377716484E+02  0.22373986669E+02  0.51100000000E-03 0.  1.
         12    1    3    3    0    0 -0.17717675235E+02 -0.56267999623E+01 -0.14563992030E+02  0.23615392383E+02  0.00000000000E+00 0. -1.
</event>
<event>
 7    1  0.7749294E-012  0.5930195E+02  0.7816164E-02  0.1266605E+00
        -11   -1    0    0    0    0  0.00000000000E+00  0.00000000000E+00  0.45593999997E+02  0.45594000000E+02  0.51100000000E-03 0.  1.
         11   -1    0    0    0    0 -0.00000000000E+00 -0.00000000000E+00 -0.45593999997E+02  0.45594000000E+02  0.51100000000E-03 0. -1.
    9900012    2    1    2    0    0 -0.31119736037E+01 -0.13941896656E+02  0.28507184400E+02  0.59301946239E+02  0.50000004032E+02 0.  0.
         12    1    1    2    0    0  0.31119736037E+01  0.13941896656E+02 -0.28507184400E+02  0.31886053761E+02  0.00000000000E+00 0. -1.
         11    1    3    3    0    0 -0.10555206428E+02 -0.90181428797E-02 -0.62284533356E+01  0.12255859631E+02  0.51100000000E-03 0. -1.
        -11    1    3    3    0    0  0.16894995941E+02 -0.10116422347E+02  0.14724736578E+02  0.24588630635E+02  0.51100000000E-03 0.  1.
        -12    1    3    3    0    0 -0.94517631159E+01 -0.38164561665E+01  0.20010901157E+02  0.22457455973E+02  0.00000000000E+00 0.  1.
</event>
<event>
 7    1  0.7749294E-012  0.5930195E+02  0.7816164E-02  0.1266605E+00
        -11   -1    0    0    0    0  0.00000000000E+00  0.00000000000E+00  0.45593999997E+02  0.45594000000E+02  0.51100000000E-03 0.  1.
         11   -1    0    0    0    0 -0.00000000000E+00 -0.00000000000E+00 -0.45593999997E+02  0.45594000000E+02  0.51100000000E-03 0. -1.
    9900012    2    1    2    0    0  0.52913377888E+01 -0.11835786263E+02  0.29131360426E+02  0.59301948938E+02  0.50000008956E+02 0.  0.
         12    1    1    2    0    0 -0.52913377888E+01  0.11835786263E+02 -0.29131360426E+02  0.31886051062E+02  0.00000000000E+00 0. -1.
         11    1    3    3    0    0  0.90523193050E+01 -0.16456014134E+02  0.10807073184E+02  0.21668819004E+02  0.51100000000E-03 0. -1.
        -11    1    3    3    0    0 -0.80611620467E+01  0.46008128992E+01 -0.72013939047E+01  0.11747760949E+02  0.51100000000E-03 0.  1.
        -12    1    3    3    0    0  0.43001805305E+01  0.19414971434E-01  0.25525681146E+02  0.25885368985E+02  0.00000000000E+00 0.  1.
</event>
<event>
 7    1  0.7749294E-012  0.5930198E+02  0.7816164E-02  0.1266605E+00
        -11   -1    0    0    0    0  0.00000000000E+00  0.00000000000E+00  0.45593999997E+02  0.45594000000E+02  0.51100000000E-03 0.  1.
         11   -1    0    0    0    0 -0.00000000000E+00 -0.00000000000E+00 -0.45593999997E+02  0.45594000000E+02  0.51100000000E-03 0. -1.
    9900012    2    1    2    0    0  0.29152772713E+02 -0.11539652287E+02 -0.58026414186E+01  0.59301978311E+02  0.50000062524E+02 0.  0.
         12    1    1    2    0    0 -0.29152772713E+02  0.11539652287E+02  0.58026414186E+01  0.31886021689E+02  0.00000000000E+00 0. -1.
         11    1    3    3    0    0  0.25679971876E+02  0.82694979550E+01 -0.16785183448E+02  0.31774013527E+02  0.51100000000E-03 0. -1.
        -11    1    3    3    0    0  0.23637830015E+01 -0.12808571229E+02  0.14604056192E+02  0.19568480384E+02  0.51100000000E-03 0.  1.
         12    1    3    3    0    0  0.11090178354E+01 -0.70005790131E+01 -0.36215141628E+01  0.79594843997E+01  0.00000000000E+00 0. -1.
</event>
<event>
 7    1  0.7749294E-012  0.5930193E+02  0.7816164E-02  0.1266605E+00
        -11   -1    0    0    0    0  0.00000000000E+00  0.00000000000E+00  0.45593999997E+02  0.45594000000E+02  0.51100000000E-03 0.  1.
         11   -1    0    0    0    0 -0.00000000000E+00 -0.00000000000E+00 -0.45593999997E+02  0.45594000000E+02  0.51100000000E-03 0. -1.
    9900012    2    1    2    0    0 -0.18282127445E+02  0.12808186353E+02  0.22769177683E+02  0.59301932919E+02  0.49999979740E+02 0.  0.
         12    1    1    2    0    0  0.18282127445E+02 -0.12808186353E+02 -0.22769177683E+02  0.31886067081E+02  0.00000000000E+00 0. -1.
         11    1    3    3    0    0 -0.29507181960E+02 -0.22466323038E+01  0.82316603527E+01  0.30716141951E+02  0.51100000000E-03 0. -1.
        -11    1    3    3    0    0  0.61860193113E+01  0.17715413344E+02  0.97665568396E+01  0.21153920148E+02  0.51100000000E-03 0.  1.
        -12    1    3    3    0    0  0.50390352038E+01 -0.26605946872E+01  0.47709604903E+01  0.74318708193E+01  0.00000000000E+00 0.  1.
</event>
<event>
 7    1  0.7749294E-012  0.5930192E+02  0.7816164E-02  0.1266605E+00
        -11   -1    0    0    0    0  0.00000000000E+00  0.00000000000E+00  0.45593999997E+02  0.45594000000E+02  0.51100000000E-03 0.  1.
         11   -1    0    0    0    0 -0.00000000000E+00 -0.00000000000E+00 -0.45593999997E+02  0.45594000000E+02  0.51100000000E-03 0. -1.
    9900012    2    1    2    0    0 -0.23918376201E+02 -0.90391828683E+01  0.19050638129E+02  0.59301915885E+02  0.49999948675E+02 0.  0.
         12    1    1    2    0    0  0.23918376201E+02  0.90391828683E+01 -0.19050638129E+02  0.31886084115E+02  0.00000000000E+00 0. -1.
         11    1    3    3    0    0 -0.13942888818E+01 -0.19822217923E+02  0.22608807243E+02  0.30100208140E+02  0.51100000000E-03 0.  1.
        -11    1    3    3    0    0 -0.14706559371E+02 -0.81694312782E+00 -0.37991548746E+01  0.15211307065E+02  0.51100000000E-03 0. -1.
        -12    1    3    3    0    0 -0.78175279489E+01  0.11599978182E+02  0.24098576020E+00  0.13990400680E+02  0.00000000000E+00 0.  1.
</event>
<event>
 7    1  0.7749294E-012  0.5930188E+02  0.7816164E-02  0.1266605E+00
        -11   -1    0    0    0    0  0.00000000000E+00  0.00000000000E+00  0.45593999997E+02  0.45594000000E+02  0.51100000000E-03 0.  1.
         11   -1    0    0    0    0 -0.00000000000E+00 -0.00000000000E+00 -0.45593999997E+02  0.45594000000E+02  0.51100000000E-03 0. -1.
    9900012    2    1    2    0    0  0.48931138969E+01  0.24041388512E+02  0.20366478838E+02  0.59301884127E+02  0.49999890755E+02 0.  0.
         12    1    1    2    0    0 -0.48931138969E+01 -0.24041388512E+02 -0.20366478838E+02  0.31886115873E+02  0.00000000000E+00 0. -1.
         11    1    3    3    0    0 -0.71789901438E+01 -0.32042959076E+01  0.32349439037E+01  0.85011925087E+01  0.51100000000E-03 0. -1.
        -11    1    3    3    0    0  0.13979099016E+02  0.21965341108E+02 -0.62322458947E+01  0.26771856649E+02  0.51100000000E-03 0.  1.
        -12    1    3    3    0    0 -0.19069949753E+01  0.52803433114E+01  0.23363780829E+02  0.24028834969E+02  0.00000000000E+00 0.  1.
</event>
<event>
 7    1  0.7749294E-012  0.5930196E+02  0.7816164E-02  0.1266605E+00
        -11   -1    0    0    0    0  0.00000000000E+00  0.00000000000E+00  0.45593999997E+02  0.45594000000E+02  0.51100000000E-03 0.  1.
         11   -1    0    0    0    0 -0.00000000000E+00 -0.00000000000E+00 -0.45593999997E+02  0.45594000000E+02  0.51100000000E-03 0. -1.
    9900012    2    1    2    0    0 -0.20292992189E+01  0.31813482881E+02 -0.70989967362E+00  0.59301957506E+02  0.50000024582E+02 0.  0.
         12    1    1    2    0    0  0.20292992189E+01 -0.31813482881E+02  0.70989967362E+00  0.31886042494E+02  0.00000000000E+00 0. -1.
         11    1    3    3    0    0  0.11656905452E+02 -0.76514512169E+01  0.59514082059E+01  0.15160719321E+02  0.51100000000E-03 0.  1.
        -11    1    3    3    0    0 -0.68225962982E+01  0.32537853644E+02 -0.19272229679E+01  0.33301260165E+02  0.51100000000E-03 0. -1.
         12    1    3    3    0    0 -0.68636083726E+01  0.69270804548E+01 -0.47340849116E+01  0.10839978020E+02  0.00000000000E+00 0. -1.
</event>
<event>
 7    1  0.7749294E-012  0.5930196E+02  0.7816164E-02  0.1266605E+00
        -11   -1    0    0    0    0  0.00000000000E+00  0.00000000000E+00  0.45593999997E+02  0.45594000000E+02  0.51100000000E-03 0. -1.
         11   -1    0    0    0    0 -0.00000000000E+00 -0.00000000000E+00 -0.45593999997E+02  0.45594000000E+02  0.51100000000E-03 0.  1.
    9900012    2    1    2    0    0 -0.14928755405E+02 -0.26008700809E+02 -0.10835099926E+02  0.59301958444E+02  0.50000026291E+02 0.  0.
         12    1    1    2    0    0  0.14928755405E+02  0.26008700809E+02  0.10835099926E+02  0.31886041556E+02  0.00000000000E+00 0. -1.
         11    1    3    3    0    0 -0.80155648064E+01 -0.31735957623E+02 -0.55039263079E+01  0.33192069692E+02  0.51100000000E-03 0. -1.
        -11    1    3    3    0    0  0.26949311619E-02  0.50214109450E+01  0.89297647206E+01  0.10244768097E+02  0.51100000000E-03 0.  1.
        -12    1    3    3    0    0 -0.69158855297E+01  0.70584586892E+00 -0.14260938339E+02  0.15865120654E+02  0.00000000000E+00 0.  1.
</event>
<event>
 7    1  0.7749294E-012  0.5930195E+02  0.7816164E-02  0.1266605E+00
        -11   -1    0    0    0    0  0.00000000000E+00  0.00000000000E+00  0.45593999997E+02  0.45594000000E+02  0.51100000000E-03 0. -1.
         11   -1    0    0    0    0 -0.00000000000E+00 -0.00000000000E+00 -0.45593999997E+02  0.45594000000E+02  0.51100000000E-03 0.  1.
    9900012    2    1    2    0    0  0.15449277306E+02 -0.16993313626E+02 -0.22119390484E+02  0.59301947992E+02  0.50000007229E+02 0.  0.
         12    1    1    2    0    0 -0.15449277306E+02  0.16993313626E+02  0.22119390484E+02  0.31886052008E+02  0.00000000000E+00 0. -1.
         11    1    3    3    0    0  0.16837230507E+02  0.11223696115E+01  0.11573425913E+02  0.20462068134E+02  0.51100000000E-03 0. -1.
        -11    1    3    3    0    0  0.26317373290E+01 -0.70656108753E+01 -0.12239221350E+02  0.14375236969E+02  0.51100000000E-03 0.  1.
         12    1    3    3    0    0 -0.40196905301E+01 -0.11050072362E+02 -0.21453595048E+02  0.24464642888E+02  0.00000000000E+00 0. -1.
</event>
<event>
 7    1  0.7749294E-012  0.5930197E+02  0.7816164E-02  0.1266605E+00
        -11   -1    0    0    0    0  0.00000000000E+00  0.00000000000E+00  0.45593999997E+02  0.45594000000E+02  0.51100000000E-03 0. -1.
         11   -1    0    0    0    0 -0.00000000000E+00 -0.00000000000E+00 -0.45593999997E+02  0.45594000000E+02  0.51100000000E-03 0.  1.
    9900012    2    1    2    0    0 -0.29173578453E+02  0.12527659757E+02 -0.29460507112E+01  0.59301966168E+02  0.50000040378E+02 0.  0.
         12    1    1    2    0    0  0.29173578453E+02 -0.12527659757E+02  0.29460507112E+01  0.31886033832E+02  0.00000000000E+00 0. -1.
         11    1    3    3    0    0  0.68793605646E+01  0.86005936007E+01  0.66987008945E+01  0.12890632490E+02  0.51100000000E-03 0. -1.
        -11    1    3    3    0    0 -0.23263937506E+02 -0.76085720740E+01  0.35265003679E+01  0.24729281478E+02  0.51100000000E-03 0.  1.
         12    1    3    3    0    0 -0.12789001512E+02  0.11535638230E+02 -0.13171251974E+02  0.21682052200E+02  0.00000000000E+00 0. -1.
</event>
<event>
 7    1  0.7749294E-012  0.5930197E+02  0.7816164E-02  0.1266605E+00
        -11   -1    0    0    0    0  0.00000000000E+00  0.00000000000E+00  0.45593999997E+02  0.45594000000E+02  0.51100000000E-03 0. -1.
         11   -1    0    0    0    0 -0.00000000000E+00 -0.00000000000E+00 -0.45593999997E+02  0.45594000000E+02  0.51100000000E-03 0.  1.
    9900012    2    1    2    0    0 -0.57759961737E+00 -0.31859597508E+02 -0.11624553296E+01  0.59301970503E+02  0.50000048285E+02 0.  0.
         12    1    1    2    0    0  0.57759961737E+00  0.31859597508E+02  0.11624553296E+01  0.31886029497E+02  0.00000000000E+00 0. -1.
         11    1    3    3    0    0  0.49209073169E+01  0.33015641750E+01 -0.12810259132E+02  0.14114474631E+02  0.51100000000E-03 0. -1.
        -11    1    3    3    0    0 -0.12824962327E+02 -0.16174743480E+02 -0.19154927987E+01  0.20730921307E+02  0.51100000000E-03 0.  1.
         12    1    3    3    0    0  0.73264553924E+01 -0.18986418203E+02  0.13563296601E+02  0.24456574565E+02  0.00000000000E+00 0. -1.
</event>
<event>
 7    1  0.7749294E-012  0.5930195E+02  0.7816164E-02  0.1266605E+00
        -11   -1    0    0    0    0  0.00000000000E+00  0.00000000000E+00  0.45593999997E+02  0.45594000000E+02  0.51100000000E-03 0.  1.
         11   -1    0    0    0    0 -0.00000000000E+00 -0.00000000000E+00 -0.45593999997E+02  0.45594000000E+02  0.51100000000E-03 0. -1.
    9900012    2    1    2    0    0 -0.16927642102E+02  0.26937152558E+02 -0.21365295912E+01  0.59301952679E+02  0.50000015778E+02 0.  0.
         12    1    1    2    0    0  0.16927642102E+02 -0.26937152558E+02  0.21365295912E+01  0.31886047321E+02  0.00000000000E+00 0. -1.
         11    1    3    3    0    0 -0.25179786941E+01 -0.58233695251E+01  0.17313868326E+02  0.18439682373E+02  0.51100000000E-03 0. -1.
        -11    1    3    3    0    0 -0.98244820852E+01  0.19670225380E+02 -0.10599553386E+02  0.24408784217E+02  0.51100000000E-03 0.  1.
         12    1    3    3    0    0 -0.45851813225E+01  0.13090296704E+02 -0.88508445320E+01  0.16453486089E+02  0.00000000000E+00 0. -1.
</event>
<event>
 7    1  0.7749294E-012  0.5930175E+02  0.7816164E-02  0.1266605E+00
        -11   -1    0    0    0    0  0.00000000000E+00  0.00000000000E+00  0.45593999997E+02  0.45594000000E+02  0.51100000000E-03 0.  1.
         11   -1    0    0    0    0 -0.00000000000E+00 -0.00000000000E+00 -0.45593999997E+02  0.45594000000E+02  0.51100000000E-03 0. -1.
    9900012    2    1    2    0    0 -0.22892696719E+02 -0.19613134029E+02  0.10391459157E+02  0.59301748842E+02  0.49999644026E+02 0.  0.
         12    1    1    2    0    0  0.22892696719E+02  0.19613134029E+02 -0.10391459157E+02  0.31886251158E+02  0.00000000000E+00 0. -1.
         11    1    3    3    0    0 -0.26146816488E+02  0.49239131113E+01 -0.37752304752E+01  0.26872910118E+02  0.51100000000E-03 0. -1.
        -11    1    3    3    0    0 -0.33206408492E+01 -0.14747535310E+02  0.14047020235E+02  0.20635775515E+02  0.51100000000E-03 0.  1.
         12    1    3    3    0    0  0.65747606185E+01 -0.97895118310E+01  0.11966939700E+00  0.11793063209E+02  0.00000000000E+00 0. -1.
</event>
<event>
 7    1  0.7749294E-012  0.5930197E+02  0.7816164E-02  0.1266605E+00
        -11   -1    0    0    0    0  0.00000000000E+00  0.00000000000E+00  0.45593999997E+02  0.45594000000E+02  0.51100000000E-03 0.  1.
         11   -1    0    0    0    0 -0.00000000000E+00 -0.00000000000E+00 -0.45593999997E+02  0.45594000000E+02  0.51100000000E-03 0. -1.
    9900012    2    1    2    0    0 -0.26892313302E+02 -0.74438409153E+01  0.15430873151E+02  0.59301966561E+02  0.50000041095E+02 0.  0.
         12    1    1    2    0    0  0.26892313302E+02  0.74438409153E+01 -0.15430873151E+02  0.31886033439E+02  0.00000000000E+00 0. -1.
         11    1    3    3    0    0  0.88079199824E+01 -0.28250852920E+01 -0.19737638972E+01  0.94581343565E+01  0.51100000000E-03 0. -1.
        -11    1    3    3    0    0 -0.29825983680E+02  0.74245672104E+01  0.41832627303E+01  0.31019561378E+02  0.51100000000E-03 0.  1.
         12    1    3    3    0    0 -0.58742496040E+01 -0.12043322834E+02  0.13221374318E+02  0.18824270826E+02  0.00000000000E+00 0. -1.
</event>
<event>
 7    1  0.7749294E-012  0.5930194E+02  0.7816164E-02  0.1266605E+00
        -11   -1    0    0    0    0  0.00000000000E+00  0.00000000000E+00  0.45593999997E+02  0.45594000000E+02  0.51100000000E-03 0.  1.
         11   -1    0    0    0    0 -0.00000000000E+00 -0.00000000000E+00 -0.45593999997E+02  0.45594000000E+02  0.51100000000E-03 0. -1.
    9900012    2    1    2    0    0  0.21097532259E+02 -0.19459418686E+02 -0.13890491828E+02  0.59301943388E+02  0.49999998834E+02 0.  0.
         12    1    1    2    0    0 -0.21097532259E+02  0.19459418686E+02  0.13890491828E+02  0.31886056612E+02  0.00000000000E+00 0. -1.
         11    1    3    3    0    0 -0.96268571125E+01  0.65986257147E+01  0.33434029793E+01  0.12140699442E+02  0.51100000000E-03 0. -1.
        -11    1    3    3    0    0  0.18099115762E+02 -0.12138086752E+02 -0.19367831877E+00  0.21793316703E+02  0.51100000000E-03 0.  1.
         12    1    3    3    0    0  0.12625273610E+02 -0.13919957648E+02 -0.17040216489E+02  0.25367927244E+02  0.00000000000E+00 0. -1.
</event>
<event>
 7    1  0.7749294E-012  0.5930194E+02  0.7816164E-02  0.1266605E+00
        -11   -1    0    0    0    0  0.00000000000E+00  0.00000000000E+00  0.45593999997E+02  0.45594000000E+02  0.51100000000E-03 0.  1.
         11   -1    0    0    0    0 -0.00000000000E+00 -0.00000000000E+00 -0.45593999997E+02  0.45594000000E+02  0.51100000000E-03 0. -1.
    9900012    2    1    2    0    0 -0.22639191048E+02  0.54257188541E+01  0.21788751491E+02  0.59301935835E+02  0.49999985058E+02 0.  0.
         12    1    1    2    0    0  0.22639191048E+02 -0.54257188541E+01 -0.21788751491E+02  0.31886064165E+02  0.00000000000E+00 0. -1.
         11    1    3    3    0    0 -0.98168447348E+01  0.26182801605E+02  0.13662135208E+02  0.31121752507E+02  0.51100000000E-03 0. -1.
        -11    1    3    3    0    0 -0.13683178459E+02 -0.12048509679E+02  0.55451995686E+01  0.19056368929E+02  0.51100000000E-03 0.  1.
         12    1    3    3    0    0  0.86083214577E+00 -0.87085730719E+01  0.25814167143E+01  0.91238143988E+01  0.00000000000E+00 0. -1.
</event>
<event>
 7    1  0.7749294E-012  0.5930194E+02  0.7816164E-02  0.1266605E+00
        -11   -1    0    0    0    0  0.00000000000E+00  0.00000000000E+00  0.45593999997E+02  0.45594000000E+02  0.51100000000E-03 0.  1.
         11   -1    0    0    0    0 -0.00000000000E+00 -0.00000000000E+00 -0.45593999997E+02  0.45594000000E+02  0.51100000000E-03 0. -1.
    9900012    2    1    2    0    0 -0.11376034714E+02  0.21207434779E+02  0.20917729694E+02  0.59301939232E+02  0.49999991254E+02 0.  0.
         12    1    1    2    0    0  0.11376034714E+02 -0.21207434779E+02 -0.20917729694E+02  0.31886060768E+02  0.00000000000E+00 0. -1.
         11    1    3    3    0    0  0.13202916601E+02 -0.33594138828E+01  0.46876057461E+01  0.14407509025E+02  0.51100000000E-03 0. -1.
        -11    1    3    3    0    0 -0.53863638253E+01  0.67347878193E+01  0.16585958208E+02  0.18693964058E+02  0.51100000000E-03 0.  1.
         12    1    3    3    0    0 -0.19192587490E+02  0.17832060843E+02 -0.35583426072E+00  0.26200466150E+02  0.00000000000E+00 0. -1.
</event>
<event>
 7    1  0.7749294E-012  0.5930195E+02  0.7816164E-02  0.1266605E+00
        -11   -1    0    0    0    0  0.00000000000E+00  0.00000000000E+00  0.45593999997E+02  0.45594000000E+02  0.51100000000E-03 0.  1.
         11   -1    0    0    0    0 -0.00000000000E+00 -0.00000000000E+00 -0.45593999997E+02  0.45594000000E+02  0.51100000000E-03 0. -1.
    9900012    2    1    2    0    0 -0.55811920373E+01 -0.16538623621E+02  0.26684164469E+02  0.59301946478E+02  0.50000004468E+02 0.  0.
         12    1    1    2    0    0  0.55811920373E+01  0.16538623621E+02 -0.26684164469E+02  0.31886053522E+02  0.00000000000E+00 0. -1.
         11    1    3    3    0    0 -0.14908492131E+02 -0.40945655361E+01  0.16036741840E+01  0.15543499468E+02  0.51100000000E-03 0. -1.
        -11    1    3    3    0    0  0.81325667477E+01  0.10221466074E+02  0.10741817269E+02  0.16911642413E+02  0.51100000000E-03 0.  1.
        -12    1    3    3    0    0  0.11947333465E+01 -0.22665524159E+02  0.14338673016E+02  0.26846804596E+02  0.00000000000E+00 0.  1.
</event>
<event>
 7    1  0.7749294E-012  0.5930195E+02  0.7816164E-02  0.1266605E+00
        -11   -1    0    0    0    0  0.00000000000E+00  0.00000000000E+00  0.45593999997E+02  0.45594000000E+02  0.51100000000E-03 0.  1.
         11   -1    0    0    0    0 -0.00000000000E+00 -0.00000000000E+00 -0.45593999997E+02  0.45594000000E+02  0.51100000000E-03 0. -1.
    9900012    2    1    2    0    0  0.25470793960E+02  0.19181100123E+02  0.21078469448E+00  0.59301946982E+02  0.50000005389E+02 0.  0.
         12    1    1    2    0    0 -0.25470793960E+02 -0.19181100123E+02 -0.21078469448E+00  0.31886053018E+02  0.00000000000E+00 0. -1.
         11    1    3    3    0    0  0.17074884222E+02  0.15023098192E+02  0.24008000267E+02  0.33070065431E+02  0.51100000000E-03 0.  1.
        -11    1    3    3    0    0  0.56185324922E+01  0.90651790885E+00 -0.18861384327E+02  0.19701307091E+02  0.51100000000E-03 0. -1.
        -12    1    3    3    0    0  0.27773772454E+01  0.32514840212E+01 -0.49358312453E+01  0.65305744606E+01  0.00000000000E+00 0.  1.
</event>
<event>
 7    1  0.7749294E-012  0.5930201E+02  0.7816164E-02  0.1266605E+00
        -11   -1    0    0    0    0  0.00000000000E+00  0.00000000000E+00  0.45593999997E+02  0.45594000000E+02  0.51100000000E-03 0.  1.
         11   -1    0    0    0    0 -0.00000000000E+00 -0.00000000000E+00 -0.45593999997E+02  0.45594000000E+02  0.51100000000E-03 0. -1.
    9900012    2    1    2    0    0 -0.12125753886E+02 -0.23497753183E+02  0.17819599478E+02  0.59302008758E+02  0.50000118052E+02 0.  0.
         12    1    1    2    0    0  0.12125753886E+02  0.23497753183E+02 -0.17819599478E+02  0.31885991242E+02  0.00000000000E+00 0. -1.
         11    1    3    3    0    0  0.41180258835E+01 -0.25870341010E+02  0.48620847861E+01  0.26643433522E+02  0.51100000000E-03 0. -1.
        -11    1    3    3    0    0 -0.45749392996E+01 -0.33299468447E+01  0.17891695311E+02  0.18765163920E+02  0.51100000000E-03 0.  1.
         12    1    3    3    0    0 -0.11668840470E+02  0.57025346716E+01 -0.49341806199E+01  0.13893411315E+02  0.00000000000E+00 0. -1.
</event>
<event>
 7    1  0.7749294E-012  0.5930217E+02  0.7816164E-02  0.1266604E+00
        -11   -1    0    0    0    0  0.00000000000E+00  0.00000000000E+00  0.45593999997E+02  0.45594000000E+02  0.51100000000E-03 0.  1.
         11   -1    0    0    0    0 -0.00000000000E+00 -0.00000000000E+00 -0.45593999997E+02  0.45594000000E+02  0.51100000000E-03 0. -1.
    9900012    2    1    2    0    0 -0.20536739713E+02 -0.16148798304E+02  0.18280169997E+02  0.59302172744E+02  0.50000417121E+02 0.  0.
         12    1    1    2    0    0  0.20536739713E+02  0.16148798304E+02 -0.18280169997E+02  0.31885827256E+02  0.00000000000E+00 0. -1.
         11    1    3    3    0    0 -0.19797885067E+02 -0.15198688878E+02  0.11776990446E+02  0.27598077849E+02  0.51100000000E-03 0.  1.
        -11    1    3    3    0    0  0.93979764385E+01  0.11334280911E+02  0.55967828915E+01  0.15751567030E+02  0.51100000000E-03 0. -1.
         12    1    3    3    0    0 -0.10136831084E+02 -0.12284390336E+02  0.90639665973E+00  0.15952527865E+02  0.00000000000E+00 0. -1.
</event>
<event>
 7    1  0.7749294E-012  0.5930195E+02  0.7816164E-02  0.1266605E+00
        -11   -1    0    0    0    0  0.00000000000E+00  0.00000000000E+00  0.45593999997E+02  0.45594000000E+02  0.51100000000E-03 0.  1.
         11   -1    0    0    0    0 -0.00000000000E+00 -0.00000000000E+00 -0.45593999997E+02  0.45594000000E+02  0.51100000000E-03 0. -1.
    9900012    2    1    2    0    0  0.19619442672E+02 -0.22361941126E+01  0.25035915439E+02  0.59301950437E+02  0.50000011689E+02 0.  0.
         12    1    1    2    0    0 -0.19619442672E+02  0.22361941126E+01 -0.25035915439E+02  0.31886049563E+02  0.00000000000E+00 0. -1.
         11    1    3    3    0    0  0.22223883599E+02 -0.72096593937E+01 -0.36754367306E+01  0.23651406432E+02  0.51100000000E-03 0. -1.
        -11    1    3    3    0    0  0.67190023291E+01  0.26896684888E+01  0.23783820849E+02  0.24860600220E+02  0.51100000000E-03 0.  1.
         12    1    3    3    0    0 -0.93234432568E+01  0.22837967923E+01  0.49275313210E+01  0.10789943784E+02  0.00000000000E+00 0. -1.
</event>
<event>
 7    1  0.7749294E-012  0.5930195E+02  0.7816164E-02  0.1266605E+00
        -11   -1    0    0    0    0  0.00000000000E+00  0.00000000000E+00  0.45593999997E+02  0.45594000000E+02  0.51100000000E-03 0.  1.
         11   -1    0    0    0    0 -0.00000000000E+00 -0.00000000000E+00 -0.45593999997E+02  0.45594000000E+02  0.51100000000E-03 0. -1.
    9900012    2    1    2    0    0 -0.16558781846E+02 -0.27102387409E+02  0.28262604892E+01  0.59301946499E+02  0.50000004507E+02 0.  0.
         12    1    1    2    0    0  0.16558781846E+02  0.27102387409E+02 -0.28262604892E+01  0.31886053501E+02  0.00000000000E+00 0. -1.
         11    1    3    3    0    0 -0.77112148330E+01 -0.19669114228E+02  0.16602673487E+02  0.26869790768E+02  0.51100000000E-03 0. -1.
        -11    1    3    3    0    0  0.50589024821E+01  0.57372402697E+01 -0.10515380676E+02  0.13003140054E+02  0.51100000000E-03 0.  1.
         12    1    3    3    0    0 -0.13906469496E+02 -0.13170513451E+02 -0.32610323220E+01  0.19429015678E+02  0.00000000000E+00 0. -1.
</event>
<event>
 7    1  0.7749294E-012  0.5930183E+02  0.7816164E-02  0.1266605E+00
        -11   -1    0    0    0    0  0.00000000000E+00  0.00000000000E+00  0.45593999997E+02  0.45594000000E+02  0.51100000000E-03 0.  1.
         11   -1    0    0    0    0 -0.00000000000E+00 -0.00000000000E+00 -0.45593999997E+02  0.45594000000E+02  0.51100000000E-03 0. -1.
    9900012    2    1    2    0    0 -0.22648326829E+02 -0.20070265345E+02  0.10048167185E+02  0.59301828656E+02  0.49999789590E+02 0.  0.
         12    1    1    2    0    0  0.22648326829E+02  0.20070265345E+02 -0.10048167185E+02  0.31886171344E+02  0.00000000000E+00 0. -1.
         11    1    3    3    0    0 -0.30546191956E+01  0.11465868349E+02  0.71904358279E+01  0.13874408206E+02  0.51100000000E-03 0. -1.
        -11    1    3    3    0    0 -0.22747836141E+02 -0.27745213484E+02 -0.49239287558E+01  0.36214720695E+02  0.51100000000E-03 0.  1.
         12    1    3    3    0    0  0.31541285068E+01 -0.37909202098E+01  0.77816601128E+01  0.92126997555E+01  0.00000000000E+00 0. -1.
</event>
<event>
 7    1  0.7749294E-012  0.5930194E+02  0.7816164E-02  0.1266605E+00
        -11   -1    0    0    0    0  0.00000000000E+00  0.00000000000E+00  0.45593999997E+02  0.45594000000E+02  0.51100000000E-03 0.  1.
         11   -1    0    0    0    0 -0.00000000000E+00 -0.00000000000E+00 -0.45593999997E+02  0.45594000000E+02  0.51100000000E-03 0. -1.
    9900012    2    1    2    0    0 -0.76001063639E+01  0.25354228496E+02  0.17779831027E+02  0.59301938614E+02  0.49999990127E+02 0.  0.
         12    1    1    2    0    0  0.76001063639E+01 -0.25354228496E+02 -0.17779831027E+02  0.31886061386E+02  0.00000000000E+00 0. -1.
         11    1    3    3    0    0  0.10355713557E+02  0.75593951428E+01 -0.52594905949E+01  0.13858120355E+02  0.51100000000E-03 0. -1.
        -11    1    3    3    0    0 -0.18093244170E+02  0.17564189668E+02  0.29595948028E+02  0.38881697278E+02  0.51100000000E-03 0.  1.
         12    1    3    3    0    0  0.13742424853E+00  0.23064368462E+00 -0.65566264059E+01  0.65621209803E+01  0.00000000000E+00 0. -1.
</event>
<event>
 7    1  0.7749294E-012  0.5930195E+02  0.7816164E-02  0.1266605E+00
        -11   -1    0    0    0    0  0.00000000000E+00  0.00000000000E+00  0.45593999997E+02  0.45594000000E+02  0.51100000000E-03 0.  1.
         11   -1    0    0    0    0 -0.00000000000E+00 -0.00000000000E+00 -0.45593999997E+02  0.45594000000E+02  0.51100000000E-03 0. -1.
    9900012    2    1    2    0    0  0.13040165551E+02  0.10571438272E+02  0.27109387963E+02  0.59301950692E+02  0.50000012154E+02 0.  0.
         12    1    1    2    0    0 -0.13040165551E+02 -0.10571438272E+02 -0.27109387963E+02  0.31886049308E+02  0.00000000000E+00 0. -1.
         11    1    3    3    0    0  0.21091353501E+02  0.18622037711E+01  0.28245572728E+02  0.35300501050E+02  0.51100000000E-03 0.  1.
        -11    1    3    3    0    0 -0.56182906896E+01 -0.93478961749E+00  0.84482808241E+01  0.10188840515E+02  0.51100000000E-03 0. -1.
         12    1    3    3    0    0 -0.24328972600E+01  0.96440241186E+01 -0.95844655886E+01  0.13812609127E+02  0.00000000000E+00 0. -1.
</event>
<event>
 7    1  0.7749294E-012  0.5930195E+02  0.7816164E-02  0.1266605E+00
        -11   -1    0    0    0    0  0.00000000000E+00  0.00000000000E+00  0.45593999997E+02  0.45594000000E+02  0.51100000000E-03 0. -1.
         11   -1    0    0    0    0 -0.00000000000E+00 -0.00000000000E+00 -0.45593999997E+02  0.45594000000E+02  0.51100000000E-03 0.  1.
    9900012    2    1    2    0    0 -0.31308658849E+02  0.56348139487E+01 -0.21764761359E+01  0.59301948261E+02  0.50000007720E+02 0.  0.
         12    1    1    2    0    0  0.31308658849E+02 -0.56348139487E+01  0.21764761359E+01  0.31886051739E+02  0.00000000000E+00 0. -1.
         11    1    3    3    0    0 -0.88886211075E+01  0.16588588844E+02  0.15533384097E+02  0.24402354124E+02  0.51100000000E-03 0. -1.
        -11    1    3    3    0    0 -0.10456650598E+02 -0.58916619331E+01 -0.18312622915E+02  0.21895327821E+02  0.51100000000E-03 0.  1.
        -12    1    3    3    0    0 -0.11963387143E+02 -0.50621129620E+01  0.60276268307E+00  0.13004266317E+02  0.00000000000E+00 0.  1.
</event>
<event>
 7    1  0.7749294E-012  0.5930205E+02  0.7816164E-02  0.1266604E+00
        -11   -1    0    0    0    0  0.00000000000E+00  0.00000000000E+00  0.45593999997E+02  0.45594000000E+02  0.51100000000E-03 0.  1.
         11   -1    0    0    0    0 -0.00000000000E+00 -0.00000000000E+00 -0.45593999997E+02  0.45594000000E+02  0.51100000000E-03 0. -1.
    9900012    2    1    2    0    0  0.11861304148E+02  0.22084392609E+02  0.19705405692E+02  0.59302047818E+02  0.50000189289E+02 0.  0.
         12    1    1    2    0    0 -0.11861304148E+02 -0.22084392609E+02 -0.19705405692E+02  0.31885952182E+02  0.00000000000E+00 0. -1.
         11    1    3    3    0    0  0.10275430381E+02  0.14284165494E+02 -0.33251662754E+01  0.17907500786E+02  0.51100000000E-03 0. -1.
        -11    1    3    3    0    0 -0.71525141377E+01  0.17284342669E+02  0.21356562058E+02  0.28390310023E+02  0.51100000000E-03 0.  1.
        -12    1    3    3    0    0  0.87383879052E+01 -0.94841155540E+01  0.16740099097E+01  0.13004237010E+02  0.00000000000E+00 0.  1.
</event>
<event>
 7    1  0.7749294E-012  0.5930195E+02  0.7816164E-02  0.1266605E+00
        -11   -1    0    0    0    0  0.00000000000E+00  0.00000000000E+00  0.45593999997E+02  0.45594000000E+02  0.51100000000E-03 0. -1.
         11   -1    0    0    0    0 -0.00000000000E+00 -0.00000000000E+00 -0.45593999997E+02  0.45594000000E+02  0.51100000000E-03 0.  1.
    9900012    2    1    2    0    0 -0.31839714579E+02 -0.51727185819E+00 -0.16386119741E+01  0.59301952207E+02  0.50000014918E+02 0.  0.
         12    1    1    2    0    0  0.31839714579E+02  0.51727185819E+00  0.16386119741E+01  0.31886047793E+02  0.00000000000E+00 0. -1.
         11    1    3    3    0    0 -0.10069835094E+02  0.20856948648E+02  0.33004693458E+01  0.23394593048E+02  0.51100000000E-03 0. -1.
        -11    1    3    3    0    0 -0.17309698106E+02 -0.42124328303E+01 -0.18844551172E+01  0.17914279506E+02  0.51100000000E-03 0.  1.
         12    1    3    3    0    0 -0.44601813786E+01 -0.17161787676E+02 -0.30546262027E+01  0.17993079653E+02  0.00000000000E+00 0. -1.
</event>
<event>
 7    1  0.7749294E-012  0.5930198E+02  0.7816164E-02  0.1266605E+00
        -11   -1    0    0    0    0  0.00000000000E+00  0.00000000000E+00  0.45593999997E+02  0.45594000000E+02  0.51100000000E-03 0. -1.
         11   -1    0    0    0    0 -0.00000000000E+00 -0.00000000000E+00 -0.45593999997E+02  0.45594000000E+02  0.51100000000E-03 0.  1.
    9900012    2    1    2    0    0  0.45901903991E+01 -0.30152578734E+02 -0.92989639914E+01  0.59301975107E+02  0.50000056681E+02 0.  0.
         12    1    1    2    0    0 -0.45901903991E+01  0.30152578734E+02  0.92989639914E+01  0.31886024893E+02  0.00000000000E+00 0. -1.
         11    1    3    3    0    0  0.21229408744E+02 -0.11802648276E+02  0.81122156793E+01  0.25608560003E+02  0.51100000000E-03 0. -1.
        -11    1    3    3    0    0  0.16750172945E+01 -0.27345434316E+01 -0.65411324039E+01  0.72849038499E+01  0.51100000000E-03 0.  1.
         12    1    3    3    0    0 -0.18314235640E+02 -0.15615387026E+02 -0.10870047267E+02  0.26408511254E+02  0.00000000000E+00 0. -1.
</event>
<event>
 7    1  0.7749294E-012  0.5930196E+02  0.7816164E-02  0.1266605E+00
        -11   -1    0    0    0    0  0.00000000000E+00  0.00000000000E+00  0.45593999997E+02  0.45594000000E+02  0.51100000000E-03 0. -1.
         11   -1    0    0    0    0 -0.00000000000E+00 -0.00000000000E+00 -0.45593999997E+02  0.45594000000E+02  0.51100000000E-03 0.  1.
    9900012    2    1    2    0    0  0.10926343006E+02  0.28828946194E+02 -0.81379644664E+01  0.59301959546E+02  0.50000028302E+02 0.  0.
         12    1    1    2    0    0 -0.10926343006E+02 -0.28828946194E+02  0.81379644664E+01  0.31886040454E+02  0.00000000000E+00 0. -1.
         11    1    3    3    0    0 -0.64891038338E+01 -0.23508277753E+01  0.74870538259E+01  0.10182869686E+02  0.51100000000E-03 0. -1.
        -11    1    3    3    0    0  0.15090841611E+01  0.25121943304E+02 -0.19288297052E+02  0.31708481102E+02  0.51100000000E-03 0.  1.
         12    1    3    3    0    0  0.15906362679E+02  0.60578306651E+01  0.36632787600E+01  0.17410608758E+02  0.00000000000E+00 0. -1.
</event>
<event>
 7    1  0.7749294E-012  0.5930192E+02  0.7816164E-02  0.1266605E+00
        -11   -1    0    0    0    0  0.00000000000E+00  0.00000000000E+00  0.45593999997E+02  0.45594000000E+02  0.51100000000E-03 0. -1.
         11   -1    0    0    0    0 -0.00000000000E+00 -0.00000000000E+00 -0.45593999997E+02  0.45594000000E+02  0.51100000000E-03 0.  1.
    9900012    2    1    2    0    0 -0.23204064575E+02  0.20450805513E+02  0.77497180225E+01  0.59301918580E+02  0.49999953589E+02 0.  0.
         12    1    1    2    0    0  0.23204064575E+02 -0.20450805513E+02 -0.77497180225E+01  0.31886081420E+02  0.00000000000E+00 0. -1.
         11    1    3    3    0    0 -0.21041363187E+00  0.20912031294E+00  0.69759497468E+01  0.69822546740E+01  0.51100000000E-03 0. -1.
        -11    1    3    3    0    0 -0.81132704108E+01  0.99407536654E+01 -0.20627045807E+02  0.24292360099E+02  0.51100000000E-03 0.  1.
        -12    1    3    3    0    0 -0.14880380532E+02  0.10300931534E+02  0.21400814083E+02  0.28027303807E+02  0.00000000000E+00 0.  1.
</event>
<event>
 7    1  0.7749294E-012  0.5930194E+02  0.7816164E-02  0.1266605E+00
        -11   -1    0    0    0    0  0.00000000000E+00  0.00000000000E+00  0.45593999997E+02  0.45594000000E+02  0.51100000000E-03 0.  1.
         11   -1    0    0    0    0 -0.00000000000E+00 -0.00000000000E+00 -0.45593999997E+02  0.45594000000E+02  0.51100000000E-03 0. -1.
    9900012    2    1    2    0    0  0.12937583117E+01 -0.15438278241E+02  0.27869461549E+02  0.59301935133E+02  0.49999983779E+02 0.  0.
         12    1    1    2    0    0 -0.12937583117E+01  0.15438278241E+02 -0.27869461549E+02  0.31886064867E+02  0.00000000000E+00 0. -1.
         11    1    3    3    0    0 -0.30938875772E+01 -0.11755407859E+02 -0.43372235536E+01  0.12906326460E+02  0.51100000000E-03 0. -1.
        -11    1    3    3    0    0 -0.33941306260E+00 -0.11386767456E+02  0.35102327895E+02  0.36904567444E+02  0.51100000000E-03 0.  1.
        -12    1    3    3    0    0  0.47270589515E+01  0.77038970733E+01 -0.28956427921E+01  0.94910412298E+01  0.00000000000E+00 0.  1.
</event>
<event>
 7    1  0.7749294E-012  0.5930195E+02  0.7816164E-02  0.1266605E+00
        -11   -1    0    0    0    0  0.00000000000E+00  0.00000000000E+00  0.45593999997E+02  0.45594000000E+02  0.51100000000E-03 0.  1.
         11   -1    0    0    0    0 -0.00000000000E+00 -0.00000000000E+00 -0.45593999997E+02  0.45594000000E+02  0.51100000000E-03 0. -1.
    9900012    2    1    2    0    0  0.16132281509E+02  0.14999687426E+02  0.23053824922E+02  0.59301953316E+02  0.50000016940E+02 0.  0.
         12    1    1    2    0    0 -0.16132281509E+02 -0.14999687426E+02 -0.23053824922E+02  0.31886046684E+02  0.00000000000E+00 0. -1.
         11    1    3    3    0    0 -0.13754825900E+02 -0.40622595919E+01  0.93003951833E+01  0.17093698820E+02  0.51100000000E-03 0. -1.
        -11    1    3    3    0    0  0.10897238585E+02  0.68010008044E+01  0.14778646151E+02  0.19580904040E+02  0.51100000000E-03 0.  1.
         12    1    3    3    0    0  0.18989868824E+02  0.12260946214E+02 -0.10252164119E+01  0.22627350456E+02  0.00000000000E+00 0. -1.
</event>
<event>
 7    1  0.7749294E-012  0.5930193E+02  0.7816164E-02  0.1266605E+00
        -11   -1    0    0    0    0  0.00000000000E+00  0.00000000000E+00  0.45593999997E+02  0.45594000000E+02  0.51100000000E-03 0.  1.
         11   -1    0    0    0    0 -0.00000000000E+00 -0.00000000000E+00 -0.45593999997E+02  0.45594000000E+02  0.51100000000E-03 0. -1.
    9900012    2    1    2    0    0  0.69698106288E+01  0.29488361550E+01  0.30974949976E+02  0.59301930614E+02  0.49999975536E+02 0.  0.
         12    1    1    2    0    0 -0.69698106288E+01 -0.29488361550E+01 -0.30974949976E+02  0.31886069386E+02  0.00000000000E+00 0. -1.
         11    1    3    3    0    0  0.13740714950E+01  0.10954143784E+02 -0.79928459302E+01  0.13629634068E+02  0.51100000000E-03 0. -1.
        -11    1    3    3    0    0  0.13785052438E+02 -0.33847992894E+01  0.26428117963E+02  0.29998832582E+02  0.51100000000E-03 0.  1.
        -12    1    3    3    0    0 -0.81893133038E+01 -0.46205083392E+01  0.12539677944E+02  0.15673463964E+02  0.00000000000E+00 0.  1.
</event>
<event>
 7    1  0.7749294E-012  0.5930196E+02  0.7816164E-02  0.1266605E+00
        -11   -1    0    0    0    0  0.00000000000E+00  0.00000000000E+00  0.45593999997E+02  0.45594000000E+02  0.51100000000E-03 0.  1.
         11   -1    0    0    0    0 -0.00000000000E+00 -0.00000000000E+00 -0.45593999997E+02  0.45594000000E+02  0.51100000000E-03 0. -1.
    9900012    2    1    2    0    0 -0.17250580435E+02 -0.26359438753E+02  0.49312206523E+01  0.59301961146E+02  0.50000031219E+02 0.  0.
         12    1    1    2    0    0  0.17250580435E+02  0.26359438753E+02 -0.49312206523E+01  0.31886038854E+02  0.00000000000E+00 0. -1.
         11    1    3    3    0    0 -0.21576788192E+02 -0.41868738427E+01  0.28130518370E+01  0.22158541517E+02  0.51100000000E-03 0. -1.
        -11    1    3    3    0    0  0.57004898432E+01 -0.13805400865E+02  0.15356665213E+02  0.21422227807E+02  0.51100000000E-03 0.  1.
         12    1    3    3    0    0 -0.13742820856E+01 -0.83671640448E+01 -0.13238496398E+02  0.15721191821E+02  0.00000000000E+00 0. -1.
</event>
<event>
 7    1  0.7749294E-012  0.5930196E+02  0.7816164E-02  0.1266605E+00
        -11   -1    0    0    0    0  0.00000000000E+00  0.00000000000E+00  0.45593999997E+02  0.45594000000E+02  0.51100000000E-03 0.  1.
         11   -1    0    0    0    0 -0.00000000000E+00 -0.00000000000E+00 -0.45593999997E+02  0.45594000000E+02  0.51100000000E-03 0. -1.
    9900012    2    1    2    0    0 -0.83067994894E+01  0.15925420997E+02  0.26345737383E+02  0.59301955562E+02  0.50000021035E+02 0.  0.
         12    1    1    2    0    0  0.83067994894E+01 -0.15925420997E+02 -0.26345737383E+02  0.31886044438E+02  0.00000000000E+00 0. -1.
         11    1    3    3    0    0  0.13149739237E+02  0.14200381250E+02 -0.71224365129E+00  0.19366821137E+02  0.51100000000E-03 0. -1.
        -11    1    3    3    0    0 -0.15866934367E+02 -0.53564889154E+01  0.74059074473E+01  0.18311172685E+02  0.51100000000E-03 0.  1.
         12    1    3    3    0    0 -0.55896043598E+01  0.70815286620E+01  0.19652073587E+02  0.21623961740E+02  0.00000000000E+00 0. -1.
</event>
<event>
 7    1  0.7749294E-012  0.5930194E+02  0.7816164E-02  0.1266605E+00
        -11   -1    0    0    0    0  0.00000000000E+00  0.00000000000E+00  0.45593999997E+02  0.45594000000E+02  0.51100000000E-03 0.  1.
         11   -1    0    0    0    0 -0.00000000000E+00 -0.00000000000E+00 -0.45593999997E+02  0.45594000000E+02  0.51100000000E-03 0. -1.
    9900012    2    1    2    0    0 -0.43770786324E+01  0.29617852676E+02  0.10970167846E+02  0.59301943532E+02  0.49999999096E+02 0.  0.
         12    1    1    2    0    0  0.43770786324E+01 -0.29617852676E+02 -0.10970167846E+02  0.31886056468E+02  0.00000000000E+00 0. -1.
         11    1    3    3    0    0 -0.11964011708E+02  0.29325603261E+01 -0.13335214413E+02  0.18153937036E+02  0.51100000000E-03 0. -1.
        -11    1    3    3    0    0  0.22877803800E+01  0.18284108589E+02  0.25151551612E+02  0.31179209654E+02  0.51100000000E-03 0.  1.
        -12    1    3    3    0    0  0.52991526954E+01  0.84011837618E+01 -0.84616935277E+00  0.99687968412E+01  0.00000000000E+00 0.  1.
</event>
<event>
 7    1  0.7749294E-012  0.5930198E+02  0.7816164E-02  0.1266605E+00
        -11   -1    0    0    0    0  0.00000000000E+00  0.00000000000E+00  0.45593999997E+02  0.45594000000E+02  0.51100000000E-03 0. -1.
         11   -1    0    0    0    0 -0.00000000000E+00 -0.00000000000E+00 -0.45593999997E+02  0.45594000000E+02  0.51100000000E-03 0.  1.
    9900012    2    1    2    0    0 -0.82993601536E+01 -0.10686032608E+02 -0.28872953653E+02  0.59301982304E+02  0.50000069806E+02 0.  0.
         12    1    1    2    0    0  0.82993601536E+01  0.10686032608E+02  0.28872953653E+02  0.31886017696E+02  0.00000000000E+00 0. -1.
         11    1    3    3    0    0 -0.10029708139E+02 -0.23578068388E+02 -0.29022725675E-01  0.25622669588E+02  0.51100000000E-03 0. -1.
        -11    1    3    3    0    0 -0.14705371469E+01  0.12258343751E+01 -0.15697668073E+02  0.15813979025E+02  0.51100000000E-03 0.  1.
         12    1    3    3    0    0  0.32008851326E+01  0.11666201404E+02 -0.13146262855E+02  0.17865333691E+02  0.00000000000E+00 0. -1.
</event>
<event>
 7    1  0.7749294E-012  0.5930198E+02  0.7816164E-02  0.1266605E+00
        -11   -1    0    0    0    0  0.00000000000E+00  0.00000000000E+00  0.45593999997E+02  0.45594000000E+02  0.51100000000E-03 0. -1.
         11   -1    0    0    0    0 -0.00000000000E+00 -0.00000000000E+00 -0.45593999997E+02  0.45594000000E+02  0.51100000000E-03 0.  1.
    9900012    2    1    2    0    0 -0.12749015853E+02 -0.11313986301E+02 -0.26947625382E+02  0.59301981043E+02  0.50000067506E+02 0.  0.
         12    1    1    2    0    0  0.12749015853E+02  0.11313986301E+02  0.26947625382E+02  0.31886018957E+02  0.00000000000E+00 0. -1.
         11    1    3    3    0    0  0.37703579276E+01 -0.94136448133E+01  0.11013195702E+02  0.14970731025E+02  0.51100000000E-03 0. -1.
        -11    1    3    3    0    0 -0.25261119024E+01  0.36387265481E+01 -0.21810601328E+02  0.22255873445E+02  0.51100000000E-03 0.  1.
         12    1    3    3    0    0 -0.13993261878E+02 -0.55390680356E+01 -0.16150219756E+02  0.22075376573E+02  0.00000000000E+00 0. -1.
</event>
<event>
 7    1  0.7749294E-012  0.5930196E+02  0.7816164E-02  0.1266605E+00
        -11   -1    0    0    0    0  0.00000000000E+00  0.00000000000E+00  0.45593999997E+02  0.45594000000E+02  0.51100000000E-03 0.  1.
         11   -1    0    0    0    0 -0.00000000000E+00 -0.00000000000E+00 -0.45593999997E+02  0.45594000000E+02  0.51100000000E-03 0. -1.
    9900012    2    1    2    0    0  0.90627817103E+01  0.30093613991E+02  0.53814329881E+01  0.59301961733E+02  0.50000032289E+02 0.  0.
         12    1    1    2    0    0 -0.90627817103E+01 -0.30093613991E+02 -0.53814329881E+01  0.31886038267E+02  0.00000000000E+00 0. -1.
         11    1    3    3    0    0  0.55544318225E+01  0.17522509412E+02 -0.90340587061E+01  0.20481803288E+02  0.51100000000E-03 0. -1.
        -11    1    3    3    0    0 -0.50682064852E+01 -0.96995287501E+01  0.94161037770E+01  0.14437125252E+02  0.51100000000E-03 0.  1.
        -12    1    3    3    0    0  0.85765563730E+01  0.22270633329E+02  0.49993879171E+01  0.24383033192E+02  0.00000000000E+00 0.  1.
</event>
<event>
 7    1  0.7749294E-012  0.5930216E+02  0.7816164E-02  0.1266604E+00
        -11   -1    0    0    0    0  0.00000000000E+00  0.00000000000E+00  0.45593999997E+02  0.45594000000E+02  0.51100000000E-03 0. -1.
         11   -1    0    0    0    0 -0.00000000000E+00 -0.00000000000E+00 -0.45593999997E+02  0.45594000000E+02  0.51100000000E-03 0.  1.
    9900012    2    1    2    0    0 -0.15779138317E+01 -0.21106802060E+02 -0.23847843215E+02  0.59302164096E+02  0.50000401350E+02 0.  0.
         12    1    1    2    0    0  0.15779138317E+01  0.21106802060E+02  0.23847843215E+02  0.31885835904E+02  0.00000000000E+00 0. -1.
         11    1    3    3    0    0 -0.27967656666E+01 -0.10576771034E+01  0.84385301763E+01  0.89526181001E+01  0.51100000000E-03 0. -1.
        -11    1    3    3    0    0  0.22086728276E+01 -0.27515805429E+00 -0.30377591195E+02  0.30459021565E+02  0.51100000000E-03 0.  1.
        -12    1    3    3    0    0 -0.98982099260E+00 -0.19773966903E+02 -0.19087821964E+01  0.19890524431E+02  0.00000000000E+00 0.  1.
</event>
<event>
 7    1  0.7749294E-012  0.5930195E+02  0.7816164E-02  0.1266605E+00
        -11   -1    0    0    0    0  0.00000000000E+00  0.00000000000E+00  0.45593999997E+02  0.45594000000E+02  0.51100000000E-03 0. -1.
         11   -1    0    0    0    0 -0.00000000000E+00 -0.00000000000E+00 -0.45593999997E+02  0.45594000000E+02  0.51100000000E-03 0.  1.
    9900012    2    1    2    0    0  0.17118987015E+02 -0.25405558245E+02 -0.88440806907E+01  0.59301954942E+02  0.50000019906E+02 0.  0.
         12    1    1    2    0    0 -0.17118987015E+02  0.25405558245E+02  0.88440806907E+01  0.31886045058E+02  0.00000000000E+00 0. -1.
         11    1    3    3    0    0 -0.13123309007E+01 -0.32911213296E+02 -0.23316212760E+01  0.33019791505E+02  0.51100000000E-03 0. -1.
        -11    1    3    3    0    0  0.21024147035E+02  0.47724942965E+01 -0.45484664254E+01  0.22033610858E+02  0.51100000000E-03 0.  1.
         12    1    3    3    0    0 -0.25928291193E+01  0.27331607550E+01 -0.19639929893E+01  0.42485525790E+01  0.00000000000E+00 0. -1.
</event>
<event>
 7    1  0.7749294E-012  0.5930197E+02  0.7816164E-02  0.1266605E+00
        -11   -1    0    0    0    0  0.00000000000E+00  0.00000000000E+00  0.45593999997E+02  0.45594000000E+02  0.51100000000E-03 0.  1.
         11   -1    0    0    0    0 -0.00000000000E+00 -0.00000000000E+00 -0.45593999997E+02  0.45594000000E+02  0.51100000000E-03 0. -1.
    9900012    2    1    2    0    0 -0.25036636803E+02  0.19618380121E+02 -0.22371321230E+01  0.59301972008E+02  0.50000051029E+02 0.  0.
         12    1    1    2    0    0  0.25036636803E+02 -0.19618380121E+02  0.22371321230E+01  0.31886027992E+02  0.00000000000E+00 0. -1.
         11    1    3    3    0    0 -0.25128524969E+01 -0.45094031539E+00  0.87893799103E+01  0.91526484860E+01  0.51100000000E-03 0. -1.
        -11    1    3    3    0    0 -0.73310920816E+01  0.55879905387E+01 -0.23838882339E+02  0.25559007430E+02  0.51100000000E-03 0.  1.
        -12    1    3    3    0    0 -0.15192692225E+02  0.14481329898E+02  0.12812370306E+02  0.24590316092E+02  0.00000000000E+00 0.  1.
</event>
<event>
 7    1  0.7749294E-012  0.5930195E+02  0.7816164E-02  0.1266605E+00
        -11   -1    0    0    0    0  0.00000000000E+00  0.00000000000E+00  0.45593999997E+02  0.45594000000E+02  0.51100000000E-03 0.  1.
         11   -1    0    0    0    0 -0.00000000000E+00 -0.00000000000E+00 -0.45593999997E+02  0.45594000000E+02  0.51100000000E-03 0. -1.
    9900012    2    1    2    0    0 -0.23919976987E+02  0.20730226327E+02 -0.38487500064E+01  0.59301945694E+02  0.50000003038E+02 0.  0.
         12    1    1    2    0    0  0.23919976987E+02 -0.20730226327E+02  0.38487500064E+01  0.31886054306E+02  0.00000000000E+00 0. -1.
         11    1    3    3    0    0  0.27881032547E+01 -0.36530580257E+01 -0.99802521080E+01  0.10987437604E+02  0.51100000000E-03 0. -1.
        -11    1    3    3    0    0 -0.28159705267E+02  0.21811596383E+02 -0.57423561025E+01  0.36078932791E+02  0.51100000000E-03 0.  1.
        -12    1    3    3    0    0  0.14516250258E+01  0.25716879700E+01  0.11873858204E+02  0.12235575298E+02  0.00000000000E+00 0.  1.
</event>
<event>
 7    1  0.7749294E-012  0.5930194E+02  0.7816164E-02  0.1266605E+00
        -11   -1    0    0    0    0  0.00000000000E+00  0.00000000000E+00  0.45593999997E+02  0.45594000000E+02  0.51100000000E-03 0. -1.
         11   -1    0    0    0    0 -0.00000000000E+00 -0.00000000000E+00 -0.45593999997E+02  0.45594000000E+02  0.51100000000E-03 0.  1.
    9900012    2    1    2    0    0 -0.14478044236E+02 -0.15578503306E+02 -0.23757462275E+02  0.59301944366E+02  0.50000000617E+02 0.  0.
         12    1    1    2    0    0  0.14478044236E+02  0.15578503306E+02  0.23757462275E+02  0.31886055634E+02  0.00000000000E+00 0. -1.
         11    1    3    3    0    0  0.71438711344E+01  0.60501679230E+00  0.44307393806E+01  0.84280716552E+01  0.51100000000E-03 0. -1.
        -11    1    3    3    0    0 -0.21167021023E+02  0.45155362977E+01 -0.14090626076E+02  0.25825928648E+02  0.51100000000E-03 0.  1.
        -12    1    3    3    0    0 -0.45489434703E+00 -0.20699056396E+02 -0.14097575580E+02  0.25047944063E+02  0.00000000000E+00 0.  1.
</event>
<event>
 7    1  0.7749294E-012  0.5930191E+02  0.7816164E-02  0.1266605E+00
        -11   -1    0    0    0    0  0.00000000000E+00  0.00000000000E+00  0.45593999997E+02  0.45594000000E+02  0.51100000000E-03 0. -1.
         11   -1    0    0    0    0 -0.00000000000E+00 -0.00000000000E+00 -0.45593999997E+02  0.45594000000E+02  0.51100000000E-03 0.  1.
    9900012    2    1    2    0    0 -0.15766872631E+02 -0.13793771273E+02 -0.24038723661E+02  0.59301911595E+02  0.49999940850E+02 0.  0.
         12    1    1    2    0    0  0.15766872631E+02  0.13793771273E+02  0.24038723661E+02  0.31886088405E+02  0.00000000000E+00 0. -1.
         11    1    3    3    0    0  0.90135724526E+01 -0.33705152499E+01 -0.36809732096E+01  0.10303126974E+02  0.51100000000E-03 0. -1.
        -11    1    3    3    0    0 -0.24600371250E+02 -0.76346512197E+01 -0.29661473606E+02  0.39284464889E+02  0.51100000000E-03 0.  1.
         12    1    3    3    0    0 -0.18007383454E+00 -0.27886048035E+01  0.93037231539E+01  0.97143197323E+01  0.00000000000E+00 0. -1.
</event>
<event>
 7    1  0.7749294E-012  0.5930194E+02  0.7816164E-02  0.1266605E+00
        -11   -1    0    0    0    0  0.00000000000E+00  0.00000000000E+00  0.45593999997E+02  0.45594000000E+02  0.51100000000E-03 0.  1.
         11   -1    0    0    0    0 -0.00000000000E+00 -0.00000000000E+00 -0.45593999997E+02  0.45594000000E+02  0.51100000000E-03 0. -1.
    9900012    2    1    2    0    0 -0.10060385984E+02 -0.29565767139E+02  0.64323145488E+01  0.59301943124E+02  0.49999998352E+02 0.  0.
         12    1    1    2    0    0  0.10060385984E+02  0.29565767139E+02 -0.64323145488E+01  0.31886056876E+02  0.00000000000E+00 0. -1.
         11    1    3    3    0    0  0.17062824498E+02 -0.22178798853E+02  0.99296866115E+01  0.29692385806E+02  0.51100000000E-03 0. -1.
        -11    1    3    3    0    0 -0.20112415004E+02 -0.33246315805E+01  0.87170916378E+00  0.20403977297E+02  0.51100000000E-03 0.  1.
         12    1    3    3    0    0 -0.70107954785E+01 -0.40623367053E+01 -0.43690812266E+01  0.92055800205E+01  0.00000000000E+00 0. -1.
</event>
<event>
 7    1  0.8891912E-012  0.5930193E+02  0.7816164E-02  0.1266605E+00
        -11   -1    0    0    0    0  0.00000000000E+00  0.00000000000E+00  0.45593999997E+02  0.45594000000E+02  0.51100000000E-03 0. -1.
         11   -1    0    0    0    0 -0.00000000000E+00 -0.00000000000E+00 -0.45593999997E+02  0.45594000000E+02  0.51100000000E-03 0.  1.
    9900012    2    1    2    0    0 -0.15375147926E+02  0.10705932541E+02 -0.25801340515E+02  0.59301931919E+02  0.49999977916E+02 0.  0.
         12    1    1    2    0    0  0.15375147926E+02 -0.10705932541E+02  0.25801340515E+02  0.31886068081E+02  0.00000000000E+00 0. -1.
         11    1    3    3    0    0 -0.13700501183E+02 -0.13487702535E+01  0.50786547502E+01  0.14673637865E+02  0.51100000000E-03 0. -1.
        -11    1    3    3    0    0  0.12636345618E+02  0.10914938419E+02 -0.10589201888E+02  0.19772311654E+02  0.51100000000E-03 0.  1.
        -12    1    3    3    0    0 -0.14310992361E+02  0.11397643748E+01 -0.20290793377E+02  0.24855982400E+02  0.00000000000E+00 0.  1.
</event>
<event>
 7    1  0.7749294E-012  0.5930195E+02  0.7816164E-02  0.1266605E+00
        -11   -1    0    0    0    0  0.00000000000E+00  0.00000000000E+00  0.45593999997E+02  0.45594000000E+02  0.51100000000E-03 0.  1.
         11   -1    0    0    0    0 -0.00000000000E+00 -0.00000000000E+00 -0.45593999997E+02  0.45594000000E+02  0.51100000000E-03 0. -1.
    9900012    2    1    2    0    0  0.80920835168E+01  0.27663348385E+02  0.13637362877E+02  0.59301947787E+02  0.50000006855E+02 0.  0.
         12    1    1    2    0    0 -0.80920835168E+01 -0.27663348385E+02 -0.13637362877E+02  0.31886052213E+02  0.00000000000E+00 0. -1.
         11    1    3    3    0    0  0.11843677998E+02 -0.72518965017E+01  0.12576896297E+02  0.18736089029E+02  0.51100000000E-03 0. -1.
        -11    1    3    3    0    0 -0.67081079533E+01  0.98164367215E+01  0.80335274647E+01  0.14349170917E+02  0.51100000000E-03 0.  1.
         12    1    3    3    0    0  0.29565134721E+01  0.25098808165E+02 -0.69730608840E+01  0.26216687840E+02  0.00000000000E+00 0. -1.
</event>
<event>
 7    1  0.7749294E-012  0.5930197E+02  0.7816164E-02  0.1266605E+00
        -11   -1    0    0    0    0  0.00000000000E+00  0.00000000000E+00  0.45593999997E+02  0.45594000000E+02  0.51100000000E-03 0.  1.
         11   -1    0    0    0    0 -0.00000000000E+00 -0.00000000000E+00 -0.45593999997E+02  0.45594000000E+02  0.51100000000E-03 0. -1.
    9900012    2    1    2    0    0  0.17916695412E+02  0.34560009017E+01  0.26148941654E+02  0.59301967536E+02  0.50000042873E+02 0.  0.
         12    1    1    2    0    0 -0.17916695412E+02 -0.34560009017E+01 -0.26148941654E+02  0.31886032464E+02  0.00000000000E+00 0. -1.
         11    1    3    3    0    0  0.83297743124E+01 -0.24270277081E+01 -0.10265650570E+02  0.13440951807E+02  0.51100000000E-03 0. -1.
        -11    1    3    3    0    0  0.73809767589E+01  0.13919184657E+02  0.33522069771E+02  0.37039866110E+02  0.51100000000E-03 0.  1.
        -12    1    3    3    0    0  0.22059443407E+01 -0.80361560471E+01  0.28925224529E+01  0.88211496183E+01  0.00000000000E+00 0.  1.
</event>
<event>
 7    1  0.7749294E-012  0.5930194E+02  0.7816164E-02  0.1266605E+00
        -11   -1    0    0    0    0  0.00000000000E+00  0.00000000000E+00  0.45593999997E+02  0.45594000000E+02  0.51100000000E-03 0. -1.
         11   -1    0    0    0    0 -0.00000000000E+00 -0.00000000000E+00 -0.45593999997E+02  0.45594000000E+02  0.51100000000E-03 0.  1.
    9900012    2    1    2    0    0  0.14676109417E+02  0.77989302434E+01 -0.27212302333E+02  0.59301938800E+02  0.49999990466E+02 0.  0.
         12    1    1    2    0    0 -0.14676109417E+02 -0.77989302434E+01  0.27212302333E+02  0.31886061200E+02  0.00000000000E+00 0. -1.
         11    1    3    3    0    0 -0.24169729431E+01 -0.30012174388E+01 -0.21408271133E+02  0.21752313382E+02  0.51100000000E-03 0. -1.
        -11    1    3    3    0    0 -0.28345210543E-01  0.18371748530E+02 -0.25464516177E+01  0.18547408542E+02  0.51100000000E-03 0.  1.
        -12    1    3    3    0    0  0.17121427571E+02 -0.75716008480E+01 -0.32575795830E+01  0.19002216876E+02  0.00000000000E+00 0.  1.
</event>
<event>
 7    1  0.7749294E-012  0.5930195E+02  0.7816164E-02  0.1266605E+00
        -11   -1    0    0    0    0  0.00000000000E+00  0.00000000000E+00  0.45593999997E+02  0.45594000000E+02  0.51100000000E-03 0.  1.
         11   -1    0    0    0    0 -0.00000000000E+00 -0.00000000000E+00 -0.45593999997E+02  0.45594000000E+02  0.51100000000E-03 0. -1.
    9900012    2    1    2    0    0  0.10661005075E+02  0.27306849646E+02  0.12545874148E+02  0.59301952504E+02  0.50000015458E+02 0.  0.
         12    1    1    2    0    0 -0.10661005075E+02 -0.27306849646E+02 -0.12545874148E+02  0.31886047496E+02  0.00000000000E+00 0. -1.
         11    1    3    3    0    0  0.31058865991E+01 -0.57064526150E+01 -0.38591926222E+01  0.75566858457E+01  0.51100000000E-03 0. -1.
        -11    1    3    3    0    0  0.21463125965E+02  0.15810568453E+02  0.11783517707E+02  0.29146031305E+02  0.51100000000E-03 0.  1.
        -12    1    3    3    0    0 -0.13908007489E+02  0.17202733808E+02  0.46215490632E+01  0.22599235353E+02  0.00000000000E+00 0.  1.
</event>
<event>
 7    1  0.7749294E-012  0.5930196E+02  0.7816164E-02  0.1266605E+00
        -11   -1    0    0    0    0  0.00000000000E+00  0.00000000000E+00  0.45593999997E+02  0.45594000000E+02  0.51100000000E-03 0.  1.
         11   -1    0    0    0    0 -0.00000000000E+00 -0.00000000000E+00 -0.45593999997E+02  0.45594000000E+02  0.51100000000E-03 0. -1.
    9900012    2    1    2    0    0 -0.21303964422E+02 -0.67629788511E+01  0.22740340128E+02  0.59301955212E+02  0.50000020398E+02 0.  0.
         12    1    1    2    0    0  0.21303964422E+02  0.67629788511E+01 -0.22740340128E+02  0.31886044788E+02  0.00000000000E+00 0. -1.
         11    1    3    3    0    0  0.37511768885E+01  0.37079552253E+01 -0.35807036488E+00  0.52866316922E+01  0.51100000000E-03 0. -1.
        -11    1    3    3    0    0 -0.25454809450E+02  0.74498337946E+01  0.24405250661E+02  0.36042524992E+02  0.51100000000E-03 0.  1.
        -12    1    3    3    0    0  0.39966813953E+00 -0.17920767871E+02 -0.13068401677E+01  0.17972798528E+02  0.00000000000E+00 0.  1.
</event>
<event>
 7    1  0.7749294E-012  0.5930194E+02  0.7816164E-02  0.1266605E+00
        -11   -1    0    0    0    0  0.00000000000E+00  0.00000000000E+00  0.45593999997E+02  0.45594000000E+02  0.51100000000E-03 0. -1.
         11   -1    0    0    0    0 -0.00000000000E+00 -0.00000000000E+00 -0.45593999997E+02  0.45594000000E+02  0.51100000000E-03 0.  1.
    9900012    2    1    2    0    0  0.19532292138E+02 -0.95039735236E+01 -0.23342772045E+02  0.59301937910E+02  0.49999988842E+02 0.  0.
         12    1    1    2    0    0 -0.19532292138E+02  0.95039735236E+01  0.23342772045E+02  0.31886062090E+02  0.00000000000E+00 0. -1.
         11    1    3    3    0    0  0.40687565744E+01 -0.71286461702E+01  0.58099110059E+01  0.10056214121E+02  0.51100000000E-03 0. -1.
        -11    1    3    3    0    0 -0.39277750580E+01  0.19627722567E+01 -0.29044773753E+02  0.29374798288E+02  0.51100000000E-03 0.  1.
        -12    1    3    3    0    0  0.19391310621E+02 -0.43380996101E+01 -0.10790929730E+00  0.19870925501E+02  0.00000000000E+00 0.  1.
</event>
<event>
 7    1  0.7749294E-012  0.5930192E+02  0.7816164E-02  0.1266605E+00
        -11   -1    0    0    0    0  0.00000000000E+00  0.00000000000E+00  0.45593999997E+02  0.45594000000E+02  0.51100000000E-03 0. -1.
         11   -1    0    0    0    0 -0.00000000000E+00 -0.00000000000E+00 -0.45593999997E+02  0.45594000000E+02  0.51100000000E-03 0.  1.
    9900012    2    1    2    0    0  0.52827293925E+01 -0.67355499283E+01 -0.30715583885E+02  0.59301922222E+02  0.49999960232E+02 0.  0.
         12    1    1    2    0    0 -0.52827293925E+01  0.67355499283E+01  0.30715583885E+02  0.31886077778E+02  0.00000000000E+00 0. -1.
         11    1    3    3    0    0 -0.15187741841E+02 -0.40211124889E+01 -0.29046030758E+02  0.33022851951E+02  0.51100000000E-03 0. -1.
        -11    1    3    3    0    0  0.79285413992E+01  0.50431933085E+01 -0.57009498830E+01  0.10990741435E+02  0.51100000000E-03 0.  1.
         12    1    3    3    0    0  0.12541929835E+02 -0.77576307480E+01  0.40313967568E+01  0.15288328836E+02  0.00000000000E+00 0. -1.
</event>
<event>
 7    1  0.7749294E-012  0.5930193E+02  0.7816164E-02  0.1266605E+00
        -11   -1    0    0    0    0  0.00000000000E+00  0.00000000000E+00  0.45593999997E+02  0.45594000000E+02  0.51100000000E-03 0.  1.
         11   -1    0    0    0    0 -0.00000000000E+00 -0.00000000000E+00 -0.45593999997E+02  0.45594000000E+02  0.51100000000E-03 0. -1.
    9900012    2    1    2    0    0 -0.42210440149E+01 -0.27755129589E+02 -0.15118109344E+02  0.59301926846E+02  0.49999968664E+02 0.  0.
         12    1    1    2    0    0  0.42210440149E+01  0.27755129589E+02  0.15118109344E+02  0.31886073154E+02  0.00000000000E+00 0. -1.
         11    1    3    3    0    0 -0.33540435353E+00 -0.73578554474E+01 -0.11384330711E+02  0.13559259525E+02  0.51100000000E-03 0. -1.
        -11    1    3    3    0    0 -0.17550496317E+02 -0.10562959025E+02  0.11105310366E+02  0.23300728377E+02  0.51100000000E-03 0.  1.
        -12    1    3    3    0    0  0.13664856656E+02 -0.98343151169E+01 -0.14839088998E+02  0.22441938943E+02  0.00000000000E+00 0.  1.
</event>
<event>
 7    1  0.7749294E-012  0.5930195E+02  0.7816164E-02  0.1266605E+00
        -11   -1    0    0    0    0  0.00000000000E+00  0.00000000000E+00  0.45593999997E+02  0.45594000000E+02  0.51100000000E-03 0. -1.
         11   -1    0    0    0    0 -0.00000000000E+00 -0.00000000000E+00 -0.45593999997E+02  0.45594000000E+02  0.51100000000E-03 0.  1.
    9900012    2    1    2    0    0  0.17465771704E+02  0.21377148279E+02 -0.15958830686E+02  0.59301954045E+02  0.50000018270E+02 0.  0.
         12    1    1    2    0    0 -0.17465771704E+02 -0.21377148279E+02  0.15958830686E+02  0.31886045955E+02  0.00000000000E+00 0. -1.
         11    1    3    3    0    0 -0.75187741023E+01  0.20025268767E+02  0.53751374441E+01  0.22055281816E+02  0.51100000000E-03 0. -1.
        -11    1    3    3    0    0  0.13802193604E+02  0.71772110700E+01 -0.44623289904E+01  0.16184106008E+02  0.51100000000E-03 0.  1.
         12    1    3    3    0    0  0.11182352203E+02 -0.58253315580E+01 -0.16871639140E+02  0.21062566221E+02  0.00000000000E+00 0. -1.
</event>
<event>
 7    1  0.7749294E-012  0.5930193E+02  0.7816164E-02  0.1266605E+00
        -11   -1    0    0    0    0  0.00000000000E+00  0.00000000000E+00  0.45593999997E+02  0.45594000000E+02  0.51100000000E-03 0. -1.
         11   -1    0    0    0    0 -0.00000000000E+00 -0.00000000000E+00 -0.45593999997E+02  0.45594000000E+02  0.51100000000E-03 0.  1.
    9900012    2    1    2    0    0  0.29846484634E+02  0.56598426603E+01  0.96889271624E+01  0.59301925085E+02  0.49999965453E+02 0.  0.
         12    1    1    2    0    0 -0.29846484634E+02 -0.56598426603E+01 -0.96889271624E+01  0.31886074915E+02  0.00000000000E+00 0. -1.
         11    1    3    3    0    0  0.15039550970E+01 -0.23399044060E+01  0.74641515621E+01  0.79655880113E+01  0.51100000000E-03 0. -1.
        -11    1    3    3    0    0  0.86401628579E+01  0.24191109295E+02 -0.47355700381E+00  0.25692147431E+02  0.51100000000E-03 0.  1.
        -12    1    3    3    0    0  0.19702366679E+02 -0.16191362229E+02  0.26983326040E+01  0.25644189642E+02  0.00000000000E+00 0.  1.
</event>
<event>
 7    1  0.7749294E-012  0.5930194E+02  0.7816164E-02  0.1266605E+00
        -11   -1    0    0    0    0  0.00000000000E+00  0.00000000000E+00  0.45593999997E+02  0.45594000000E+02  0.51100000000E-03 0. -1.
         11   -1    0    0    0    0 -0.00000000000E+00 -0.00000000000E+00 -0.45593999997E+02  0.45594000000E+02  0.51100000000E-03 0.  1.
    9900012    2    1    2    0    0  0.30296596397E+02  0.73577808052E+01  0.66858197174E+01  0.59301939144E+02  0.49999991093E+02 0.  0.
         12    1    1    2    0    0 -0.30296596397E+02 -0.73577808052E+01 -0.66858197174E+01  0.31886060856E+02  0.00000000000E+00 0. -1.
         11    1    3    3    0    0  0.21085325476E+02 -0.33172881232E+00  0.91252650838E+01  0.22977629502E+02  0.51100000000E-03 0. -1.
        -11    1    3    3    0    0  0.51938371015E+01 -0.61452153507E+01 -0.15123013247E+02  0.17130240671E+02  0.51100000000E-03 0.  1.
         12    1    3    3    0    0  0.40174338196E+01  0.13834724968E+02  0.12683567880E+02  0.19194068970E+02  0.00000000000E+00 0. -1.
</event>
<event>
 7    1  0.7749294E-012  0.5930194E+02  0.7816164E-02  0.1266605E+00
        -11   -1    0    0    0    0  0.00000000000E+00  0.00000000000E+00  0.45593999997E+02  0.45594000000E+02  0.51100000000E-03 0. -1.
         11   -1    0    0    0    0 -0.00000000000E+00 -0.00000000000E+00 -0.45593999997E+02  0.45594000000E+02  0.51100000000E-03 0.  1.
    9900012    2    1    2    0    0 -0.16250365902E+02  0.17523659160E+02 -0.21108472220E+02  0.59301943145E+02  0.49999998390E+02 0.  0.
         12    1    1    2    0    0  0.16250365902E+02 -0.17523659160E+02  0.21108472220E+02  0.31886056855E+02  0.00000000000E+00 0. -1.
         11    1    3    3    0    0 -0.13577815998E+02  0.13002685392E+02  0.12887757371E+02  0.22793007809E+02  0.51100000000E-03 0. -1.
        -11    1    3    3    0    0 -0.22442700434E+00  0.85693859276E+01 -0.22456271859E+02  0.24036823599E+02  0.51100000000E-03 0.  1.
         12    1    3    3    0    0 -0.24481229001E+01 -0.40484121591E+01 -0.11539957731E+02  0.12472111737E+02  0.00000000000E+00 0. -1.
</event>
<event>
 7    1  0.7749294E-012  0.5930196E+02  0.7816164E-02  0.1266605E+00
        -11   -1    0    0    0    0  0.00000000000E+00  0.00000000000E+00  0.45593999997E+02  0.45594000000E+02  0.51100000000E-03 0.  1.
         11   -1    0    0    0    0 -0.00000000000E+00 -0.00000000000E+00 -0.45593999997E+02  0.45594000000E+02  0.51100000000E-03 0. -1.
    9900012    2    1    2    0    0  0.79687414375E+01 -0.20055051173E+02  0.23473678167E+02  0.59301960981E+02  0.50000030918E+02 0.  0.
         12    1    1    2    0    0 -0.79687414375E+01  0.20055051173E+02 -0.23473678167E+02  0.31886039019E+02  0.00000000000E+00 0. -1.
         11    1    3    3    0    0 -0.12546229170E+02 -0.64116181384E+01  0.77217946351E+01  0.16066823774E+02  0.51100000000E-03 0. -1.
        -11    1    3    3    0    0  0.12518134931E+02 -0.15706613630E+02 -0.51722358350E+01  0.20740140734E+02  0.51100000000E-03 0.  1.
        -12    1    3    3    0    0  0.79968356766E+01  0.20631805950E+01  0.20924119367E+02  0.22494996472E+02  0.00000000000E+00 0.  1.
</event>
<event>
 7    1  0.7749294E-012  0.5930204E+02  0.7816164E-02  0.1266604E+00
        -11   -1    0    0    0    0  0.00000000000E+00  0.00000000000E+00  0.45593999997E+02  0.45594000000E+02  0.51100000000E-03 0.  1.
         11   -1    0    0    0    0 -0.00000000000E+00 -0.00000000000E+00 -0.45593999997E+02  0.45594000000E+02  0.51100000000E-03 0. -1.
    9900012    2    1    2    0    0 -0.30577528214E+02 -0.20654479995E+01  0.88013173337E+01  0.59302039234E+02  0.50000173634E+02 0.  0.
         12    1    1    2    0    0  0.30577528214E+02  0.20654479995E+01 -0.88013173337E+01  0.31885960766E+02  0.00000000000E+00 0. -1.
         11    1    3    3    0    0 -0.28332244793E+02 -0.38088111006E+01  0.17621783017E+02  0.33581994789E+02  0.51100000000E-03 0. -1.
        -11    1    3    3    0    0  0.17955707841E+01  0.83274924280E+01 -0.14021950176E+02  0.16406897683E+02  0.51100000000E-03 0.  1.
        -12    1    3    3    0    0 -0.40408542056E+01 -0.65841293270E+01  0.52014844922E+01  0.93131467629E+01  0.00000000000E+00 0.  1.
</event>
<event>
 7    1  0.7749294E-012  0.5930197E+02  0.7816164E-02  0.1266605E+00
        -11   -1    0    0    0    0  0.00000000000E+00  0.00000000000E+00  0.45593999997E+02  0.45594000000E+02  0.51100000000E-03 0. -1.
         11   -1    0    0    0    0 -0.00000000000E+00 -0.00000000000E+00 -0.45593999997E+02  0.45594000000E+02  0.51100000000E-03 0.  1.
    9900012    2    1    2    0    0 -0.34886200450E+01  0.31361360786E+02 -0.45840683724E+01  0.59301966960E+02  0.50000041823E+02 0.  0.
         12    1    1    2    0    0  0.34886200450E+01 -0.31361360786E+02  0.45840683724E+01  0.31886033040E+02  0.00000000000E+00 0. -1.
         11    1    3    3    0    0 -0.83519522935E+01 -0.45586418546E+00  0.62637270126E+01  0.10449746199E+02  0.51100000000E-03 0. -1.
        -11    1    3    3    0    0  0.11449191505E+01  0.38060391771E+02 -0.30593833156E+01  0.38200315288E+02  0.51100000000E-03 0.  1.
         12    1    3    3    0    0  0.37184130980E+01 -0.62431667989E+01 -0.77884120694E+01  0.10651905473E+02  0.00000000000E+00 0. -1.
</event>
<event>
 7    1  0.7749294E-012  0.5930195E+02  0.7816164E-02  0.1266605E+00
        -11   -1    0    0    0    0  0.00000000000E+00  0.00000000000E+00  0.45593999997E+02  0.45594000000E+02  0.51100000000E-03 0.  1.
         11   -1    0    0    0    0 -0.00000000000E+00 -0.00000000000E+00 -0.45593999997E+02  0.45594000000E+02  0.51100000000E-03 0. -1.
    9900012    2    1    2    0    0 -0.26020636914E+02 -0.37198305042E+01  0.18050198843E+02  0.59301947208E+02  0.50000005800E+02 0.  0.
         12    1    1    2    0    0  0.26020636914E+02  0.37198305042E+01 -0.18050198843E+02  0.31886052792E+02  0.00000000000E+00 0. -1.
         11    1    3    3    0    0  0.66257624155E+01  0.14509146677E+02  0.70658150894E+00  0.15966067850E+02  0.51100000000E-03 0. -1.
        -11    1    3    3    0    0 -0.16692674022E+02 -0.16145402912E+02  0.13237065624E+02  0.26730868070E+02  0.51100000000E-03 0.  1.
         12    1    3    3    0    0 -0.15953725307E+02 -0.20835742699E+01  0.41065517102E+01  0.16605011288E+02  0.00000000000E+00 0. -1.
</event>
<event>
 7    1  0.7749294E-012  0.5930194E+02  0.7816164E-02  0.1266605E+00
        -11   -1    0    0    0    0  0.00000000000E+00  0.00000000000E+00  0.45593999997E+02  0.45594000000E+02  0.51100000000E-03 0. -1.
         11   -1    0    0    0    0 -0.00000000000E+00 -0.00000000000E+00 -0.45593999997E+02  0.45594000000E+02  0.51100000000E-03 0.  1.
    9900012    2    1    2    0    0 -0.64348378580E+01 -0.21217752356E+02 -0.22915512193E+02  0.59301939529E+02  0.49999991795E+02 0.  0.
         12    1    1    2    0    0  0.64348378580E+01  0.21217752356E+02  0.22915512193E+02  0.31886060471E+02  0.00000000000E+00 0. -1.
         11    1    3    3    0    0 -0.62673143902E+01 -0.11036943395E+02  0.93805476696E+01  0.15782522739E+02  0.51100000000E-03 0. -1.
        -11    1    3    3    0    0 -0.48900545353E+01 -0.14110673162E+02 -0.34007190074E+02  0.37141791925E+02  0.51100000000E-03 0.  1.
        -12    1    3    3    0    0  0.47225310675E+01  0.39298642002E+01  0.17111302116E+01  0.63776248649E+01  0.00000000000E+00 0.  1.
</event>
<event>
 7    1  0.7749294E-012  0.5930193E+02  0.7816164E-02  0.1266605E+00
        -11   -1    0    0    0    0  0.00000000000E+00  0.00000000000E+00  0.45593999997E+02  0.45594000000E+02  0.51100000000E-03 0. -1.
         11   -1    0    0    0    0 -0.00000000000E+00 -0.00000000000E+00 -0.45593999997E+02  0.45594000000E+02  0.51100000000E-03 0.  1.
    9900012    2    1    2    0    0  0.20296438026E+02 -0.23740302046E+02 -0.64166956630E+01  0.59301932180E+02  0.49999978393E+02 0.  0.
         12    1    1    2    0    0 -0.20296438026E+02  0.23740302046E+02  0.64166956630E+01  0.31886067820E+02  0.00000000000E+00 0. -1.
         11    1    3    3    0    0 -0.78792054874E+01  0.22469959938E+01  0.15136203501E+01  0.83319815731E+01  0.51100000000E-03 0. -1.
        -11    1    3    3    0    0  0.18740837330E+02 -0.16663736248E+02  0.11382946041E+02  0.27540344051E+02  0.51100000000E-03 0.  1.
        -12    1    3    3    0    0  0.94348061839E+01 -0.93235617913E+01 -0.19313262054E+02  0.23429606556E+02  0.00000000000E+00 0.  1.
</event>
<event>
 7    1  0.7749294E-012  0.5930194E+02  0.7816164E-02  0.1266605E+00
        -11   -1    0    0    0    0  0.00000000000E+00  0.00000000000E+00  0.45593999997E+02  0.45594000000E+02  0.51100000000E-03 0. -1.
         11   -1    0    0    0    0 -0.00000000000E+00 -0.00000000000E+00 -0.45593999997E+02  0.45594000000E+02  0.51100000000E-03 0.  1.
    9900012    2    1    2    0    0 -0.16309765180E+02  0.19512117266E+02 -0.19235109480E+02  0.59301943531E+02  0.49999999095E+02 0.  0.
         12    1    1    2    0    0  0.16309765180E+02 -0.19512117266E+02  0.19235109480E+02  0.31886056469E+02  0.00000000000E+00 0. -1.
         11    1    3    3    0    0  0.54628408421E+01  0.11660556676E+02  0.16389117281E+01  0.12980648827E+02  0.51100000000E-03 0. -1.
        -11    1    3    3    0    0 -0.99086072828E+01 -0.93261486009E+01  0.36759840177E+01  0.14095048945E+02  0.51100000000E-03 0.  1.
        -12    1    3    3    0    0 -0.11863998739E+02  0.17177709192E+02 -0.24550005225E+02  0.32226245759E+02  0.00000000000E+00 0.  1.
</event>
<event>
 7    1  0.7749294E-012  0.5930192E+02  0.7816164E-02  0.1266605E+00
        -11   -1    0    0    0    0  0.00000000000E+00  0.00000000000E+00  0.45593999997E+02  0.45594000000E+02  0.51100000000E-03 0.  1.
         11   -1    0    0    0    0 -0.00000000000E+00 -0.00000000000E+00 -0.45593999997E+02  0.45594000000E+02  0.51100000000E-03 0. -1.
    9900012    2    1    2    0    0 -0.32973142843E+01 -0.72284772911E+01  0.30880398765E+02  0.59301918502E+02  0.49999953447E+02 0.  0.
         12    1    1    2    0    0  0.32973142843E+01  0.72284772911E+01 -0.30880398765E+02  0.31886081498E+02  0.00000000000E+00 0. -1.
         11    1    3    3    0    0  0.38076238446E+01  0.12257594168E+02  0.68480518827E+00  0.12853620989E+02  0.51100000000E-03 0. -1.
        -11    1    3    3    0    0 -0.22910624104E+00 -0.21124818405E+02  0.32715839753E+02  0.38944018967E+02  0.51100000000E-03 0.  1.
        -12    1    3    3    0    0 -0.68758318879E+01  0.16387469463E+01 -0.25202461763E+01  0.75042785459E+01  0.00000000000E+00 0.  1.
</event>
<event>
 7    1  0.7749294E-012  0.5930181E+02  0.7816164E-02  0.1266605E+00
        -11   -1    0    0    0    0  0.00000000000E+00  0.00000000000E+00  0.45593999997E+02  0.45594000000E+02  0.51100000000E-03 0.  1.
         11   -1    0    0    0    0 -0.00000000000E+00 -0.00000000000E+00 -0.45593999997E+02  0.45594000000E+02  0.51100000000E-03 0. -1.
    9900012    2    1    2    0    0 -0.14104598207E+02 -0.25400503746E+02  0.13137885050E+02  0.59301806989E+02  0.49999750073E+02 0.  0.
         12    1    1    2    0    0  0.14104598207E+02  0.25400503746E+02 -0.13137885050E+02  0.31886193011E+02  0.00000000000E+00 0. -1.
         11    1    3    3    0    0 -0.42756393027E+01 -0.32336078706E+01 -0.13176389889E+02  0.14225138385E+02  0.51100000000E-03 0. -1.
        -11    1    3    3    0    0 -0.16713038860E+02 -0.22880744779E+02  0.25478811069E+02  0.38105432202E+02  0.51100000000E-03 0.  1.
         12    1    3    3    0    0  0.68840799556E+01  0.71384890321E+00  0.83546386988E+00  0.69712364018E+01  0.00000000000E+00 0. -1.
</event>
<event>
 7    1  0.7749294E-012  0.5930191E+02  0.7816164E-02  0.1266605E+00
        -11   -1    0    0    0    0  0.00000000000E+00  0.00000000000E+00  0.45593999997E+02  0.45594000000E+02  0.51100000000E-03 0.  1.
         11   -1    0    0    0    0 -0.00000000000E+00 -0.00000000000E+00 -0.45593999997E+02  0.45594000000E+02  0.51100000000E-03 0. -1.
    9900012    2    1    2    0    0 -0.10051360892E+02 -0.20285176569E+02  0.22454498234E+02  0.59301910006E+02  0.49999937952E+02 0.  0.
         12    1    1    2    0    0  0.10051360892E+02  0.20285176569E+02 -0.22454498234E+02  0.31886089994E+02  0.00000000000E+00 0. -1.
         11    1    3    3    0    0  0.39374295541E+01 -0.58178916895E+01  0.25343115834E+02  0.26298759204E+02  0.51100000000E-03 0. -1.
        -11    1    3    3    0    0 -0.40791817453E+01 -0.20227489321E+02  0.15928359537E+01  0.20696090805E+02  0.51100000000E-03 0.  1.
         12    1    3    3    0    0 -0.99096087005E+01  0.57602044422E+01 -0.44814535546E+01  0.12307059997E+02  0.00000000000E+00 0. -1.
</event>
<event>
 7    1  0.7749294E-012  0.5930195E+02  0.7816164E-02  0.1266605E+00
        -11   -1    0    0    0    0  0.00000000000E+00  0.00000000000E+00  0.45593999997E+02  0.45594000000E+02  0.51100000000E-03 0. -1.
         11   -1    0    0    0    0 -0.00000000000E+00 -0.00000000000E+00 -0.45593999997E+02  0.45594000000E+02  0.51100000000E-03 0.  1.
    9900012    2    1    2    0    0  0.35811826651E+01 -0.23108841881E+02 -0.21676646204E+02  0.59301946105E+02  0.50000003788E+02 0.  0.
         12    1    1    2    0    0 -0.35811826651E+01  0.23108841881E+02  0.21676646204E+02  0.31886053895E+02  0.00000000000E+00 0. -1.
         11    1    3    3    0    0  0.97269785761E+01  0.12508662919E+01 -0.13323510120E+02  0.16543720890E+02  0.51100000000E-03 0. -1.
        -11    1    3    3    0    0 -0.47698048898E+01 -0.98884290532E+01  0.12944047830E+02  0.16972932637E+02  0.51100000000E-03 0.  1.
        -12    1    3    3    0    0 -0.13759910211E+01 -0.14471279120E+02 -0.21297183913E+02  0.25785292577E+02  0.00000000000E+00 0.  1.
</event>
<event>
 7    1  0.7749294E-012  0.5930194E+02  0.7816164E-02  0.1266605E+00
        -11   -1    0    0    0    0  0.00000000000E+00  0.00000000000E+00  0.45593999997E+02  0.45594000000E+02  0.51100000000E-03 0.  1.
         11   -1    0    0    0    0 -0.00000000000E+00 -0.00000000000E+00 -0.45593999997E+02  0.45594000000E+02  0.51100000000E-03 0. -1.
    9900012    2    1    2    0    0 -0.28154514982E+02 -0.32050283896E+01  0.14620951399E+02  0.59301935009E+02  0.49999983551E+02 0.  0.
         12    1    1    2    0    0  0.28154514982E+02  0.32050283896E+01 -0.14620951399E+02  0.31886064991E+02  0.00000000000E+00 0. -1.
         11    1    3    3    0    0 -0.40072842682E+02 -0.40283962982E+01  0.10412590256E+02  0.41599071305E+02  0.51100000000E-03 0. -1.
        -11    1    3    3    0    0  0.30063743283E+01  0.30044236083E+01 -0.36654376790E+01  0.56125111545E+01  0.51100000000E-03 0.  1.
         12    1    3    3    0    0  0.89119533720E+01 -0.21810556996E+01  0.78737988214E+01  0.12090352549E+02  0.00000000000E+00 0. -1.
</event>
<event>
 7    1  0.7749294E-012  0.5930195E+02  0.7816164E-02  0.1266605E+00
        -11   -1    0    0    0    0  0.00000000000E+00  0.00000000000E+00  0.45593999997E+02  0.45594000000E+02  0.51100000000E-03 0.  1.
         11   -1    0    0    0    0 -0.00000000000E+00 -0.00000000000E+00 -0.45593999997E+02  0.45594000000E+02  0.51100000000E-03 0. -1.
    9900012    2    1    2    0    0  0.21808302398E+02 -0.15442103670E+00  0.23261430650E+02  0.59301952029E+02  0.50000014592E+02 0.  0.
         12    1    1    2    0    0 -0.21808302398E+02  0.15442103670E+00 -0.23261430650E+02  0.31886047971E+02  0.00000000000E+00 0. -1.
         11    1    3    3    0    0  0.13515413227E+02  0.12491115965E+02 -0.55598933696E+01  0.19225160267E+02  0.51100000000E-03 0. -1.
        -11    1    3    3    0    0 -0.12953309267E+01  0.33100211722E+00  0.22824802007E+02  0.22863924237E+02  0.51100000000E-03 0.  1.
        -12    1    3    3    0    0  0.95882200978E+01 -0.12976539119E+02  0.59965220127E+01  0.17212867524E+02  0.00000000000E+00 0.  1.
</event>
<event>
 7    1  0.7749294E-012  0.5930195E+02  0.7816164E-02  0.1266605E+00
        -11   -1    0    0    0    0  0.00000000000E+00  0.00000000000E+00  0.45593999997E+02  0.45594000000E+02  0.51100000000E-03 0. -1.
         11   -1    0    0    0    0 -0.00000000000E+00 -0.00000000000E+00 -0.45593999997E+02  0.45594000000E+02  0.51100000000E-03 0.  1.
    9900012    2    1    2    0    0 -0.15626573350E+02  0.92193300337E+01 -0.26220880807E+02  0.59301946133E+02  0.50000003839E+02 0.  0.
         12    1    1    2    0    0  0.15626573350E+02 -0.92193300337E+01  0.26220880807E+02  0.31886053867E+02  0.00000000000E+00 0. -1.
         11    1    3    3    0    0 -0.57824886884E+01 -0.17853747715E+01  0.23072188391E+01  0.64767273788E+01  0.51100000000E-03 0. -1.
        -11    1    3    3    0    0  0.29386389767E+01 -0.76460543391E+01 -0.29075962819E+02  0.30207769863E+02  0.51100000000E-03 0.  1.
        -12    1    3    3    0    0 -0.12782723639E+02  0.18650759144E+02  0.54786317296E+00  0.22617448891E+02  0.00000000000E+00 0.  1.
</event>
<event>
 7    1  0.7749294E-012  0.5930196E+02  0.7816164E-02  0.1266605E+00
        -11   -1    0    0    0    0  0.00000000000E+00  0.00000000000E+00  0.45593999997E+02  0.45594000000E+02  0.51100000000E-03 0. -1.
         11   -1    0    0    0    0 -0.00000000000E+00 -0.00000000000E+00 -0.45593999997E+02  0.45594000000E+02  0.51100000000E-03 0.  1.
    9900012    2    1    2    0    0 -0.16564048708E+02  0.64380149093E+01 -0.26474589292E+02  0.59301958795E+02  0.50000026932E+02 0.  0.
         12    1    1    2    0    0  0.16564048708E+02 -0.64380149093E+01  0.26474589292E+02  0.31886041205E+02  0.00000000000E+00 0. -1.
         11    1    3    3    0    0  0.75083067833E+01 -0.13082989481E+02  0.13545584328E+01  0.15145101958E+02  0.51100000000E-03 0. -1.
        -11    1    3    3    0    0 -0.25628844901E+02  0.16179920282E+02 -0.22826835497E+02  0.37943272531E+02  0.51100000000E-03 0.  1.
        -12    1    3    3    0    0  0.15564894102E+01  0.33410841091E+01 -0.50023122270E+01  0.62135843057E+01  0.00000000000E+00 0.  1.
</event>
<event>
 7    1  0.7749294E-012  0.5930197E+02  0.7816164E-02  0.1266605E+00
        -11   -1    0    0    0    0  0.00000000000E+00  0.00000000000E+00  0.45593999997E+02  0.45594000000E+02  0.51100000000E-03 0. -1.
         11   -1    0    0    0    0 -0.00000000000E+00 -0.00000000000E+00 -0.45593999997E+02  0.45594000000E+02  0.51100000000E-03 0.  1.
    9900012    2    1    2    0    0 -0.13831211554E+02 -0.33159237692E+01 -0.28538070047E+02  0.59301965354E+02  0.50000038893E+02 0.  0.
         12    1    1    2    0    0  0.13831211554E+02  0.33159237692E+01  0.28538070047E+02  0.31886034646E+02  0.00000000000E+00 0. -1.
         11    1    3    3    0    0 -0.44440736694E+01 -0.15733378426E+02 -0.42767696299E+01  0.16899104893E+02  0.51100000000E-03 0. -1.
        -11    1    3    3    0    0 -0.12846202678E+02  0.19677571373E+02 -0.25019664564E+02  0.34325141712E+02  0.51100000000E-03 0.  1.
        -12    1    3    3    0    0  0.34590647938E+01 -0.72601167168E+01  0.75836414753E+00  0.80777187479E+01  0.00000000000E+00 0.  1.
</event>
<event>
 7    1  0.7749294E-012  0.5930194E+02  0.7816164E-02  0.1266605E+00
        -11   -1    0    0    0    0  0.00000000000E+00  0.00000000000E+00  0.45593999997E+02  0.45594000000E+02  0.51100000000E-03 0. -1.
         11   -1    0    0    0    0 -0.00000000000E+00 -0.00000000000E+00 -0.45593999997E+02  0.45594000000E+02  0.51100000000E-03 0.  1.
    9900012    2    1    2    0    0  0.20924291758E+02 -0.23730772019E+02 -0.39680011772E+01  0.59301944121E+02  0.50000000169E+02 0.  0.
         12    1    1    2    0    0 -0.20924291758E+02  0.23730772019E+02  0.39680011772E+01  0.31886055879E+02  0.00000000000E+00 0. -1.
         11    1    3    3    0    0 -0.61992534620E+01 -0.61694905522E+01 -0.92761407908E+01  0.12749123319E+02  0.51100000000E-03 0. -1.
        -11    1    3    3    0    0  0.34038758815E+02 -0.18603843200E+02  0.20700366965E+01  0.38846172729E+02  0.51100000000E-03 0.  1.
        -12    1    3    3    0    0 -0.69152135945E+01  0.10425617334E+01  0.32381029172E+01  0.77066480734E+01  0.00000000000E+00 0.  1.
</event>
<event>
 7    1  0.7749294E-012  0.5930194E+02  0.7816164E-02  0.1266605E+00
        -11   -1    0    0    0    0  0.00000000000E+00  0.00000000000E+00  0.45593999997E+02  0.45594000000E+02  0.51100000000E-03 0.  1.
         11   -1    0    0    0    0 -0.00000000000E+00 -0.00000000000E+00 -0.45593999997E+02  0.45594000000E+02  0.51100000000E-03 0. -1.
    9900012    2    1    2    0    0  0.31227086496E+01 -0.19524801839E+02  0.25015026603E+02  0.59301941101E+02  0.49999994663E+02 0.  0.
         12    1    1    2    0    0 -0.31227086496E+01  0.19524801839E+02 -0.25015026603E+02  0.31886058899E+02  0.00000000000E+00 0. -1.
         11    1    3    3    0    0 -0.11100928057E+02 -0.20377385328E+02 -0.28857919949E+01  0.23383674481E+02  0.51100000000E-03 0.  1.
        -11    1    3    3    0    0  0.99376359949E+01 -0.14481772024E+01  0.29203800849E+02  0.30882289595E+02  0.51100000000E-03 0. -1.
        -12    1    3    3    0    0  0.42860007113E+01  0.23007606915E+01 -0.13029822509E+01  0.50359770257E+01  0.00000000000E+00 0.  1.
</event>
<event>
 7    1  0.7749294E-012  0.5930175E+02  0.7816164E-02  0.1266605E+00
        -11   -1    0    0    0    0  0.00000000000E+00  0.00000000000E+00  0.45593999997E+02  0.45594000000E+02  0.51100000000E-03 0. -1.
         11   -1    0    0    0    0 -0.00000000000E+00 -0.00000000000E+00 -0.45593999997E+02  0.45594000000E+02  0.51100000000E-03 0.  1.
    9900012    2    1    2    0    0 -0.77867200949E+01 -0.73620561571E+01 -0.30031649693E+02  0.59301751178E+02  0.49999648287E+02 0.  0.
         12    1    1    2    0    0  0.77867200949E+01  0.73620561571E+01  0.30031649693E+02  0.31886248822E+02  0.00000000000E+00 0. -1.
         11    1    3    3    0    0 -0.12489993911E+01  0.12324208923E+02 -0.35573718339E+02  0.37668761086E+02  0.51100000000E-03 0.  1.
        -11    1    3    3    0    0 -0.35319622324E+01 -0.14128287433E+02  0.43879178516E+01  0.15209769438E+02  0.51100000000E-03 0. -1.
        -12    1    3    3    0    0 -0.30057584714E+01 -0.55579776466E+01  0.11541507949E+01  0.64232206537E+01  0.00000000000E+00 0.  1.
</event>
<event>
 7    1  0.7749294E-012  0.5930196E+02  0.7816164E-02  0.1266605E+00
        -11   -1    0    0    0    0  0.00000000000E+00  0.00000000000E+00  0.45593999997E+02  0.45594000000E+02  0.51100000000E-03 0.  1.
         11   -1    0    0    0    0 -0.00000000000E+00 -0.00000000000E+00 -0.45593999997E+02  0.45594000000E+02  0.51100000000E-03 0. -1.
    9900012    2    1    2    0    0 -0.26526384384E+02 -0.15474198344E+02  0.85802026703E+01  0.59301956646E+02  0.50000023013E+02 0.  0.
         12    1    1    2    0    0  0.26526384384E+02  0.15474198344E+02 -0.85802026703E+01  0.31886043354E+02  0.00000000000E+00 0. -1.
         11    1    3    3    0    0 -0.11087982612E+02 -0.25523225201E+01 -0.15424965268E+02  0.19167348863E+02  0.51100000000E-03 0. -1.
        -11    1    3    3    0    0 -0.17067137983E+02 -0.11509386769E+01  0.51806333249E+01  0.17873187200E+02  0.51100000000E-03 0.  1.
         12    1    3    3    0    0  0.16287362112E+01 -0.11770937147E+02  0.18824534614E+02  0.22261420583E+02  0.00000000000E+00 0. -1.
</event>
<event>
 7    1  0.7749294E-012  0.5930193E+02  0.7816164E-02  0.1266605E+00
        -11   -1    0    0    0    0  0.00000000000E+00  0.00000000000E+00  0.45593999997E+02  0.45594000000E+02  0.51100000000E-03 0. -1.
         11   -1    0    0    0    0 -0.00000000000E+00 -0.00000000000E+00 -0.45593999997E+02  0.45594000000E+02  0.51100000000E-03 0.  1.
    9900012    2    1    2    0    0  0.18517493788E+02 -0.43827512155E+01 -0.25585452427E+02  0.59301929996E+02  0.49999974410E+02 0.  0.
         12    1    1    2    0    0 -0.18517493788E+02  0.43827512155E+01  0.25585452427E+02  0.31886070004E+02  0.00000000000E+00 0. -1.
         11    1    3    3    0    0  0.13832946767E+02  0.12022041012E+02  0.84117064385E+01  0.20165234733E+02  0.51100000000E-03 0. -1.
        -11    1    3    3    0    0  0.46318203574E+01 -0.15491253813E+02 -0.34493951248E+02  0.38095477127E+02  0.51100000000E-03 0.  1.
        -12    1    3    3    0    0  0.52726663547E-01 -0.91353841530E+00  0.49679238305E+00  0.10412181372E+01  0.00000000000E+00 0.  1.
</event>
<event>
 7    1  0.7749294E-012  0.5930194E+02  0.7816164E-02  0.1266605E+00
        -11   -1    0    0    0    0  0.00000000000E+00  0.00000000000E+00  0.45593999997E+02  0.45594000000E+02  0.51100000000E-03 0.  1.
         11   -1    0    0    0    0 -0.00000000000E+00 -0.00000000000E+00 -0.45593999997E+02  0.45594000000E+02  0.51100000000E-03 0. -1.
    9900012    2    1    2    0    0 -0.30774717636E+02 -0.68123127302E+01  0.48197795816E+01  0.59301935246E+02  0.49999983984E+02 0.  0.
         12    1    1    2    0    0  0.30774717636E+02  0.68123127302E+01 -0.48197795816E+01  0.31886064754E+02  0.00000000000E+00 0. -1.
         11    1    3    3    0    0 -0.12596414659E+02 -0.70078702506E+01 -0.75584784099E+01  0.16276071512E+02  0.51100000000E-03 0. -1.
        -11    1    3    3    0    0 -0.11324490062E+02 -0.89652400575E+01  0.23166753929E+02  0.27300514507E+02  0.51100000000E-03 0.  1.
        -12    1    3    3    0    0 -0.68538129143E+01  0.91607975778E+01 -0.10788495938E+02  0.15725349228E+02  0.00000000000E+00 0.  1.
</event>
<event>
 7    1  0.7749294E-012  0.5930195E+02  0.7816164E-02  0.1266605E+00
        -11   -1    0    0    0    0  0.00000000000E+00  0.00000000000E+00  0.45593999997E+02  0.45594000000E+02  0.51100000000E-03 0. -1.
         11   -1    0    0    0    0 -0.00000000000E+00 -0.00000000000E+00 -0.45593999997E+02  0.45594000000E+02  0.51100000000E-03 0.  1.
    9900012    2    1    2    0    0  0.10666664323E+02  0.20134946463E+01 -0.29981465442E+02  0.59301950409E+02  0.50000011637E+02 0.  0.
         12    1    1    2    0    0 -0.10666664323E+02 -0.20134946463E+01  0.29981465442E+02  0.31886049591E+02  0.00000000000E+00 0. -1.
         11    1    3    3    0    0  0.13304125459E+01  0.41973331725E+01  0.82794608458E+01  0.93774770307E+01  0.51100000000E-03 0. -1.
        -11    1    3    3    0    0  0.11443974849E+02  0.11885085375E+02 -0.27567488993E+02  0.32127655756E+02  0.51100000000E-03 0.  1.
        -12    1    3    3    0    0 -0.21077230718E+01 -0.14068923901E+02 -0.10693437295E+02  0.17796817622E+02  0.00000000000E+00 0.  1.
</event>
<event>
 7    1  0.7749294E-012  0.5930196E+02  0.7816164E-02  0.1266605E+00
        -11   -1    0    0    0    0  0.00000000000E+00  0.00000000000E+00  0.45593999997E+02  0.45594000000E+02  0.51100000000E-03 0.  1.
         11   -1    0    0    0    0 -0.00000000000E+00 -0.00000000000E+00 -0.45593999997E+02  0.45594000000E+02  0.51100000000E-03 0. -1.
    9900012    2    1    2    0    0 -0.15471310027E+02  0.22987268563E+02  0.15777951493E+02  0.59301957548E+02  0.50000024657E+02 0.  0.
         12    1    1    2    0    0  0.15471310027E+02 -0.22987268563E+02 -0.15777951493E+02  0.31886042452E+02  0.00000000000E+00 0. -1.
         11    1    3    3    0    0 -0.10657346465E+02 -0.82430588580E+01 -0.96436595072E+01  0.16568863026E+02  0.51100000000E-03 0. -1.
        -11    1    3    3    0    0  0.33299061438E+01  0.20912330663E+02  0.16527367714E+02  0.26862012815E+02  0.51100000000E-03 0.  1.
        -12    1    3    3    0    0 -0.81438697058E+01  0.10317996759E+02  0.88942432865E+01  0.15871081707E+02  0.00000000000E+00 0.  1.
</event>
<event>
 7    1  0.7749294E-012  0.5930201E+02  0.7816164E-02  0.1266605E+00
        -11   -1    0    0    0    0  0.00000000000E+00  0.00000000000E+00  0.45593999997E+02  0.45594000000E+02  0.51100000000E-03 0.  1.
         11   -1    0    0    0    0 -0.00000000000E+00 -0.00000000000E+00 -0.45593999997E+02  0.45594000000E+02  0.51100000000E-03 0. -1.
    9900012    2    1    2    0    0  0.30481443814E+00  0.22287931171E+02  0.22800686432E+02  0.59302014214E+02  0.50000128004E+02 0.  0.
         12    1    1    2    0    0 -0.30481443814E+00 -0.22287931171E+02 -0.22800686432E+02  0.31885985786E+02  0.00000000000E+00 0. -1.
         11    1    3    3    0    0 -0.32533419308E+01 -0.10565972605E+02  0.68932715406E-01  0.11055711772E+02  0.51100000000E-03 0. -1.
        -11    1    3    3    0    0  0.76715987337E+01  0.21731026688E+02  0.27130999856E+02  0.35597501337E+02  0.51100000000E-03 0.  1.
        -12    1    3    3    0    0 -0.41134423647E+01  0.11122877088E+02 -0.43992461386E+01  0.12648801105E+02  0.00000000000E+00 0.  1.
</event>
<event>
 7    1  0.7749294E-012  0.5930204E+02  0.7816164E-02  0.1266604E+00
        -11   -1    0    0    0    0  0.00000000000E+00  0.00000000000E+00  0.45593999997E+02  0.45594000000E+02  0.51100000000E-03 0.  1.
         11   -1    0    0    0    0 -0.00000000000E+00 -0.00000000000E+00 -0.45593999997E+02  0.45594000000E+02  0.51100000000E-03 0. -1.
    9900012    2    1    2    0    0 -0.11023525919E+02  0.29916094317E+02  0.47258641413E+00  0.59302044458E+02  0.50000183161E+02 0.  0.
         12    1    1    2    0    0  0.11023525919E+02 -0.29916094317E+02 -0.47258641413E+00  0.31885955542E+02  0.00000000000E+00 0. -1.
         11    1    3    3    0    0 -0.94905516895E+01  0.45856315821E+01 -0.26360457759E+01  0.10864958627E+02  0.51100000000E-03 0. -1.
        -11    1    3    3    0    0  0.15153468928E+02 -0.10574621913E+01  0.74442389169E+01  0.16916339443E+02  0.51100000000E-03 0.  1.
        -12    1    3    3    0    0 -0.16686443157E+02  0.26387924927E+02 -0.43356067269E+01  0.31520746388E+02  0.00000000000E+00 0.  1.
</event>
<event>
 7    1  0.7749294E-012  0.5930195E+02  0.7816164E-02  0.1266605E+00
        -11   -1    0    0    0    0  0.00000000000E+00  0.00000000000E+00  0.45593999997E+02  0.45594000000E+02  0.51100000000E-03 0.  1.
         11   -1    0    0    0    0 -0.00000000000E+00 -0.00000000000E+00 -0.45593999997E+02  0.45594000000E+02  0.51100000000E-03 0. -1.
    9900012    2    1    2    0    0 -0.16935892891E+02  0.27012671686E+02 -0.45988826946E+00  0.59301946672E+02  0.50000004822E+02 0.  0.
         12    1    1    2    0    0  0.16935892891E+02 -0.27012671686E+02  0.45988826946E+00  0.31886053328E+02  0.00000000000E+00 0. -1.
         11    1    3    3    0    0  0.51267913053E+01  0.29968737975E+02  0.19505134344E+01  0.30466600530E+02  0.51100000000E-03 0. -1.
        -11    1    3    3    0    0 -0.19002991166E+02  0.51946217735E+01 -0.36685050678E+01  0.20038854716E+02  0.51100000000E-03 0.  1.
         12    1    3    3    0    0 -0.30596930296E+01 -0.81506880625E+01  0.12581033639E+01  0.87964914256E+01  0.00000000000E+00 0. -1.
</event>
<event>
 7    1  0.7749294E-012  0.5930179E+02  0.7816164E-02  0.1266605E+00
        -11   -1    0    0    0    0  0.00000000000E+00  0.00000000000E+00  0.45593999997E+02  0.45594000000E+02  0.51100000000E-03 0.  1.
         11   -1    0    0    0    0 -0.00000000000E+00 -0.00000000000E+00 -0.45593999997E+02  0.45594000000E+02  0.51100000000E-03 0. -1.
    9900012    2    1    2    0    0 -0.30851901180E+02  0.79371133465E+01  0.13756815887E+01  0.59301794918E+02  0.49999728059E+02 0.  0.
         12    1    1    2    0    0  0.30851901180E+02 -0.79371133465E+01 -0.13756815887E+01  0.31886205082E+02  0.00000000000E+00 0. -1.
         11    1    3    3    0    0 -0.10861387319E+02 -0.12909573211E+02  0.59329172518E+00  0.16881315421E+02  0.51100000000E-03 0. -1.
        -11    1    3    3    0    0 -0.16621288733E+02  0.28944222687E+02  0.25470386629E+01  0.33474209062E+02  0.51100000000E-03 0.  1.
        -12    1    3    3    0    0 -0.33692251278E+01 -0.80975361291E+01 -0.17646487994E+01  0.89462704357E+01  0.00000000000E+00 0.  1.
</event>
<event>
 7    1  0.7749294E-012  0.5930194E+02  0.7816164E-02  0.1266605E+00
        -11   -1    0    0    0    0  0.00000000000E+00  0.00000000000E+00  0.45593999997E+02  0.45594000000E+02  0.51100000000E-03 0.  1.
         11   -1    0    0    0    0 -0.00000000000E+00 -0.00000000000E+00 -0.45593999997E+02  0.45594000000E+02  0.51100000000E-03 0. -1.
    9900012    2    1    2    0    0 -0.19701118865E+02 -0.21693259038E+02 -0.12569366805E+02  0.59301944206E+02  0.50000000326E+02 0.  0.
         12    1    1    2    0    0  0.19701118865E+02  0.21693259038E+02  0.12569366805E+02  0.31886055794E+02  0.00000000000E+00 0. -1.
         11    1    3    3    0    0  0.65824554194E+01 -0.15248405257E+01 -0.66775333588E+01  0.94996478880E+01  0.51100000000E-03 0. -1.
        -11    1    3    3    0    0 -0.18643479542E+02 -0.21692208748E+02  0.11435422853E+02  0.30804222858E+02  0.51100000000E-03 0.  1.
        -12    1    3    3    0    0 -0.76400947423E+01  0.15237902358E+01 -0.17327256299E+02  0.18998073461E+02  0.00000000000E+00 0.  1.
</event>
<event>
 7    1  0.7749294E-012  0.5930193E+02  0.7816164E-02  0.1266605E+00
        -11   -1    0    0    0    0  0.00000000000E+00  0.00000000000E+00  0.45593999997E+02  0.45594000000E+02  0.51100000000E-03 0.  1.
         11   -1    0    0    0    0 -0.00000000000E+00 -0.00000000000E+00 -0.45593999997E+02  0.45594000000E+02  0.51100000000E-03 0. -1.
    9900012    2    1    2    0    0 -0.19820416333E+02  0.10476736747E+02  0.22674001381E+02  0.59301933214E+02  0.49999980278E+02 0.  0.
         12    1    1    2    0    0  0.19820416333E+02 -0.10476736747E+02 -0.22674001381E+02  0.31886066786E+02  0.00000000000E+00 0. -1.
         11    1    3    3    0    0 -0.20964582763E+02 -0.11014422370E+02 -0.23454888574E+01  0.23797742515E+02  0.51100000000E-03 0.  1.
        -11    1    3    3    0    0  0.48975846553E+01  0.19071718376E+02  0.15748404869E+02  0.25213667592E+02  0.51100000000E-03 0. -1.
        -12    1    3    3    0    0 -0.37534182252E+01  0.24194407412E+01  0.92710853693E+01  0.10290523106E+02  0.00000000000E+00 0.  1.
</event>
<event>
 7    1  0.7749294E-012  0.5930193E+02  0.7816164E-02  0.1266605E+00
        -11   -1    0    0    0    0  0.00000000000E+00  0.00000000000E+00  0.45593999997E+02  0.45594000000E+02  0.51100000000E-03 0. -1.
         11   -1    0    0    0    0 -0.00000000000E+00 -0.00000000000E+00 -0.45593999997E+02  0.45594000000E+02  0.51100000000E-03 0.  1.
    9900012    2    1    2    0    0 -0.94806629996E+00  0.25882148894E+02 -0.18599380499E+02  0.59301930690E+02  0.49999975676E+02 0.  0.
         12    1    1    2    0    0  0.94806629996E+00 -0.25882148894E+02  0.18599380499E+02  0.31886069310E+02  0.00000000000E+00 0. -1.
         11    1    3    3    0    0 -0.11130484956E+02 -0.11339069665E+02  0.82631421641E+00  0.15910530841E+02  0.51100000000E-03 0. -1.
        -11    1    3    3    0    0  0.63233468958E+01  0.17432198557E+02 -0.10823016382E+02  0.21471002454E+02  0.51100000000E-03 0.  1.
         12    1    3    3    0    0  0.38590717599E+01  0.19789020001E+02 -0.86026783331E+01  0.21920397395E+02  0.00000000000E+00 0. -1.
</event>
<event>
 7    1  0.7749294E-012  0.5930193E+02  0.7816164E-02  0.1266605E+00
        -11   -1    0    0    0    0  0.00000000000E+00  0.00000000000E+00  0.45593999997E+02  0.45594000000E+02  0.51100000000E-03 0. -1.
         11   -1    0    0    0    0 -0.00000000000E+00 -0.00000000000E+00 -0.45593999997E+02  0.45594000000E+02  0.51100000000E-03 0.  1.
    9900012    2    1    2    0    0  0.26161097766E+02  0.64401865167E+01 -0.17054111365E+02  0.59301925404E+02  0.49999966035E+02 0.  0.
         12    1    1    2    0    0 -0.26161097766E+02 -0.64401865167E+01  0.17054111365E+02  0.31886074596E+02  0.00000000000E+00 0. -1.
         11    1    3    3    0    0  0.27360478497E+02 -0.10501186659E+02 -0.36633589825E+01  0.29534571338E+02  0.51100000000E-03 0.  1.
        -11    1    3    3    0    0 -0.74096171779E+01  0.49611644634E+01 -0.13610400100E+02  0.16271403465E+02  0.51100000000E-03 0. -1.
         12    1    3    3    0    0  0.62102364462E+01  0.11980208712E+02  0.21964771747E+00  0.13495950601E+02  0.00000000000E+00 0. -1.
</event>
<event>
 7    1  0.7749294E-012  0.5930194E+02  0.7816164E-02  0.1266605E+00
        -11   -1    0    0    0    0  0.00000000000E+00  0.00000000000E+00  0.45593999997E+02  0.45594000000E+02  0.51100000000E-03 0. -1.
         11   -1    0    0    0    0 -0.00000000000E+00 -0.00000000000E+00 -0.45593999997E+02  0.45594000000E+02  0.51100000000E-03 0.  1.
    9900012    2    1    2    0    0 -0.19566704970E+02 -0.23905541900E+02 -0.78987325574E+01  0.59301939520E+02  0.49999991779E+02 0.  0.
         12    1    1    2    0    0  0.19566704970E+02  0.23905541900E+02  0.78987325574E+01  0.31886060480E+02  0.00000000000E+00 0. -1.
         11    1    3    3    0    0 -0.15684655559E+02 -0.19675737996E+02  0.13387561207E+02  0.28502103099E+02  0.51100000000E-03 0. -1.
        -11    1    3    3    0    0  0.57379765704E+01 -0.96242741638E+01 -0.99813169381E+01  0.15005922710E+02  0.51100000000E-03 0.  1.
         12    1    3    3    0    0 -0.96200259816E+01  0.53944702600E+01 -0.11304976827E+02  0.15793913711E+02  0.00000000000E+00 0. -1.
</event>
<event>
 7    1  0.7749294E-012  0.5930197E+02  0.7816164E-02  0.1266605E+00
        -11   -1    0    0    0    0  0.00000000000E+00  0.00000000000E+00  0.45593999997E+02  0.45594000000E+02  0.51100000000E-03 0. -1.
         11   -1    0    0    0    0 -0.00000000000E+00 -0.00000000000E+00 -0.45593999997E+02  0.45594000000E+02  0.51100000000E-03 0.  1.
    9900012    2    1    2    0    0 -0.15837164144E+02  0.15225985412E+02 -0.23110010600E+02  0.59301968735E+02  0.50000045060E+02 0.  0.
         12    1    1    2    0    0  0.15837164144E+02 -0.15225985412E+02  0.23110010600E+02  0.31886031265E+02  0.00000000000E+00 0. -1.
         11    1    3    3    0    0  0.56667790154E+01  0.18733803945E+02 -0.26816011234E+02  0.33198889340E+02  0.51100000000E-03 0. -1.
        -11    1    3    3    0    0 -0.22348346336E+01 -0.38544247619E+01 -0.33557257040E+01  0.55778106230E+01  0.51100000000E-03 0.  1.
         12    1    3    3    0    0 -0.19269108526E+02  0.34660622952E+00  0.70617263384E+01  0.20525268771E+02  0.00000000000E+00 0. -1.
</event>
<event>
 7    1  0.7749294E-012  0.5930192E+02  0.7816164E-02  0.1266605E+00
        -11   -1    0    0    0    0  0.00000000000E+00  0.00000000000E+00  0.45593999997E+02  0.45594000000E+02  0.51100000000E-03 0. -1.
         11   -1    0    0    0    0 -0.00000000000E+00 -0.00000000000E+00 -0.45593999997E+02  0.45594000000E+02  0.51100000000E-03 0.  1.
    9900012    2    1    2    0    0 -0.29670094533E+02 -0.11382681132E+02 -0.26157197104E+01  0.59301922647E+02  0.49999961006E+02 0.  0.
         12    1    1    2    0    0  0.29670094533E+02  0.11382681132E+02  0.26157197104E+01  0.31886077353E+02  0.00000000000E+00 0. -1.
         11    1    3    3    0    0  0.75069406212E+01 -0.36494559706E+01 -0.61593648915E+01  0.10373546284E+02  0.51100000000E-03 0. -1.
        -11    1    3    3    0    0 -0.13632050221E+02  0.66699264094E+01  0.12761613189E+02  0.19828753944E+02  0.51100000000E-03 0.  1.
        -12    1    3    3    0    0 -0.23544984934E+02 -0.14403151571E+02 -0.92179680081E+01  0.29099622419E+02  0.00000000000E+00 0.  1.
</event>
<event>
 7    1  0.7749294E-012  0.5930194E+02  0.7816164E-02  0.1266605E+00
        -11   -1    0    0    0    0  0.00000000000E+00  0.00000000000E+00  0.45593999997E+02  0.45594000000E+02  0.51100000000E-03 0.  1.
         11   -1    0    0    0    0 -0.00000000000E+00 -0.00000000000E+00 -0.45593999997E+02  0.45594000000E+02  0.51100000000E-03 0. -1.
    9900012    2    1    2    0    0  0.65228257941E+01 -0.22337111724E+02  0.21799706279E+02  0.59301937051E+02  0.49999987276E+02 0.  0.
         12    1    1    2    0    0 -0.65228257941E+01  0.22337111724E+02 -0.21799706279E+02  0.31886062949E+02  0.00000000000E+00 0. -1.
         11    1    3    3    0    0  0.90312928816E+00 -0.21905860682E+02  0.80700663993E+01  0.23362541529E+02  0.51100000000E-03 0. -1.
        -11    1    3    3    0    0 -0.35250621482E+01  0.76578914218E+01  0.20367015349E+02  0.22042791989E+02  0.51100000000E-03 0.  1.
        -12    1    3    3    0    0  0.91447586541E+01 -0.80891424640E+01 -0.66373754692E+01  0.13896603533E+02  0.00000000000E+00 0.  1.
</event>
<event>
 7    1  0.7749294E-012  0.5930194E+02  0.7816164E-02  0.1266605E+00
        -11   -1    0    0    0    0  0.00000000000E+00  0.00000000000E+00  0.45593999997E+02  0.45594000000E+02  0.51100000000E-03 0.  1.
         11   -1    0    0    0    0 -0.00000000000E+00 -0.00000000000E+00 -0.45593999997E+02  0.45594000000E+02  0.51100000000E-03 0. -1.
    9900012    2    1    2    0    0 -0.46956043011E+01  0.29468184172E+02  0.11238243088E+02  0.59301942140E+02  0.49999996557E+02 0.  0.
         12    1    1    2    0    0  0.46956043011E+01 -0.29468184172E+02 -0.11238243088E+02  0.31886057860E+02  0.00000000000E+00 0. -1.
         11    1    3    3    0    0 -0.41087705431E+01 -0.74309954782E+01 -0.79205382656E+01  0.11611916976E+02  0.51100000000E-03 0. -1.
        -11    1    3    3    0    0  0.28089946154E+01  0.27369204864E+01  0.11995079590E+02  0.12619949253E+02  0.51100000000E-03 0.  1.
         12    1    3    3    0    0 -0.33958283735E+01  0.34162259164E+02  0.71637017628E+01  0.35070075912E+02  0.00000000000E+00 0. -1.
</event>
<event>
 7    1  0.7749294E-012  0.5930169E+02  0.7816164E-02  0.1266606E+00
        -11   -1    0    0    0    0  0.00000000000E+00  0.00000000000E+00  0.45593999997E+02  0.45594000000E+02  0.51100000000E-03 0.  1.
         11   -1    0    0    0    0 -0.00000000000E+00 -0.00000000000E+00 -0.45593999997E+02  0.45594000000E+02  0.51100000000E-03 0. -1.
    9900012    2    1    2    0    0  0.86739710604E+01  0.12532883439E+02  0.28007598921E+02  0.59301693558E+02  0.49999543200E+02 0.  0.
         12    1    1    2    0    0 -0.86739710604E+01 -0.12532883439E+02 -0.28007598921E+02  0.31886306442E+02  0.00000000000E+00 0. -1.
         11    1    3    3    0    0 -0.27872945979E+01  0.19480831308E+02  0.17359079785E+02  0.26241369074E+02  0.51100000000E-03 0. -1.
        -11    1    3    3    0    0 -0.21166705491E+01 -0.12913215628E+02  0.12522332769E+02  0.18111881467E+02  0.51100000000E-03 0.  1.
        -12    1    3    3    0    0  0.13577936207E+02  0.59652677580E+01 -0.18738136330E+01  0.14948443016E+02  0.00000000000E+00 0.  1.
</event>
<event>
 7    1  0.7749294E-012  0.5930196E+02  0.7816164E-02  0.1266605E+00
        -11   -1    0    0    0    0  0.00000000000E+00  0.00000000000E+00  0.45593999997E+02  0.45594000000E+02  0.51100000000E-03 0.  1.
         11   -1    0    0    0    0 -0.00000000000E+00 -0.00000000000E+00 -0.45593999997E+02  0.45594000000E+02  0.51100000000E-03 0. -1.
    9900012    2    1    2    0    0 -0.70927002355E+01  0.25942839207E+02  0.17128406158E+02  0.59301959163E+02  0.50000027602E+02 0.  0.
         12    1    1    2    0    0  0.70927002355E+01 -0.25942839207E+02 -0.17128406158E+02  0.31886040837E+02  0.00000000000E+00 0. -1.
         11    1    3    3    0    0  0.25581156352E+01  0.15081103768E+02  0.47426417913E+01  0.16014877393E+02  0.51100000000E-03 0. -1.
        -11    1    3    3    0    0 -0.19695263056E+02 -0.51508068558E+01  0.13376286122E+02  0.24358966086E+02  0.51100000000E-03 0.  1.
        -12    1    3    3    0    0  0.10044447185E+02  0.16012542294E+02 -0.99052175477E+00  0.18928115684E+02  0.00000000000E+00 0.  1.
</event>
<event>
 7    1  0.7749294E-012  0.5930198E+02  0.7816164E-02  0.1266605E+00
        -11   -1    0    0    0    0  0.00000000000E+00  0.00000000000E+00  0.45593999997E+02  0.45594000000E+02  0.51100000000E-03 0. -1.
         11   -1    0    0    0    0 -0.00000000000E+00 -0.00000000000E+00 -0.45593999997E+02  0.45594000000E+02  0.51100000000E-03 0.  1.
    9900012    2    1    2    0    0 -0.34453635860E+01  0.31045179462E+02  0.64066011066E+01  0.59301980559E+02  0.50000066624E+02 0.  0.
         12    1    1    2    0    0  0.34453635860E+01 -0.31045179462E+02 -0.64066011066E+01  0.31886019441E+02  0.00000000000E+00 0. -1.
         11    1    3    3    0    0 -0.58512821985E+01 -0.63313050849E+01 -0.13264163816E+02  0.15819638726E+02  0.51100000000E-03 0. -1.
        -11    1    3    3    0    0  0.61813830770E+01  0.17850954985E+02  0.94784381138E+01  0.21135441324E+02  0.51100000000E-03 0.  1.
        -12    1    3    3    0    0 -0.37754644645E+01  0.19525529561E+02  0.10192326808E+02  0.22346900508E+02  0.00000000000E+00 0.  1.
</event>
<event>
 7    1  0.7749294E-012  0.5930195E+02  0.7816164E-02  0.1266605E+00
        -11   -1    0    0    0    0  0.00000000000E+00  0.00000000000E+00  0.45593999997E+02  0.45594000000E+02  0.51100000000E-03 0. -1.
         11   -1    0    0    0    0 -0.00000000000E+00 -0.00000000000E+00 -0.45593999997E+02  0.45594000000E+02  0.51100000000E-03 0.  1.
    9900012    2    1    2    0    0  0.30808534652E+02  0.80756290358E+01 -0.15292841454E+01  0.59301948163E+02  0.50000007542E+02 0.  0.
         12    1    1    2    0    0 -0.30808534652E+02 -0.80756290358E+01  0.15292841454E+01  0.31886051837E+02  0.00000000000E+00 0. -1.
         11    1    3    3    0    0  0.20028056344E+01 -0.52340235690E+01  0.40133387795E+01  0.68929762476E+01  0.51100000000E-03 0. -1.
        -11    1    3    3    0    0  0.18457052166E+02  0.17960589929E+02  0.14369620038E+02  0.29491211327E+02  0.51100000000E-03 0.  1.
        -12    1    3    3    0    0  0.10348676852E+02 -0.46509373239E+01 -0.19912242963E+02  0.22917760589E+02  0.00000000000E+00 0.  1.
</event>
<event>
 7    1  0.7749294E-012  0.5930193E+02  0.7816164E-02  0.1266605E+00
        -11   -1    0    0    0    0  0.00000000000E+00  0.00000000000E+00  0.45593999997E+02  0.45594000000E+02  0.51100000000E-03 0.  1.
         11   -1    0    0    0    0 -0.00000000000E+00 -0.00000000000E+00 -0.45593999997E+02  0.45594000000E+02  0.51100000000E-03 0. -1.
    9900012    2    1    2    0    0 -0.19454574981E+02 -0.46645561029E+01  0.24829068285E+02  0.59301934027E+02  0.49999981761E+02 0.  0.
         12    1    1    2    0    0  0.19454574981E+02  0.46645561029E+01 -0.24829068285E+02  0.31886065973E+02  0.00000000000E+00 0. -1.
         11    1    3    3    0    0  0.43486326518E+01  0.12671143990E+02 -0.18246212503E+01  0.13520271407E+02  0.51100000000E-03 0. -1.
        -11    1    3    3    0    0 -0.25044805609E+02 -0.67304440755E+01  0.22469076518E+02  0.34313270979E+02  0.51100000000E-03 0.  1.
        -12    1    3    3    0    0  0.12415979760E+01 -0.10605256017E+02  0.41846130178E+01  0.11468391641E+02  0.00000000000E+00 0.  1.
</event>
<event>
 7    1  0.7749294E-012  0.5930195E+02  0.7816164E-02  0.1266605E+00
        -11   -1    0    0    0    0  0.00000000000E+00  0.00000000000E+00  0.45593999997E+02  0.45594000000E+02  0.51100000000E-03 0. -1.
         11   -1    0    0    0    0 -0.00000000000E+00 -0.00000000000E+00 -0.45593999997E+02  0.45594000000E+02  0.51100000000E-03 0.  1.
    9900012    2    1    2    0    0  0.38555224450E+00  0.11764540181E+02 -0.29633886519E+02  0.59301948404E+02  0.50000007981E+02 0.  0.
         12    1    1    2    0    0 -0.38555224450E+00 -0.11764540181E+02  0.29633886519E+02  0.31886051596E+02  0.00000000000E+00 0. -1.
         11    1    3    3    0    0  0.75073973835E+01 -0.54867441971E+01 -0.81839409330E+01  0.12387181552E+02  0.51100000000E-03 0. -1.
        -11    1    3    3    0    0 -0.17778091437E+02  0.96643909595E+00 -0.20886281969E+02  0.27445059927E+02  0.51100000000E-03 0.  1.
        -12    1    3    3    0    0  0.10656246298E+02  0.16284845283E+02 -0.56366361660E+00  0.19469706924E+02  0.00000000000E+00 0.  1.
</event>
<event>
 7    1  0.7749294E-012  0.5930196E+02  0.7816164E-02  0.1266605E+00
        -11   -1    0    0    0    0  0.00000000000E+00  0.00000000000E+00  0.45593999997E+02  0.45594000000E+02  0.51100000000E-03 0.  1.
         11   -1    0    0    0    0 -0.00000000000E+00 -0.00000000000E+00 -0.45593999997E+02  0.45594000000E+02  0.51100000000E-03 0. -1.
    9900012    2    1    2    0    0  0.56448340148E+01 -0.26361428493E+02  0.17027353214E+02  0.59301955706E+02  0.50000021299E+02 0.  0.
         12    1    1    2    0    0 -0.56448340148E+01  0.26361428493E+02 -0.17027353214E+02  0.31886044294E+02  0.00000000000E+00 0. -1.
         11    1    3    3    0    0  0.62858633926E+01 -0.32359813977E+02  0.11663585561E+02  0.34967254219E+02  0.51100000000E-03 0. -1.
        -11    1    3    3    0    0 -0.11500669601E+02  0.44689831097E+01  0.51382289394E+01  0.13365575491E+02  0.51100000000E-03 0.  1.
        -12    1    3    3    0    0  0.10859640223E+02  0.15294023750E+01  0.22553871339E+00  0.10969125996E+02  0.00000000000E+00 0.  1.
</event>
<event>
 7    1  0.7749294E-012  0.5930199E+02  0.7816164E-02  0.1266605E+00
        -11   -1    0    0    0    0  0.00000000000E+00  0.00000000000E+00  0.45593999997E+02  0.45594000000E+02  0.51100000000E-03 0. -1.
         11   -1    0    0    0    0 -0.00000000000E+00 -0.00000000000E+00 -0.45593999997E+02  0.45594000000E+02  0.51100000000E-03 0.  1.
    9900012    2    1    2    0    0  0.12924326979E+02  0.28423479091E+02 -0.64641642668E+01  0.59301987217E+02  0.50000078767E+02 0.  0.
         12    1    1    2    0    0 -0.12924326979E+02 -0.28423479091E+02  0.64641642668E+01  0.31886012783E+02  0.00000000000E+00 0. -1.
         11    1    3    3    0    0  0.37614293956E+01  0.23345760005E+02  0.12807096312E+02  0.26892277284E+02  0.51100000000E-03 0. -1.
        -11    1    3    3    0    0  0.16493573501E+02 -0.13543480226E+00 -0.91244761332E+01  0.18849731414E+02  0.51100000000E-03 0.  1.
         12    1    3    3    0    0 -0.73306759173E+01  0.52131538883E+01 -0.10146784445E+02  0.13559978519E+02  0.00000000000E+00 0. -1.
</event>
<event>
 7    1  0.7749294E-012  0.5930194E+02  0.7816164E-02  0.1266605E+00
        -11   -1    0    0    0    0  0.00000000000E+00  0.00000000000E+00  0.45593999997E+02  0.45594000000E+02  0.51100000000E-03 0.  1.
         11   -1    0    0    0    0 -0.00000000000E+00 -0.00000000000E+00 -0.45593999997E+02  0.45594000000E+02  0.51100000000E-03 0. -1.
    9900012    2    1    2    0    0 -0.69886121241E+01  0.24271973806E+02  0.19461532932E+02  0.59301942296E+02  0.49999996842E+02 0.  0.
         12    1    1    2    0    0  0.69886121241E+01 -0.24271973806E+02 -0.19461532932E+02  0.31886057704E+02  0.00000000000E+00 0. -1.
         11    1    3    3    0    0  0.10661872473E+02  0.52589029021E+00  0.10213445810E+02  0.14773847190E+02  0.51100000000E-03 0. -1.
        -11    1    3    3    0    0 -0.12381331981E+02  0.21285800405E+02  0.20382829482E+02  0.31966270011E+02  0.51100000000E-03 0.  1.
         12    1    3    3    0    0 -0.52691526165E+01  0.24602831111E+01 -0.11134742360E+02  0.12561825095E+02  0.00000000000E+00 0. -1.
</event>
<event>
 7    1  0.7749294E-012  0.5930195E+02  0.7816164E-02  0.1266605E+00
        -11   -1    0    0    0    0  0.00000000000E+00  0.00000000000E+00  0.45593999997E+02  0.45594000000E+02  0.51100000000E-03 0.  1.
         11   -1    0    0    0    0 -0.00000000000E+00 -0.00000000000E+00 -0.45593999997E+02  0.45594000000E+02  0.51100000000E-03 0. -1.
    9900012    2    1    2    0    0 -0.16507039115E+02 -0.26903470020E+02 -0.45212042585E+01  0.59301947761E+02  0.50000006809E+02 0.  0.
         12    1    1    2    0    0  0.16507039115E+02  0.26903470020E+02  0.45212042585E+01  0.31886052239E+02  0.00000000000E+00 0. -1.
         11    1    3    3    0    0  0.83886772481E+01  0.46014730717E+01 -0.10582279991E+01  0.96261782220E+01  0.51100000000E-03 0. -1.
        -11    1    3    3    0    0 -0.16789173910E+02 -0.36397181439E+02 -0.30411801386E+01  0.40198009331E+02  0.51100000000E-03 0.  1.
        -12    1    3    3    0    0 -0.81065424525E+01  0.48922383481E+01 -0.42179612085E+00  0.94777602078E+01  0.00000000000E+00 0.  1.
</event>
<event>
 7    1  0.7749294E-012  0.5930195E+02  0.7816164E-02  0.1266605E+00
        -11   -1    0    0    0    0  0.00000000000E+00  0.00000000000E+00  0.45593999997E+02  0.45594000000E+02  0.51100000000E-03 0.  1.
         11   -1    0    0    0    0 -0.00000000000E+00 -0.00000000000E+00 -0.45593999997E+02  0.45594000000E+02  0.51100000000E-03 0. -1.
    9900012    2    1    2    0    0  0.28563147950E+02 -0.14169893952E+02 -0.28445072641E+00  0.59301949325E+02  0.50000009661E+02 0.  0.
         12    1    1    2    0    0 -0.28563147950E+02  0.14169893952E+02  0.28445072641E+00  0.31886050675E+02  0.00000000000E+00 0. -1.
         11    1    3    3    0    0 -0.70623732949E+01  0.13549709078E+01  0.11608816575E+02  0.13655683258E+02  0.51100000000E-03 0.  1.
        -11    1    3    3    0    0  0.14903706675E+02 -0.50131804137E+01 -0.15561854031E+02  0.22122923669E+02  0.51100000000E-03 0. -1.
        -12    1    3    3    0    0  0.20721814570E+02 -0.10511684446E+02  0.36685867301E+01  0.23523342398E+02  0.00000000000E+00 0.  1.
</event>
<event>
 7    1  0.7749294E-012  0.5930193E+02  0.7816164E-02  0.1266605E+00
        -11   -1    0    0    0    0  0.00000000000E+00  0.00000000000E+00  0.45593999997E+02  0.45594000000E+02  0.51100000000E-03 0.  1.
         11   -1    0    0    0    0 -0.00000000000E+00 -0.00000000000E+00 -0.45593999997E+02  0.45594000000E+02  0.51100000000E-03 0. -1.
    9900012    2    1    2    0    0  0.15025840470E+02 -0.24990310301E+02  0.12900768537E+02  0.59301932202E+02  0.49999978433E+02 0.  0.
         12    1    1    2    0    0 -0.15025840470E+02  0.24990310301E+02 -0.12900768537E+02  0.31886067798E+02  0.00000000000E+00 0. -1.
         11    1    3    3    0    0  0.16295095755E+02 -0.12719193353E+02  0.97458966867E+01  0.22853676459E+02  0.51100000000E-03 0. -1.
        -11    1    3    3    0    0 -0.70934152735E+01  0.10571718747E+02  0.14444184705E+01  0.12812654779E+02  0.51100000000E-03 0.  1.
        -12    1    3    3    0    0  0.58241599876E+01 -0.22842835695E+02  0.17104533802E+01  0.23635600964E+02  0.00000000000E+00 0.  1.
</event>
<event>
 7    1  0.7749294E-012  0.5930193E+02  0.7816164E-02  0.1266605E+00
        -11   -1    0    0    0    0  0.00000000000E+00  0.00000000000E+00  0.45593999997E+02  0.45594000000E+02  0.51100000000E-03 0. -1.
         11   -1    0    0    0    0 -0.00000000000E+00 -0.00000000000E+00 -0.45593999997E+02  0.45594000000E+02  0.51100000000E-03 0.  1.
    9900012    2    1    2    0    0  0.55918528153E+01  0.29598228612E+02 -0.10459320284E+02  0.59301931950E+02  0.49999977973E+02 0.  0.
         12    1    1    2    0    0 -0.55918528153E+01 -0.29598228612E+02  0.10459320284E+02  0.31886068050E+02  0.00000000000E+00 0. -1.
         11    1    3    3    0    0  0.11546394181E+02  0.20037130772E+01  0.69092577175E+01  0.13604114346E+02  0.51100000000E-03 0. -1.
        -11    1    3    3    0    0 -0.17485244690E+02  0.24033776461E+02 -0.15387348679E+02  0.33468293838E+02  0.51100000000E-03 0.  1.
        -12    1    3    3    0    0  0.11530703324E+02  0.35607390738E+01 -0.19812293234E+01  0.12229523765E+02  0.00000000000E+00 0.  1.
</event>
<event>
 7    1  0.7749294E-012  0.5930194E+02  0.7816164E-02  0.1266605E+00
        -11   -1    0    0    0    0  0.00000000000E+00  0.00000000000E+00  0.45593999997E+02  0.45594000000E+02  0.51100000000E-03 0. -1.
         11   -1    0    0    0    0 -0.00000000000E+00 -0.00000000000E+00 -0.45593999997E+02  0.45594000000E+02  0.51100000000E-03 0.  1.
    9900012    2    1    2    0    0 -0.95761066883E+01 -0.33545491382E+00 -0.30412278226E+02  0.59301936960E+02  0.49999987110E+02 0.  0.
         12    1    1    2    0    0  0.95761066883E+01  0.33545491382E+00  0.30412278226E+02  0.31886063040E+02  0.00000000000E+00 0. -1.
         11    1    3    3    0    0 -0.16056636865E+02  0.13140469490E+02 -0.17975402368E+02  0.27451823552E+02  0.51100000000E-03 0. -1.
        -11    1    3    3    0    0 -0.26343097223E+01 -0.65509509855E+01 -0.17844041972E+02  0.19190215754E+02  0.51100000000E-03 0.  1.
         12    1    3    3    0    0  0.91148398985E+01 -0.69249734179E+01  0.54071661138E+01  0.12659897653E+02  0.00000000000E+00 0. -1.
</event>
<event>
 7    1  0.7749294E-012  0.5930193E+02  0.7816164E-02  0.1266605E+00
        -11   -1    0    0    0    0  0.00000000000E+00  0.00000000000E+00  0.45593999997E+02  0.45594000000E+02  0.51100000000E-03 0.  1.
         11   -1    0    0    0    0 -0.00000000000E+00 -0.00000000000E+00 -0.45593999997E+02  0.45594000000E+02  0.51100000000E-03 0. -1.
    9900012    2    1    2    0    0 -0.22304045533E+02 -0.22753815229E+02  0.12307619381E+01  0.59301932047E+02  0.49999978150E+02 0.  0.
         12    1    1    2    0    0  0.22304045533E+02  0.22753815229E+02 -0.12307619381E+01  0.31886067953E+02  0.00000000000E+00 0. -1.
         11    1    3    3    0    0 -0.32936648371E+02 -0.16199936520E+02 -0.50331650116E+01  0.37048528978E+02  0.51100000000E-03 0. -1.
        -11    1    3    3    0    0  0.24608321797E+00 -0.10272092477E+02  0.22870556024E+01  0.10526493452E+02  0.51100000000E-03 0.  1.
         12    1    3    3    0    0  0.10386519620E+02  0.37182137682E+01  0.39768713472E+01  0.11726909617E+02  0.00000000000E+00 0. -1.
</event>
<event>
 7    1  0.7749294E-012  0.5930190E+02  0.7816164E-02  0.1266605E+00
        -11   -1    0    0    0    0  0.00000000000E+00  0.00000000000E+00  0.45593999997E+02  0.45594000000E+02  0.51100000000E-03 0.  1.
         11   -1    0    0    0    0 -0.00000000000E+00 -0.00000000000E+00 -0.45593999997E+02  0.45594000000E+02  0.51100000000E-03 0. -1.
    9900012    2    1    2    0    0 -0.12037539760E+01 -0.28332707354E+02  0.14578483191E+02  0.59301897984E+02  0.49999916027E+02 0.  0.
         12    1    1    2    0    0  0.12037539760E+01  0.28332707354E+02 -0.14578483191E+02  0.31886102016E+02  0.00000000000E+00 0. -1.
         11    1    3    3    0    0 -0.31511038806E+01 -0.28106246239E+02 -0.39168990151E+01  0.28552278919E+02  0.51100000000E-03 0. -1.
        -11    1    3    3    0    0  0.10172541031E+02  0.74084512573E+01  0.13529812814E+02  0.18477596600E+02  0.51100000000E-03 0.  1.
        -12    1    3    3    0    0 -0.82251911267E+01 -0.76349123723E+01  0.49655693917E+01  0.12272022465E+02  0.00000000000E+00 0.  1.
</event>
<event>
 7    1  0.7749294E-012  0.5930194E+02  0.7816164E-02  0.1266605E+00
        -11   -1    0    0    0    0  0.00000000000E+00  0.00000000000E+00  0.45593999997E+02  0.45594000000E+02  0.51100000000E-03 0. -1.
         11   -1    0    0    0    0 -0.00000000000E+00 -0.00000000000E+00 -0.45593999997E+02  0.45594000000E+02  0.51100000000E-03 0.  1.
    9900012    2    1    2    0    0 -0.63400692916E+01 -0.25659866599E+02 -0.17835241632E+02  0.59301936013E+02  0.49999985384E+02 0.  0.
         12    1    1    2    0    0  0.63400692916E+01  0.25659866599E+02  0.17835241632E+02  0.31886063987E+02  0.00000000000E+00 0. -1.
         11    1    3    3    0    0  0.20572759101E+02 -0.19881344619E+02 -0.71606174350E+01  0.29492045083E+02  0.51100000000E-03 0. -1.
        -11    1    3    3    0    0 -0.19566597145E+02 -0.24785266828E+01 -0.84343253787E+01  0.21450703094E+02  0.51100000000E-03 0.  1.
         12    1    3    3    0    0 -0.73462312468E+01 -0.32999952966E+01 -0.22402988185E+01  0.83591878365E+01  0.00000000000E+00 0. -1.
</event>
<event>
 7    1  0.7749294E-012  0.5930193E+02  0.7816164E-02  0.1266605E+00
        -11   -1    0    0    0    0  0.00000000000E+00  0.00000000000E+00  0.45593999997E+02  0.45594000000E+02  0.51100000000E-03 0.  1.
         11   -1    0    0    0    0 -0.00000000000E+00 -0.00000000000E+00 -0.45593999997E+02  0.45594000000E+02  0.51100000000E-03 0. -1.
    9900012    2    1    2    0    0  0.14946866049E+02 -0.21624181548E+02 -0.18047362059E+02  0.59301932359E+02  0.49999978719E+02 0.  0.
         12    1    1    2    0    0 -0.14946866049E+02  0.21624181548E+02  0.18047362059E+02  0.31886067641E+02  0.00000000000E+00 0. -1.
         11    1    3    3    0    0 -0.14213163648E+02 -0.10384133406E+02 -0.14102003193E+02  0.22554616862E+02  0.51100000000E-03 0. -1.
        -11    1    3    3    0    0  0.25177767173E+02 -0.15336802251E+02  0.53623601198E+00  0.29486013845E+02  0.51100000000E-03 0.  1.
         12    1    3    3    0    0  0.39822625235E+01  0.40967541090E+01 -0.44815948779E+01  0.72613016523E+01  0.00000000000E+00 0. -1.
</event>
<event>
 7    1  0.7749294E-012  0.5930190E+02  0.7816164E-02  0.1266605E+00
        -11   -1    0    0    0    0  0.00000000000E+00  0.00000000000E+00  0.45593999997E+02  0.45594000000E+02  0.51100000000E-03 0.  1.
         11   -1    0    0    0    0 -0.00000000000E+00 -0.00000000000E+00 -0.45593999997E+02  0.45594000000E+02  0.51100000000E-03 0. -1.
    9900012    2    1    2    0    0 -0.23200470635E+02  0.14724724501E+02  0.16175406653E+02  0.59301903818E+02  0.49999926668E+02 0.  0.
         12    1    1    2    0    0  0.23200470635E+02 -0.14724724501E+02 -0.16175406653E+02  0.31886096182E+02  0.00000000000E+00 0. -1.
         11    1    3    3    0    0  0.41894775119E+01 -0.25245541462E+01 -0.14113337632E+02  0.14936913833E+02  0.51100000000E-03 0. -1.
        -11    1    3    3    0    0 -0.21017897418E+01  0.10945762175E+01  0.28183740070E+01  0.36822343107E+01  0.51100000000E-03 0.  1.
         12    1    3    3    0    0 -0.25288158405E+02  0.16154702430E+02  0.27470370278E+02  0.40682755675E+02  0.00000000000E+00 0. -1.
</event>
<event>
 7    1  0.7749294E-012  0.5930196E+02  0.7816164E-02  0.1266605E+00
        -11   -1    0    0    0    0  0.00000000000E+00  0.00000000000E+00  0.45593999997E+02  0.45594000000E+02  0.51100000000E-03 0.  1.
         11   -1    0    0    0    0 -0.00000000000E+00 -0.00000000000E+00 -0.45593999997E+02  0.45594000000E+02  0.51100000000E-03 0. -1.
    9900012    2    1    2    0    0 -0.21742636385E+02 -0.18051542348E+02  0.14768854401E+02  0.59301961074E+02  0.50000031088E+02 0.  0.
         12    1    1    2    0    0  0.21742636385E+02  0.18051542348E+02 -0.14768854401E+02  0.31886038926E+02  0.00000000000E+00 0. -1.
         11    1    3    3    0    0  0.96219720140E+00 -0.35923708030E+01  0.11827128422E+02  0.12398061075E+02  0.51100000000E-03 0. -1.
        -11    1    3    3    0    0 -0.25203271101E+02 -0.23346960962E+02 -0.50107756421E+01  0.34718774937E+02  0.51100000000E-03 0.  1.
        -12    1    3    3    0    0  0.24984375149E+01  0.88877894171E+01  0.79525016203E+01  0.12185125061E+02  0.00000000000E+00 0.  1.
</event>
<event>
 7    1  0.7749294E-012  0.5930194E+02  0.7816164E-02  0.1266605E+00
        -11   -1    0    0    0    0  0.00000000000E+00  0.00000000000E+00  0.45593999997E+02  0.45594000000E+02  0.51100000000E-03 0.  1.
         11   -1    0    0    0    0 -0.00000000000E+00 -0.00000000000E+00 -0.45593999997E+02  0.45594000000E+02  0.51100000000E-03 0. -1.
    9900012    2    1    2    0    0 -0.96821070801E+01 -0.28110678892E+02  0.11522462993E+02  0.59301943193E+02  0.49999998477E+02 0.  0.
         12    1    1    2    0    0  0.96821070801E+01  0.28110678892E+02 -0.11522462993E+02  0.31886056807E+02  0.00000000000E+00 0. -1.
         11    1    3    3    0    0  0.27759343930E+01 -0.14204221037E+01 -0.12251665336E+02  0.12642259073E+02  0.51100000000E-03 0. -1.
        -11    1    3    3    0    0 -0.65791606811E+01 -0.30538930915E+02  0.13088206118E+02  0.33870529910E+02  0.51100000000E-03 0.  1.
         12    1    3    3    0    0 -0.58788807920E+01  0.38486741271E+01  0.10685922211E+02  0.12789154210E+02  0.00000000000E+00 0. -1.
</event>
<event>
 7    1  0.7749294E-012  0.5930195E+02  0.7816164E-02  0.1266605E+00
        -11   -1    0    0    0    0  0.00000000000E+00  0.00000000000E+00  0.45593999997E+02  0.45594000000E+02  0.51100000000E-03 0.  1.
         11   -1    0    0    0    0 -0.00000000000E+00 -0.00000000000E+00 -0.45593999997E+02  0.45594000000E+02  0.51100000000E-03 0. -1.
    9900012    2    1    2    0    0  0.53374223025E+00  0.78365815929E+01  0.30903447326E+02  0.59301953703E+02  0.50000017645E+02 0.  0.
         12    1    1    2    0    0 -0.53374223025E+00 -0.78365815929E+01 -0.30903447326E+02  0.31886046297E+02  0.00000000000E+00 0. -1.
         11    1    3    3    0    0  0.35287281867E+01 -0.18278511725E+02  0.14427633843E+02  0.23552336022E+02  0.51100000000E-03 0. -1.
        -11    1    3    3    0    0  0.44390446830E+01  0.14729773570E+02  0.14000941561E+01  0.15447705688E+02  0.51100000000E-03 0.  1.
         12    1    3    3    0    0 -0.74340306394E+01  0.11385319748E+02  0.15075719327E+02  0.20301911992E+02  0.00000000000E+00 0. -1.
</event>
<event>
 7    1  0.7749294E-012  0.5930198E+02  0.7816164E-02  0.1266605E+00
        -11   -1    0    0    0    0  0.00000000000E+00  0.00000000000E+00  0.45593999997E+02  0.45594000000E+02  0.51100000000E-03 0.  1.
         11   -1    0    0    0    0 -0.00000000000E+00 -0.00000000000E+00 -0.45593999997E+02  0.45594000000E+02  0.51100000000E-03 0. -1.
    9900012    2    1    2    0    0 -0.95613190128E+01 -0.50466409039E+01  0.29997176489E+02  0.59301984210E+02  0.50000073282E+02 0.  0.
         12    1    1    2    0    0  0.95613190128E+01  0.50466409039E+01 -0.29997176489E+02  0.31886015790E+02  0.00000000000E+00 0. -1.
         11    1    3    3    0    0  0.17367850763E+02  0.71246044622E+01  0.94283336666E+01  0.21007039412E+02  0.51100000000E-03 0. -1.
        -11    1    3    3    0    0 -0.20337197040E+02 -0.32072365043E+01  0.16715494014E+02  0.26519722658E+02  0.51100000000E-03 0.  1.
         12    1    3    3    0    0 -0.65919727348E+01 -0.89640088618E+01  0.38533488081E+01  0.11775222140E+02  0.00000000000E+00 0. -1.
</event>
<event>
 7    1  0.7749294E-012  0.5930192E+02  0.7816164E-02  0.1266605E+00
        -11   -1    0    0    0    0  0.00000000000E+00  0.00000000000E+00  0.45593999997E+02  0.45594000000E+02  0.51100000000E-03 0.  1.
         11   -1    0    0    0    0 -0.00000000000E+00 -0.00000000000E+00 -0.45593999997E+02  0.45594000000E+02  0.51100000000E-03 0. -1.
    9900012    2    1    2    0    0  0.24854853618E+02  0.19134834067E+02 -0.57285405664E+01  0.59301924667E+02  0.49999964690E+02 0.  0.
         12    1    1    2    0    0 -0.24854853618E+02 -0.19134834067E+02  0.57285405664E+01  0.31886075333E+02  0.00000000000E+00 0. -1.
         11    1    3    3    0    0 -0.75376184439E+01  0.10051865697E+02 -0.51899934503E+01  0.13593812124E+02  0.51100000000E-03 0. -1.
        -11    1    3    3    0    0  0.25491212263E+02 -0.84300826098E+01 -0.11606636896E+01  0.26874064373E+02  0.51100000000E-03 0.  1.
        -12    1    3    3    0    0  0.69012597993E+01  0.17513050980E+02  0.62211657344E+00  0.18834048170E+02  0.00000000000E+00 0.  1.
</event>
<event>
 7    1  0.7749294E-012  0.5930194E+02  0.7816164E-02  0.1266605E+00
        -11   -1    0    0    0    0  0.00000000000E+00  0.00000000000E+00  0.45593999997E+02  0.45594000000E+02  0.51100000000E-03 0.  1.
         11   -1    0    0    0    0 -0.00000000000E+00 -0.00000000000E+00 -0.45593999997E+02  0.45594000000E+02  0.51100000000E-03 0. -1.
    9900012    2    1    2    0    0  0.17520973404E+02  0.10010770393E+02  0.24688468978E+02  0.59301944531E+02  0.50000000919E+02 0.  0.
         12    1    1    2    0    0 -0.17520973404E+02 -0.10010770393E+02 -0.24688468978E+02  0.31886055469E+02  0.00000000000E+00 0. -1.
         11    1    3    3    0    0  0.16118688153E+02  0.24909687136E+02  0.77824139412E+01  0.30673613872E+02  0.51100000000E-03 0. -1.
        -11    1    3    3    0    0  0.77004394219E+01 -0.10823927093E+02  0.16406979551E+02  0.21110261563E+02  0.51100000000E-03 0.  1.
         12    1    3    3    0    0 -0.62981541704E+01 -0.40749896498E+01  0.49907548556E+00  0.75180690965E+01  0.00000000000E+00 0. -1.
</event>
<event>
 7    1  0.7749294E-012  0.5930195E+02  0.7816164E-02  0.1266605E+00
        -11   -1    0    0    0    0  0.00000000000E+00  0.00000000000E+00  0.45593999997E+02  0.45594000000E+02  0.51100000000E-03 0.  1.
         11   -1    0    0    0    0 -0.00000000000E+00 -0.00000000000E+00 -0.45593999997E+02  0.45594000000E+02  0.51100000000E-03 0. -1.
    9900012    2    1    2    0    0  0.17542745968E+02  0.88852537446E+01  0.25100284508E+02  0.59301953638E+02  0.50000017527E+02 0.  0.
         12    1    1    2    0    0 -0.17542745968E+02 -0.88852537446E+01 -0.25100284508E+02  0.31886046362E+02  0.00000000000E+00 0. -1.
         11    1    3    3    0    0  0.12046102882E+02  0.25430635704E+02  0.34054710844E+01  0.28344718389E+02  0.51100000000E-03 0. -1.
        -11    1    3    3    0    0 -0.30332007545E+01 -0.38904305047E+01  0.11745087021E+02  0.12739027660E+02  0.51100000000E-03 0.  1.
         12    1    3    3    0    0  0.85298438406E+01 -0.12654951455E+02  0.99497264026E+01  0.18218207589E+02  0.00000000000E+00 0. -1.
</event>
<event>
 7    1  0.7749294E-012  0.5930194E+02  0.7816164E-02  0.1266605E+00
        -11   -1    0    0    0    0  0.00000000000E+00  0.00000000000E+00  0.45593999997E+02  0.45594000000E+02  0.51100000000E-03 0.  1.
         11   -1    0    0    0    0 -0.00000000000E+00 -0.00000000000E+00 -0.45593999997E+02  0.45594000000E+02  0.51100000000E-03 0. -1.
    9900012    2    1    2    0    0 -0.18005470068E+02 -0.22815950325E+02  0.13113206261E+02  0.59301941604E+02  0.49999995579E+02 0.  0.
         12    1    1    2    0    0  0.18005470068E+02  0.22815950325E+02 -0.13113206261E+02  0.31886058396E+02  0.00000000000E+00 0. -1.
         11    1    3    3    0    0 -0.24594758786E+02  0.30085149211E+01  0.45954470950E+01  0.25200624120E+02  0.51100000000E-03 0. -1.
        -11    1    3    3    0    0  0.10517824581E+01 -0.25524099579E+02  0.11256988019E+02  0.27916047091E+02  0.51100000000E-03 0.  1.
        -12    1    3    3    0    0  0.55375062604E+01 -0.30036566742E+00 -0.27392288534E+01  0.61852703926E+01  0.00000000000E+00 0.  1.
</event>
<event>
 7    1  0.7749294E-012  0.5930194E+02  0.7816164E-02  0.1266605E+00
        -11   -1    0    0    0    0  0.00000000000E+00  0.00000000000E+00  0.45593999997E+02  0.45594000000E+02  0.51100000000E-03 0.  1.
         11   -1    0    0    0    0 -0.00000000000E+00 -0.00000000000E+00 -0.45593999997E+02  0.45594000000E+02  0.51100000000E-03 0. -1.
    9900012    2    1    2    0    0 -0.77827495452E+01  0.76346108867E+01  0.29964350780E+02  0.59301940483E+02  0.49999993535E+02 0.  0.
         12    1    1    2    0    0  0.77827495452E+01 -0.76346108867E+01 -0.29964350780E+02  0.31886059517E+02  0.00000000000E+00 0. -1.
         11    1    3    3    0    0  0.92684450141E+01  0.25155640603E+01  0.30094907013E+01  0.10064252087E+02  0.51100000000E-03 0. -1.
        -11    1    3    3    0    0 -0.19431776844E+02  0.13993074474E+02  0.36952849469E+01  0.24229222349E+02  0.51100000000E-03 0.  1.
        -12    1    3    3    0    0  0.23805822848E+01 -0.88740276474E+01  0.23259575132E+02  0.25008466047E+02  0.00000000000E+00 0.  1.
</event>
<event>
 7    1  0.7749294E-012  0.5930194E+02  0.7816164E-02  0.1266605E+00
        -11   -1    0    0    0    0  0.00000000000E+00  0.00000000000E+00  0.45593999997E+02  0.45594000000E+02  0.51100000000E-03 0.  1.
         11   -1    0    0    0    0 -0.00000000000E+00 -0.00000000000E+00 -0.45593999997E+02  0.45594000000E+02  0.51100000000E-03 0. -1.
    9900012    2    1    2    0    0 -0.50090039262E+01 -0.12397709706E+01  0.31465749827E+02  0.59301944041E+02  0.50000000025E+02 0.  0.
         12    1    1    2    0    0  0.50090039262E+01  0.12397709706E+01 -0.31465749827E+02  0.31886055959E+02  0.00000000000E+00 0. -1.
         11    1    3    3    0    0  0.13085850101E+02 -0.10199385992E+02  0.64224757423E+01  0.17790872446E+02  0.51100000000E-03 0. -1.
        -11    1    3    3    0    0 -0.70914480578E+01  0.13597480175E+02  0.25279974357E+02  0.29567840746E+02  0.51100000000E-03 0.  1.
         12    1    3    3    0    0 -0.11003405969E+02 -0.46378651533E+01 -0.23670027138E+00  0.11943230849E+02  0.00000000000E+00 0. -1.
</event>
<event>
 7    1  0.7749294E-012  0.5930188E+02  0.7816164E-02  0.1266605E+00
        -11   -1    0    0    0    0  0.00000000000E+00  0.00000000000E+00  0.45593999997E+02  0.45594000000E+02  0.51100000000E-03 0. -1.
         11   -1    0    0    0    0 -0.00000000000E+00 -0.00000000000E+00 -0.45593999997E+02  0.45594000000E+02  0.51100000000E-03 0.  1.
    9900012    2    1    2    0    0  0.18363052608E+02  0.89132075982E+00 -0.26052417950E+02  0.59301880217E+02  0.49999883624E+02 0.  0.
         12    1    1    2    0    0 -0.18363052608E+02 -0.89132075982E+00  0.26052417950E+02  0.31886119783E+02  0.00000000000E+00 0. -1.
         11    1    3    3    0    0 -0.66829646663E+01 -0.14363789597E+02  0.47574797720E+01  0.16541284181E+02  0.51100000000E-03 0. -1.
        -11    1    3    3    0    0  0.16313492529E+02  0.76040622200E+01 -0.17597626936E+02  0.25171973995E+02  0.51100000000E-03 0.  1.
         12    1    3    3    0    0  0.87325247446E+01  0.76510481363E+01 -0.13212270786E+02  0.17588622042E+02  0.00000000000E+00 0. -1.
</event>
<event>
 7    1  0.7749294E-012  0.5930194E+02  0.7816164E-02  0.1266605E+00
        -11   -1    0    0    0    0  0.00000000000E+00  0.00000000000E+00  0.45593999997E+02  0.45594000000E+02  0.51100000000E-03 0.  1.
         11   -1    0    0    0    0 -0.00000000000E+00 -0.00000000000E+00 -0.45593999997E+02  0.45594000000E+02  0.51100000000E-03 0. -1.
    9900012    2    1    2    0    0 -0.29992353904E+02  0.10731104854E+02 -0.14223411496E+01  0.59301937865E+02  0.49999988761E+02 0.  0.
         12    1    1    2    0    0  0.29992353904E+02 -0.10731104854E+02  0.14223411496E+01  0.31886062135E+02  0.00000000000E+00 0. -1.
         11    1    3    3    0    0  0.15512384335E+01 -0.77410952499E+00  0.14349685042E+02  0.14454032216E+02  0.51100000000E-03 0. -1.
        -11    1    3    3    0    0 -0.31828391153E+02  0.14905224556E+01 -0.10651526030E+02  0.33596475226E+02  0.51100000000E-03 0.  1.
         12    1    3    3    0    0  0.28479881505E+00  0.10014691923E+02 -0.51205001609E+01  0.11251430424E+02  0.00000000000E+00 0. -1.
</event>
<event>
 7    1  0.7749294E-012  0.5930195E+02  0.7816164E-02  0.1266605E+00
        -11   -1    0    0    0    0  0.00000000000E+00  0.00000000000E+00  0.45593999997E+02  0.45594000000E+02  0.51100000000E-03 0. -1.
         11   -1    0    0    0    0 -0.00000000000E+00 -0.00000000000E+00 -0.45593999997E+02  0.45594000000E+02  0.51100000000E-03 0.  1.
    9900012    2    1    2    0    0 -0.65960181327E+01 -0.14077884976E+02 -0.27839283921E+02  0.59301952427E+02  0.50000015319E+02 0.  0.
         12    1    1    2    0    0  0.65960181327E+01  0.14077884976E+02  0.27839283921E+02  0.31886047573E+02  0.00000000000E+00 0. -1.
         11    1    3    3    0    0  0.10209125576E+02  0.35007081512E+01  0.25290012666E+01  0.11084992118E+02  0.51100000000E-03 0. -1.
        -11    1    3    3    0    0  0.52836829824E+00 -0.17871055575E+02 -0.23597521859E+02  0.29605689294E+02  0.51100000000E-03 0.  1.
         12    1    3    3    0    0 -0.17333512007E+02  0.29246244782E+00 -0.67707633279E+01  0.18611271016E+02  0.00000000000E+00 0. -1.
</event>
<event>
 7    1  0.7749294E-012  0.5930195E+02  0.7816164E-02  0.1266605E+00
        -11   -1    0    0    0    0  0.00000000000E+00  0.00000000000E+00  0.45593999997E+02  0.45594000000E+02  0.51100000000E-03 0. -1.
         11   -1    0    0    0    0 -0.00000000000E+00 -0.00000000000E+00 -0.45593999997E+02  0.45594000000E+02  0.51100000000E-03 0.  1.
    9900012    2    1    2    0    0 -0.28544307813E+02  0.13679693364E+02  0.38482211747E+01  0.59301947794E+02  0.50000006869E+02 0.  0.
         12    1    1    2    0    0  0.28544307813E+02 -0.13679693364E+02 -0.38482211747E+01  0.31886052206E+02  0.00000000000E+00 0. -1.
         11    1    3    3    0    0  0.56382931925E+01  0.13646676735E+02  0.55571116484E+01  0.15776679821E+02  0.51100000000E-03 0. -1.
        -11    1    3    3    0    0 -0.32638335147E+02  0.74102359380E+01 -0.71565172061E+01  0.34225549763E+02  0.51100000000E-03 0.  1.
         12    1    3    3    0    0 -0.15442658590E+01 -0.73772193086E+01  0.54476267324E+01  0.92997182101E+01  0.00000000000E+00 0. -1.
</event>
<event>
 7    1  0.7749294E-012  0.5930193E+02  0.7816164E-02  0.1266605E+00
        -11   -1    0    0    0    0  0.00000000000E+00  0.00000000000E+00  0.45593999997E+02  0.45594000000E+02  0.51100000000E-03 0. -1.
         11   -1    0    0    0    0 -0.00000000000E+00 -0.00000000000E+00 -0.45593999997E+02  0.45594000000E+02  0.51100000000E-03 0.  1.
    9900012    2    1    2    0    0 -0.19224991448E+02 -0.14672853683E+02 -0.20780484000E+02  0.59301930210E+02  0.49999974801E+02 0.  0.
         12    1    1    2    0    0  0.19224991448E+02  0.14672853683E+02  0.20780484000E+02  0.31886069790E+02  0.00000000000E+00 0. -1.
         11    1    3    3    0    0 -0.24718755067E+01  0.11167467968E+02 -0.16693956031E+01  0.11558952863E+02  0.51100000000E-03 0. -1.
        -11    1    3    3    0    0 -0.24392261532E+02 -0.12608405353E+02 -0.17061880950E+02  0.32327420095E+02  0.51100000000E-03 0.  1.
        -12    1    3    3    0    0  0.76391455904E+01 -0.13231916298E+02 -0.20492074466E+01  0.15415557253E+02  0.00000000000E+00 0.  1.
</event>
<event>
 7    1  0.7749294E-012  0.5930189E+02  0.7816164E-02  0.1266605E+00
        -11   -1    0    0    0    0  0.00000000000E+00  0.00000000000E+00  0.45593999997E+02  0.45594000000E+02  0.51100000000E-03 0. -1.
         11   -1    0    0    0    0 -0.00000000000E+00 -0.00000000000E+00 -0.45593999997E+02  0.45594000000E+02  0.51100000000E-03 0.  1.
    9900012    2    1    2    0    0  0.17095801827E+01  0.92373403323E+01 -0.30470856420E+02  0.59301886850E+02  0.49999895722E+02 0.  0.
         12    1    1    2    0    0 -0.17095801827E+01 -0.92373403323E+01  0.30470856420E+02  0.31886113150E+02  0.00000000000E+00 0. -1.
         11    1    3    3    0    0  0.45142281424E+01 -0.16512705484E+02  0.14909045097E+00  0.17119285217E+02  0.51100000000E-03 0. -1.
        -11    1    3    3    0    0 -0.18695207869E+01  0.17457335718E+02 -0.10639317083E+02  0.20529216902E+02  0.51100000000E-03 0.  1.
        -12    1    3    3    0    0 -0.93512717288E+00  0.82927100988E+01 -0.19980629788E+02  0.21653384731E+02  0.00000000000E+00 0.  1.
</event>
<event>
 7    1  0.7749294E-012  0.5930199E+02  0.7816164E-02  0.1266605E+00
        -11   -1    0    0    0    0  0.00000000000E+00  0.00000000000E+00  0.45593999997E+02  0.45594000000E+02  0.51100000000E-03 0.  1.
         11   -1    0    0    0    0 -0.00000000000E+00 -0.00000000000E+00 -0.45593999997E+02  0.45594000000E+02  0.51100000000E-03 0. -1.
    9900012    2    1    2    0    0  0.54988139472E+01 -0.28284306805E+02  0.13655728986E+02  0.59301985818E+02  0.50000076216E+02 0.  0.
         12    1    1    2    0    0 -0.54988139472E+01  0.28284306805E+02 -0.13655728986E+02  0.31886014182E+02  0.00000000000E+00 0. -1.
         11    1    3    3    0    0 -0.88841380510E+01 -0.18622514039E+02  0.50268365846E+01  0.21236643434E+02  0.51100000000E-03 0. -1.
        -11    1    3    3    0    0 -0.62700952644E+00  0.99869937062E+01 -0.34002000955E+01  0.10568564008E+02  0.51100000000E-03 0.  1.
        -12    1    3    3    0    0  0.15009961525E+02 -0.19648786472E+02  0.12029092497E+02  0.27496778376E+02  0.00000000000E+00 0.  1.
</event>
<event>
 7    1  0.7749294E-012  0.5930193E+02  0.7816164E-02  0.1266605E+00
        -11   -1    0    0    0    0  0.00000000000E+00  0.00000000000E+00  0.45593999997E+02  0.45594000000E+02  0.51100000000E-03 0.  1.
         11   -1    0    0    0    0 -0.00000000000E+00 -0.00000000000E+00 -0.45593999997E+02  0.45594000000E+02  0.51100000000E-03 0. -1.
    9900012    2    1    2    0    0 -0.14178867313E+02 -0.27305022925E+02  0.83735828405E+01  0.59301930239E+02  0.49999974853E+02 0.  0.
         12    1    1    2    0    0  0.14178867313E+02  0.27305022925E+02 -0.83735828405E+01  0.31886069761E+02  0.00000000000E+00 0. -1.
         11    1    3    3    0    0  0.91352687126E+01 -0.87193484375E+01  0.13011815257E+02  0.18132498674E+02  0.51100000000E-03 0. -1.
        -11    1    3    3    0    0 -0.15935281766E+02  0.19572885551E+01  0.56739377110E+01  0.17028145902E+02  0.51100000000E-03 0.  1.
         12    1    3    3    0    0 -0.73788542599E+01 -0.20542963042E+02 -0.10312170127E+02  0.24141285663E+02  0.00000000000E+00 0. -1.
</event>
<event>
 7    1  0.7749294E-012  0.5930194E+02  0.7816164E-02  0.1266605E+00
        -11   -1    0    0    0    0  0.00000000000E+00  0.00000000000E+00  0.45593999997E+02  0.45594000000E+02  0.51100000000E-03 0. -1.
         11   -1    0    0    0    0 -0.00000000000E+00 -0.00000000000E+00 -0.45593999997E+02  0.45594000000E+02  0.51100000000E-03 0.  1.
    9900012    2    1    2    0    0 -0.30914632982E+02  0.43817545604E+01 -0.64658101683E+01  0.59301937110E+02  0.49999987384E+02 0.  0.
         12    1    1    2    0    0  0.30914632982E+02 -0.43817545604E+01  0.64658101683E+01  0.31886062890E+02  0.00000000000E+00 0. -1.
         11    1    3    3    0    0  0.26208624700E+01 -0.41545349030E+01  0.42727161988E+01  0.65103904894E+01  0.51100000000E-03 0. -1.
        -11    1    3    3    0    0 -0.37194665065E+02  0.44819265054E+01 -0.19676846043E+02  0.42316770257E+02  0.51100000000E-03 0.  1.
        -12    1    3    3    0    0  0.36591696123E+01  0.40543629580E+01  0.89383196763E+01  0.10474776364E+02  0.00000000000E+00 0.  1.
</event>
<event>
 7    1  0.7749294E-012  0.5930191E+02  0.7816164E-02  0.1266605E+00
        -11   -1    0    0    0    0  0.00000000000E+00  0.00000000000E+00  0.45593999997E+02  0.45594000000E+02  0.51100000000E-03 0.  1.
         11   -1    0    0    0    0 -0.00000000000E+00 -0.00000000000E+00 -0.45593999997E+02  0.45594000000E+02  0.51100000000E-03 0. -1.
    9900012    2    1    2    0    0 -0.96081533451E+01 -0.28477492199E+02  0.10650758152E+02  0.59301908645E+02  0.49999935471E+02 0.  0.
         12    1    1    2    0    0  0.96081533451E+01  0.28477492199E+02 -0.10650758152E+02  0.31886091355E+02  0.00000000000E+00 0. -1.
         11    1    3    3    0    0  0.15861840898E+02 -0.25561153209E+02  0.11684794146E+02  0.32272356043E+02  0.51100000000E-03 0. -1.
        -11    1    3    3    0    0 -0.21598660001E+02 -0.48871254357E+01 -0.28379965647E+01  0.22325777335E+02  0.51100000000E-03 0.  1.
         12    1    3    3    0    0 -0.38713342421E+01  0.19707864454E+01  0.18039605708E+01  0.47037752677E+01  0.00000000000E+00 0. -1.
</event>
<event>
 7    1  0.7749294E-012  0.5930194E+02  0.7816164E-02  0.1266605E+00
        -11   -1    0    0    0    0  0.00000000000E+00  0.00000000000E+00  0.45593999997E+02  0.45594000000E+02  0.51100000000E-03 0. -1.
         11   -1    0    0    0    0 -0.00000000000E+00 -0.00000000000E+00 -0.45593999997E+02  0.45594000000E+02  0.51100000000E-03 0.  1.
    9900012    2    1    2    0    0 -0.86263081212E+00  0.27830379331E+02 -0.15538550258E+02  0.59301942079E+02  0.49999996446E+02 0.  0.
         12    1    1    2    0    0  0.86263081212E+00 -0.27830379331E+02  0.15538550258E+02  0.31886057921E+02  0.00000000000E+00 0. -1.
         11    1    3    3    0    0 -0.16917986626E+02  0.46665747598E+01  0.67492886906E+01  0.18802874503E+02  0.51100000000E-03 0. -1.
        -11    1    3    3    0    0  0.10767569905E+02  0.13664294328E+02 -0.20388993892E+01  0.17516010166E+02  0.51100000000E-03 0.  1.
         12    1    3    3    0    0  0.52877859093E+01  0.94995102426E+01 -0.20248939559E+02  0.22983057411E+02  0.00000000000E+00 0. -1.
</event>
<event>
 7    1  0.7749294E-012  0.5930195E+02  0.7816164E-02  0.1266605E+00
        -11   -1    0    0    0    0  0.00000000000E+00  0.00000000000E+00  0.45593999997E+02  0.45594000000E+02  0.51100000000E-03 0.  1.
         11   -1    0    0    0    0 -0.00000000000E+00 -0.00000000000E+00 -0.45593999997E+02  0.45594000000E+02  0.51100000000E-03 0. -1.
    9900012    2    1    2    0    0 -0.28336899468E+02 -0.12174953085E+02 -0.80938787446E+01  0.59301949332E+02  0.50000009673E+02 0.  0.
         12    1    1    2    0    0  0.28336899468E+02  0.12174953085E+02  0.80938787446E+01  0.31886050668E+02  0.00000000000E+00 0. -1.
         11    1    3    3    0    0 -0.29236091117E+01 -0.31298641445E+01  0.28019472469E+01  0.51180512343E+01  0.51100000000E-03 0. -1.
        -11    1    3    3    0    0 -0.13499084508E+02 -0.20026939798E+02 -0.23467601464E+02  0.33675390405E+02  0.51100000000E-03 0.  1.
        -12    1    3    3    0    0 -0.11914205849E+02  0.10981850857E+02  0.12571775472E+02  0.20508507692E+02  0.00000000000E+00 0.  1.
</event>
<event>
 7    1  0.7749294E-012  0.5930194E+02  0.7816164E-02  0.1266605E+00
        -11   -1    0    0    0    0  0.00000000000E+00  0.00000000000E+00  0.45593999997E+02  0.45594000000E+02  0.51100000000E-03 0. -1.
         11   -1    0    0    0    0 -0.00000000000E+00 -0.00000000000E+00 -0.45593999997E+02  0.45594000000E+02  0.51100000000E-03 0.  1.
    9900012    2    1    2    0    0  0.29208868227E+02 -0.41048493843E+01 -0.12112518142E+02  0.59301939294E+02  0.49999991368E+02 0.  0.
         12    1    1    2    0    0 -0.29208868227E+02  0.41048493843E+01  0.12112518142E+02  0.31886060706E+02  0.00000000000E+00 0. -1.
         11    1    3    3    0    0 -0.20923223080E+01  0.17862586352E+01 -0.43829156332E+01  0.51747929680E+01  0.51100000000E-03 0. -1.
        -11    1    3    3    0    0  0.31250591920E+02  0.10789006000E+02  0.46077299364E+01  0.33380133631E+02  0.51100000000E-03 0.  1.
        -12    1    3    3    0    0  0.50598615229E-01 -0.16680114019E+02 -0.12337332446E+02  0.20747012696E+02  0.00000000000E+00 0.  1.
</event>
<event>
 7    1  0.7749294E-012  0.5930196E+02  0.7816164E-02  0.1266605E+00
        -11   -1    0    0    0    0  0.00000000000E+00  0.00000000000E+00  0.45593999997E+02  0.45594000000E+02  0.51100000000E-03 0.  1.
         11   -1    0    0    0    0 -0.00000000000E+00 -0.00000000000E+00 -0.45593999997E+02  0.45594000000E+02  0.51100000000E-03 0. -1.
    9900012    2    1    2    0    0  0.47901876506E+00 -0.75922717254E+01  0.30965263822E+02  0.59301958971E+02  0.50000027253E+02 0.  0.
         12    1    1    2    0    0 -0.47901876506E+00  0.75922717254E+01 -0.30965263822E+02  0.31886041029E+02  0.00000000000E+00 0. -1.
         11    1    3    3    0    0 -0.15741454825E+02  0.57950385124E+00  0.13280868501E+02  0.20603657275E+02  0.51100000000E-03 0. -1.
        -11    1    3    3    0    0  0.82000734859E+01 -0.17007725851E+02  0.18885073602E+02  0.26704867516E+02  0.51100000000E-03 0.  1.
        -12    1    3    3    0    0  0.80204001039E+01  0.88359502748E+01 -0.12006782817E+01  0.11993434180E+02  0.00000000000E+00 0.  1.
</event>
<event>
 7    1  0.7749294E-012  0.5930194E+02  0.7816164E-02  0.1266605E+00
        -11   -1    0    0    0    0  0.00000000000E+00  0.00000000000E+00  0.45593999997E+02  0.45594000000E+02  0.51100000000E-03 0. -1.
         11   -1    0    0    0    0 -0.00000000000E+00 -0.00000000000E+00 -0.45593999997E+02  0.45594000000E+02  0.51100000000E-03 0.  1.
    9900012    2    1    2    0    0 -0.17088689141E+02  0.14513207813E+02 -0.22672987473E+02  0.59301939432E+02  0.49999991619E+02 0.  0.
         12    1    1    2    0    0  0.17088689141E+02 -0.14513207813E+02  0.22672987473E+02  0.31886060568E+02  0.00000000000E+00 0. -1.
         11    1    3    3    0    0  0.11354750469E+02  0.11245033314E+02 -0.35167400050E+01  0.16363025178E+02  0.51100000000E-03 0. -1.
        -11    1    3    3    0    0 -0.13652329424E+02  0.13536854466E+01 -0.23668142945E+02  0.27356892253E+02  0.51100000000E-03 0.  1.
         12    1    3    3    0    0 -0.14791110186E+02  0.19144890528E+01  0.45118954773E+01  0.15582022002E+02  0.00000000000E+00 0. -1.
</event>
<event>
 7    1  0.7749294E-012  0.5930197E+02  0.7816164E-02  0.1266605E+00
        -11   -1    0    0    0    0  0.00000000000E+00  0.00000000000E+00  0.45593999997E+02  0.45594000000E+02  0.51100000000E-03 0.  1.
         11   -1    0    0    0    0 -0.00000000000E+00 -0.00000000000E+00 -0.45593999997E+02  0.45594000000E+02  0.51100000000E-03 0. -1.
    9900012    2    1    2    0    0 -0.30122481960E+02 -0.14442656891E+01  0.10357087350E+02  0.59301967303E+02  0.50000042448E+02 0.  0.
         12    1    1    2    0    0  0.30122481960E+02  0.14442656891E+01 -0.10357087350E+02  0.31886032697E+02  0.00000000000E+00 0. -1.
         11    1    3    3    0    0  0.81938432929E+01 -0.70435345901E+01  0.13004423743E+02  0.16907557026E+02  0.51100000000E-03 0.  1.
        -11    1    3    3    0    0 -0.25899687722E+02 -0.40170036684E+01 -0.44567197423E+01  0.26585569275E+02  0.51100000000E-03 0. -1.
         12    1    3    3    0    0 -0.12416637531E+02  0.96162725694E+01  0.18093833488E+01  0.15808841001E+02  0.00000000000E+00 0. -1.
</event>
<event>
 7    1  0.7749294E-012  0.5930192E+02  0.7816164E-02  0.1266605E+00
        -11   -1    0    0    0    0  0.00000000000E+00  0.00000000000E+00  0.45593999997E+02  0.45594000000E+02  0.51100000000E-03 0. -1.
         11   -1    0    0    0    0 -0.00000000000E+00 -0.00000000000E+00 -0.45593999997E+02  0.45594000000E+02  0.51100000000E-03 0.  1.
    9900012    2    1    2    0    0 -0.25625523862E+02  0.13808256965E+02 -0.13014853253E+02  0.59301924061E+02  0.49999963586E+02 0.  0.
         12    1    1    2    0    0  0.25625523862E+02 -0.13808256965E+02  0.13014853253E+02  0.31886075939E+02  0.00000000000E+00 0. -1.
         11    1    3    3    0    0 -0.11488303764E+02 -0.49726518305E+01  0.12297153603E+02  0.17547888095E+02  0.51100000000E-03 0. -1.
        -11    1    3    3    0    0 -0.87515977940E+01  0.14143013618E+02 -0.29235771229E+02  0.33635481530E+02  0.51100000000E-03 0.  1.
        -12    1    3    3    0    0 -0.53856223037E+01  0.46378951778E+01  0.39237643738E+01  0.81185544366E+01  0.00000000000E+00 0.  1.
</event>
<event>
 7    1  0.7749294E-012  0.5930195E+02  0.7816164E-02  0.1266605E+00
        -11   -1    0    0    0    0  0.00000000000E+00  0.00000000000E+00  0.45593999997E+02  0.45594000000E+02  0.51100000000E-03 0. -1.
         11   -1    0    0    0    0 -0.00000000000E+00 -0.00000000000E+00 -0.45593999997E+02  0.45594000000E+02  0.51100000000E-03 0.  1.
    9900012    2    1    2    0    0  0.96784424651E+01  0.25083632016E+02  0.17142319376E+02  0.59301953565E+02  0.50000017393E+02 0.  0.
         12    1    1    2    0    0 -0.96784424651E+01 -0.25083632016E+02 -0.17142319376E+02  0.31886046435E+02  0.00000000000E+00 0. -1.
         11    1    3    3    0    0  0.19837362323E+02  0.24981881311E+02  0.32262101192E+01  0.32062809761E+02  0.51100000000E-03 0.  1.
        -11    1    3    3    0    0 -0.72850342035E+01 -0.83353082439E+01  0.14574174248E+02  0.18301793414E+02  0.51100000000E-03 0. -1.
         12    1    3    3    0    0 -0.28738856548E+01  0.84370589490E+01 -0.65806499117E+00  0.89373503902E+01  0.00000000000E+00 0. -1.
</event>
<event>
 7    1  0.7749294E-012  0.5930199E+02  0.7816164E-02  0.1266605E+00
        -11   -1    0    0    0    0  0.00000000000E+00  0.00000000000E+00  0.45593999997E+02  0.45594000000E+02  0.51100000000E-03 0. -1.
         11   -1    0    0    0    0 -0.00000000000E+00 -0.00000000000E+00 -0.45593999997E+02  0.45594000000E+02  0.51100000000E-03 0.  1.
    9900012    2    1    2    0    0 -0.25868424787E+01  0.65590935053E+01 -0.31096695722E+02  0.59301985096E+02  0.50000074899E+02 0.  0.
         12    1    1    2    0    0  0.25868424787E+01 -0.65590935053E+01  0.31096695722E+02  0.31886014904E+02  0.00000000000E+00 0. -1.
         11    1    3    3    0    0 -0.99619353820E+01  0.33747123695E+01  0.48161446334E+01  0.11568236232E+02  0.51100000000E-03 0. -1.
        -11    1    3    3    0    0  0.10855358047E+02  0.15325652363E+02 -0.20377817650E+02  0.27712269325E+02  0.51100000000E-03 0.  1.
        -12    1    3    3    0    0 -0.34802651438E+01 -0.12141271228E+02 -0.15535022705E+02  0.20021479539E+02  0.00000000000E+00 0.  1.
</event>
<event>
 7    1  0.7749294E-012  0.5930192E+02  0.7816164E-02  0.1266605E+00
        -11   -1    0    0    0    0  0.00000000000E+00  0.00000000000E+00  0.45593999997E+02  0.45594000000E+02  0.51100000000E-03 0.  1.
         11   -1    0    0    0    0 -0.00000000000E+00 -0.00000000000E+00 -0.45593999997E+02  0.45594000000E+02  0.51100000000E-03 0. -1.
    9900012    2    1    2    0    0  0.25523091894E+02  0.11582943904E+02  0.15202928188E+02  0.59301924124E+02  0.49999963700E+02 0.  0.
         12    1    1    2    0    0 -0.25523091894E+02 -0.11582943904E+02 -0.15202928188E+02  0.31886075876E+02  0.00000000000E+00 0. -1.
         11    1    3    3    0    0  0.80660280175E+01  0.25414396239E+01 -0.82792428485E+01  0.11834930745E+02  0.51100000000E-03 0. -1.
        -11    1    3    3    0    0  0.80675727794E+01 -0.12520851785E+02  0.17916572045E+02  0.23299377976E+02  0.51100000000E-03 0.  1.
        -12    1    3    3    0    0  0.93894910972E+01  0.21562356064E+02  0.55655989912E+01  0.24167615402E+02  0.00000000000E+00 0.  1.
</event>
<event>
 7    1  0.7749294E-012  0.5930194E+02  0.7816164E-02  0.1266605E+00
        -11   -1    0    0    0    0  0.00000000000E+00  0.00000000000E+00  0.45593999997E+02  0.45594000000E+02  0.51100000000E-03 0. -1.
         11   -1    0    0    0    0 -0.00000000000E+00 -0.00000000000E+00 -0.45593999997E+02  0.45594000000E+02  0.51100000000E-03 0.  1.
    9900012    2    1    2    0    0  0.13951263860E+02  0.26766413784E+02 -0.10278225391E+02  0.59301943685E+02  0.49999999374E+02 0.  0.
         12    1    1    2    0    0 -0.13951263860E+02 -0.26766413784E+02  0.10278225391E+02  0.31886056315E+02  0.00000000000E+00 0. -1.
         11    1    3    3    0    0  0.16218832813E+02  0.60958186633E+00 -0.14246671533E+01  0.16292691755E+02  0.51100000000E-03 0. -1.
        -11    1    3    3    0    0 -0.12678543316E+02 -0.11942105529E+01 -0.14135931173E+01  0.12812878100E+02  0.51100000000E-03 0.  1.
        -12    1    3    3    0    0  0.10410974363E+02  0.27351042471E+02 -0.74399651206E+01  0.30196373829E+02  0.00000000000E+00 0.  1.
</event>
<event>
 7    1  0.7962671E-012  0.5930195E+02  0.7816164E-02  0.1266605E+00
        -11   -1    0    0    0    0  0.00000000000E+00  0.00000000000E+00  0.45593999997E+02  0.45594000000E+02  0.51100000000E-03 0. -1.
         11   -1    0    0    0    0 -0.00000000000E+00 -0.00000000000E+00 -0.45593999997E+02  0.45594000000E+02  0.51100000000E-03 0.  1.
    9900012    2    1    2    0    0  0.56871534736E+00 -0.19131355335E+02 -0.25502704579E+02  0.59301950779E+02  0.50000012312E+02 0.  0.
         12    1    1    2    0    0 -0.56871534736E+00  0.19131355335E+02  0.25502704579E+02  0.31886049221E+02  0.00000000000E+00 0. -1.
         11    1    3    3    0    0 -0.13329647796E+02 -0.16984259450E+00 -0.73326124323E+00  0.13350881213E+02  0.51100000000E-03 0. -1.
        -11    1    3    3    0    0  0.15601006430E+02 -0.17277880019E+02 -0.23425037556E+01  0.23396663516E+02  0.51100000000E-03 0.  1.
        -12    1    3    3    0    0 -0.17026432869E+01 -0.16836327211E+01 -0.22426939580E+02  0.22554406049E+02  0.00000000000E+00 0.  1.
</event>
<event>
 7    1  0.7749294E-012  0.5930194E+02  0.7816164E-02  0.1266605E+00
        -11   -1    0    0    0    0  0.00000000000E+00  0.00000000000E+00  0.45593999997E+02  0.45594000000E+02  0.51100000000E-03 0. -1.
         11   -1    0    0    0    0 -0.00000000000E+00 -0.00000000000E+00 -0.45593999997E+02  0.45594000000E+02  0.51100000000E-03 0.  1.
    9900012    2    1    2    0    0  0.34544533670E+00  0.41690140661E+01 -0.31610454119E+02  0.59301940031E+02  0.49999992711E+02 0.  0.
         12    1    1    2    0    0 -0.34544533670E+00 -0.41690140661E+01  0.31610454119E+02  0.31886059969E+02  0.00000000000E+00 0. -1.
         11    1    3    3    0    0  0.74119181033E+01 -0.20945034951E+02 -0.16262519057E+02  0.27533625722E+02  0.51100000000E-03 0. -1.
        -11    1    3    3    0    0 -0.93751200456E+01  0.17590680527E+02 -0.11425165908E+02  0.22975189522E+02  0.51100000000E-03 0.  1.
         12    1    3    3    0    0  0.23086472790E+01  0.75233684898E+01 -0.39227691543E+01  0.87931247876E+01  0.00000000000E+00 0. -1.
</event>
<event>
 7    1  0.7749294E-012  0.5930194E+02  0.7816164E-02  0.1266605E+00
        -11   -1    0    0    0    0  0.00000000000E+00  0.00000000000E+00  0.45593999997E+02  0.45594000000E+02  0.51100000000E-03 0. -1.
         11   -1    0    0    0    0 -0.00000000000E+00 -0.00000000000E+00 -0.45593999997E+02  0.45594000000E+02  0.51100000000E-03 0.  1.
    9900012    2    1    2    0    0 -0.21329909346E+02 -0.21948114487E+02 -0.89462930588E+01  0.59301938441E+02  0.49999989812E+02 0.  0.
         12    1    1    2    0    0  0.21329909346E+02  0.21948114487E+02  0.89462930588E+01  0.31886061559E+02  0.00000000000E+00 0. -1.
         11    1    3    3    0    0  0.23965790359E+01 -0.89336600143E+01 -0.39658251907E+01  0.10063878081E+02  0.51100000000E-03 0. -1.
        -11    1    3    3    0    0 -0.10884676230E+02  0.14742607937E+02 -0.31983118232E+01  0.18602415547E+02  0.51100000000E-03 0.  1.
        -12    1    3    3    0    0 -0.12841812152E+02 -0.27757062409E+02 -0.17821560449E+01  0.30635644813E+02  0.00000000000E+00 0.  1.
</event>
<event>
 7    1  0.7749294E-012  0.5930185E+02  0.7816164E-02  0.1266605E+00
        -11   -1    0    0    0    0  0.00000000000E+00  0.00000000000E+00  0.45593999997E+02  0.45594000000E+02  0.51100000000E-03 0.  1.
         11   -1    0    0    0    0 -0.00000000000E+00 -0.00000000000E+00 -0.45593999997E+02  0.45594000000E+02  0.51100000000E-03 0. -1.
    9900012    2    1    2    0    0  0.17182687552E+02 -0.18013100172E+02  0.19925105747E+02  0.59301853034E+02  0.49999834048E+02 0.  0.
         12    1    1    2    0    0 -0.17182687552E+02  0.18013100172E+02 -0.19925105747E+02  0.31886146966E+02  0.00000000000E+00 0. -1.
         11    1    3    3    0    0 -0.14574822763E+02 -0.32487317717E+01  0.61175942730E+01  0.16137059107E+02  0.51100000000E-03 0. -1.
        -11    1    3    3    0    0  0.74843482278E+01 -0.14230851782E+02  0.89588601206E+01  0.18406351778E+02  0.51100000000E-03 0.  1.
         12    1    3    3    0    0  0.24273162087E+02 -0.53351661834E+00  0.48486513536E+01  0.24758442148E+02  0.00000000000E+00 0. -1.
</event>
<event>
 7    1  0.7749294E-012  0.5930193E+02  0.7816164E-02  0.1266605E+00
        -11   -1    0    0    0    0  0.00000000000E+00  0.00000000000E+00  0.45593999997E+02  0.45594000000E+02  0.51100000000E-03 0. -1.
         11   -1    0    0    0    0 -0.00000000000E+00 -0.00000000000E+00 -0.45593999997E+02  0.45594000000E+02  0.51100000000E-03 0.  1.
    9900012    2    1    2    0    0 -0.15501264017E+02 -0.25845557128E+02 -0.10413440003E+02  0.59301925578E+02  0.49999966352E+02 0.  0.
         12    1    1    2    0    0  0.15501264017E+02  0.25845557128E+02  0.10413440003E+02  0.31886074422E+02  0.00000000000E+00 0. -1.
         11    1    3    3    0    0 -0.16645126481E+02  0.42338802030E+01 -0.13769317414E+02  0.22013179676E+02  0.51100000000E-03 0. -1.
        -11    1    3    3    0    0  0.77016301750E+01 -0.24354639084E+02  0.88055873437E+01  0.27018547721E+02  0.51100000000E-03 0.  1.
        -12    1    3    3    0    0 -0.65577677108E+01 -0.57247982473E+01 -0.54497099323E+01  0.10270198181E+02  0.00000000000E+00 0.  1.
</event>
<event>
 7    1  0.7749294E-012  0.5930194E+02  0.7816164E-02  0.1266605E+00
        -11   -1    0    0    0    0  0.00000000000E+00  0.00000000000E+00  0.45593999997E+02  0.45594000000E+02  0.51100000000E-03 0.  1.
         11   -1    0    0    0    0 -0.00000000000E+00 -0.00000000000E+00 -0.45593999997E+02  0.45594000000E+02  0.51100000000E-03 0. -1.
    9900012    2    1    2    0    0  0.55397187175E+01  0.51741923873E+01  0.30971923809E+02  0.59301940119E+02  0.49999992871E+02 0.  0.
         12    1    1    2    0    0 -0.55397187175E+01 -0.51741923873E+01 -0.30971923809E+02  0.31886059881E+02  0.00000000000E+00 0. -1.
         11    1    3    3    0    0 -0.11789649364E+01 -0.63788215508E+01  0.37928122454E+02  0.38478848682E+02  0.51100000000E-03 0. -1.
        -11    1    3    3    0    0  0.41449562520E+01  0.11898665662E+02  0.81816282238E+00  0.12626491893E+02  0.51100000000E-03 0.  1.
         12    1    3    3    0    0  0.25737274019E+01 -0.34565172360E+00 -0.77743614679E+01  0.81965995441E+01  0.00000000000E+00 0. -1.
</event>
<event>
 7    1  0.7749294E-012  0.5930195E+02  0.7816164E-02  0.1266605E+00
        -11   -1    0    0    0    0  0.00000000000E+00  0.00000000000E+00  0.45593999997E+02  0.45594000000E+02  0.51100000000E-03 0.  1.
         11   -1    0    0    0    0 -0.00000000000E+00 -0.00000000000E+00 -0.45593999997E+02  0.45594000000E+02  0.51100000000E-03 0. -1.
    9900012    2    1    2    0    0 -0.16952430051E+02  0.18543473414E+02  0.19633513839E+02  0.59301950440E+02  0.50000011694E+02 0.  0.
         12    1    1    2    0    0  0.16952430051E+02 -0.18543473414E+02 -0.19633513839E+02  0.31886049560E+02  0.00000000000E+00 0. -1.
         11    1    3    3    0    0 -0.40158299233E+01 -0.12135128627E+01 -0.72191698606E+01  0.83496058098E+01  0.51100000000E-03 0. -1.
        -11    1    3    3    0    0 -0.14061382846E+02  0.28414402114E+02  0.27806887438E+02  0.42170175768E+02  0.51100000000E-03 0.  1.
        -12    1    3    3    0    0  0.11247827184E+01 -0.86574158374E+01 -0.95420373849E+00  0.87821688619E+01  0.00000000000E+00 0.  1.
</event>
<event>
 7    1  0.7749294E-012  0.5930195E+02  0.7816164E-02  0.1266605E+00
        -11   -1    0    0    0    0  0.00000000000E+00  0.00000000000E+00  0.45593999997E+02  0.45594000000E+02  0.51100000000E-03 0. -1.
         11   -1    0    0    0    0 -0.00000000000E+00 -0.00000000000E+00 -0.45593999997E+02  0.45594000000E+02  0.51100000000E-03 0.  1.
    9900012    2    1    2    0    0  0.29522512813E+02  0.29571750833E+01 -0.11678888130E+02  0.59301951715E+02  0.50000014020E+02 0.  0.
         12    1    1    2    0    0 -0.29522512813E+02 -0.29571750833E+01  0.11678888130E+02  0.31886048285E+02  0.00000000000E+00 0. -1.
         11    1    3    3    0    0  0.15335908638E+02  0.69782011492E+01  0.10265168151E+01  0.16880139871E+02  0.51100000000E-03 0. -1.
        -11    1    3    3    0    0 -0.62402418355E-01 -0.18119233020E+02  0.98798651966E+00  0.18146256278E+02  0.51100000000E-03 0.  1.
        -12    1    3    3    0    0  0.14249006593E+02  0.14098206954E+02 -0.13693391465E+02  0.24275555566E+02  0.00000000000E+00 0.  1.
</event>
<event>
 7    1  0.7749294E-012  0.5930197E+02  0.7816164E-02  0.1266605E+00
        -11   -1    0    0    0    0  0.00000000000E+00  0.00000000000E+00  0.45593999997E+02  0.45594000000E+02  0.51100000000E-03 0.  1.
         11   -1    0    0    0    0 -0.00000000000E+00 -0.00000000000E+00 -0.45593999997E+02  0.45594000000E+02  0.51100000000E-03 0. -1.
    9900012    2    1    2    0    0  0.19198881750E+02  0.11200487157E+02  0.22862002181E+02  0.59301966745E+02  0.50000041431E+02 0.  0.
         12    1    1    2    0    0 -0.19198881750E+02 -0.11200487157E+02 -0.22862002181E+02  0.31886033255E+02  0.00000000000E+00 0. -1.
         11    1    3    3    0    0 -0.11238206385E+02  0.92932551368E+01  0.72324369966E+01  0.16277899710E+02  0.51100000000E-03 0. -1.
        -11    1    3    3    0    0  0.25672806110E+02 -0.84006211074E+01  0.50028387698E+01  0.27471654566E+02  0.51100000000E-03 0.  1.
         12    1    3    3    0    0  0.47642820243E+01  0.10307853128E+02  0.10626726415E+02  0.15552412469E+02  0.00000000000E+00 0. -1.
</event>
<event>
 7    1  0.7749294E-012  0.5930194E+02  0.7816164E-02  0.1266605E+00
        -11   -1    0    0    0    0  0.00000000000E+00  0.00000000000E+00  0.45593999997E+02  0.45594000000E+02  0.51100000000E-03 0. -1.
         11   -1    0    0    0    0 -0.00000000000E+00 -0.00000000000E+00 -0.45593999997E+02  0.45594000000E+02  0.51100000000E-03 0.  1.
    9900012    2    1    2    0    0 -0.65851712197E+01 -0.15072963625E+02 -0.27315973724E+02  0.59301935130E+02  0.49999983773E+02 0.  0.
         12    1    1    2    0    0  0.65851712197E+01  0.15072963625E+02  0.27315973724E+02  0.31886064870E+02  0.00000000000E+00 0. -1.
         11    1    3    3    0    0  0.84864381858E+01 -0.86988322487E+01  0.57309281250E+01  0.13436251449E+02  0.51100000000E-03 0. -1.
        -11    1    3    3    0    0 -0.55075695672E+01  0.22668307162E+01 -0.32418397682E+02  0.32960951936E+02  0.51100000000E-03 0.  1.
         12    1    3    3    0    0 -0.95640398384E+01 -0.86409620922E+01 -0.62850416710E+00  0.12904731744E+02  0.00000000000E+00 0. -1.
</event>
<event>
 7    1  0.7749294E-012  0.5930194E+02  0.7816164E-02  0.1266605E+00
        -11   -1    0    0    0    0  0.00000000000E+00  0.00000000000E+00  0.45593999997E+02  0.45594000000E+02  0.51100000000E-03 0.  1.
         11   -1    0    0    0    0 -0.00000000000E+00 -0.00000000000E+00 -0.45593999997E+02  0.45594000000E+02  0.51100000000E-03 0. -1.
    9900012    2    1    2    0    0  0.26102246141E+02  0.14520880381E+02  0.11159638051E+02  0.59301941258E+02  0.49999994949E+02 0.  0.
         12    1    1    2    0    0 -0.26102246141E+02 -0.14520880381E+02 -0.11159638051E+02  0.31886058742E+02  0.00000000000E+00 0. -1.
         11    1    3    3    0    0 -0.61367583186E+01 -0.74782903726E+01 -0.73971627169E+00  0.97021549143E+01  0.51100000000E-03 0. -1.
        -11    1    3    3    0    0  0.33007545977E+02  0.11417534241E+02  0.15749538348E+02  0.38313263213E+02  0.51100000000E-03 0.  1.
         12    1    3    3    0    0 -0.76854151726E+00  0.10581636513E+02 -0.38501840251E+01  0.11286523131E+02  0.00000000000E+00 0. -1.
</event>
<event>
 7    1  0.7749294E-012  0.5930165E+02  0.7816164E-02  0.1266606E+00
        -11   -1    0    0    0    0  0.00000000000E+00  0.00000000000E+00  0.45593999997E+02  0.45594000000E+02  0.51100000000E-03 0.  1.
         11   -1    0    0    0    0 -0.00000000000E+00 -0.00000000000E+00 -0.45593999997E+02  0.45594000000E+02  0.51100000000E-03 0. -1.
    9900012    2    1    2    0    0 -0.28833730380E+02 -0.13614440036E+02  0.45967334653E-01  0.59301653422E+02  0.49999470002E+02 0.  0.
         12    1    1    2    0    0  0.28833730380E+02  0.13614440036E+02 -0.45967334653E-01  0.31886346578E+02  0.00000000000E+00 0. -1.
         11    1    3    3    0    0  0.98351896135E+01  0.32409764048E+00 -0.13987176132E+01  0.99394368672E+01  0.51100000000E-03 0. -1.
        -11    1    3    3    0    0 -0.31659805768E+02  0.21700450973E+01 -0.17027385431E-01  0.31734093452E+02  0.51100000000E-03 0.  1.
         12    1    3    3    0    0 -0.70091142247E+01 -0.16108582774E+02  0.14617123333E+01  0.17628123103E+02  0.00000000000E+00 0. -1.
</event>
<event>
 7    1  0.7749294E-012  0.5930195E+02  0.7816164E-02  0.1266605E+00
        -11   -1    0    0    0    0  0.00000000000E+00  0.00000000000E+00  0.45593999997E+02  0.45594000000E+02  0.51100000000E-03 0. -1.
         11   -1    0    0    0    0 -0.00000000000E+00 -0.00000000000E+00 -0.45593999997E+02  0.45594000000E+02  0.51100000000E-03 0.  1.
    9900012    2    1    2    0    0 -0.20741834526E+02 -0.16029379442E+02 -0.18153660774E+02  0.59301951259E+02  0.50000013189E+02 0.  0.
         12    1    1    2    0    0  0.20741834526E+02  0.16029379442E+02  0.18153660774E+02  0.31886048741E+02  0.00000000000E+00 0. -1.
         11    1    3    3    0    0 -0.22912764833E-02 -0.12729459380E+02  0.23475864551E+00  0.12731624140E+02  0.51100000000E-03 0. -1.
        -11    1    3    3    0    0 -0.30476289670E+02 -0.22169747546E+01 -0.66341406663E+01  0.31268690918E+02  0.51100000000E-03 0.  1.
        -12    1    3    3    0    0  0.97367464206E+01 -0.10829453069E+01 -0.11754278754E+02  0.15301636201E+02  0.00000000000E+00 0.  1.
</event>
<event>
 7    1  0.7749294E-012  0.5930196E+02  0.7816164E-02  0.1266605E+00
        -11   -1    0    0    0    0  0.00000000000E+00  0.00000000000E+00  0.45593999997E+02  0.45594000000E+02  0.51100000000E-03 0.  1.
         11   -1    0    0    0    0 -0.00000000000E+00 -0.00000000000E+00 -0.45593999997E+02  0.45594000000E+02  0.51100000000E-03 0. -1.
    9900012    2    1    2    0    0  0.25760972182E+02  0.16031115132E+02  0.98028079235E+01  0.59301962564E+02  0.50000033806E+02 0.  0.
         12    1    1    2    0    0 -0.25760972182E+02 -0.16031115132E+02 -0.98028079235E+01  0.31886037436E+02  0.00000000000E+00 0. -1.
         11    1    3    3    0    0  0.11597465346E+02 -0.85396705286E+01 -0.89461768230E+01  0.16954682398E+02  0.51100000000E-03 0. -1.
        -11    1    3    3    0    0  0.13309574256E+02  0.20645457746E+02  0.24915295691E+02  0.34987878645E+02  0.51100000000E-03 0.  1.
        -12    1    3    3    0    0  0.85393257990E+00  0.39253279148E+01 -0.61663109448E+01  0.73594015217E+01  0.00000000000E+00 0.  1.
</event>
<event>
 7    1  0.7749294E-012  0.5930191E+02  0.7816164E-02  0.1266605E+00
        -11   -1    0    0    0    0  0.00000000000E+00  0.00000000000E+00  0.45593999997E+02  0.45594000000E+02  0.51100000000E-03 0. -1.
         11   -1    0    0    0    0 -0.00000000000E+00 -0.00000000000E+00 -0.45593999997E+02  0.45594000000E+02  0.51100000000E-03 0.  1.
    9900012    2    1    2    0    0 -0.78951954211E+01 -0.12080916865E+02 -0.28433083015E+02  0.59301907847E+02  0.49999934015E+02 0.  0.
         12    1    1    2    0    0  0.78951954211E+01  0.12080916865E+02  0.28433083015E+02  0.31886092153E+02  0.00000000000E+00 0. -1.
         11    1    3    3    0    0 -0.96106474405E+01 -0.19805019554E+00  0.18431418423E+01  0.97877954728E+01  0.51100000000E-03 0. -1.
        -11    1    3    3    0    0  0.14562966215E+02 -0.14782820067E+02 -0.29827393704E+02  0.36335728554E+02  0.51100000000E-03 0.  1.
        -12    1    3    3    0    0 -0.12847514195E+02  0.28999533973E+01 -0.44883115360E+00  0.13178383820E+02  0.00000000000E+00 0.  1.
</event>
<event>
 7    1  0.7749294E-012  0.5930187E+02  0.7816164E-02  0.1266605E+00
        -11   -1    0    0    0    0  0.00000000000E+00  0.00000000000E+00  0.45593999997E+02  0.45594000000E+02  0.51100000000E-03 0. -1.
         11   -1    0    0    0    0 -0.00000000000E+00 -0.00000000000E+00 -0.45593999997E+02  0.45594000000E+02  0.51100000000E-03 0.  1.
    9900012    2    1    2    0    0 -0.24785093529E+02  0.16316819777E+02  0.11669857669E+02  0.59301873756E+02  0.49999871841E+02 0.  0.
         12    1    1    2    0    0  0.24785093529E+02 -0.16316819777E+02 -0.11669857669E+02  0.31886126244E+02  0.00000000000E+00 0. -1.
         11    1    3    3    0    0 -0.15632119173E+02  0.12380743092E+02  0.91450875354E+01  0.21938062258E+02  0.51100000000E-03 0. -1.
        -11    1    3    3    0    0 -0.33318180446E+01 -0.14586324265E+02 -0.60501399470E+01  0.16138960954E+02  0.51100000000E-03 0.  1.
        -12    1    3    3    0    0 -0.58211563106E+01  0.18522400949E+02  0.85749100804E+01  0.21224850544E+02  0.00000000000E+00 0.  1.
</event>
<event>
 7    1  0.7749294E-012  0.5930197E+02  0.7816164E-02  0.1266605E+00
        -11   -1    0    0    0    0  0.00000000000E+00  0.00000000000E+00  0.45593999997E+02  0.45594000000E+02  0.51100000000E-03 0. -1.
         11   -1    0    0    0    0 -0.00000000000E+00 -0.00000000000E+00 -0.45593999997E+02  0.45594000000E+02  0.51100000000E-03 0.  1.
    9900012    2    1    2    0    0 -0.21880210094E+02  0.17993692732E+02 -0.14635657409E+02  0.59301967954E+02  0.50000043635E+02 0.  0.
         12    1    1    2    0    0  0.21880210094E+02 -0.17993692732E+02  0.14635657409E+02  0.31886032046E+02  0.00000000000E+00 0. -1.
         11    1    3    3    0    0  0.84618310897E+01  0.15309380884E+02 -0.11400472569E+02  0.20879427758E+02  0.51100000000E-03 0. -1.
        -11    1    3    3    0    0 -0.19108660724E+02  0.20539033372E+01  0.94922569225E+01  0.21435073485E+02  0.51100000000E-03 0.  1.
        -12    1    3    3    0    0 -0.11233380460E+02  0.63040851103E+00 -0.12727441762E+02  0.16987466711E+02  0.00000000000E+00 0.  1.
</event>
<event>
 7    1  0.7749294E-012  0.5930195E+02  0.7816164E-02  0.1266605E+00
        -11   -1    0    0    0    0  0.00000000000E+00  0.00000000000E+00  0.45593999997E+02  0.45594000000E+02  0.51100000000E-03 0. -1.
         11   -1    0    0    0    0 -0.00000000000E+00 -0.00000000000E+00 -0.45593999997E+02  0.45594000000E+02  0.51100000000E-03 0.  1.
    9900012    2    1    2    0    0 -0.27863703203E+02 -0.13091667685E+02  0.83031616561E+01  0.59301949564E+02  0.50000010096E+02 0.  0.
         12    1    1    2    0    0  0.27863703203E+02  0.13091667685E+02 -0.83031616561E+01  0.31886050436E+02  0.00000000000E+00 0. -1.
         11    1    3    3    0    0  0.65890969687E+01 -0.98957761265E+00  0.14314054362E+02  0.15788844646E+02  0.51100000000E-03 0. -1.
        -11    1    3    3    0    0 -0.28938382574E+02  0.89801179434E+00 -0.46964002081E+01  0.29330744729E+02  0.51100000000E-03 0.  1.
         12    1    3    3    0    0 -0.55144175974E+01 -0.13000101867E+02 -0.13144924976E+01  0.14182360189E+02  0.00000000000E+00 0. -1.
</event>
<event>
 7    1  0.7749294E-012  0.5930191E+02  0.7816164E-02  0.1266605E+00
        -11   -1    0    0    0    0  0.00000000000E+00  0.00000000000E+00  0.45593999997E+02  0.45594000000E+02  0.51100000000E-03 0.  1.
         11   -1    0    0    0    0 -0.00000000000E+00 -0.00000000000E+00 -0.45593999997E+02  0.45594000000E+02  0.51100000000E-03 0. -1.
    9900012    2    1    2    0    0 -0.31156290299E+02 -0.60457895662E+01 -0.30751380164E+01  0.59301914155E+02  0.49999945520E+02 0.  0.
         12    1    1    2    0    0  0.31156290299E+02  0.60457895662E+01  0.30751380164E+01  0.31886085845E+02  0.00000000000E+00 0. -1.
         11    1    3    3    0    0 -0.56063852930E+01 -0.80665467106E+01 -0.22537352789E+02  0.24585219195E+02  0.51100000000E-03 0. -1.
        -11    1    3    3    0    0 -0.14145418603E+02  0.39003993577E+01  0.36324021823E+01  0.15116227323E+02  0.51100000000E-03 0.  1.
         12    1    3    3    0    0 -0.11404486403E+02 -0.18796422133E+01  0.15829812590E+02  0.19600467637E+02  0.00000000000E+00 0. -1.
</event>
<event>
 7    1  0.7749294E-012  0.5930194E+02  0.7816164E-02  0.1266605E+00
        -11   -1    0    0    0    0  0.00000000000E+00  0.00000000000E+00  0.45593999997E+02  0.45594000000E+02  0.51100000000E-03 0. -1.
         11   -1    0    0    0    0 -0.00000000000E+00 -0.00000000000E+00 -0.45593999997E+02  0.45594000000E+02  0.51100000000E-03 0.  1.
    9900012    2    1    2    0    0 -0.30935870165E+02 -0.66280388480E+01 -0.39701401538E+01  0.59301937611E+02  0.49999988298E+02 0.  0.
         12    1    1    2    0    0  0.30935870165E+02  0.66280388480E+01  0.39701401538E+01  0.31886062389E+02  0.00000000000E+00 0. -1.
         11    1    3    3    0    0 -0.95008971154E+01  0.74127905234E+00  0.99233309064E+01  0.13758235249E+02  0.51100000000E-03 0. -1.
        -11    1    3    3    0    0 -0.31997297282E+02 -0.37978114744E+01 -0.10179961060E+02  0.33791744743E+02  0.51100000000E-03 0.  1.
        -12    1    3    3    0    0  0.10562324233E+02 -0.35715064259E+01 -0.37135100005E+01  0.11751957619E+02  0.00000000000E+00 0.  1.
</event>
<event>
 7    1  0.7749294E-012  0.5930194E+02  0.7816164E-02  0.1266605E+00
        -11   -1    0    0    0    0  0.00000000000E+00  0.00000000000E+00  0.45593999997E+02  0.45594000000E+02  0.51100000000E-03 0.  1.
         11   -1    0    0    0    0 -0.00000000000E+00 -0.00000000000E+00 -0.45593999997E+02  0.45594000000E+02  0.51100000000E-03 0. -1.
    9900012    2    1    2    0    0 -0.24997221815E+02 -0.18865772921E+02  0.59951746097E+01  0.59301943408E+02  0.49999998871E+02 0.  0.
         12    1    1    2    0    0  0.24997221815E+02  0.18865772921E+02 -0.59951746097E+01  0.31886056592E+02  0.00000000000E+00 0. -1.
         11    1    3    3    0    0 -0.39108093487E+01  0.56091556812E+00 -0.39176561528E+01  0.55639092398E+01  0.51100000000E-03 0.  1.
        -11    1    3    3    0    0  0.12414588498E+02 -0.14211279390E+02  0.45631838317E+01  0.19414044308E+02  0.51100000000E-03 0. -1.
        -12    1    3    3    0    0 -0.33501000964E+02 -0.52154090997E+01  0.53496469307E+01  0.34323989860E+02  0.00000000000E+00 0.  1.
</event>
<event>
 7    1  0.7749294E-012  0.5930212E+02  0.7816164E-02  0.1266604E+00
        -11   -1    0    0    0    0  0.00000000000E+00  0.00000000000E+00  0.45593999997E+02  0.45594000000E+02  0.51100000000E-03 0. -1.
         11   -1    0    0    0    0 -0.00000000000E+00 -0.00000000000E+00 -0.45593999997E+02  0.45594000000E+02  0.51100000000E-03 0.  1.
    9900012    2    1    2    0    0 -0.19744680499E+02 -0.24718241808E+02  0.39831642256E+01  0.59302117805E+02  0.50000316928E+02 0.  0.
         12    1    1    2    0    0  0.19744680499E+02  0.24718241808E+02 -0.39831642256E+01  0.31885882195E+02  0.00000000000E+00 0. -1.
         11    1    3    3    0    0  0.28937989586E+01  0.32603391391E+01 -0.13907500471E+02  0.14574719665E+02  0.51100000000E-03 0. -1.
        -11    1    3    3    0    0 -0.12257310365E+02 -0.30787672601E+01  0.53465400376E+00  0.12649360473E+02  0.51100000000E-03 0.  1.
         12    1    3    3    0    0 -0.10381169093E+02 -0.24899813687E+02  0.17356010693E+02  0.32078037667E+02  0.00000000000E+00 0. -1.
</event>
<event>
 7    1  0.7749294E-012  0.5930193E+02  0.7816164E-02  0.1266605E+00
        -11   -1    0    0    0    0  0.00000000000E+00  0.00000000000E+00  0.45593999997E+02  0.45594000000E+02  0.51100000000E-03 0.  1.
         11   -1    0    0    0    0 -0.00000000000E+00 -0.00000000000E+00 -0.45593999997E+02  0.45594000000E+02  0.51100000000E-03 0. -1.
    9900012    2    1    2    0    0 -0.29387953838E+01 -0.36189307190E+01  0.31543432165E+02  0.59301932657E+02  0.49999979263E+02 0.  0.
         12    1    1    2    0    0  0.29387953838E+01  0.36189307190E+01 -0.31543432165E+02  0.31886067343E+02  0.00000000000E+00 0. -1.
         11    1    3    3    0    0 -0.38243916215E+01 -0.18769556953E+02  0.24046799291E+02  0.30743630168E+02  0.51100000000E-03 0.  1.
        -11    1    3    3    0    0  0.22189255317E+01  0.20422049036E+02  0.96676692624E+01  0.22703469924E+02  0.51100000000E-03 0. -1.
        -12    1    3    3    0    0 -0.13333292940E+01 -0.52714228023E+01 -0.21710363887E+01  0.58548325653E+01  0.00000000000E+00 0.  1.
</event>
<event>
 7    1  0.7749294E-012  0.5930195E+02  0.7816164E-02  0.1266605E+00
        -11   -1    0    0    0    0  0.00000000000E+00  0.00000000000E+00  0.45593999997E+02  0.45594000000E+02  0.51100000000E-03 0. -1.
         11   -1    0    0    0    0 -0.00000000000E+00 -0.00000000000E+00 -0.45593999997E+02  0.45594000000E+02  0.51100000000E-03 0.  1.
    9900012    2    1    2    0    0  0.61074072474E+01 -0.27221709942E-01 -0.31295670421E+02  0.59301950520E+02  0.50000011841E+02 0.  0.
         12    1    1    2    0    0 -0.61074072474E+01  0.27221709942E-01  0.31295670421E+02  0.31886049480E+02  0.00000000000E+00 0. -1.
         11    1    3    3    0    0  0.18792419061E+02  0.36031479227E+01 -0.68363242394E+01  0.20319277017E+02  0.51100000000E-03 0. -1.
        -11    1    3    3    0    0 -0.17098491311E+02  0.71844578604E+01 -0.16720029348E+02  0.24970667222E+02  0.51100000000E-03 0.  1.
        -12    1    3    3    0    0  0.44134794972E+01 -0.10814827493E+02 -0.77393168337E+01  0.14012006281E+02  0.00000000000E+00 0.  1.
</event>
<event>
 7    1  0.7749294E-012  0.5930197E+02  0.7816164E-02  0.1266605E+00
        -11   -1    0    0    0    0  0.00000000000E+00  0.00000000000E+00  0.45593999997E+02  0.45594000000E+02  0.51100000000E-03 0.  1.
         11   -1    0    0    0    0 -0.00000000000E+00 -0.00000000000E+00 -0.45593999997E+02  0.45594000000E+02  0.51100000000E-03 0. -1.
    9900012    2    1    2    0    0 -0.18862121106E+02  0.24357823561E+02 -0.82240933681E+01  0.59301970254E+02  0.50000047830E+02 0.  0.
         12    1    1    2    0    0  0.18862121106E+02 -0.24357823561E+02  0.82240933681E+01  0.31886029746E+02  0.00000000000E+00 0. -1.
         11    1    3    3    0    0 -0.28007046436E+01  0.34682745616E+02 -0.12220174108E+02  0.36879119369E+02  0.51100000000E-03 0. -1.
        -11    1    3    3    0    0 -0.69549809421E+01 -0.75197700157E+01 -0.29173777905E+01  0.10650342456E+02  0.51100000000E-03 0.  1.
        -12    1    3    3    0    0 -0.91064355207E+01 -0.28051520391E+01  0.69134585306E+01  0.11772508429E+02  0.00000000000E+00 0.  1.
</event>
<event>
 7    1  0.7749294E-012  0.5930198E+02  0.7816164E-02  0.1266605E+00
        -11   -1    0    0    0    0  0.00000000000E+00  0.00000000000E+00  0.45593999997E+02  0.45594000000E+02  0.51100000000E-03 0. -1.
         11   -1    0    0    0    0 -0.00000000000E+00 -0.00000000000E+00 -0.45593999997E+02  0.45594000000E+02  0.51100000000E-03 0.  1.
    9900012    2    1    2    0    0  0.12300802497E+02  0.19101617680E+02 -0.22372673423E+02  0.59301983376E+02  0.50000071762E+02 0.  0.
         12    1    1    2    0    0 -0.12300802497E+02 -0.19101617680E+02  0.22372673423E+02  0.31886016624E+02  0.00000000000E+00 0. -1.
         11    1    3    3    0    0 -0.10170866472E+02 -0.10317598819E+01  0.31665963422E+01  0.10702260785E+02  0.51100000000E-03 0. -1.
        -11    1    3    3    0    0  0.10431833381E+02  0.17847298496E+02 -0.29229685450E+02  0.35801169297E+02  0.51100000000E-03 0.  1.
        -12    1    3    3    0    0  0.12039835588E+02  0.22860790652E+01  0.36904156849E+01  0.12798553294E+02  0.00000000000E+00 0.  1.
</event>
<event>
 7    1  0.7749294E-012  0.5930197E+02  0.7816164E-02  0.1266605E+00
        -11   -1    0    0    0    0  0.00000000000E+00  0.00000000000E+00  0.45593999997E+02  0.45594000000E+02  0.51100000000E-03 0. -1.
         11   -1    0    0    0    0 -0.00000000000E+00 -0.00000000000E+00 -0.45593999997E+02  0.45594000000E+02  0.51100000000E-03 0.  1.
    9900012    2    1    2    0    0  0.21047036387E+02 -0.23798479408E+02 -0.27154845341E+01  0.59301965140E+02  0.50000038503E+02 0.  0.
         12    1    1    2    0    0 -0.21047036387E+02  0.23798479408E+02  0.27154845341E+01  0.31886034860E+02  0.00000000000E+00 0. -1.
         11    1    3    3    0    0  0.20773468704E+02 -0.10228605721E+01  0.66884866874E+01  0.21847633743E+02  0.51100000000E-03 0. -1.
        -11    1    3    3    0    0  0.91225662711E+00 -0.11040395753E+02 -0.19191885188E+02  0.22159670753E+02  0.51100000000E-03 0.  1.
        -12    1    3    3    0    0 -0.63868894395E+00 -0.11735223084E+02  0.97879139667E+01  0.15294660644E+02  0.00000000000E+00 0.  1.
</event>
<event>
 7    1  0.7749294E-012  0.5930197E+02  0.7816164E-02  0.1266605E+00
        -11   -1    0    0    0    0  0.00000000000E+00  0.00000000000E+00  0.45593999997E+02  0.45594000000E+02  0.51100000000E-03 0. -1.
         11   -1    0    0    0    0 -0.00000000000E+00 -0.00000000000E+00 -0.45593999997E+02  0.45594000000E+02  0.51100000000E-03 0.  1.
    9900012    2    1    2    0    0 -0.23833775390E+02 -0.17225616036E+02 -0.12326725946E+02  0.59301970618E+02  0.50000048495E+02 0.  0.
         12    1    1    2    0    0  0.23833775390E+02  0.17225616036E+02  0.12326725946E+02  0.31886029382E+02  0.00000000000E+00 0. -1.
         11    1    3    3    0    0 -0.14047800495E+02 -0.33341762972E+02 -0.61883835449E+01  0.36705720916E+02  0.51100000000E-03 0. -1.
        -11    1    3    3    0    0 -0.25922393153E+01  0.18934766756E+01 -0.58293631691E+01  0.66548053170E+01  0.51100000000E-03 0.  1.
         12    1    3    3    0    0 -0.71937355803E+01  0.14222670260E+02 -0.30897923234E+00  0.15941444386E+02  0.00000000000E+00 0. -1.
</event>
<event>
 7    1  0.7749294E-012  0.5930192E+02  0.7816164E-02  0.1266605E+00
        -11   -1    0    0    0    0  0.00000000000E+00  0.00000000000E+00  0.45593999997E+02  0.45594000000E+02  0.51100000000E-03 0. -1.
         11   -1    0    0    0    0 -0.00000000000E+00 -0.00000000000E+00 -0.45593999997E+02  0.45594000000E+02  0.51100000000E-03 0.  1.
    9900012    2    1    2    0    0 -0.13324227565E+02 -0.25587242367E+02 -0.13582346254E+02  0.59301919308E+02  0.49999954916E+02 0.  0.
         12    1    1    2    0    0  0.13324227565E+02  0.25587242367E+02  0.13582346254E+02  0.31886080692E+02  0.00000000000E+00 0. -1.
         11    1    3    3    0    0 -0.96991695227E+01  0.24096568996E+01  0.56948190152E+01  0.11502664895E+02  0.51100000000E-03 0. -1.
        -11    1    3    3    0    0  0.90077575515E+01 -0.24377109201E+02 -0.22380285950E+02  0.34296652149E+02  0.51100000000E-03 0.  1.
        -12    1    3    3    0    0 -0.12632815594E+02 -0.36197900653E+01  0.31031206810E+01  0.13502602264E+02  0.00000000000E+00 0.  1.
</event>
<event>
 7    1  0.7749294E-012  0.5930190E+02  0.7816164E-02  0.1266605E+00
        -11   -1    0    0    0    0  0.00000000000E+00  0.00000000000E+00  0.45593999997E+02  0.45594000000E+02  0.51100000000E-03 0.  1.
         11   -1    0    0    0    0 -0.00000000000E+00 -0.00000000000E+00 -0.45593999997E+02  0.45594000000E+02  0.51100000000E-03 0. -1.
    9900012    2    1    2    0    0 -0.28698136663E+02 -0.97242553475E+01 -0.99286964991E+01  0.59301902651E+02  0.49999924538E+02 0.  0.
         12    1    1    2    0    0  0.28698136663E+02  0.97242553475E+01  0.99286964991E+01  0.31886097349E+02  0.00000000000E+00 0. -1.
         11    1    3    3    0    0  0.10990431493E+01 -0.19444975639E+02 -0.92117471407E+01  0.21544634114E+02  0.51100000000E-03 0. -1.
        -11    1    3    3    0    0 -0.15220736981E+02  0.15009412886E+02  0.35626540818E+01  0.21671313154E+02  0.51100000000E-03 0.  1.
         12    1    3    3    0    0 -0.14576442831E+02 -0.52886925946E+01 -0.42796034402E+01  0.16085955383E+02  0.00000000000E+00 0. -1.
</event>
<event>
 7    1  0.7749294E-012  0.5930199E+02  0.7816164E-02  0.1266605E+00
        -11   -1    0    0    0    0  0.00000000000E+00  0.00000000000E+00  0.45593999997E+02  0.45594000000E+02  0.51100000000E-03 0. -1.
         11   -1    0    0    0    0 -0.00000000000E+00 -0.00000000000E+00 -0.45593999997E+02  0.45594000000E+02  0.51100000000E-03 0.  1.
    9900012    2    1    2    0    0  0.93963199233E+01  0.97659248482E+01  0.28862667580E+02  0.59301989022E+02  0.50000082059E+02 0.  0.
         12    1    1    2    0    0 -0.93963199233E+01 -0.97659248482E+01 -0.28862667580E+02  0.31886010978E+02  0.00000000000E+00 0. -1.
         11    1    3    3    0    0  0.26665666372E+01  0.20193427305E+02  0.21264775378E+02  0.29446150106E+02  0.51100000000E-03 0.  1.
        -11    1    3    3    0    0  0.99030058538E+01 -0.14782976682E+02  0.13144864657E+02  0.22122237491E+02  0.51100000000E-03 0. -1.
        -12    1    3    3    0    0 -0.31732525676E+01  0.43554742247E+01 -0.55469724545E+01  0.77336014244E+01  0.00000000000E+00 0.  1.
</event>
<event>
 7    1  0.7749294E-012  0.5930195E+02  0.7816164E-02  0.1266605E+00
        -11   -1    0    0    0    0  0.00000000000E+00  0.00000000000E+00  0.45593999997E+02  0.45594000000E+02  0.51100000000E-03 0. -1.
         11   -1    0    0    0    0 -0.00000000000E+00 -0.00000000000E+00 -0.45593999997E+02  0.45594000000E+02  0.51100000000E-03 0.  1.
    9900012    2    1    2    0    0  0.23043504492E+02 -0.64509430098E+01 -0.21073740386E+02  0.59301948208E+02  0.50000007625E+02 0.  0.
         12    1    1    2    0    0 -0.23043504492E+02  0.64509430098E+01  0.21073740386E+02  0.31886051792E+02  0.00000000000E+00 0. -1.
         11    1    3    3    0    0 -0.38107003829E+01 -0.46946137847E+01  0.97560056172E+01  0.11477825659E+02  0.51100000000E-03 0. -1.
        -11    1    3    3    0    0  0.25123857388E+02 -0.10046790509E+02 -0.27891559626E+02  0.38859816111E+02  0.51100000000E-03 0.  1.
         12    1    3    3    0    0  0.17303474874E+01  0.82904612840E+01 -0.29381863770E+01  0.89643064380E+01  0.00000000000E+00 0. -1.
</event>
<event>
 7    1  0.7749294E-012  0.5930194E+02  0.7816164E-02  0.1266605E+00
        -11   -1    0    0    0    0  0.00000000000E+00  0.00000000000E+00  0.45593999997E+02  0.45594000000E+02  0.51100000000E-03 0.  1.
         11   -1    0    0    0    0 -0.00000000000E+00 -0.00000000000E+00 -0.45593999997E+02  0.45594000000E+02  0.51100000000E-03 0. -1.
    9900012    2    1    2    0    0 -0.26484644992E+02 -0.16402931291E+02  0.67991376915E+01  0.59301939588E+02  0.49999991903E+02 0.  0.
         12    1    1    2    0    0  0.26484644992E+02  0.16402931291E+02 -0.67991376915E+01  0.31886060412E+02  0.00000000000E+00 0. -1.
         11    1    3    3    0    0  0.17463231202E+01 -0.51005264352E+01 -0.59465437998E+01  0.80266056201E+01  0.51100000000E-03 0. -1.
        -11    1    3    3    0    0 -0.35061007950E+02 -0.18533761881E+02  0.91644899934E+01  0.40703347344E+02  0.51100000000E-03 0.  1.
        -12    1    3    3    0    0  0.68300398382E+01  0.72313570254E+01  0.35811914979E+01  0.10571986623E+02  0.00000000000E+00 0.  1.
</event>
<event>
 7    1  0.7749294E-012  0.5930177E+02  0.7816164E-02  0.1266605E+00
        -11   -1    0    0    0    0  0.00000000000E+00  0.00000000000E+00  0.45593999997E+02  0.45594000000E+02  0.51100000000E-03 0.  1.
         11   -1    0    0    0    0 -0.00000000000E+00 -0.00000000000E+00 -0.45593999997E+02  0.45594000000E+02  0.51100000000E-03 0. -1.
    9900012    2    1    2    0    0 -0.54129412786E+01  0.31152966934E+02  0.41138978646E+01  0.59301773542E+02  0.49999689074E+02 0.  0.
         12    1    1    2    0    0  0.54129412786E+01 -0.31152966934E+02 -0.41138978646E+01  0.31886226458E+02  0.00000000000E+00 0. -1.
         11    1    3    3    0    0  0.36236263050E+01 -0.11712960759E+01  0.63410418994E+01  0.73967164828E+01  0.51100000000E-03 0. -1.
        -11    1    3    3    0    0 -0.12419806817E+02  0.36099889905E+02 -0.12729638898E+02  0.40242979006E+02  0.51100000000E-03 0.  1.
        -12    1    3    3    0    0  0.33832392335E+01 -0.37756268953E+01  0.10502494863E+02  0.11662078053E+02  0.00000000000E+00 0.  1.
</event>
<event>
 7    1  0.7749294E-012  0.5930194E+02  0.7816164E-02  0.1266605E+00
        -11   -1    0    0    0    0  0.00000000000E+00  0.00000000000E+00  0.45593999997E+02  0.45594000000E+02  0.51100000000E-03 0.  1.
         11   -1    0    0    0    0 -0.00000000000E+00 -0.00000000000E+00 -0.45593999997E+02  0.45594000000E+02  0.51100000000E-03 0. -1.
    9900012    2    1    2    0    0 -0.13202254619E+02 -0.16130477354E+02  0.24129416409E+02  0.59301944068E+02  0.50000000073E+02 0.  0.
         12    1    1    2    0    0  0.13202254619E+02  0.16130477354E+02 -0.24129416409E+02  0.31886055932E+02  0.00000000000E+00 0. -1.
         11    1    3    3    0    0  0.98452779309E+00 -0.91218043212E+01 -0.77310253348E+01  0.11997723202E+02  0.51100000000E-03 0.  1.
        -11    1    3    3    0    0 -0.14079458019E+02 -0.58382753923E+00  0.36665777650E+02  0.39280418069E+02  0.51100000000E-03 0. -1.
         12    1    3    3    0    0 -0.10732439321E+00 -0.64248454938E+01 -0.48053359065E+01  0.80238027967E+01  0.00000000000E+00 0. -1.
</event>
<event>
 7    1  0.7749294E-012  0.5930198E+02  0.7816164E-02  0.1266605E+00
        -11   -1    0    0    0    0  0.00000000000E+00  0.00000000000E+00  0.45593999997E+02  0.45594000000E+02  0.51100000000E-03 0. -1.
         11   -1    0    0    0    0 -0.00000000000E+00 -0.00000000000E+00 -0.45593999997E+02  0.45594000000E+02  0.51100000000E-03 0.  1.
    9900012    2    1    2    0    0  0.42448880712E+01  0.83322491691E+01 -0.30483980063E+02  0.59301976550E+02  0.50000059314E+02 0.  0.
         12    1    1    2    0    0 -0.42448880712E+01 -0.83322491691E+01  0.30483980063E+02  0.31886023450E+02  0.00000000000E+00 0. -1.
         11    1    3    3    0    0 -0.56174668375E+01  0.12570180989E+01  0.10107562788E+00  0.57572775437E+01  0.51100000000E-03 0. -1.
        -11    1    3    3    0    0  0.19147422258E+02 -0.38551143320E+01 -0.33623385796E+02  0.38884672536E+02  0.51100000000E-03 0.  1.
        -12    1    3    3    0    0 -0.92850673489E+01  0.10930345402E+02  0.30383301052E+01  0.14660026470E+02  0.00000000000E+00 0.  1.
</event>
<event>
 7    1  0.7749294E-012  0.5930194E+02  0.7816164E-02  0.1266605E+00
        -11   -1    0    0    0    0  0.00000000000E+00  0.00000000000E+00  0.45593999997E+02  0.45594000000E+02  0.51100000000E-03 0.  1.
         11   -1    0    0    0    0 -0.00000000000E+00 -0.00000000000E+00 -0.45593999997E+02  0.45594000000E+02  0.51100000000E-03 0. -1.
    9900012    2    1    2    0    0  0.22579801514E+02 -0.22287590182E+02  0.31837748018E+01  0.59301944513E+02  0.50000000886E+02 0.  0.
         12    1    1    2    0    0 -0.22579801514E+02  0.22287590182E+02 -0.31837748018E+01  0.31886055487E+02  0.00000000000E+00 0. -1.
         11    1    3    3    0    0  0.14310620092E+02  0.12413355324E+02  0.73571664116E+01  0.20322724613E+02  0.51100000000E-03 0. -1.
        -11    1    3    3    0    0  0.51381180252E+01 -0.22284553398E+02  0.47684358362E+01  0.23361069273E+02  0.51100000000E-03 0.  1.
         12    1    3    3    0    0  0.31310633964E+01 -0.12416392107E+02 -0.89418274460E+01  0.15618150628E+02  0.00000000000E+00 0. -1.
</event>
<event>
 7    1  0.7749294E-012  0.5930194E+02  0.7816164E-02  0.1266605E+00
        -11   -1    0    0    0    0  0.00000000000E+00  0.00000000000E+00  0.45593999997E+02  0.45594000000E+02  0.51100000000E-03 0.  1.
         11   -1    0    0    0    0 -0.00000000000E+00 -0.00000000000E+00 -0.45593999997E+02  0.45594000000E+02  0.51100000000E-03 0. -1.
    9900012    2    1    2    0    0  0.29571375702E+02 -0.11520965156E+02 -0.30857188840E+01  0.59301944112E+02  0.50000000154E+02 0.  0.
         12    1    1    2    0    0 -0.29571375702E+02  0.11520965156E+02  0.30857188840E+01  0.31886055888E+02  0.00000000000E+00 0. -1.
         11    1    3    3    0    0  0.18275114045E+02 -0.14522362416E+02  0.11850438474E+02  0.26178458621E+02  0.51100000000E-03 0. -1.
        -11    1    3    3    0    0  0.83118012874E+01  0.13458994146E+02 -0.15764311501E+01  0.15897034299E+02  0.51100000000E-03 0.  1.
         12    1    3    3    0    0  0.29844603699E+01 -0.10457596886E+02 -0.13359726208E+02  0.17226451192E+02  0.00000000000E+00 0. -1.
</event>
<event>
 7    1  0.7749294E-012  0.5930196E+02  0.7816164E-02  0.1266605E+00
        -11   -1    0    0    0    0  0.00000000000E+00  0.00000000000E+00  0.45593999997E+02  0.45594000000E+02  0.51100000000E-03 0.  1.
         11   -1    0    0    0    0 -0.00000000000E+00 -0.00000000000E+00 -0.45593999997E+02  0.45594000000E+02  0.51100000000E-03 0. -1.
    9900012    2    1    2    0    0 -0.23981690059E+02  0.13330743155E+02  0.16244671897E+02  0.59301960167E+02  0.50000029434E+02 0.  0.
         12    1    1    2    0    0  0.23981690059E+02 -0.13330743155E+02 -0.16244671897E+02  0.31886039833E+02  0.00000000000E+00 0. -1.
         11    1    3    3    0    0  0.39672494392E+01  0.20093392485E+02  0.57361395777E+01  0.21269386150E+02  0.51100000000E-03 0. -1.
        -11    1    3    3    0    0 -0.28466796599E+02 -0.39005480126E+01  0.17300862146E+01  0.28784822077E+02  0.51100000000E-03 0.  1.
        -12    1    3    3    0    0  0.51785710084E+00 -0.28621013172E+01  0.87784461052E+01  0.92477519403E+01  0.00000000000E+00 0.  1.
</event>
<event>
 7    1  0.7749294E-012  0.5930192E+02  0.7816164E-02  0.1266605E+00
        -11   -1    0    0    0    0  0.00000000000E+00  0.00000000000E+00  0.45593999997E+02  0.45594000000E+02  0.51100000000E-03 0.  1.
         11   -1    0    0    0    0 -0.00000000000E+00 -0.00000000000E+00 -0.45593999997E+02  0.45594000000E+02  0.51100000000E-03 0. -1.
    9900012    2    1    2    0    0 -0.14207524290E+01  0.27963835237E+02 -0.15255401821E+02  0.59301923049E+02  0.49999961739E+02 0.  0.
         12    1    1    2    0    0  0.14207524290E+01 -0.27963835237E+02  0.15255401821E+02  0.31886076951E+02  0.00000000000E+00 0. -1.
         11    1    3    3    0    0 -0.61262252949E+01  0.59105616499E+01 -0.89242803018E+01  0.12333213472E+02  0.51100000000E-03 0. -1.
        -11    1    3    3    0    0  0.20011358484E+02  0.23349671543E+02 -0.12048364230E+01  0.30775205289E+02  0.51100000000E-03 0.  1.
        -12    1    3    3    0    0 -0.15305885618E+02 -0.12963979563E+01 -0.51262850964E+01  0.16193504287E+02  0.00000000000E+00 0.  1.
</event>
<event>
 7    1  0.7749294E-012  0.5930196E+02  0.7816164E-02  0.1266605E+00
        -11   -1    0    0    0    0  0.00000000000E+00  0.00000000000E+00  0.45593999997E+02  0.45594000000E+02  0.51100000000E-03 0. -1.
         11   -1    0    0    0    0 -0.00000000000E+00 -0.00000000000E+00 -0.45593999997E+02  0.45594000000E+02  0.51100000000E-03 0.  1.
    9900012    2    1    2    0    0 -0.22458756430E+02 -0.20924378016E+02  0.86309967460E+01  0.59301961667E+02  0.50000032169E+02 0.  0.
         12    1    1    2    0    0  0.22458756430E+02  0.20924378016E+02 -0.86309967460E+01  0.31886038333E+02  0.00000000000E+00 0. -1.
         11    1    3    3    0    0 -0.27577165394E+02 -0.16988213312E+02  0.23916519080E+02  0.40262877789E+02  0.51100000000E-03 0. -1.
        -11    1    3    3    0    0  0.65050363402E+01  0.54319473340E+00 -0.74269495353E+01  0.98878783349E+01  0.51100000000E-03 0.  1.
         12    1    3    3    0    0 -0.13866273765E+01 -0.44793594377E+01 -0.78585727986E+01  0.91512055427E+01  0.00000000000E+00 0. -1.
</event>
<event>
 7    1  0.7749294E-012  0.5930195E+02  0.7816164E-02  0.1266605E+00
        -11   -1    0    0    0    0  0.00000000000E+00  0.00000000000E+00  0.45593999997E+02  0.45594000000E+02  0.51100000000E-03 0.  1.
         11   -1    0    0    0    0 -0.00000000000E+00 -0.00000000000E+00 -0.45593999997E+02  0.45594000000E+02  0.51100000000E-03 0. -1.
    9900012    2    1    2    0    0 -0.29131637798E+02  0.12563590575E+02  0.31974687475E+01  0.59301953909E+02  0.50000018022E+02 0.  0.
         12    1    1    2    0    0  0.29131637798E+02 -0.12563590575E+02 -0.31974687475E+01  0.31886046091E+02  0.00000000000E+00 0. -1.
         11    1    3    3    0    0 -0.70959985672E+01 -0.13350065791E+01 -0.14696863330E+02  0.16374774204E+02  0.51100000000E-03 0. -1.
        -11    1    3    3    0    0 -0.10670322098E+02 -0.53525117817E+01  0.16715415256E+02  0.20540454316E+02  0.51100000000E-03 0.  1.
        -12    1    3    3    0    0 -0.11365317132E+02  0.19251108936E+02  0.11789168219E+01  0.22386725389E+02  0.00000000000E+00 0.  1.
</event>
<event>
 7    1  0.7749294E-012  0.5930194E+02  0.7816164E-02  0.1266605E+00
        -11   -1    0    0    0    0  0.00000000000E+00  0.00000000000E+00  0.45593999997E+02  0.45594000000E+02  0.51100000000E-03 0. -1.
         11   -1    0    0    0    0 -0.00000000000E+00 -0.00000000000E+00 -0.45593999997E+02  0.45594000000E+02  0.51100000000E-03 0.  1.
    9900012    2    1    2    0    0  0.20127243315E+02  0.24230794687E+02 -0.49480478846E+01  0.59301944859E+02  0.50000001516E+02 0.  0.
         12    1    1    2    0    0 -0.20127243315E+02 -0.24230794687E+02  0.49480478846E+01  0.31886055141E+02  0.00000000000E+00 0. -1.
         11    1    3    3    0    0  0.24575388100E+02  0.15147445705E+02  0.59641960892E+01  0.29478236836E+02  0.51100000000E-03 0. -1.
        -11    1    3    3    0    0 -0.17084987047E+01  0.17308065311E+02 -0.11936702088E+02  0.21094381945E+02  0.51100000000E-03 0.  1.
         12    1    3    3    0    0 -0.27396460811E+01 -0.82247163296E+01  0.10244581144E+01  0.87293260783E+01  0.00000000000E+00 0. -1.
</event>
<event>
 7    1  0.7749294E-012  0.5930192E+02  0.7816164E-02  0.1266605E+00
        -11   -1    0    0    0    0  0.00000000000E+00  0.00000000000E+00  0.45593999997E+02  0.45594000000E+02  0.51100000000E-03 0. -1.
         11   -1    0    0    0    0 -0.00000000000E+00 -0.00000000000E+00 -0.45593999997E+02  0.45594000000E+02  0.51100000000E-03 0.  1.
    9900012    2    1    2    0    0  0.19278793537E+02  0.65663505259E+01 -0.24534324504E+02  0.59301922813E+02  0.49999961310E+02 0.  0.
         12    1    1    2    0    0 -0.19278793537E+02 -0.65663505259E+01  0.24534324504E+02  0.31886077187E+02  0.00000000000E+00 0. -1.
         11    1    3    3    0    0  0.77865928069E+01 -0.17581500621E+01 -0.21942282800E+02  0.23349216130E+02  0.51100000000E-03 0. -1.
        -11    1    3    3    0    0  0.49628877503E+01  0.20440233889E+02  0.27011560530E+01  0.21206830517E+02  0.51100000000E-03 0.  1.
        -12    1    3    3    0    0  0.65293129794E+01 -0.12115733301E+02 -0.52931977577E+01  0.14745876166E+02  0.00000000000E+00 0.  1.
</event>
<event>
 7    1  0.7749294E-012  0.5930190E+02  0.7816164E-02  0.1266605E+00
        -11   -1    0    0    0    0  0.00000000000E+00  0.00000000000E+00  0.45593999997E+02  0.45594000000E+02  0.51100000000E-03 0. -1.
         11   -1    0    0    0    0 -0.00000000000E+00 -0.00000000000E+00 -0.45593999997E+02  0.45594000000E+02  0.51100000000E-03 0.  1.
    9900012    2    1    2    0    0  0.16606165398E+02 -0.13649035138E+02  0.23551273779E+02  0.59301899798E+02  0.49999919336E+02 0.  0.
         12    1    1    2    0    0 -0.16606165398E+02  0.13649035138E+02 -0.23551273779E+02  0.31886100202E+02  0.00000000000E+00 0. -1.
         11    1    3    3    0    0  0.79378240087E+01  0.65998350020E+01  0.16672465153E+02  0.19609639635E+02  0.51100000000E-03 0. -1.
        -11    1    3    3    0    0  0.16612203069E+02 -0.11044726592E+02 -0.70920113416E+01  0.21171865799E+02  0.51100000000E-03 0.  1.
        -12    1    3    3    0    0 -0.79438616796E+01 -0.92041435481E+01  0.13970819968E+02  0.18520394364E+02  0.00000000000E+00 0.  1.
</event>
<event>
 7    1  0.7749294E-012  0.5930194E+02  0.7816164E-02  0.1266605E+00
        -11   -1    0    0    0    0  0.00000000000E+00  0.00000000000E+00  0.45593999997E+02  0.45594000000E+02  0.51100000000E-03 0. -1.
         11   -1    0    0    0    0 -0.00000000000E+00 -0.00000000000E+00 -0.45593999997E+02  0.45594000000E+02  0.51100000000E-03 0.  1.
    9900012    2    1    2    0    0 -0.24274059574E+02  0.54932296943E+01 -0.19932761331E+02  0.59301944819E+02  0.50000001444E+02 0.  0.
         12    1    1    2    0    0  0.24274059574E+02 -0.54932296943E+01  0.19932761331E+02  0.31886055181E+02  0.00000000000E+00 0. -1.
         11    1    3    3    0    0 -0.31121648785E+02  0.37703455796E+00  0.10111426973E+01  0.31140353049E+02  0.51100000000E-03 0. -1.
        -11    1    3    3    0    0  0.62408357918E+01 -0.39008725137E+01 -0.16549957875E+02  0.18112590750E+02  0.51100000000E-03 0.  1.
        -12    1    3    3    0    0  0.60675341935E+00  0.90170676500E+01 -0.43939461535E+01  0.10049001021E+02  0.00000000000E+00 0.  1.
</event>
<event>
 7    1  0.7749294E-012  0.5930192E+02  0.7816164E-02  0.1266605E+00
        -11   -1    0    0    0    0  0.00000000000E+00  0.00000000000E+00  0.45593999997E+02  0.45594000000E+02  0.51100000000E-03 0. -1.
         11   -1    0    0    0    0 -0.00000000000E+00 -0.00000000000E+00 -0.45593999997E+02  0.45594000000E+02  0.51100000000E-03 0.  1.
    9900012    2    1    2    0    0 -0.88180283755E+01 -0.24362828028E+02  0.18585403225E+02  0.59301917973E+02  0.49999952483E+02 0.  0.
         12    1    1    2    0    0  0.88180283755E+01  0.24362828028E+02 -0.18585403225E+02  0.31886082027E+02  0.00000000000E+00 0. -1.
         11    1    3    3    0    0 -0.16933510950E+02 -0.76791583789E+01  0.25749966496E+02  0.31761203398E+02  0.51100000000E-03 0. -1.
        -11    1    3    3    0    0 -0.40749908644E+01 -0.53668290074E+01 -0.85075120788E+01  0.10852933528E+02  0.51100000000E-03 0.  1.
         12    1    3    3    0    0  0.12190473438E+02 -0.11316840642E+02  0.13429488080E+01  0.16687781047E+02  0.00000000000E+00 0. -1.
</event>
<event>
 7    1  0.7749294E-012  0.5930196E+02  0.7816164E-02  0.1266605E+00
        -11   -1    0    0    0    0  0.00000000000E+00  0.00000000000E+00  0.45593999997E+02  0.45594000000E+02  0.51100000000E-03 0.  1.
         11   -1    0    0    0    0 -0.00000000000E+00 -0.00000000000E+00 -0.45593999997E+02  0.45594000000E+02  0.51100000000E-03 0. -1.
    9900012    2    1    2    0    0 -0.14402227907E+02  0.18388488639E+02  0.21706192335E+02  0.59301961225E+02  0.50000031363E+02 0.  0.
         12    1    1    2    0    0  0.14402227907E+02 -0.18388488639E+02 -0.21706192335E+02  0.31886038775E+02  0.00000000000E+00 0. -1.
         11    1    3    3    0    0 -0.11791016995E+01 -0.41067162403E+00  0.84052964407E-01  0.12513980831E+01  0.51100000000E-03 0. -1.
        -11    1    3    3    0    0 -0.99843041534E+01  0.31656872422E+02  0.27916990836E+02  0.43372828805E+02  0.51100000000E-03 0.  1.
        -12    1    3    3    0    0 -0.32388220537E+01 -0.12857712160E+02 -0.62948514651E+01  0.14677734336E+02  0.00000000000E+00 0.  1.
</event>
<event>
 7    1  0.7749294E-012  0.5930194E+02  0.7816164E-02  0.1266605E+00
        -11   -1    0    0    0    0  0.00000000000E+00  0.00000000000E+00  0.45593999997E+02  0.45594000000E+02  0.51100000000E-03 0.  1.
         11   -1    0    0    0    0 -0.00000000000E+00 -0.00000000000E+00 -0.45593999997E+02  0.45594000000E+02  0.51100000000E-03 0. -1.
    9900012    2    1    2    0    0  0.19299507041E+02  0.77346025076E+01  0.24174895249E+02  0.59301943356E+02  0.49999998776E+02 0.  0.
         12    1    1    2    0    0 -0.19299507041E+02 -0.77346025076E+01 -0.24174895249E+02  0.31886056644E+02  0.00000000000E+00 0. -1.
         11    1    3    3    0    0  0.16676646405E+02  0.11766318263E+02  0.32786256434E+02  0.38619883376E+02  0.51100000000E-03 0. -1.
        -11    1    3    3    0    0  0.74446733816E+01 -0.43877102974E+01  0.21322396541E+01  0.89006522017E+01  0.51100000000E-03 0.  1.
         12    1    3    3    0    0 -0.48218127447E+01  0.35599454155E+00 -0.10743600839E+02  0.11781407779E+02  0.00000000000E+00 0. -1.
</event>
<event>
 7    1  0.7749294E-012  0.5930191E+02  0.7816164E-02  0.1266605E+00
        -11   -1    0    0    0    0  0.00000000000E+00  0.00000000000E+00  0.45593999997E+02  0.45594000000E+02  0.51100000000E-03 0.  1.
         11   -1    0    0    0    0 -0.00000000000E+00 -0.00000000000E+00 -0.45593999997E+02  0.45594000000E+02  0.51100000000E-03 0. -1.
    9900012    2    1    2    0    0  0.74638048648E+01  0.30330731435E+02  0.64078912742E+01  0.59301910196E+02  0.49999938299E+02 0.  0.
         12    1    1    2    0    0 -0.74638048648E+01 -0.30330731435E+02 -0.64078912742E+01  0.31886089804E+02  0.00000000000E+00 0. -1.
         11    1    3    3    0    0 -0.77768067654E+01  0.33028535771E+02  0.18973931216E+01  0.33984746572E+02  0.51100000000E-03 0. -1.
        -11    1    3    3    0    0  0.31033624947E+01 -0.82965718751E+01  0.75161255601E+01  0.11617061046E+02  0.51100000000E-03 0.  1.
        -12    1    3    3    0    0  0.12137249135E+02  0.55987675393E+01 -0.30056274075E+01  0.13700102578E+02  0.00000000000E+00 0.  1.
</event>
<event>
 7    1  0.7749294E-012  0.5930191E+02  0.7816164E-02  0.1266605E+00
        -11   -1    0    0    0    0  0.00000000000E+00  0.00000000000E+00  0.45593999997E+02  0.45594000000E+02  0.51100000000E-03 0.  1.
         11   -1    0    0    0    0 -0.00000000000E+00 -0.00000000000E+00 -0.45593999997E+02  0.45594000000E+02  0.51100000000E-03 0. -1.
    9900012    2    1    2    0    0  0.30518323351E+02  0.94396146627E+00  0.91904197832E+01  0.59301906806E+02  0.49999932116E+02 0.  0.
         12    1    1    2    0    0 -0.30518323351E+02 -0.94396146627E+00 -0.91904197832E+01  0.31886093194E+02  0.00000000000E+00 0. -1.
         11    1    3    3    0    0 -0.73929853128E+01 -0.81450521812E+01  0.14551116413E+02  0.18240973000E+02  0.51100000000E-03 0. -1.
        -11    1    3    3    0    0  0.23478570079E+02  0.22875776546E+01  0.16206341357E+01  0.23645353027E+02  0.51100000000E-03 0.  1.
         12    1    3    3    0    0  0.14432738585E+02  0.68014359929E+01 -0.69813307652E+01  0.17415580779E+02  0.00000000000E+00 0. -1.
</event>
<event>
 7    1  0.7749294E-012  0.5930192E+02  0.7816164E-02  0.1266605E+00
        -11   -1    0    0    0    0  0.00000000000E+00  0.00000000000E+00  0.45593999997E+02  0.45594000000E+02  0.51100000000E-03 0. -1.
         11   -1    0    0    0    0 -0.00000000000E+00 -0.00000000000E+00 -0.45593999997E+02  0.45594000000E+02  0.51100000000E-03 0.  1.
    9900012    2    1    2    0    0 -0.31022571327E+02 -0.43621638452E+01  0.59408243018E+01  0.59301924693E+02  0.49999964737E+02 0.  0.
         12    1    1    2    0    0  0.31022571327E+02  0.43621638452E+01 -0.59408243018E+01  0.31886075307E+02  0.00000000000E+00 0. -1.
         11    1    3    3    0    0 -0.72280330519E+01 -0.14212229513E+02  0.12749855233E+02  0.20415453418E+02  0.51100000000E-03 0. -1.
        -11    1    3    3    0    0 -0.13521377100E+02  0.19706398500E+02 -0.25977777931E+01  0.24039929913E+02  0.51100000000E-03 0.  1.
        -12    1    3    3    0    0 -0.10273161174E+02 -0.98563328319E+01 -0.42112531381E+01  0.14846541362E+02  0.00000000000E+00 0.  1.
</event>
<event>
 7    1  0.7749294E-012  0.5930195E+02  0.7816164E-02  0.1266605E+00
        -11   -1    0    0    0    0  0.00000000000E+00  0.00000000000E+00  0.45593999997E+02  0.45594000000E+02  0.51100000000E-03 0. -1.
         11   -1    0    0    0    0 -0.00000000000E+00 -0.00000000000E+00 -0.45593999997E+02  0.45594000000E+02  0.51100000000E-03 0.  1.
    9900012    2    1    2    0    0 -0.10814818440E+02 -0.25433516659E+02 -0.15902706346E+02  0.59301950752E+02  0.50000012263E+02 0.  0.
         12    1    1    2    0    0  0.10814818440E+02  0.25433516659E+02  0.15902706346E+02  0.31886049248E+02  0.00000000000E+00 0. -1.
         11    1    3    3    0    0 -0.11287896273E+02 -0.24363309099E+02  0.50524079597E+01  0.27322413125E+02  0.51100000000E-03 0. -1.
        -11    1    3    3    0    0 -0.14792905087E+00  0.11516570555E+02 -0.91162083860E+01  0.14688721386E+02  0.51100000000E-03 0.  1.
         12    1    3    3    0    0  0.62100688422E+00 -0.12586778116E+02 -0.11838905920E+02  0.17290816241E+02  0.00000000000E+00 0. -1.
</event>
<event>
 7    1  0.7749294E-012  0.5930190E+02  0.7816164E-02  0.1266605E+00
        -11   -1    0    0    0    0  0.00000000000E+00  0.00000000000E+00  0.45593999997E+02  0.45594000000E+02  0.51100000000E-03 0. -1.
         11   -1    0    0    0    0 -0.00000000000E+00 -0.00000000000E+00 -0.45593999997E+02  0.45594000000E+02  0.51100000000E-03 0.  1.
    9900012    2    1    2    0    0  0.17681591514E+02 -0.66046322417E+01 -0.25699491156E+02  0.59301895014E+02  0.49999910611E+02 0.  0.
         12    1    1    2    0    0 -0.17681591514E+02  0.66046322417E+01  0.25699491156E+02  0.31886104986E+02  0.00000000000E+00 0. -1.
         11    1    3    3    0    0 -0.10309230750E+02 -0.73247259585E+01  0.64232573059E+00  0.12662718177E+02  0.51100000000E-03 0. -1.
        -11    1    3    3    0    0  0.27278438681E+02 -0.76503249739E+01 -0.25637666805E+02  0.38209038833E+02  0.51100000000E-03 0.  1.
        -12    1    3    3    0    0  0.71238358275E+00  0.83704186907E+01 -0.70415008127E+00  0.84301380038E+01  0.00000000000E+00 0.  1.
</event>
<event>
 7    1  0.7749294E-012  0.5930194E+02  0.7816164E-02  0.1266605E+00
        -11   -1    0    0    0    0  0.00000000000E+00  0.00000000000E+00  0.45593999997E+02  0.45594000000E+02  0.51100000000E-03 0. -1.
         11   -1    0    0    0    0 -0.00000000000E+00 -0.00000000000E+00 -0.45593999997E+02  0.45594000000E+02  0.51100000000E-03 0.  1.
    9900012    2    1    2    0    0  0.31129120441E+01 -0.70020435696E+00 -0.31726022666E+02  0.59301936873E+02  0.49999986951E+02 0.  0.
         12    1    1    2    0    0 -0.31129120441E+01  0.70020435696E+00  0.31726022666E+02  0.31886063127E+02  0.00000000000E+00 0. -1.
         11    1    3    3    0    0  0.59119716028E+01 -0.18625370109E+02 -0.43583539203E+01  0.20021265421E+02  0.51100000000E-03 0. -1.
        -11    1    3    3    0    0 -0.49421658838E+01  0.14058557925E+00 -0.18771397904E+02  0.19411598271E+02  0.51100000000E-03 0.  1.
         12    1    3    3    0    0  0.21431063251E+01  0.17784580172E+02 -0.85962708422E+01  0.19869073180E+02  0.00000000000E+00 0. -1.
</event>
<event>
 7    1  0.7749294E-012  0.5930195E+02  0.7816164E-02  0.1266605E+00
        -11   -1    0    0    0    0  0.00000000000E+00  0.00000000000E+00  0.45593999997E+02  0.45594000000E+02  0.51100000000E-03 0. -1.
         11   -1    0    0    0    0 -0.00000000000E+00 -0.00000000000E+00 -0.45593999997E+02  0.45594000000E+02  0.51100000000E-03 0.  1.
    9900012    2    1    2    0    0  0.23299606138E+02  0.11260084016E+01 -0.21738919575E+02  0.59301950301E+02  0.50000011441E+02 0.  0.
         12    1    1    2    0    0 -0.23299606138E+02 -0.11260084016E+01  0.21738919575E+02  0.31886049699E+02  0.00000000000E+00 0. -1.
         11    1    3    3    0    0 -0.10130143714E+02 -0.22883234550E+01 -0.15329063370E+02  0.18515842405E+02  0.51100000000E-03 0. -1.
        -11    1    3    3    0    0  0.22631842062E+02  0.11790500789E+02 -0.86350221482E+01  0.26940300513E+02  0.51100000000E-03 0.  1.
        -12    1    3    3    0    0  0.10797907790E+02 -0.83761689322E+01  0.22251659428E+01  0.13845807383E+02  0.00000000000E+00 0.  1.
</event>
<event>
 7    1  0.7749294E-012  0.5930221E+02  0.7816164E-02  0.1266604E+00
        -11   -1    0    0    0    0  0.00000000000E+00  0.00000000000E+00  0.45593999997E+02  0.45594000000E+02  0.51100000000E-03 0.  1.
         11   -1    0    0    0    0 -0.00000000000E+00 -0.00000000000E+00 -0.45593999997E+02  0.45594000000E+02  0.51100000000E-03 0. -1.
    9900012    2    1    2    0    0  0.25838709390E+02 -0.18466708787E+02  0.28364771362E+01  0.59302206315E+02  0.50000478347E+02 0.  0.
         12    1    1    2    0    0 -0.25838709390E+02  0.18466708787E+02 -0.28364771362E+01  0.31885793685E+02  0.00000000000E+00 0. -1.
         11    1    3    3    0    0  0.13545255120E+02 -0.12308309909E+02 -0.18363260583E+02  0.25926391353E+02  0.51100000000E-03 0. -1.
        -11    1    3    3    0    0  0.15220786563E+02  0.35092822142E+01  0.11781173827E+02  0.19564852728E+02  0.51100000000E-03 0.  1.
         12    1    3    3    0    0 -0.29273322935E+01 -0.96676810924E+01  0.94185638914E+01  0.13810962234E+02  0.00000000000E+00 0. -1.
</event>
<event>
 7    1  0.7749294E-012  0.5930212E+02  0.7816164E-02  0.1266604E+00
        -11   -1    0    0    0    0  0.00000000000E+00  0.00000000000E+00  0.45593999997E+02  0.45594000000E+02  0.51100000000E-03 0. -1.
         11   -1    0    0    0    0 -0.00000000000E+00 -0.00000000000E+00 -0.45593999997E+02  0.45594000000E+02  0.51100000000E-03 0.  1.
    9900012    2    1    2    0    0 -0.23975487396E+02  0.20728586477E+02 -0.34943925238E+01  0.59302124251E+02  0.50000328682E+02 0.  0.
         12    1    1    2    0    0  0.23975487396E+02 -0.20728586477E+02  0.34943925238E+01  0.31885875749E+02  0.00000000000E+00 0. -1.
         11    1    3    3    0    0 -0.40785175815E+00  0.71227773752E+01  0.72067987198E+01  0.10140919517E+02  0.51100000000E-03 0. -1.
        -11    1    3    3    0    0 -0.96794189854E+01 -0.13547085443E+02 -0.82021199913E+01  0.18560426948E+02  0.51100000000E-03 0.  1.
        -12    1    3    3    0    0 -0.13888216652E+02  0.27152894545E+02 -0.24990712523E+01  0.30600777785E+02  0.00000000000E+00 0.  1.
</event>
<event>
 7    1  0.7749294E-012  0.5930193E+02  0.7816164E-02  0.1266605E+00
        -11   -1    0    0    0    0  0.00000000000E+00  0.00000000000E+00  0.45593999997E+02  0.45594000000E+02  0.51100000000E-03 0.  1.
         11   -1    0    0    0    0 -0.00000000000E+00 -0.00000000000E+00 -0.45593999997E+02  0.45594000000E+02  0.51100000000E-03 0. -1.
    9900012    2    1    2    0    0  0.49710742758E+01  0.18559832590E+02  0.25446861751E+02  0.59301925639E+02  0.49999966463E+02 0.  0.
         12    1    1    2    0    0 -0.49710742758E+01 -0.18559832590E+02 -0.25446861751E+02  0.31886074361E+02  0.00000000000E+00 0. -1.
         11    1    3    3    0    0  0.88152769060E+01  0.25011294363E+02  0.29986146971E+02  0.40030525391E+02  0.51100000000E-03 0. -1.
        -11    1    3    3    0    0  0.23759624271E+01 -0.78797060009E+01 -0.84425915962E+01  0.11790348478E+02  0.51100000000E-03 0.  1.
        -12    1    3    3    0    0 -0.62201650573E+01  0.14282442278E+01  0.39033063764E+01  0.74810517698E+01  0.00000000000E+00 0.  1.
</event>
<event>
 7    1  0.7749294E-012  0.5930196E+02  0.7816164E-02  0.1266605E+00
        -11   -1    0    0    0    0  0.00000000000E+00  0.00000000000E+00  0.45593999997E+02  0.45594000000E+02  0.51100000000E-03 0. -1.
         11   -1    0    0    0    0 -0.00000000000E+00 -0.00000000000E+00 -0.45593999997E+02  0.45594000000E+02  0.51100000000E-03 0.  1.
    9900012    2    1    2    0    0  0.13187492006E+02  0.25387149590E+01 -0.28919972914E+02  0.59301955209E+02  0.50000020392E+02 0.  0.
         12    1    1    2    0    0 -0.13187492006E+02 -0.25387149590E+01  0.28919972914E+02  0.31886044791E+02  0.00000000000E+00 0. -1.
         11    1    3    3    0    0  0.18031823132E+02  0.85205913567E+01  0.40341270996E+01  0.20347513466E+02  0.51100000000E-03 0. -1.
        -11    1    3    3    0    0  0.49303306469E+01  0.30017720050E+01 -0.18262945174E+02  0.19153432125E+02  0.51100000000E-03 0.  1.
         12    1    3    3    0    0 -0.97746617722E+01 -0.89836484027E+01 -0.14691154840E+02  0.19801009619E+02  0.00000000000E+00 0. -1.
</event>
<event>
 7    1  0.7749294E-012  0.5930193E+02  0.7816164E-02  0.1266605E+00
        -11   -1    0    0    0    0  0.00000000000E+00  0.00000000000E+00  0.45593999997E+02  0.45594000000E+02  0.51100000000E-03 0.  1.
         11   -1    0    0    0    0 -0.00000000000E+00 -0.00000000000E+00 -0.45593999997E+02  0.45594000000E+02  0.51100000000E-03 0. -1.
    9900012    2    1    2    0    0  0.24841453544E+02  0.18465899568E+02 -0.76572967708E+01  0.59301930081E+02  0.49999974565E+02 0.  0.
         12    1    1    2    0    0 -0.24841453544E+02 -0.18465899568E+02  0.76572967708E+01  0.31886069919E+02  0.00000000000E+00 0. -1.
         11    1    3    3    0    0  0.94434414065E+01  0.28151997207E+02  0.44393055453E+01  0.30023673431E+02  0.51100000000E-03 0. -1.
        -11    1    3    3    0    0  0.13552653236E+01 -0.10355645568E+02  0.42379338741E+00  0.10452547073E+02  0.51100000000E-03 0.  1.
         12    1    3    3    0    0  0.14042746814E+02  0.66954792913E+00 -0.12520395703E+02  0.18825709577E+02  0.00000000000E+00 0. -1.
</event>
<event>
 7    1  0.7749294E-012  0.5930229E+02  0.7816164E-02  0.1266604E+00
        -11   -1    0    0    0    0  0.00000000000E+00  0.00000000000E+00  0.45593999997E+02  0.45594000000E+02  0.51100000000E-03 0.  1.
         11   -1    0    0    0    0 -0.00000000000E+00 -0.00000000000E+00 -0.45593999997E+02  0.45594000000E+02  0.51100000000E-03 0. -1.
    9900012    2    1    2    0    0  0.30606104675E+02  0.81022229043E+01  0.37840542896E+01  0.59302286487E+02  0.50000624560E+02 0.  0.
         12    1    1    2    0    0 -0.30606104675E+02 -0.81022229043E+01 -0.37840542896E+01  0.31885713513E+02  0.00000000000E+00 0. -1.
         11    1    3    3    0    0 -0.56721456290E+01  0.83022207654E+01  0.22410926227E+01  0.10301582504E+02  0.51100000000E-03 0. -1.
        -11    1    3    3    0    0  0.20330662344E+02 -0.16433022474E+02 -0.56157515375E+00  0.26147570172E+02  0.51100000000E-03 0.  1.
        -12    1    3    3    0    0  0.15947587959E+02  0.16233024612E+02  0.21045368207E+01  0.22853133812E+02  0.00000000000E+00 0.  1.
</event>
<event>
 7    1  0.7749294E-012  0.5930194E+02  0.7816164E-02  0.1266605E+00
        -11   -1    0    0    0    0  0.00000000000E+00  0.00000000000E+00  0.45593999997E+02  0.45594000000E+02  0.51100000000E-03 0. -1.
         11   -1    0    0    0    0 -0.00000000000E+00 -0.00000000000E+00 -0.45593999997E+02  0.45594000000E+02  0.51100000000E-03 0.  1.
    9900012    2    1    2    0    0  0.30142937227E+02  0.23822949450E+01 -0.10121693714E+02  0.59301942271E+02  0.49999996796E+02 0.  0.
         12    1    1    2    0    0 -0.30142937227E+02 -0.23822949450E+01  0.10121693714E+02  0.31886057729E+02  0.00000000000E+00 0. -1.
         11    1    3    3    0    0  0.35486991599E+02  0.94819366681E+01  0.77727200108E+01  0.37545290948E+02  0.51100000000E-03 0. -1.
        -11    1    3    3    0    0 -0.49446217497E+01 -0.55989841114E+01 -0.18605259995E+02  0.20048780688E+02  0.51100000000E-03 0.  1.
         12    1    3    3    0    0 -0.39943262237E+00 -0.15006576117E+01  0.71084627059E+00  0.17078706355E+01  0.00000000000E+00 0. -1.
</event>
<event>
 7    1  0.7749294E-012  0.5930196E+02  0.7816164E-02  0.1266605E+00
        -11   -1    0    0    0    0  0.00000000000E+00  0.00000000000E+00  0.45593999997E+02  0.45594000000E+02  0.51100000000E-03 0. -1.
         11   -1    0    0    0    0 -0.00000000000E+00 -0.00000000000E+00 -0.45593999997E+02  0.45594000000E+02  0.51100000000E-03 0.  1.
    9900012    2    1    2    0    0 -0.57862141976E+01 -0.26108157908E+02  0.17366739284E+02  0.59301955757E+02  0.50000021392E+02 0.  0.
         12    1    1    2    0    0  0.57862141976E+01  0.26108157908E+02 -0.17366739284E+02  0.31886044243E+02  0.00000000000E+00 0. -1.
         11    1    3    3    0    0  0.70665216644E+01 -0.21478436879E+02  0.14140120626E+01  0.22655207118E+02  0.51100000000E-03 0. -1.
        -11    1    3    3    0    0 -0.22062532093E+02 -0.48955080247E+01  0.15534972733E+02  0.27423652187E+02  0.51100000000E-03 0.  1.
        -12    1    3    3    0    0  0.92097962315E+01  0.26578699544E+00  0.41775448883E+00  0.92230964521E+01  0.00000000000E+00 0.  1.
</event>
<event>
 7    1  0.7749294E-012  0.5930194E+02  0.7816164E-02  0.1266605E+00
        -11   -1    0    0    0    0  0.00000000000E+00  0.00000000000E+00  0.45593999997E+02  0.45594000000E+02  0.51100000000E-03 0. -1.
         11   -1    0    0    0    0 -0.00000000000E+00 -0.00000000000E+00 -0.45593999997E+02  0.45594000000E+02  0.51100000000E-03 0.  1.
    9900012    2    1    2    0    0 -0.24673949595E+02  0.12905372203E+02 -0.15536041256E+02  0.59301937242E+02  0.49999987624E+02 0.  0.
         12    1    1    2    0    0  0.24673949595E+02 -0.12905372203E+02  0.15536041256E+02  0.31886062758E+02  0.00000000000E+00 0. -1.
         11    1    3    3    0    0 -0.17377125021E+02  0.49426693346E+01  0.15785881072E+02  0.23991425460E+02  0.51100000000E-03 0. -1.
        -11    1    3    3    0    0  0.19955306209E+01  0.65727509573E+01 -0.14424746434E+02  0.15976748966E+02  0.51100000000E-03 0.  1.
         12    1    3    3    0    0 -0.92923551947E+01  0.13899519114E+01 -0.16897175894E+02  0.19333762815E+02  0.00000000000E+00 0. -1.
</event>
<event>
 7    1  0.7749294E-012  0.5930191E+02  0.7816164E-02  0.1266605E+00
        -11   -1    0    0    0    0  0.00000000000E+00  0.00000000000E+00  0.45593999997E+02  0.45594000000E+02  0.51100000000E-03 0.  1.
         11   -1    0    0    0    0 -0.00000000000E+00 -0.00000000000E+00 -0.45593999997E+02  0.45594000000E+02  0.51100000000E-03 0. -1.
    9900012    2    1    2    0    0 -0.13353016704E+02 -0.21438192876E+02  0.19463396451E+02  0.59301906318E+02  0.49999931226E+02 0.  0.
         12    1    1    2    0    0  0.13353016704E+02  0.21438192876E+02 -0.19463396451E+02  0.31886093682E+02  0.00000000000E+00 0. -1.
         11    1    3    3    0    0 -0.55448491734E+01  0.38982051473E+01 -0.14892769811E+01  0.69396903327E+01  0.51100000000E-03 0. -1.
        -11    1    3    3    0    0  0.61193120136E+01 -0.16617952732E+02  0.29066968160E+02  0.34036612211E+02  0.51100000000E-03 0.  1.
        -12    1    3    3    0    0 -0.13927479544E+02 -0.87184452912E+01 -0.81142947278E+01  0.18325603774E+02  0.00000000000E+00 0.  1.
</event>
<event>
 7    1  0.7749294E-012  0.5930194E+02  0.7816164E-02  0.1266605E+00
        -11   -1    0    0    0    0  0.00000000000E+00  0.00000000000E+00  0.45593999997E+02  0.45594000000E+02  0.51100000000E-03 0.  1.
         11   -1    0    0    0    0 -0.00000000000E+00 -0.00000000000E+00 -0.45593999997E+02  0.45594000000E+02  0.51100000000E-03 0. -1.
    9900012    2    1    2    0    0  0.13258277222E+02 -0.57349318995E+01  0.28426205877E+02  0.59301944437E+02  0.50000000747E+02 0.  0.
         12    1    1    2    0    0 -0.13258277222E+02  0.57349318995E+01 -0.28426205877E+02  0.31886055563E+02  0.00000000000E+00 0. -1.
         11    1    3    3    0    0  0.29336887571E+01 -0.79272283969E+01 -0.12460827346E+02  0.15057214157E+02  0.51100000000E-03 0. -1.
        -11    1    3    3    0    0  0.37630550248E+01  0.55655313654E+01  0.75731016189E+01  0.10123615505E+02  0.51100000000E-03 0.  1.
         12    1    3    3    0    0  0.65615334396E+01 -0.33732348681E+01  0.33313931604E+02  0.34121114775E+02  0.00000000000E+00 0. -1.
</event>
<event>
 7    1  0.7749294E-012  0.5930194E+02  0.7816164E-02  0.1266605E+00
        -11   -1    0    0    0    0  0.00000000000E+00  0.00000000000E+00  0.45593999997E+02  0.45594000000E+02  0.51100000000E-03 0. -1.
         11   -1    0    0    0    0 -0.00000000000E+00 -0.00000000000E+00 -0.45593999997E+02  0.45594000000E+02  0.51100000000E-03 0.  1.
    9900012    2    1    2    0    0 -0.51926074679E+01  0.14687234073E+01 -0.31426113116E+02  0.59301938683E+02  0.49999990252E+02 0.  0.
         12    1    1    2    0    0  0.51926074679E+01 -0.14687234073E+01  0.31426113116E+02  0.31886061317E+02  0.00000000000E+00 0. -1.
         11    1    3    3    0    0 -0.10594854082E+02  0.77800554801E+01  0.48156019422E+01  0.13998936339E+02  0.51100000000E-03 0. -1.
        -11    1    3    3    0    0  0.14948561711E+02  0.35023416076E-01 -0.15066741827E+02  0.21224218087E+02  0.51100000000E-03 0.  1.
         12    1    3    3    0    0 -0.95463150974E+01 -0.63463554889E+01 -0.21174973231E+02  0.24078784256E+02  0.00000000000E+00 0. -1.
</event>
<event>
 7    1  0.7749294E-012  0.5930195E+02  0.7816164E-02  0.1266605E+00
        -11   -1    0    0    0    0  0.00000000000E+00  0.00000000000E+00  0.45593999997E+02  0.45594000000E+02  0.51100000000E-03 0. -1.
         11   -1    0    0    0    0 -0.00000000000E+00 -0.00000000000E+00 -0.45593999997E+02  0.45594000000E+02  0.51100000000E-03 0.  1.
    9900012    2    1    2    0    0  0.28613204521E+01  0.24573393635E+02 -0.20116688639E+02  0.59301953031E+02  0.50000016421E+02 0.  0.
         12    1    1    2    0    0 -0.28613204521E+01 -0.24573393635E+02  0.20116688639E+02  0.31886046969E+02  0.00000000000E+00 0. -1.
         11    1    3    3    0    0 -0.16707902667E+02  0.14608825242E+02 -0.21176651828E+02  0.30676087909E+02  0.51100000000E-03 0. -1.
        -11    1    3    3    0    0  0.21858273067E+02  0.10635077844E+02  0.42147199591E+01  0.24670890677E+02  0.51100000000E-03 0.  1.
        -12    1    3    3    0    0 -0.22890499474E+01 -0.67050945063E+00 -0.31547567701E+01  0.39549744453E+01  0.00000000000E+00 0.  1.
</event>
<event>
 7    1  0.8847540E-012  0.5930192E+02  0.7816164E-02  0.1266605E+00
        -11   -1    0    0    0    0  0.00000000000E+00  0.00000000000E+00  0.45593999997E+02  0.45594000000E+02  0.51100000000E-03 0. -1.
         11   -1    0    0    0    0 -0.00000000000E+00 -0.00000000000E+00 -0.45593999997E+02  0.45594000000E+02  0.51100000000E-03 0.  1.
    9900012    2    1    2    0    0 -0.18437070904E+02 -0.16832089699E+02 -0.19836262643E+02  0.59301919294E+02  0.49999954891E+02 0.  0.
         12    1    1    2    0    0  0.18437070904E+02  0.16832089699E+02  0.19836262643E+02  0.31886080706E+02  0.00000000000E+00 0. -1.
         11    1    3    3    0    0 -0.63943357931E+01  0.53752246267E+01  0.70617575784E+01  0.10938418093E+02  0.51100000000E-03 0. -1.
        -11    1    3    3    0    0  0.70325410182E+01 -0.73550455757E+01 -0.21214494271E+02  0.23528877917E+02  0.51100000000E-03 0.  1.
        -12    1    3    3    0    0 -0.19075276129E+02 -0.14852268750E+02 -0.56835259508E+01  0.24834623284E+02  0.00000000000E+00 0.  1.
</event>
<event>
 7    1  0.7749294E-012  0.5930198E+02  0.7816164E-02  0.1266605E+00
        -11   -1    0    0    0    0  0.00000000000E+00  0.00000000000E+00  0.45593999997E+02  0.45594000000E+02  0.51100000000E-03 0. -1.
         11   -1    0    0    0    0 -0.00000000000E+00 -0.00000000000E+00 -0.45593999997E+02  0.45594000000E+02  0.51100000000E-03 0.  1.
    9900012    2    1    2    0    0 -0.70684397601E+01 -0.27622128628E+01 -0.30969756376E+02  0.59301976878E+02  0.50000059912E+02 0.  0.
         12    1    1    2    0    0  0.70684397601E+01  0.27622128628E+01  0.30969756376E+02  0.31886023122E+02  0.00000000000E+00 0. -1.
         11    1    3    3    0    0  0.75893271319E+01 -0.48021831719E+01  0.10507630543E+02  0.13822776473E+02  0.51100000000E-03 0. -1.
        -11    1    3    3    0    0 -0.12451201028E+02 -0.21322571676E+01 -0.36480063696E+02  0.38605362001E+02  0.51100000000E-03 0.  1.
         12    1    3    3    0    0 -0.22065658640E+01  0.41722274767E+01 -0.49973232220E+01  0.68738384047E+01  0.00000000000E+00 0. -1.
</event>
<event>
 7    1  0.7749294E-012  0.5930190E+02  0.7816164E-02  0.1266605E+00
        -11   -1    0    0    0    0  0.00000000000E+00  0.00000000000E+00  0.45593999997E+02  0.45594000000E+02  0.51100000000E-03 0. -1.
         11   -1    0    0    0    0 -0.00000000000E+00 -0.00000000000E+00 -0.45593999997E+02  0.45594000000E+02  0.51100000000E-03 0.  1.
    9900012    2    1    2    0    0 -0.30598323283E+02  0.82893886196E+01  0.34281600071E+01  0.59301895935E+02  0.49999912291E+02 0.  0.
         12    1    1    2    0    0  0.30598323283E+02 -0.82893886196E+01 -0.34281600071E+01  0.31886104065E+02  0.00000000000E+00 0. -1.
         11    1    3    3    0    0 -0.21897872515E+02  0.17869815188E+02 -0.76800346165E+01  0.29288735847E+02  0.51100000000E-03 0.  1.
        -11    1    3    3    0    0 -0.11946182588E+02 -0.10145636653E+02 -0.26240631798E+01  0.15891221770E+02  0.51100000000E-03 0. -1.
         12    1    3    3    0    0  0.32457318200E+01  0.56521008466E+00  0.13732257803E+02  0.14121938318E+02  0.00000000000E+00 0. -1.
</event>
<event>
 7    1  0.7749294E-012  0.5930194E+02  0.7816164E-02  0.1266605E+00
        -11   -1    0    0    0    0  0.00000000000E+00  0.00000000000E+00  0.45593999997E+02  0.45594000000E+02  0.51100000000E-03 0. -1.
         11   -1    0    0    0    0 -0.00000000000E+00 -0.00000000000E+00 -0.45593999997E+02  0.45594000000E+02  0.51100000000E-03 0.  1.
    9900012    2    1    2    0    0  0.12398976402E+02  0.29201410662E+02 -0.32037237502E+01  0.59301939623E+02  0.49999991967E+02 0.  0.
         12    1    1    2    0    0 -0.12398976402E+02 -0.29201410662E+02  0.32037237502E+01  0.31886060377E+02  0.00000000000E+00 0. -1.
         11    1    3    3    0    0  0.12137339157E+02 -0.14800849658E+01  0.91189504050E+00  0.12261207369E+02  0.51100000000E-03 0.  1.
        -11    1    3    3    0    0  0.28425369833E+00  0.24479818627E+02 -0.18952221636E+02  0.30960119918E+02  0.51100000000E-03 0. -1.
         12    1    3    3    0    0 -0.22616453463E-01  0.62016770015E+01  0.14836602845E+02  0.16080612336E+02  0.00000000000E+00 0. -1.
</event>
<event>
 7    1  0.7749294E-012  0.5930194E+02  0.7816164E-02  0.1266605E+00
        -11   -1    0    0    0    0  0.00000000000E+00  0.00000000000E+00  0.45593999997E+02  0.45594000000E+02  0.51100000000E-03 0. -1.
         11   -1    0    0    0    0 -0.00000000000E+00 -0.00000000000E+00 -0.45593999997E+02  0.45594000000E+02  0.51100000000E-03 0.  1.
    9900012    2    1    2    0    0  0.18255687938E+02 -0.18182646034E+02 -0.18784083830E+02  0.59301944047E+02  0.50000000035E+02 0.  0.
         12    1    1    2    0    0 -0.18255687938E+02  0.18182646034E+02  0.18784083830E+02  0.31886055953E+02  0.00000000000E+00 0. -1.
         11    1    3    3    0    0  0.13978448553E+02 -0.29883767259E+02 -0.14860588347E+02  0.36183886688E+02  0.51100000000E-03 0. -1.
        -11    1    3    3    0    0  0.89592844178E+00  0.94029785009E+01  0.68019562752E+01  0.11639815372E+02  0.51100000000E-03 0.  1.
        -12    1    3    3    0    0  0.33813109436E+01  0.22981427241E+01 -0.10725451759E+02  0.11478241987E+02  0.00000000000E+00 0.  1.
</event>
<event>
 7    1  0.7749294E-012  0.5930197E+02  0.7816164E-02  0.1266605E+00
        -11   -1    0    0    0    0  0.00000000000E+00  0.00000000000E+00  0.45593999997E+02  0.45594000000E+02  0.51100000000E-03 0.  1.
         11   -1    0    0    0    0 -0.00000000000E+00 -0.00000000000E+00 -0.45593999997E+02  0.45594000000E+02  0.51100000000E-03 0. -1.
    9900012    2    1    2    0    0 -0.98938271814E+01  0.23208163646E+02  0.19499036423E+02  0.59301967046E+02  0.50000041980E+02 0.  0.
         12    1    1    2    0    0  0.98938271814E+01 -0.23208163646E+02 -0.19499036423E+02  0.31886032954E+02  0.00000000000E+00 0. -1.
         11    1    3    3    0    0 -0.21421179086E+02  0.28194062139E+02  0.15502226949E+01  0.35442562605E+02  0.51100000000E-03 0. -1.
        -11    1    3    3    0    0  0.22656544278E+01  0.66717120504E+00  0.10341328135E+02  0.10607609310E+02  0.51100000000E-03 0.  1.
         12    1    3    3    0    0  0.92616974771E+01 -0.56530696974E+01  0.76074855929E+01  0.13251795132E+02  0.00000000000E+00 0. -1.
</event>
<event>
 7    1  0.7749294E-012  0.5930196E+02  0.7816164E-02  0.1266605E+00
        -11   -1    0    0    0    0  0.00000000000E+00  0.00000000000E+00  0.45593999997E+02  0.45594000000E+02  0.51100000000E-03 0. -1.
         11   -1    0    0    0    0 -0.00000000000E+00 -0.00000000000E+00 -0.45593999997E+02  0.45594000000E+02  0.51100000000E-03 0.  1.
    9900012    2    1    2    0    0  0.12711171155E+02 -0.29182153028E+02  0.18835086586E+01  0.59301960228E+02  0.50000029545E+02 0.  0.
         12    1    1    2    0    0 -0.12711171155E+02  0.29182153028E+02 -0.18835086586E+01  0.31886039772E+02  0.00000000000E+00 0. -1.
         11    1    3    3    0    0  0.12252757193E+02 -0.33931376701E+02 -0.48130227655E+01  0.36395515823E+02  0.51100000000E-03 0. -1.
        -11    1    3    3    0    0 -0.80323784103E+01 -0.43784489834E+01  0.10078813043E+01  0.92035723179E+01  0.51100000000E-03 0.  1.
         12    1    3    3    0    0  0.84907923727E+01  0.91276726559E+01  0.56886501199E+01  0.13702872086E+02  0.00000000000E+00 0. -1.
</event>
<event>
 7    1  0.7749294E-012  0.5930186E+02  0.7816164E-02  0.1266605E+00
        -11   -1    0    0    0    0  0.00000000000E+00  0.00000000000E+00  0.45593999997E+02  0.45594000000E+02  0.51100000000E-03 0. -1.
         11   -1    0    0    0    0 -0.00000000000E+00 -0.00000000000E+00 -0.45593999997E+02  0.45594000000E+02  0.51100000000E-03 0.  1.
    9900012    2    1    2    0    0 -0.30627121245E+01 -0.31736068911E+02 -0.40968547354E+00  0.59301856964E+02  0.49999841217E+02 0.  0.
         12    1    1    2    0    0  0.30627121245E+01  0.31736068911E+02  0.40968547354E+00  0.31886143036E+02  0.00000000000E+00 0. -1.
         11    1    3    3    0    0 -0.14829326028E+02 -0.19532790935E+02 -0.19010180558E+02  0.31029434369E+02  0.51100000000E-03 0. -1.
        -11    1    3    3    0    0  0.34384447283E+01 -0.51441044407E+01  0.15848448854E+02  0.17013466548E+02  0.51100000000E-03 0.  1.
         12    1    3    3    0    0  0.83281691753E+01 -0.70591735359E+01  0.27520462305E+01  0.11258956047E+02  0.00000000000E+00 0. -1.
</event>
<event>
 7    1  0.7749294E-012  0.5930197E+02  0.7816164E-02  0.1266605E+00
        -11   -1    0    0    0    0  0.00000000000E+00  0.00000000000E+00  0.45593999997E+02  0.45594000000E+02  0.51100000000E-03 0. -1.
         11   -1    0    0    0    0 -0.00000000000E+00 -0.00000000000E+00 -0.45593999997E+02  0.45594000000E+02  0.51100000000E-03 0.  1.
    9900012    2    1    2    0    0  0.11838419092E+02  0.15831570195E+02 -0.25018640340E+02  0.59301966288E+02  0.50000040597E+02 0.  0.
         12    1    1    2    0    0 -0.11838419092E+02 -0.15831570195E+02  0.25018640340E+02  0.31886033712E+02  0.00000000000E+00 0. -1.
         11    1    3    3    0    0 -0.11262645392E+02  0.94000219947E+01 -0.15900325773E+02  0.21633953746E+02  0.51100000000E-03 0. -1.
        -11    1    3    3    0    0  0.23148308245E+02 -0.59748662422E+01 -0.39638043035E+01  0.24233343683E+02  0.51100000000E-03 0.  1.
        -12    1    3    3    0    0 -0.47243760734E-01  0.12406414442E+02 -0.51545102637E+01  0.13434668859E+02  0.00000000000E+00 0.  1.
</event>
<event>
 7    1  0.7749294E-012  0.5930194E+02  0.7816164E-02  0.1266605E+00
        -11   -1    0    0    0    0  0.00000000000E+00  0.00000000000E+00  0.45593999997E+02  0.45594000000E+02  0.51100000000E-03 0.  1.
         11   -1    0    0    0    0 -0.00000000000E+00 -0.00000000000E+00 -0.45593999997E+02  0.45594000000E+02  0.51100000000E-03 0. -1.
    9900012    2    1    2    0    0 -0.73324301772E+01 -0.30734100757E+02  0.42861486459E+01  0.59301944241E+02  0.50000000389E+02 0.  0.
         12    1    1    2    0    0  0.73324301772E+01  0.30734100757E+02 -0.42861486459E+01  0.31886055759E+02  0.00000000000E+00 0. -1.
         11    1    3    3    0    0 -0.15451700760E+02 -0.13769455253E+02  0.16776626596E+02  0.26642225030E+02  0.51100000000E-03 0. -1.
        -11    1    3    3    0    0  0.11248771418E+02 -0.18466078461E+02 -0.21227851355E+01  0.21726415469E+02  0.51100000000E-03 0.  1.
         12    1    3    3    0    0 -0.31295008346E+01  0.15014329579E+01 -0.10367692815E+02  0.10933303742E+02  0.00000000000E+00 0. -1.
</event>
<event>
 7    1  0.7749294E-012  0.5930194E+02  0.7816164E-02  0.1266605E+00
        -11   -1    0    0    0    0  0.00000000000E+00  0.00000000000E+00  0.45593999997E+02  0.45594000000E+02  0.51100000000E-03 0. -1.
         11   -1    0    0    0    0 -0.00000000000E+00 -0.00000000000E+00 -0.45593999997E+02  0.45594000000E+02  0.51100000000E-03 0.  1.
    9900012    2    1    2    0    0 -0.24613186260E+01 -0.83408267088E+01 -0.30677241074E+02  0.59301943494E+02  0.49999999027E+02 0.  0.
         12    1    1    2    0    0  0.24613186260E+01  0.83408267088E+01  0.30677241074E+02  0.31886056506E+02  0.00000000000E+00 0. -1.
         11    1    3    3    0    0  0.48796510781E+01  0.83632281450E+01 -0.10433012532E+02  0.14233844540E+02  0.51100000000E-03 0. -1.
        -11    1    3    3    0    0 -0.14941275847E+01 -0.16969877935E+02  0.60899530531E+01  0.18091343312E+02  0.51100000000E-03 0.  1.
        -12    1    3    3    0    0 -0.58468421195E+01  0.26582308148E+00 -0.26334181595E+02  0.26976755642E+02  0.00000000000E+00 0.  1.
</event>
<event>
 7    1  0.7749294E-012  0.5930194E+02  0.7816164E-02  0.1266605E+00
        -11   -1    0    0    0    0  0.00000000000E+00  0.00000000000E+00  0.45593999997E+02  0.45594000000E+02  0.51100000000E-03 0.  1.
         11   -1    0    0    0    0 -0.00000000000E+00 -0.00000000000E+00 -0.45593999997E+02  0.45594000000E+02  0.51100000000E-03 0. -1.
    9900012    2    1    2    0    0  0.22604810798E+02  0.20866396325E+00  0.22487773804E+02  0.59301937488E+02  0.49999988074E+02 0.  0.
         12    1    1    2    0    0 -0.22604810798E+02 -0.20866396325E+00 -0.22487773804E+02  0.31886062512E+02  0.00000000000E+00 0. -1.
         11    1    3    3    0    0  0.70789220480E+01  0.43954603930E+00 -0.87960381475E+01  0.11299319689E+02  0.51100000000E-03 0. -1.
        -11    1    3    3    0    0  0.48308798557E+01  0.62634729181E+00  0.35967277796E+02  0.36295657914E+02  0.51100000000E-03 0.  1.
        -12    1    3    3    0    0  0.10695008894E+02 -0.85722936786E+00 -0.46834658446E+01  0.11706959885E+02  0.00000000000E+00 0.  1.
</event>
<event>
 7    1  0.7749294E-012  0.5930187E+02  0.7816164E-02  0.1266605E+00
        -11   -1    0    0    0    0  0.00000000000E+00  0.00000000000E+00  0.45593999997E+02  0.45594000000E+02  0.51100000000E-03 0.  1.
         11   -1    0    0    0    0 -0.00000000000E+00 -0.00000000000E+00 -0.45593999997E+02  0.45594000000E+02  0.51100000000E-03 0. -1.
    9900012    2    1    2    0    0 -0.10196944129E+02 -0.19780515146E+02  0.22835905653E+02  0.59301873926E+02  0.49999872151E+02 0.  0.
         12    1    1    2    0    0  0.10196944129E+02  0.19780515146E+02 -0.22835905653E+02  0.31886126074E+02  0.00000000000E+00 0. -1.
         11    1    3    3    0    0 -0.92405787915E+01 -0.19408196010E+02  0.20544241497E+00  0.21496710809E+02  0.51100000000E-03 0. -1.
        -11    1    3    3    0    0 -0.46363219215E+01  0.11997567325E+02  0.21231827851E+02  0.24823932340E+02  0.51100000000E-03 0.  1.
         12    1    3    3    0    0  0.36799565843E+01 -0.12369886462E+02  0.13986353876E+01  0.12981230777E+02  0.00000000000E+00 0. -1.
</event>
<event>
 7    1  0.7749294E-012  0.5930190E+02  0.7816164E-02  0.1266605E+00
        -11   -1    0    0    0    0  0.00000000000E+00  0.00000000000E+00  0.45593999997E+02  0.45594000000E+02  0.51100000000E-03 0. -1.
         11   -1    0    0    0    0 -0.00000000000E+00 -0.00000000000E+00 -0.45593999997E+02  0.45594000000E+02  0.51100000000E-03 0.  1.
    9900012    2    1    2    0    0 -0.16532782014E+02 -0.56844699878E+01 -0.26666033151E+02  0.59301899515E+02  0.49999918819E+02 0.  0.
         12    1    1    2    0    0  0.16532782014E+02  0.56844699878E+01  0.26666033151E+02  0.31886100485E+02  0.00000000000E+00 0. -1.
         11    1    3    3    0    0  0.60873429084E+01  0.94733039843E+01 -0.26893345079E+02  0.29155638252E+02  0.51100000000E-03 0. -1.
        -11    1    3    3    0    0 -0.13492192176E+02 -0.13512348449E+02  0.49667411032E+01  0.19730466993E+02  0.51100000000E-03 0.  1.
         12    1    3    3    0    0 -0.91279327460E+01 -0.16454255229E+01 -0.47394291752E+01  0.10415794270E+02  0.00000000000E+00 0. -1.
</event>
<event>
 7    1  0.7749294E-012  0.5930194E+02  0.7816164E-02  0.1266605E+00
        -11   -1    0    0    0    0  0.00000000000E+00  0.00000000000E+00  0.45593999997E+02  0.45594000000E+02  0.51100000000E-03 0.  1.
         11   -1    0    0    0    0 -0.00000000000E+00 -0.00000000000E+00 -0.45593999997E+02  0.45594000000E+02  0.51100000000E-03 0. -1.
    9900012    2    1    2    0    0 -0.30301474871E+02 -0.27903200372E+01  0.95265738607E+01  0.59301939177E+02  0.49999991154E+02 0.  0.
         12    1    1    2    0    0  0.30301474871E+02  0.27903200372E+01 -0.95265738607E+01  0.31886060823E+02  0.00000000000E+00 0. -1.
         11    1    3    3    0    0 -0.12544460348E+02 -0.22264970943E+01 -0.86370449557E+01  0.15392183749E+02  0.51100000000E-03 0. -1.
        -11    1    3    3    0    0  0.87638579032E+00 -0.15725779266E+02  0.50448040615E+01  0.16538386676E+02  0.51100000000E-03 0.  1.
         12    1    3    3    0    0 -0.18633400313E+02  0.15161956323E+02  0.13118814755E+02  0.27371368752E+02  0.00000000000E+00 0. -1.
</event>
<event>
 7    1  0.7749294E-012  0.5930199E+02  0.7816164E-02  0.1266605E+00
        -11   -1    0    0    0    0  0.00000000000E+00  0.00000000000E+00  0.45593999997E+02  0.45594000000E+02  0.51100000000E-03 0. -1.
         11   -1    0    0    0    0 -0.00000000000E+00 -0.00000000000E+00 -0.45593999997E+02  0.45594000000E+02  0.51100000000E-03 0.  1.
    9900012    2    1    2    0    0 -0.29754168298E+02  0.61058042488E+01 -0.97018642242E+01  0.59301991375E+02  0.50000086350E+02 0.  0.
         12    1    1    2    0    0  0.29754168298E+02 -0.61058042488E+01  0.97018642242E+01  0.31886008625E+02  0.00000000000E+00 0. -1.
         11    1    3    3    0    0  0.64366157533E+01  0.20595758547E+01 -0.51098942201E+01  0.84724786372E+01  0.51100000000E-03 0. -1.
        -11    1    3    3    0    0 -0.38841528497E+02  0.10035524130E+02  0.36720586725E+01  0.40284737752E+02  0.51100000000E-03 0.  1.
        -12    1    3    3    0    0  0.26507444463E+01 -0.59892957361E+01 -0.82640286767E+01  0.10544774986E+02  0.00000000000E+00 0.  1.
</event>
<event>
 7    1  0.7749294E-012  0.5930194E+02  0.7816164E-02  0.1266605E+00
        -11   -1    0    0    0    0  0.00000000000E+00  0.00000000000E+00  0.45593999997E+02  0.45594000000E+02  0.51100000000E-03 0.  1.
         11   -1    0    0    0    0 -0.00000000000E+00 -0.00000000000E+00 -0.45593999997E+02  0.45594000000E+02  0.51100000000E-03 0. -1.
    9900012    2    1    2    0    0 -0.14356015662E+02 -0.12595193955E+02  0.25534030029E+02  0.59301940570E+02  0.49999993694E+02 0.  0.
         12    1    1    2    0    0  0.14356015662E+02  0.12595193955E+02 -0.25534030029E+02  0.31886059430E+02  0.00000000000E+00 0. -1.
         11    1    3    3    0    0  0.26597734386E+01 -0.42841116107E+00  0.33767597396E+02  0.33874895793E+02  0.51100000000E-03 0. -1.
        -11    1    3    3    0    0 -0.89284589896E+01 -0.47492175939E+01  0.21279700530E+01  0.10334442631E+02  0.51100000000E-03 0.  1.
         12    1    3    3    0    0 -0.80873301115E+01 -0.74175652004E+01 -0.10361537420E+02  0.15092602146E+02  0.00000000000E+00 0. -1.
</event>
<event>
 7    1  0.7749294E-012  0.5930194E+02  0.7816164E-02  0.1266605E+00
        -11   -1    0    0    0    0  0.00000000000E+00  0.00000000000E+00  0.45593999997E+02  0.45594000000E+02  0.51100000000E-03 0.  1.
         11   -1    0    0    0    0 -0.00000000000E+00 -0.00000000000E+00 -0.45593999997E+02  0.45594000000E+02  0.51100000000E-03 0. -1.
    9900012    2    1    2    0    0  0.19902847565E+02  0.94552662886E+01  0.23047682727E+02  0.59301935946E+02  0.49999985261E+02 0.  0.
         12    1    1    2    0    0 -0.19902847565E+02 -0.94552662886E+01 -0.23047682727E+02  0.31886064054E+02  0.00000000000E+00 0. -1.
         11    1    3    3    0    0  0.33408068748E+01 -0.11671677949E+02  0.10328224768E+01  0.12184243072E+02  0.51100000000E-03 0.  1.
        -11    1    3    3    0    0  0.17268657632E+02  0.25886914605E+02  0.26247022284E+02  0.40709274904E+02  0.51100000000E-03 0. -1.
         12    1    3    3    0    0 -0.70661694176E+00 -0.47599703677E+01 -0.42321620335E+01  0.64084179702E+01  0.00000000000E+00 0. -1.
</event>
<event>
 7    1  0.7749294E-012  0.5930194E+02  0.7816164E-02  0.1266605E+00
        -11   -1    0    0    0    0  0.00000000000E+00  0.00000000000E+00  0.45593999997E+02  0.45594000000E+02  0.51100000000E-03 0.  1.
         11   -1    0    0    0    0 -0.00000000000E+00 -0.00000000000E+00 -0.45593999997E+02  0.45594000000E+02  0.51100000000E-03 0. -1.
    9900012    2    1    2    0    0 -0.20692492643E+02 -0.27841853358E+01  0.24099580659E+02  0.59301941484E+02  0.49999995361E+02 0.  0.
         12    1    1    2    0    0  0.20692492643E+02  0.27841853358E+01 -0.24099580659E+02  0.31886058516E+02  0.00000000000E+00 0. -1.
         11    1    3    3    0    0 -0.21607186223E+01  0.75035462065E+01 -0.13724239725E+02  0.15790081284E+02  0.51100000000E-03 0. -1.
        -11    1    3    3    0    0 -0.74583911557E+01 -0.61612419345E+01  0.17907196127E+02  0.20353284113E+02  0.51100000000E-03 0.  1.
         12    1    3    3    0    0 -0.11073382865E+02 -0.41264896078E+01  0.19916624257E+02  0.23158576087E+02  0.00000000000E+00 0. -1.
</event>
<event>
 7    1  0.7749294E-012  0.5930194E+02  0.7816164E-02  0.1266605E+00
        -11   -1    0    0    0    0  0.00000000000E+00  0.00000000000E+00  0.45593999997E+02  0.45594000000E+02  0.51100000000E-03 0. -1.
         11   -1    0    0    0    0 -0.00000000000E+00 -0.00000000000E+00 -0.45593999997E+02  0.45594000000E+02  0.51100000000E-03 0.  1.
    9900012    2    1    2    0    0 -0.24505500441E+02  0.12260451957E+02 -0.16305897624E+02  0.59301944562E+02  0.50000000975E+02 0.  0.
         12    1    1    2    0    0  0.24505500441E+02 -0.12260451957E+02  0.16305897624E+02  0.31886055438E+02  0.00000000000E+00 0. -1.
         11    1    3    3    0    0 -0.30361266614E+01  0.14982441218E+01  0.61477237384E+01  0.70183550764E+01  0.51100000000E-03 0. -1.
        -11    1    3    3    0    0 -0.16030883875E+02 -0.13578676504E+02 -0.16310785123E+02  0.26597206714E+02  0.51100000000E-03 0.  1.
        -12    1    3    3    0    0 -0.54384899046E+01  0.24340884339E+02 -0.61428362392E+01  0.25686382772E+02  0.00000000000E+00 0.  1.
</event>
<event>
 7    1  0.7749294E-012  0.5930195E+02  0.7816164E-02  0.1266605E+00
        -11   -1    0    0    0    0  0.00000000000E+00  0.00000000000E+00  0.45593999997E+02  0.45594000000E+02  0.51100000000E-03 0.  1.
         11   -1    0    0    0    0 -0.00000000000E+00 -0.00000000000E+00 -0.45593999997E+02  0.45594000000E+02  0.51100000000E-03 0. -1.
    9900012    2    1    2    0    0  0.25252324133E+02  0.14333109654E+02 -0.13175826170E+02  0.59301948163E+02  0.50000007542E+02 0.  0.
         12    1    1    2    0    0 -0.25252324133E+02 -0.14333109654E+02  0.13175826170E+02  0.31886051837E+02  0.00000000000E+00 0. -1.
         11    1    3    3    0    0  0.20436110251E+01  0.94799851253E+01 -0.29001780004E+02  0.30580217587E+02  0.51100000000E-03 0. -1.
        -11    1    3    3    0    0  0.13469605986E+02  0.12085361672E+01  0.98227122715E+01  0.16714560171E+02  0.51100000000E-03 0.  1.
         12    1    3    3    0    0  0.97391071220E+01  0.36445883615E+01  0.60032415627E+01  0.12007170404E+02  0.00000000000E+00 0. -1.
</event>
<event>
 7    1  0.7749294E-012  0.5930196E+02  0.7816164E-02  0.1266605E+00
        -11   -1    0    0    0    0  0.00000000000E+00  0.00000000000E+00  0.45593999997E+02  0.45594000000E+02  0.51100000000E-03 0.  1.
         11   -1    0    0    0    0 -0.00000000000E+00 -0.00000000000E+00 -0.45593999997E+02  0.45594000000E+02  0.51100000000E-03 0. -1.
    9900012    2    1    2    0    0 -0.28866620855E+02  0.13420361619E+02 -0.18252923126E+01  0.59301959205E+02  0.50000027680E+02 0.  0.
         12    1    1    2    0    0  0.28866620855E+02 -0.13420361619E+02  0.18252923126E+01  0.31886040795E+02  0.00000000000E+00 0. -1.
         11    1    3    3    0    0  0.67692428756E+01  0.37104657664E+01  0.27937460247E+01  0.82094593259E+01  0.51100000000E-03 0.  1.
        -11    1    3    3    0    0 -0.27191224040E+02 -0.71504170191E+01 -0.12354911248E+02  0.30710502447E+02  0.51100000000E-03 0. -1.
        -12    1    3    3    0    0 -0.84446396905E+01  0.16860312872E+02  0.77358729112E+01  0.20381997432E+02  0.00000000000E+00 0.  1.
</event>
<event>
 7    1  0.7749294E-012  0.5930194E+02  0.7816164E-02  0.1266605E+00
        -11   -1    0    0    0    0  0.00000000000E+00  0.00000000000E+00  0.45593999997E+02  0.45594000000E+02  0.51100000000E-03 0. -1.
         11   -1    0    0    0    0 -0.00000000000E+00 -0.00000000000E+00 -0.45593999997E+02  0.45594000000E+02  0.51100000000E-03 0.  1.
    9900012    2    1    2    0    0 -0.26006936792E+02 -0.18357811802E+02 -0.18304796698E+01  0.59301942368E+02  0.49999996974E+02 0.  0.
         12    1    1    2    0    0  0.26006936792E+02  0.18357811802E+02  0.18304796698E+01  0.31886057632E+02  0.00000000000E+00 0. -1.
         11    1    3    3    0    0 -0.18938469402E+02 -0.87378911894E+01  0.18825205857E+02  0.28096347477E+02  0.51100000000E-03 0. -1.
        -11    1    3    3    0    0 -0.77210001746E+01 -0.53474453486E+01 -0.23979584534E+02  0.25753242323E+02  0.51100000000E-03 0.  1.
         12    1    3    3    0    0  0.65253278457E+00 -0.42724752642E+01  0.33238990072E+01  0.54523525682E+01  0.00000000000E+00 0. -1.
</event>
<event>
 7    1  0.7749294E-012  0.5930194E+02  0.7816164E-02  0.1266605E+00
        -11   -1    0    0    0    0  0.00000000000E+00  0.00000000000E+00  0.45593999997E+02  0.45594000000E+02  0.51100000000E-03 0.  1.
         11   -1    0    0    0    0 -0.00000000000E+00 -0.00000000000E+00 -0.45593999997E+02  0.45594000000E+02  0.51100000000E-03 0. -1.
    9900012    2    1    2    0    0  0.17989840590E+02  0.17429753624E+02  0.19730438259E+02  0.59301939257E+02  0.49999991299E+02 0.  0.
         12    1    1    2    0    0 -0.17989840590E+02 -0.17429753624E+02 -0.19730438259E+02  0.31886060743E+02  0.00000000000E+00 0. -1.
         11    1    3    3    0    0 -0.47541365079E+01  0.85660557915E+01 -0.15872491414E+01  0.99246403389E+01  0.51100000000E-03 0. -1.
        -11    1    3    3    0    0  0.27510373872E+02 -0.15622232860E+01  0.25133130463E+02  0.37295247141E+02  0.51100000000E-03 0.  1.
        -12    1    3    3    0    0 -0.47663967743E+01  0.10425921119E+02 -0.38154430624E+01  0.12082051777E+02  0.00000000000E+00 0.  1.
</event>
<event>
 7    1  0.7749294E-012  0.5930205E+02  0.7816164E-02  0.1266604E+00
        -11   -1    0    0    0    0  0.00000000000E+00  0.00000000000E+00  0.45593999997E+02  0.45594000000E+02  0.51100000000E-03 0. -1.
         11   -1    0    0    0    0 -0.00000000000E+00 -0.00000000000E+00 -0.45593999997E+02  0.45594000000E+02  0.51100000000E-03 0.  1.
    9900012    2    1    2    0    0 -0.30650211636E+02 -0.85849876232E+01  0.18910455112E+01  0.59302054210E+02  0.50000200945E+02 0.  0.
         12    1    1    2    0    0  0.30650211636E+02  0.85849876232E+01 -0.18910455112E+01  0.31885945790E+02  0.00000000000E+00 0. -1.
         11    1    3    3    0    0 -0.81850221244E+01  0.17318356102E+02  0.82360925635E+01  0.20850737786E+02  0.51100000000E-03 0. -1.
        -11    1    3    3    0    0 -0.24900062760E+01 -0.63292793703E+01 -0.79204598533E+01  0.10439999672E+02  0.51100000000E-03 0.  1.
         12    1    3    3    0    0 -0.19975183235E+02 -0.19574064355E+02  0.15754128010E+01  0.28011316752E+02  0.00000000000E+00 0. -1.
</event>
<event>
 7    1  0.7749294E-012  0.5930201E+02  0.7816164E-02  0.1266605E+00
        -11   -1    0    0    0    0  0.00000000000E+00  0.00000000000E+00  0.45593999997E+02  0.45594000000E+02  0.51100000000E-03 0.  1.
         11   -1    0    0    0    0 -0.00000000000E+00 -0.00000000000E+00 -0.45593999997E+02  0.45594000000E+02  0.51100000000E-03 0. -1.
    9900012    2    1    2    0    0  0.17113382947E+02  0.48548935467E+01  0.26462776672E+02  0.59302009088E+02  0.50000118654E+02 0.  0.
         12    1    1    2    0    0 -0.17113382947E+02 -0.48548935467E+01 -0.26462776672E+02  0.31885990912E+02  0.00000000000E+00 0. -1.
         11    1    3    3    0    0  0.16395430595E+02  0.17139496878E+02  0.10435972437E+02  0.25912970085E+02  0.51100000000E-03 0. -1.
        -11    1    3    3    0    0 -0.27992332454E+01 -0.12783004950E+02  0.22486518893E+02  0.26017003181E+02  0.51100000000E-03 0.  1.
        -12    1    3    3    0    0  0.35171855973E+01  0.49840161804E+00 -0.64597146582E+01  0.73720358222E+01  0.00000000000E+00 0.  1.
</event>
<event>
 7    1  0.7749294E-012  0.5930197E+02  0.7816164E-02  0.1266605E+00
        -11   -1    0    0    0    0  0.00000000000E+00  0.00000000000E+00  0.45593999997E+02  0.45594000000E+02  0.51100000000E-03 0.  1.
         11   -1    0    0    0    0 -0.00000000000E+00 -0.00000000000E+00 -0.45593999997E+02  0.45594000000E+02  0.51100000000E-03 0. -1.
    9900012    2    1    2    0    0 -0.13127405735E+02  0.14192774569E+02  0.25356565079E+02  0.59301968201E+02  0.50000044085E+02 0.  0.
         12    1    1    2    0    0  0.13127405735E+02 -0.14192774569E+02 -0.25356565079E+02  0.31886031799E+02  0.00000000000E+00 0. -1.
         11    1    3    3    0    0 -0.49372535016E+01  0.16151677627E+02  0.21611804020E+02  0.27428511362E+02  0.51100000000E-03 0. -1.
        -11    1    3    3    0    0 -0.13643080814E+02  0.48035801511E+01 -0.85629940046E+01  0.16808715089E+02  0.51100000000E-03 0.  1.
         12    1    3    3    0    0  0.54529285807E+01 -0.67624832086E+01  0.12307755064E+02  0.15064741749E+02  0.00000000000E+00 0. -1.
</event>
<event>
 7    1  0.7749294E-012  0.5930191E+02  0.7816164E-02  0.1266605E+00
        -11   -1    0    0    0    0  0.00000000000E+00  0.00000000000E+00  0.45593999997E+02  0.45594000000E+02  0.51100000000E-03 0.  1.
         11   -1    0    0    0    0 -0.00000000000E+00 -0.00000000000E+00 -0.45593999997E+02  0.45594000000E+02  0.51100000000E-03 0. -1.
    9900012    2    1    2    0    0  0.71580936564E+01  0.16004997603E+02  0.26633145541E+02  0.59301910643E+02  0.49999939114E+02 0.  0.
         12    1    1    2    0    0 -0.71580936564E+01 -0.16004997603E+02 -0.26633145541E+02  0.31886089357E+02  0.00000000000E+00 0. -1.
         11    1    3    3    0    0  0.17822246722E+02  0.10211992827E+01 -0.75972935596E+01  0.19400881318E+02  0.51100000000E-03 0. -1.
        -11    1    3    3    0    0 -0.54027433521E+01  0.10581316313E+02  0.28790647002E+02  0.31145709908E+02  0.51100000000E-03 0.  1.
         12    1    3    3    0    0 -0.52614097139E+01  0.44024820081E+01  0.54397920991E+01  0.87553194168E+01  0.00000000000E+00 0. -1.
</event>
<event>
 7    1  0.7749294E-012  0.5930194E+02  0.7816164E-02  0.1266605E+00
        -11   -1    0    0    0    0  0.00000000000E+00  0.00000000000E+00  0.45593999997E+02  0.45594000000E+02  0.51100000000E-03 0. -1.
         11   -1    0    0    0    0 -0.00000000000E+00 -0.00000000000E+00 -0.45593999997E+02  0.45594000000E+02  0.51100000000E-03 0.  1.
    9900012    2    1    2    0    0  0.20230365227E+02  0.19484550486E+02  0.15093232005E+02  0.59301936630E+02  0.49999986508E+02 0.  0.
         12    1    1    2    0    0 -0.20230365227E+02 -0.19484550486E+02 -0.15093232005E+02  0.31886063370E+02  0.00000000000E+00 0. -1.
         11    1    3    3    0    0 -0.71665154612E+01  0.13922475876E+02  0.18858949368E+02  0.24512328528E+02  0.51100000000E-03 0. -1.
        -11    1    3    3    0    0  0.23263615640E+02 -0.44910461347E+01 -0.19990509954E+01  0.23777331919E+02  0.51100000000E-03 0.  1.
        -12    1    3    3    0    0  0.41332650483E+01  0.10053120745E+02 -0.17666663670E+01  0.11012276183E+02  0.00000000000E+00 0.  1.
</event>
<event>
 7    1  0.7749294E-012  0.5930195E+02  0.7816164E-02  0.1266605E+00
        -11   -1    0    0    0    0  0.00000000000E+00  0.00000000000E+00  0.45593999997E+02  0.45594000000E+02  0.51100000000E-03 0. -1.
         11   -1    0    0    0    0 -0.00000000000E+00 -0.00000000000E+00 -0.45593999997E+02  0.45594000000E+02  0.51100000000E-03 0.  1.
    9900012    2    1    2    0    0 -0.19208470993E+02  0.24306859970E+02 -0.75452959949E+01  0.59301948329E+02  0.50000007845E+02 0.  0.
         12    1    1    2    0    0  0.19208470993E+02 -0.24306859970E+02  0.75452959949E+01  0.31886051671E+02  0.00000000000E+00 0. -1.
         11    1    3    3    0    0 -0.34999026251E+01  0.95943709821E+01  0.25576133512E+01  0.10528184043E+02  0.51100000000E-03 0. -1.
        -11    1    3    3    0    0 -0.13526495883E+02  0.36724411933E+00 -0.24717664730E+02  0.28179139609E+02  0.51100000000E-03 0.  1.
        -12    1    3    3    0    0 -0.21820724851E+01  0.14345244869E+02  0.14614755384E+02  0.20594624677E+02  0.00000000000E+00 0.  1.
</event>
<event>
 7    1  0.7749294E-012  0.5930192E+02  0.7816164E-02  0.1266605E+00
        -11   -1    0    0    0    0  0.00000000000E+00  0.00000000000E+00  0.45593999997E+02  0.45594000000E+02  0.51100000000E-03 0.  1.
         11   -1    0    0    0    0 -0.00000000000E+00 -0.00000000000E+00 -0.45593999997E+02  0.45594000000E+02  0.51100000000E-03 0. -1.
    9900012    2    1    2    0    0 -0.14725808308E+02  0.36207884691E-01  0.28281995821E+02  0.59301921079E+02  0.49999958147E+02 0.  0.
         12    1    1    2    0    0  0.14725808308E+02 -0.36207884691E-01 -0.28281995821E+02  0.31886078921E+02  0.00000000000E+00 0. -1.
         11    1    3    3    0    0  0.14966009527E+01 -0.58649637841E+01  0.46399382241E+00  0.60706593652E+01  0.51100000000E-03 0. -1.
        -11    1    3    3    0    0 -0.26035607626E+02  0.11633525574E+02  0.30289283953E+02  0.41600871438E+02  0.51100000000E-03 0.  1.
        -12    1    3    3    0    0  0.98131983658E+01 -0.57323539055E+01 -0.24712819541E+01  0.11630390276E+02  0.00000000000E+00 0.  1.
</event>
<event>
 7    1  0.7749294E-012  0.5930193E+02  0.7816164E-02  0.1266605E+00
        -11   -1    0    0    0    0  0.00000000000E+00  0.00000000000E+00  0.45593999997E+02  0.45594000000E+02  0.51100000000E-03 0.  1.
         11   -1    0    0    0    0 -0.00000000000E+00 -0.00000000000E+00 -0.45593999997E+02  0.45594000000E+02  0.51100000000E-03 0. -1.
    9900012    2    1    2    0    0 -0.48378100939E+01  0.97342568983E+01  0.29976009827E+02  0.59301932054E+02  0.49999978164E+02 0.  0.
         12    1    1    2    0    0  0.48378100939E+01 -0.97342568983E+01 -0.29976009827E+02  0.31886067946E+02  0.00000000000E+00 0. -1.
         11    1    3    3    0    0 -0.16817851089E+02 -0.11703883982E+02  0.22116168698E+01  0.20608548347E+02  0.51100000000E-03 0. -1.
        -11    1    3    3    0    0  0.69534234748E+01  0.16089942454E+02  0.25628562856E+02  0.31049308857E+02  0.51100000000E-03 0.  1.
        -12    1    3    3    0    0  0.50266175204E+01  0.53481984264E+01  0.21358301020E+01  0.76440748510E+01  0.00000000000E+00 0.  1.
</event>
<event>
 7    1  0.7749294E-012  0.5930196E+02  0.7816164E-02  0.1266605E+00
        -11   -1    0    0    0    0  0.00000000000E+00  0.00000000000E+00  0.45593999997E+02  0.45594000000E+02  0.51100000000E-03 0. -1.
         11   -1    0    0    0    0 -0.00000000000E+00 -0.00000000000E+00 -0.45593999997E+02  0.45594000000E+02  0.51100000000E-03 0.  1.
    9900012    2    1    2    0    0 -0.90103617895E+01  0.28157394385E+02 -0.11945461048E+02  0.59301960457E+02  0.50000029963E+02 0.  0.
         12    1    1    2    0    0  0.90103617895E+01 -0.28157394385E+02  0.11945461048E+02  0.31886039543E+02  0.00000000000E+00 0. -1.
         11    1    3    3    0    0 -0.49961719730E+01  0.24498974037E+02  0.75526016380E+01  0.26119020943E+02  0.51100000000E-03 0. -1.
        -11    1    3    3    0    0 -0.10057558166E+02  0.11079873872E+02 -0.18141247107E+02  0.23516439530E+02  0.51100000000E-03 0.  1.
         12    1    3    3    0    0  0.60433683495E+01 -0.74214535246E+01 -0.13568155787E+01  0.96664999840E+01  0.00000000000E+00 0. -1.
</event>
<event>
 7    1  0.7749294E-012  0.5930191E+02  0.7816164E-02  0.1266605E+00
        -11   -1    0    0    0    0  0.00000000000E+00  0.00000000000E+00  0.45593999997E+02  0.45594000000E+02  0.51100000000E-03 0. -1.
         11   -1    0    0    0    0 -0.00000000000E+00 -0.00000000000E+00 -0.45593999997E+02  0.45594000000E+02  0.51100000000E-03 0.  1.
    9900012    2    1    2    0    0  0.67599600839E+01  0.29904747770E+02  0.87596775095E+01  0.59301906642E+02  0.49999931818E+02 0.  0.
         12    1    1    2    0    0 -0.67599600839E+01 -0.29904747770E+02 -0.87596775095E+01  0.31886093358E+02  0.00000000000E+00 0. -1.
         11    1    3    3    0    0  0.53938372434E+01 -0.28121983066E+01  0.10771270983E+02  0.12370214968E+02  0.51100000000E-03 0. -1.
        -11    1    3    3    0    0 -0.58814797486E+01  0.37325525514E+02 -0.43358116667E+01  0.38034010070E+02  0.51100000000E-03 0.  1.
        -12    1    3    3    0    0  0.72476025891E+01 -0.46085794371E+01  0.23242181936E+01  0.88976816042E+01  0.00000000000E+00 0.  1.
</event>
<event>
 7    1  0.7749294E-012  0.5930196E+02  0.7816164E-02  0.1266605E+00
        -11   -1    0    0    0    0  0.00000000000E+00  0.00000000000E+00  0.45593999997E+02  0.45594000000E+02  0.51100000000E-03 0.  1.
         11   -1    0    0    0    0 -0.00000000000E+00 -0.00000000000E+00 -0.45593999997E+02  0.45594000000E+02  0.51100000000E-03 0. -1.
    9900012    2    1    2    0    0 -0.97980251169E+01 -0.65725850649E+01  0.29622957017E+02  0.59301956767E+02  0.50000023233E+02 0.  0.
         12    1    1    2    0    0  0.97980251169E+01  0.65725850649E+01 -0.29622957017E+02  0.31886043233E+02  0.00000000000E+00 0. -1.
         11    1    3    3    0    0  0.19293714660E+01  0.97877131641E+01  0.22044829636E+01  0.10216728862E+02  0.51100000000E-03 0. -1.
        -11    1    3    3    0    0 -0.24000605237E+02 -0.11368042524E+02  0.22958912952E+02  0.35105172364E+02  0.51100000000E-03 0.  1.
        -12    1    3    3    0    0  0.12273208654E+02 -0.49922557055E+01  0.44595611023E+01  0.13980055540E+02  0.00000000000E+00 0.  1.
</event>
<event>
 7    1  0.7749294E-012  0.5930203E+02  0.7816164E-02  0.1266604E+00
        -11   -1    0    0    0    0  0.00000000000E+00  0.00000000000E+00  0.45593999997E+02  0.45594000000E+02  0.51100000000E-03 0.  1.
         11   -1    0    0    0    0 -0.00000000000E+00 -0.00000000000E+00 -0.45593999997E+02  0.45594000000E+02  0.51100000000E-03 0. -1.
    9900012    2    1    2    0    0 -0.24258615884E+02 -0.16469625526E+02  0.12529396562E+02  0.59302034627E+02  0.50000165232E+02 0.  0.
         12    1    1    2    0    0  0.24258615884E+02  0.16469625526E+02 -0.12529396562E+02  0.31885965373E+02  0.00000000000E+00 0. -1.
         11    1    3    3    0    0  0.69578120948E+00  0.11658580596E+02 -0.23894370543E+01  0.11921242498E+02  0.51100000000E-03 0. -1.
        -11    1    3    3    0    0 -0.19909967250E+02 -0.75935005340E+01  0.15298949561E+02  0.26232154014E+02  0.51100000000E-03 0.  1.
         12    1    3    3    0    0 -0.50444298428E+01 -0.20534705588E+02 -0.38011594491E+00  0.21148638116E+02  0.00000000000E+00 0. -1.
</event>
<event>
 7    1  0.7749294E-012  0.5930197E+02  0.7816164E-02  0.1266605E+00
        -11   -1    0    0    0    0  0.00000000000E+00  0.00000000000E+00  0.45593999997E+02  0.45594000000E+02  0.51100000000E-03 0. -1.
         11   -1    0    0    0    0 -0.00000000000E+00 -0.00000000000E+00 -0.45593999997E+02  0.45594000000E+02  0.51100000000E-03 0.  1.
    9900012    2    1    2    0    0 -0.20516873854E+01  0.31685374490E+02 -0.29234618502E+01  0.59301968468E+02  0.50000044572E+02 0.  0.
         12    1    1    2    0    0  0.20516873854E+01 -0.31685374490E+02  0.29234618502E+01  0.31886031532E+02  0.00000000000E+00 0. -1.
         11    1    3    3    0    0 -0.55325924919E+01 -0.78932000627E+01  0.11222307170E+02  0.14793659635E+02  0.51100000000E-03 0. -1.
        -11    1    3    3    0    0  0.67812189088E+01  0.35492110387E+02 -0.91847940810E+01  0.37283176798E+02  0.51100000000E-03 0.  1.
         12    1    3    3    0    0 -0.33003138023E+01  0.40864641661E+01 -0.49609749391E+01  0.72251320348E+01  0.00000000000E+00 0. -1.
</event>
<event>
 7    1  0.7749294E-012  0.5930197E+02  0.7816164E-02  0.1266605E+00
        -11   -1    0    0    0    0  0.00000000000E+00  0.00000000000E+00  0.45593999997E+02  0.45594000000E+02  0.51100000000E-03 0. -1.
         11   -1    0    0    0    0 -0.00000000000E+00 -0.00000000000E+00 -0.45593999997E+02  0.45594000000E+02  0.51100000000E-03 0.  1.
    9900012    2    1    2    0    0 -0.44737813541E+01  0.30251914656E+02 -0.90291842307E+01  0.59301965003E+02  0.50000038254E+02 0.  0.
         12    1    1    2    0    0  0.44737813541E+01 -0.30251914656E+02  0.90291842307E+01  0.31886034997E+02  0.00000000000E+00 0. -1.
         11    1    3    3    0    0  0.12774669304E+02  0.18339795050E+02  0.46351501404E+01  0.22825969320E+02  0.51100000000E-03 0. -1.
        -11    1    3    3    0    0 -0.89777777223E+01 -0.81464271856E+01 -0.48353006393E+01  0.13051624468E+02  0.51100000000E-03 0.  1.
        -12    1    3    3    0    0 -0.82706729354E+01  0.20058546792E+02 -0.88290337318E+01  0.23424371215E+02  0.00000000000E+00 0.  1.
</event>
<event>
 7    1  0.7749294E-012  0.5930193E+02  0.7816164E-02  0.1266605E+00
        -11   -1    0    0    0    0  0.00000000000E+00  0.00000000000E+00  0.45593999997E+02  0.45594000000E+02  0.51100000000E-03 0.  1.
         11   -1    0    0    0    0 -0.00000000000E+00 -0.00000000000E+00 -0.45593999997E+02  0.45594000000E+02  0.51100000000E-03 0. -1.
    9900012    2    1    2    0    0  0.10127178577E+02 -0.17045486402E+02  0.24972246092E+02  0.59301930510E+02  0.49999975347E+02 0.  0.
         12    1    1    2    0    0 -0.10127178577E+02  0.17045486402E+02 -0.24972246092E+02  0.31886069490E+02  0.00000000000E+00 0. -1.
         11    1    3    3    0    0  0.15411834155E+01 -0.11234768969E+02  0.30758199281E+02  0.32782039341E+02  0.51100000000E-03 0. -1.
        -11    1    3    3    0    0  0.70220243039E+01 -0.85388136474E+01 -0.13933487105E+02  0.17786574347E+02  0.51100000000E-03 0.  1.
        -12    1    3    3    0    0  0.15639708581E+01  0.27280962139E+01  0.81475339164E+01  0.87333168222E+01  0.00000000000E+00 0.  1.
</event>
<event>
 7    1  0.7749294E-012  0.5930179E+02  0.7816164E-02  0.1266605E+00
        -11   -1    0    0    0    0  0.00000000000E+00  0.00000000000E+00  0.45593999997E+02  0.45594000000E+02  0.51100000000E-03 0. -1.
         11   -1    0    0    0    0 -0.00000000000E+00 -0.00000000000E+00 -0.45593999997E+02  0.45594000000E+02  0.51100000000E-03 0.  1.
    9900012    2    1    2    0    0  0.91438265629E+01  0.99290991881E+00 -0.30530881157E+02  0.59301793914E+02  0.49999726228E+02 0.  0.
         12    1    1    2    0    0 -0.91438265629E+01 -0.99290991881E+00  0.30530881157E+02  0.31886206086E+02  0.00000000000E+00 0. -1.
         11    1    3    3    0    0  0.34473707698E+01  0.64983247051E+01 -0.31809554516E+01  0.80144286786E+01  0.51100000000E-03 0. -1.
        -11    1    3    3    0    0 -0.68234780652E+01 -0.68906296621E+01 -0.35155610817E+02  0.36468583770E+02  0.51100000000E-03 0.  1.
        -12    1    3    3    0    0  0.12519933858E+02  0.13852148758E+01  0.78056851107E+01  0.14818781465E+02  0.00000000000E+00 0.  1.
</event>
<event>
 7    1  0.7749294E-012  0.5930195E+02  0.7816164E-02  0.1266605E+00
        -11   -1    0    0    0    0  0.00000000000E+00  0.00000000000E+00  0.45593999997E+02  0.45594000000E+02  0.51100000000E-03 0.  1.
         11   -1    0    0    0    0 -0.00000000000E+00 -0.00000000000E+00 -0.45593999997E+02  0.45594000000E+02  0.51100000000E-03 0. -1.
    9900012    2    1    2    0    0 -0.28318405761E+02  0.33452796309E+01  0.14268756295E+02  0.59301946514E+02  0.50000004535E+02 0.  0.
         12    1    1    2    0    0  0.28318405761E+02 -0.33452796309E+01 -0.14268756295E+02  0.31886053486E+02  0.00000000000E+00 0. -1.
         11    1    3    3    0    0 -0.12962576915E+02 -0.14470970594E+02  0.17118345857E+02  0.25893535011E+02  0.51100000000E-03 0. -1.
        -11    1    3    3    0    0 -0.82129757142E+01  0.15467980110E+02  0.87559650355E+01  0.19580048588E+02  0.51100000000E-03 0.  1.
         12    1    3    3    0    0 -0.71428531325E+01  0.23482701153E+01 -0.11605554598E+02  0.13828362916E+02  0.00000000000E+00 0. -1.
</event>
<event>
 7    1  0.7749294E-012  0.5930196E+02  0.7816164E-02  0.1266605E+00
        -11   -1    0    0    0    0  0.00000000000E+00  0.00000000000E+00  0.45593999997E+02  0.45594000000E+02  0.51100000000E-03 0.  1.
         11   -1    0    0    0    0 -0.00000000000E+00 -0.00000000000E+00 -0.45593999997E+02  0.45594000000E+02  0.51100000000E-03 0. -1.
    9900012    2    1    2    0    0  0.87500195417E+01  0.89486740509E+01  0.29327090824E+02  0.59301955005E+02  0.50000020020E+02 0.  0.
         12    1    1    2    0    0 -0.87500195417E+01 -0.89486740509E+01 -0.29327090824E+02  0.31886044995E+02  0.00000000000E+00 0. -1.
         11    1    3    3    0    0 -0.17975955867E+01 -0.15496017867E+02  0.17148115533E+01  0.15693900043E+02  0.51100000000E-03 0. -1.
        -11    1    3    3    0    0  0.75532991944E+01  0.11783497359E+02  0.27201348893E+02  0.30591118328E+02  0.51100000000E-03 0.  1.
         12    1    3    3    0    0  0.29943159340E+01  0.12661194558E+02  0.41093037793E+00  0.13016936634E+02  0.00000000000E+00 0. -1.
</event>
<event>
 7    1  0.7749294E-012  0.5930195E+02  0.7816164E-02  0.1266605E+00
        -11   -1    0    0    0    0  0.00000000000E+00  0.00000000000E+00  0.45593999997E+02  0.45594000000E+02  0.51100000000E-03 0. -1.
         11   -1    0    0    0    0 -0.00000000000E+00 -0.00000000000E+00 -0.45593999997E+02  0.45594000000E+02  0.51100000000E-03 0.  1.
    9900012    2    1    2    0    0 -0.21236359852E+02 -0.20264147449E+02 -0.12453976699E+02  0.59301949959E+02  0.50000010818E+02 0.  0.
         12    1    1    2    0    0  0.21236359852E+02  0.20264147449E+02  0.12453976699E+02  0.31886050041E+02  0.00000000000E+00 0. -1.
         11    1    3    3    0    0 -0.55555108523E+01 -0.10434934721E+02  0.11282168719E+02  0.16341324754E+02  0.51100000000E-03 0. -1.
        -11    1    3    3    0    0 -0.18150176265E+01  0.35448657709E+01 -0.23355077844E+02  0.23692193306E+02  0.51100000000E-03 0.  1.
         12    1    3    3    0    0 -0.13865831373E+02 -0.13374078499E+02 -0.38106757371E+00  0.19268431899E+02  0.00000000000E+00 0. -1.
</event>
<event>
 7    1  0.7749294E-012  0.5930195E+02  0.7816164E-02  0.1266605E+00
        -11   -1    0    0    0    0  0.00000000000E+00  0.00000000000E+00  0.45593999997E+02  0.45594000000E+02  0.51100000000E-03 0.  1.
         11   -1    0    0    0    0 -0.00000000000E+00 -0.00000000000E+00 -0.45593999997E+02  0.45594000000E+02  0.51100000000E-03 0. -1.
    9900012    2    1    2    0    0  0.18424339050E+02  0.85601871233E+01  0.24576151976E+02  0.59301947893E+02  0.50000007049E+02 0.  0.
         12    1    1    2    0    0 -0.18424339050E+02 -0.85601871233E+01 -0.24576151976E+02  0.31886052107E+02  0.00000000000E+00 0. -1.
         11    1    3    3    0    0 -0.87054651045E+01 -0.11542885567E+02  0.15380662351E+01  0.14539222053E+02  0.51100000000E-03 0. -1.
        -11    1    3    3    0    0  0.28069791441E+02  0.15090191974E+02  0.14951029372E+02  0.35201709687E+02  0.51100000000E-03 0.  1.
        -12    1    3    3    0    0 -0.93998728579E+00  0.50128807160E+01  0.80870563690E+01  0.95610161534E+01  0.00000000000E+00 0.  1.
</event>
<event>
 7    1  0.7749294E-012  0.5930211E+02  0.7816164E-02  0.1266604E+00
        -11   -1    0    0    0    0  0.00000000000E+00  0.00000000000E+00  0.45593999997E+02  0.45594000000E+02  0.51100000000E-03 0.  1.
         11   -1    0    0    0    0 -0.00000000000E+00 -0.00000000000E+00 -0.45593999997E+02  0.45594000000E+02  0.51100000000E-03 0. -1.
    9900012    2    1    2    0    0  0.36679839968E+01  0.29279526787E+02  0.12081604915E+02  0.59302110131E+02  0.50000302931E+02 0.  0.
         12    1    1    2    0    0 -0.36679839968E+01 -0.29279526787E+02 -0.12081604915E+02  0.31885889869E+02  0.00000000000E+00 0. -1.
         11    1    3    3    0    0  0.93051864883E+01  0.22452240743E+02 -0.15271578924E+02  0.28703845266E+02  0.51100000000E-03 0. -1.
        -11    1    3    3    0    0 -0.65120327756E+01  0.11722406727E+01  0.21140705838E+02  0.22151978753E+02  0.51100000000E-03 0.  1.
         12    1    3    3    0    0  0.87483028412E+00  0.56550453714E+01  0.62124780007E+01  0.84462861122E+01  0.00000000000E+00 0. -1.
</event>
<event>
 7    1  0.7749294E-012  0.5930194E+02  0.7816164E-02  0.1266605E+00
        -11   -1    0    0    0    0  0.00000000000E+00  0.00000000000E+00  0.45593999997E+02  0.45594000000E+02  0.51100000000E-03 0.  1.
         11   -1    0    0    0    0 -0.00000000000E+00 -0.00000000000E+00 -0.45593999997E+02  0.45594000000E+02  0.51100000000E-03 0. -1.
    9900012    2    1    2    0    0 -0.15886778827E+02  0.78282122930E+00  0.27635458885E+02  0.59301935044E+02  0.49999983616E+02 0.  0.
         12    1    1    2    0    0  0.15886778827E+02 -0.78282122930E+00 -0.27635458885E+02  0.31886064956E+02  0.00000000000E+00 0. -1.
         11    1    3    3    0    0  0.19867438108E+01 -0.12443904043E+02 -0.51218277915E+01  0.13602610742E+02  0.51100000000E-03 0. -1.
        -11    1    3    3    0    0 -0.20262919988E+02  0.21562786319E+01  0.23217086299E+02  0.30891237600E+02  0.51100000000E-03 0.  1.
        -12    1    3    3    0    0  0.23893973507E+01  0.11070446641E+02  0.95402003775E+01  0.14808086702E+02  0.00000000000E+00 0.  1.
</event>
<event>
 7    1  0.7749294E-012  0.5930194E+02  0.7816164E-02  0.1266605E+00
        -11   -1    0    0    0    0  0.00000000000E+00  0.00000000000E+00  0.45593999997E+02  0.45594000000E+02  0.51100000000E-03 0. -1.
         11   -1    0    0    0    0 -0.00000000000E+00 -0.00000000000E+00 -0.45593999997E+02  0.45594000000E+02  0.51100000000E-03 0.  1.
    9900012    2    1    2    0    0  0.41517718588E+01  0.30737502154E+02 -0.73952271729E+01  0.59301942966E+02  0.49999998064E+02 0.  0.
         12    1    1    2    0    0 -0.41517718588E+01 -0.30737502154E+02  0.73952271729E+01  0.31886057034E+02  0.00000000000E+00 0. -1.
         11    1    3    3    0    0 -0.15505579509E+01 -0.40001100789E+01  0.17752492863E+00  0.42937892315E+01  0.51100000000E-03 0.  1.
        -11    1    3    3    0    0  0.86316286543E+01  0.25474580149E+02  0.14740594162E+02  0.30671556261E+02  0.51100000000E-03 0. -1.
        -12    1    3    3    0    0 -0.29292988445E+01  0.92630320841E+01 -0.22313346263E+02  0.24336597473E+02  0.00000000000E+00 0.  1.
</event>
<event>
 7    1  0.7749294E-012  0.5930193E+02  0.7816164E-02  0.1266605E+00
        -11   -1    0    0    0    0  0.00000000000E+00  0.00000000000E+00  0.45593999997E+02  0.45594000000E+02  0.51100000000E-03 0. -1.
         11   -1    0    0    0    0 -0.00000000000E+00 -0.00000000000E+00 -0.45593999997E+02  0.45594000000E+02  0.51100000000E-03 0.  1.
    9900012    2    1    2    0    0 -0.20558031818E+02  0.20003607935E+02 -0.13926401977E+02  0.59301926634E+02  0.49999968278E+02 0.  0.
         12    1    1    2    0    0  0.20558031818E+02 -0.20003607935E+02  0.13926401977E+02  0.31886073366E+02  0.00000000000E+00 0. -1.
         11    1    3    3    0    0  0.58382861895E-01  0.16496429319E+02 -0.51212078101E+01  0.17273168746E+02  0.51100000000E-03 0. -1.
        -11    1    3    3    0    0 -0.21128772354E+02 -0.23643532401E-01 -0.20718956478E+02  0.29592241180E+02  0.51100000000E-03 0.  1.
        -12    1    3    3    0    0  0.51235767430E+00  0.35308221486E+01  0.11913762311E+02  0.12436516708E+02  0.00000000000E+00 0.  1.
</event>
<event>
 7    1  0.7749294E-012  0.5930192E+02  0.7816164E-02  0.1266605E+00
        -11   -1    0    0    0    0  0.00000000000E+00  0.00000000000E+00  0.45593999997E+02  0.45594000000E+02  0.51100000000E-03 0. -1.
         11   -1    0    0    0    0 -0.00000000000E+00 -0.00000000000E+00 -0.45593999997E+02  0.45594000000E+02  0.51100000000E-03 0.  1.
    9900012    2    1    2    0    0  0.57112910363E+01  0.29180105893E+02 -0.11516281753E+02  0.59301918857E+02  0.49999954095E+02 0.  0.
         12    1    1    2    0    0 -0.57112910363E+01 -0.29180105893E+02  0.11516281753E+02  0.31886081143E+02  0.00000000000E+00 0. -1.
         11    1    3    3    0    0 -0.84326748629E+01  0.10334180751E+02  0.74452490775E+01  0.15275373358E+02  0.51100000000E-03 0. -1.
        -11    1    3    3    0    0 -0.37932023298E+01 -0.71829404124E+01 -0.39416550222E+01  0.90288239244E+01  0.51100000000E-03 0.  1.
         12    1    3    3    0    0  0.17937168229E+02  0.26028865555E+02 -0.15019875808E+02  0.34997721575E+02  0.00000000000E+00 0. -1.
</event>
<event>
 7    1  0.7749294E-012  0.5930196E+02  0.7816164E-02  0.1266605E+00
        -11   -1    0    0    0    0  0.00000000000E+00  0.00000000000E+00  0.45593999997E+02  0.45594000000E+02  0.51100000000E-03 0. -1.
         11   -1    0    0    0    0 -0.00000000000E+00 -0.00000000000E+00 -0.45593999997E+02  0.45594000000E+02  0.51100000000E-03 0.  1.
    9900012    2    1    2    0    0 -0.69083922728E+01 -0.30254616151E+02  0.73247559602E+01  0.59301957096E+02  0.50000023833E+02 0.  0.
         12    1    1    2    0    0  0.69083922728E+01  0.30254616151E+02 -0.73247559602E+01  0.31886042904E+02  0.00000000000E+00 0. -1.
         11    1    3    3    0    0 -0.16312124682E+02 -0.17010190499E+02  0.91928734368E+01  0.25297053479E+02  0.51100000000E-03 0. -1.
        -11    1    3    3    0    0  0.15201284198E+02 -0.64807923604E+01 -0.12067976431E+02  0.20462545450E+02  0.51100000000E-03 0.  1.
        -12    1    3    3    0    0 -0.57975517884E+01 -0.67636332916E+01  0.10199858954E+02  0.13542358167E+02  0.00000000000E+00 0.  1.
</event>
<event>
 7    1  0.7749294E-012  0.5930194E+02  0.7816164E-02  0.1266605E+00
        -11   -1    0    0    0    0  0.00000000000E+00  0.00000000000E+00  0.45593999997E+02  0.45594000000E+02  0.51100000000E-03 0. -1.
         11   -1    0    0    0    0 -0.00000000000E+00 -0.00000000000E+00 -0.45593999997E+02  0.45594000000E+02  0.51100000000E-03 0.  1.
    9900012    2    1    2    0    0 -0.25556591135E+02  0.13064927269E+02 -0.13888444034E+02  0.59301944228E+02  0.50000000366E+02 0.  0.
         12    1    1    2    0    0  0.25556591135E+02 -0.13064927269E+02  0.13888444034E+02  0.31886055772E+02  0.00000000000E+00 0. -1.
         11    1    3    3    0    0 -0.25170154980E+02  0.16936380511E+02 -0.12571268110E+02  0.32839221499E+02  0.51100000000E-03 0.  1.
        -11    1    3    3    0    0  0.97476487690E+01 -0.96989550763E+01  0.28665618313E+01  0.14046478672E+02  0.51100000000E-03 0. -1.
         12    1    3    3    0    0 -0.10134084924E+02  0.58275018337E+01 -0.41837377558E+01  0.12416244057E+02  0.00000000000E+00 0. -1.
</event>
<event>
 7    1  0.7749294E-012  0.5930195E+02  0.7816164E-02  0.1266605E+00
        -11   -1    0    0    0    0  0.00000000000E+00  0.00000000000E+00  0.45593999997E+02  0.45594000000E+02  0.51100000000E-03 0. -1.
         11   -1    0    0    0    0 -0.00000000000E+00 -0.00000000000E+00 -0.45593999997E+02  0.45594000000E+02  0.51100000000E-03 0.  1.
    9900012    2    1    2    0    0 -0.29957696061E+02  0.72401019740E+01 -0.81754134179E+01  0.59301952669E+02  0.50000015759E+02 0.  0.
         12    1    1    2    0    0  0.29957696061E+02 -0.72401019740E+01  0.81754134179E+01  0.31886047331E+02  0.00000000000E+00 0. -1.
         11    1    3    3    0    0 -0.19825676931E+02 -0.57137088170E+01  0.72176110393E+01  0.21858587410E+02  0.51100000000E-03 0. -1.
        -11    1    3    3    0    0  0.10456466343E+02  0.69792948297E+01 -0.72406432880E+01  0.14507762067E+02  0.51100000000E-03 0.  1.
        -12    1    3    3    0    0 -0.20588485473E+02  0.59745159613E+01 -0.81523811691E+01  0.22935603192E+02  0.00000000000E+00 0.  1.
</event>
<event>
 7    1  0.7749294E-012  0.5930191E+02  0.7816164E-02  0.1266605E+00
        -11   -1    0    0    0    0  0.00000000000E+00  0.00000000000E+00  0.45593999997E+02  0.45594000000E+02  0.51100000000E-03 0.  1.
         11   -1    0    0    0    0 -0.00000000000E+00 -0.00000000000E+00 -0.45593999997E+02  0.45594000000E+02  0.51100000000E-03 0. -1.
    9900012    2    1    2    0    0 -0.38084210633E+01  0.27875486160E+02  0.15005860404E+02  0.59301911402E+02  0.49999940498E+02 0.  0.
         12    1    1    2    0    0  0.38084210633E+01 -0.27875486160E+02 -0.15005860404E+02  0.31886088598E+02  0.00000000000E+00 0. -1.
         11    1    3    3    0    0  0.17909295414E+02  0.71039886615E+01 -0.68326339190E+00  0.19278909882E+02  0.51100000000E-03 0.  1.
        -11    1    3    3    0    0 -0.48324270743E+01  0.19175954414E+02  0.70980150163E+01  0.21010744788E+02  0.51100000000E-03 0. -1.
         12    1    3    3    0    0 -0.16885289403E+02  0.15955430845E+01  0.85911087794E+01  0.19012256731E+02  0.00000000000E+00 0. -1.
</event>
<event>
 7    1  0.7749294E-012  0.5930194E+02  0.7816164E-02  0.1266605E+00
        -11   -1    0    0    0    0  0.00000000000E+00  0.00000000000E+00  0.45593999997E+02  0.45594000000E+02  0.51100000000E-03 0.  1.
         11   -1    0    0    0    0 -0.00000000000E+00 -0.00000000000E+00 -0.45593999997E+02  0.45594000000E+02  0.51100000000E-03 0. -1.
    9900012    2    1    2    0    0 -0.26644623535E+01  0.29286409641E+02  0.12325892097E+02  0.59301940895E+02  0.49999994287E+02 0.  0.
         12    1    1    2    0    0  0.26644623535E+01 -0.29286409641E+02 -0.12325892097E+02  0.31886059105E+02  0.00000000000E+00 0. -1.
         11    1    3    3    0    0  0.14433808382E+01  0.23729115905E+02 -0.10150013356E+02  0.25849121093E+02  0.51100000000E-03 0. -1.
        -11    1    3    3    0    0  0.27345702043E+01 -0.78677448673E+01  0.13648314531E+02  0.15989239297E+02  0.51100000000E-03 0.  1.
         12    1    3    3    0    0 -0.68424133960E+01  0.13425038603E+02  0.88275909215E+01  0.17463580505E+02  0.00000000000E+00 0. -1.
</event>
<event>
 7    1  0.7749294E-012  0.5930195E+02  0.7816164E-02  0.1266605E+00
        -11   -1    0    0    0    0  0.00000000000E+00  0.00000000000E+00  0.45593999997E+02  0.45594000000E+02  0.51100000000E-03 0.  1.
         11   -1    0    0    0    0 -0.00000000000E+00 -0.00000000000E+00 -0.45593999997E+02  0.45594000000E+02  0.51100000000E-03 0. -1.
    9900012    2    1    2    0    0  0.32183133350E+01  0.26537551006E+02 -0.17381635324E+02  0.59301946612E+02  0.50000004714E+02 0.  0.
         12    1    1    2    0    0 -0.32183133350E+01 -0.26537551006E+02  0.17381635324E+02  0.31886053388E+02  0.00000000000E+00 0. -1.
         11    1    3    3    0    0  0.41502317532E+01  0.94652048053E+01 -0.69827073790E+01  0.12472879708E+02  0.51100000000E-03 0. -1.
        -11    1    3    3    0    0 -0.14526954442E+01 -0.14198940182E+02 -0.17524271733E+01  0.14380237398E+02  0.51100000000E-03 0.  1.
        -12    1    3    3    0    0  0.52077702598E+00  0.31271286383E+02 -0.86465007716E+01  0.32448829506E+02  0.00000000000E+00 0.  1.
</event>
<event>
 7    1  0.7749294E-012  0.5930181E+02  0.7816164E-02  0.1266605E+00
        -11   -1    0    0    0    0  0.00000000000E+00  0.00000000000E+00  0.45593999997E+02  0.45594000000E+02  0.51100000000E-03 0. -1.
         11   -1    0    0    0    0 -0.00000000000E+00 -0.00000000000E+00 -0.45593999997E+02  0.45594000000E+02  0.51100000000E-03 0.  1.
    9900012    2    1    2    0    0  0.21643439309E+02  0.15207100985E+02 -0.17805465923E+02  0.59301811732E+02  0.49999758724E+02 0.  0.
         12    1    1    2    0    0 -0.21643439309E+02 -0.15207100985E+02  0.17805465923E+02  0.31886188268E+02  0.00000000000E+00 0. -1.
         11    1    3    3    0    0 -0.12116067605E+02  0.11807939175E+01  0.76893885526E+01  0.14398613303E+02  0.51100000000E-03 0. -1.
        -11    1    3    3    0    0  0.14553849974E+02  0.89730380579E+01 -0.12219588836E+02  0.21015430346E+02  0.51100000000E-03 0.  1.
         12    1    3    3    0    0  0.19205656940E+02  0.50532690097E+01 -0.13275265640E+02  0.23887768083E+02  0.00000000000E+00 0. -1.
</event>
<event>
 7    1  0.7749294E-012  0.5930191E+02  0.7816164E-02  0.1266605E+00
        -11   -1    0    0    0    0  0.00000000000E+00  0.00000000000E+00  0.45593999997E+02  0.45594000000E+02  0.51100000000E-03 0.  1.
         11   -1    0    0    0    0 -0.00000000000E+00 -0.00000000000E+00 -0.45593999997E+02  0.45594000000E+02  0.51100000000E-03 0. -1.
    9900012    2    1    2    0    0  0.19092668427E+01  0.31748930382E+02  0.22545092826E+01  0.59301910675E+02  0.49999939174E+02 0.  0.
         12    1    1    2    0    0 -0.19092668427E+01 -0.31748930382E+02 -0.22545092826E+01  0.31886089325E+02  0.00000000000E+00 0. -1.
         11    1    3    3    0    0 -0.25472150681E+01  0.19138767700E+01 -0.66504304828E+01  0.73742426569E+01  0.51100000000E-03 0. -1.
        -11    1    3    3    0    0  0.13283028995E+02 -0.19785641250E+01  0.12961231072E+02  0.18664058681E+02  0.51100000000E-03 0.  1.
        -12    1    3    3    0    0 -0.88265470846E+01  0.31813617737E+02 -0.40562913069E+01  0.33263609337E+02  0.00000000000E+00 0.  1.
</event>
<event>
 7    1  0.7749294E-012  0.5930168E+02  0.7816164E-02  0.1266606E+00
        -11   -1    0    0    0    0  0.00000000000E+00  0.00000000000E+00  0.45593999997E+02  0.45594000000E+02  0.51100000000E-03 0.  1.
         11   -1    0    0    0    0 -0.00000000000E+00 -0.00000000000E+00 -0.45593999997E+02  0.45594000000E+02  0.51100000000E-03 0. -1.
    9900012    2    1    2    0    0 -0.24310145878E+02  0.20280098469E+02 -0.38041801091E+01  0.59301680475E+02  0.49999519341E+02 0.  0.
         12    1    1    2    0    0  0.24310145878E+02 -0.20280098469E+02  0.38041801091E+01  0.31886319525E+02  0.00000000000E+00 0. -1.
         11    1    3    3    0    0 -0.40814115601E+01 -0.28950611981E+01 -0.15108873392E+02  0.15915946566E+02  0.51100000000E-03 0. -1.
        -11    1    3    3    0    0 -0.27025498986E+02  0.17056039896E+02  0.51694406931E+01  0.32372970356E+02  0.51100000000E-03 0.  1.
         12    1    3    3    0    0  0.67967646680E+01  0.61191197717E+01  0.61352525897E+01  0.11012763553E+02  0.00000000000E+00 0. -1.
</event>
<event>
 7    1  0.7749294E-012  0.5930192E+02  0.7816164E-02  0.1266605E+00
        -11   -1    0    0    0    0  0.00000000000E+00  0.00000000000E+00  0.45593999997E+02  0.45594000000E+02  0.51100000000E-03 0. -1.
         11   -1    0    0    0    0 -0.00000000000E+00 -0.00000000000E+00 -0.45593999997E+02  0.45594000000E+02  0.51100000000E-03 0.  1.
    9900012    2    1    2    0    0 -0.97646543301E+01  0.30315777059E+02 -0.15254751537E+01  0.59301923300E+02  0.49999962197E+02 0.  0.
         12    1    1    2    0    0  0.97646543301E+01 -0.30315777059E+02  0.15254751537E+01  0.31886076700E+02  0.00000000000E+00 0. -1.
         11    1    3    3    0    0 -0.19614409856E+02 -0.36625386431E+01  0.45825317559E+01  0.20472881108E+02  0.51100000000E-03 0. -1.
        -11    1    3    3    0    0  0.60633445794E+01  0.18519790947E+02  0.41100122285E+01  0.19915797875E+02  0.51100000000E-03 0.  1.
         12    1    3    3    0    0  0.37864109468E+01  0.15458524755E+02 -0.10218019138E+02  0.18913244316E+02  0.00000000000E+00 0. -1.
</event>
<event>
 7    1  0.7749294E-012  0.5930195E+02  0.7816164E-02  0.1266605E+00
        -11   -1    0    0    0    0  0.00000000000E+00  0.00000000000E+00  0.45593999997E+02  0.45594000000E+02  0.51100000000E-03 0.  1.
         11   -1    0    0    0    0 -0.00000000000E+00 -0.00000000000E+00 -0.45593999997E+02  0.45594000000E+02  0.51100000000E-03 0. -1.
    9900012    2    1    2    0    0  0.12456450869E+01  0.12666793212E+02  0.29235614623E+02  0.59301945927E+02  0.50000003464E+02 0.  0.
         12    1    1    2    0    0 -0.12456450869E+01 -0.12666793212E+02 -0.29235614623E+02  0.31886054073E+02  0.00000000000E+00 0. -1.
         11    1    3    3    0    0  0.70038462500E+00  0.75278389749E+01 -0.12216300215E+02  0.14366519740E+02  0.51100000000E-03 0. -1.
        -11    1    3    3    0    0 -0.47771082877E+01  0.54666127133E+01  0.70395541025E+01  0.10112365716E+02  0.51100000000E-03 0.  1.
         12    1    3    3    0    0  0.53223687497E+01 -0.32765847670E+00  0.34412360735E+02  0.34823060471E+02  0.00000000000E+00 0. -1.
</event>
<event>
 7    1  0.7749294E-012  0.5930193E+02  0.7816164E-02  0.1266605E+00
        -11   -1    0    0    0    0  0.00000000000E+00  0.00000000000E+00  0.45593999997E+02  0.45594000000E+02  0.51100000000E-03 0.  1.
         11   -1    0    0    0    0 -0.00000000000E+00 -0.00000000000E+00 -0.45593999997E+02  0.45594000000E+02  0.51100000000E-03 0. -1.
    9900012    2    1    2    0    0 -0.10173226276E+02  0.20042809594E+02  0.22616648992E+02  0.59301928418E+02  0.49999971532E+02 0.  0.
         12    1    1    2    0    0  0.10173226276E+02 -0.20042809594E+02 -0.22616648992E+02  0.31886071582E+02  0.00000000000E+00 0. -1.
         11    1    3    3    0    0  0.54124194222E+01 -0.20756352775E+01 -0.12898748629E+02  0.14141437772E+02  0.51100000000E-03 0. -1.
        -11    1    3    3    0    0 -0.15446276555E+02  0.18226218423E+02  0.29046081576E+02  0.37609272162E+02  0.51100000000E-03 0.  1.
         12    1    3    3    0    0 -0.13936914337E+00  0.38922264486E+01  0.64693160458E+01  0.75512184835E+01  0.00000000000E+00 0. -1.
</event>
<event>
 7    1  0.7749294E-012  0.5930195E+02  0.7816164E-02  0.1266605E+00
        -11   -1    0    0    0    0  0.00000000000E+00  0.00000000000E+00  0.45593999997E+02  0.45594000000E+02  0.51100000000E-03 0.  1.
         11   -1    0    0    0    0 -0.00000000000E+00 -0.00000000000E+00 -0.45593999997E+02  0.45594000000E+02  0.51100000000E-03 0. -1.
    9900012    2    1    2    0    0 -0.50946670667E+01  0.16813183058E+02  0.26609795356E+02  0.59301953428E+02  0.50000017145E+02 0.  0.
         12    1    1    2    0    0  0.50946670667E+01 -0.16813183058E+02 -0.26609795356E+02  0.31886046572E+02  0.00000000000E+00 0. -1.
         11    1    3    3    0    0 -0.22581035968E+02  0.16029485309E+02  0.67242893033E+01  0.28496730542E+02  0.51100000000E-03 0. -1.
        -11    1    3    3    0    0  0.10839715948E+02  0.77553336058E+01  0.14785093357E+02  0.19905869159E+02  0.51100000000E-03 0.  1.
         12    1    3    3    0    0  0.66466529536E+01 -0.69716358565E+01  0.51004126961E+01  0.10899353727E+02  0.00000000000E+00 0. -1.
</event>
<event>
 7    1  0.7749294E-012  0.5930198E+02  0.7816164E-02  0.1266605E+00
        -11   -1    0    0    0    0  0.00000000000E+00  0.00000000000E+00  0.45593999997E+02  0.45594000000E+02  0.51100000000E-03 0.  1.
         11   -1    0    0    0    0 -0.00000000000E+00 -0.00000000000E+00 -0.45593999997E+02  0.45594000000E+02  0.51100000000E-03 0. -1.
    9900012    2    1    2    0    0 -0.22840050339E+02  0.14800720131E+02  0.16612915644E+02  0.59301981401E+02  0.50000068159E+02 0.  0.
         12    1    1    2    0    0  0.22840050339E+02 -0.14800720131E+02 -0.16612915644E+02  0.31886018599E+02  0.00000000000E+00 0. -1.
         11    1    3    3    0    0 -0.30754223660E+01  0.18063728245E+02 -0.25042601799E+01  0.18493994164E+02  0.51100000000E-03 0. -1.
        -11    1    3    3    0    0 -0.44435649402E+01 -0.12631524779E+02  0.18501936538E+02  0.22839053035E+02  0.51100000000E-03 0.  1.
         12    1    3    3    0    0 -0.15321063033E+02  0.93685166651E+01  0.61523928673E+00  0.17968934202E+02  0.00000000000E+00 0. -1.
</event>
<event>
 7    1  0.7749294E-012  0.5930189E+02  0.7816164E-02  0.1266605E+00
        -11   -1    0    0    0    0  0.00000000000E+00  0.00000000000E+00  0.45593999997E+02  0.45594000000E+02  0.51100000000E-03 0. -1.
         11   -1    0    0    0    0 -0.00000000000E+00 -0.00000000000E+00 -0.45593999997E+02  0.45594000000E+02  0.51100000000E-03 0.  1.
    9900012    2    1    2    0    0 -0.10280482057E+01 -0.10728036756E+02 -0.30009601640E+02  0.59301892581E+02  0.49999906173E+02 0.  0.
         12    1    1    2    0    0  0.10280482057E+01  0.10728036756E+02  0.30009601640E+02  0.31886107419E+02  0.00000000000E+00 0. -1.
         11    1    3    3    0    0  0.12209506879E+02 -0.12622904819E+02 -0.38579801109E+02  0.42388805576E+02  0.51100000000E-03 0. -1.
        -11    1    3    3    0    0 -0.79060569415E+01 -0.14456545239E+01  0.32343472565E+01  0.86635244446E+01  0.51100000000E-03 0.  1.
         12    1    3    3    0    0 -0.53314981427E+01  0.33405225864E+01  0.53358522126E+01  0.82495625599E+01  0.00000000000E+00 0. -1.
</event>
<event>
 7    1  0.7749294E-012  0.5930196E+02  0.7816164E-02  0.1266605E+00
        -11   -1    0    0    0    0  0.00000000000E+00  0.00000000000E+00  0.45593999997E+02  0.45594000000E+02  0.51100000000E-03 0.  1.
         11   -1    0    0    0    0 -0.00000000000E+00 -0.00000000000E+00 -0.45593999997E+02  0.45594000000E+02  0.51100000000E-03 0. -1.
    9900012    2    1    2    0    0  0.16824991085E+02 -0.48024295877E+00  0.27081513284E+02  0.59301963557E+02  0.50000035617E+02 0.  0.
         12    1    1    2    0    0 -0.16824991085E+02  0.48024295877E+00 -0.27081513284E+02  0.31886036443E+02  0.00000000000E+00 0. -1.
         11    1    3    3    0    0 -0.51659137159E+01 -0.22358595452E+01 -0.49359100647E+01  0.74865840578E+01  0.51100000000E-03 0. -1.
        -11    1    3    3    0    0  0.22147235972E+02 -0.16304568009E+01  0.38531093053E+02  0.44472503670E+02  0.51100000000E-03 0.  1.
        -12    1    3    3    0    0 -0.15633117092E+00  0.33860733874E+01 -0.65136697046E+01  0.73428758290E+01  0.00000000000E+00 0.  1.
</event>
<event>
 7    1  0.7749294E-012  0.5930194E+02  0.7816164E-02  0.1266605E+00
        -11   -1    0    0    0    0  0.00000000000E+00  0.00000000000E+00  0.45593999997E+02  0.45594000000E+02  0.51100000000E-03 0.  1.
         11   -1    0    0    0    0 -0.00000000000E+00 -0.00000000000E+00 -0.45593999997E+02  0.45594000000E+02  0.51100000000E-03 0. -1.
    9900012    2    1    2    0    0 -0.31828227302E+02  0.13471113926E+01 -0.13674354800E+01  0.59301942826E+02  0.49999997809E+02 0.  0.
         12    1    1    2    0    0  0.31828227302E+02 -0.13471113926E+01  0.13674354800E+01  0.31886057174E+02  0.00000000000E+00 0. -1.
         11    1    3    3    0    0 -0.44460878268E-01 -0.13377596360E+02  0.34267016027E+01  0.13809574406E+02  0.51100000000E-03 0. -1.
        -11    1    3    3    0    0 -0.33453594508E+02  0.11676077899E+02 -0.12067367418E+02  0.37431205394E+02  0.51100000000E-03 0.  1.
         12    1    3    3    0    0  0.16698280845E+01  0.30486298540E+01  0.72732303350E+01  0.80611630256E+01  0.00000000000E+00 0. -1.
</event>
<event>
 7    1  0.7749294E-012  0.5930193E+02  0.7816164E-02  0.1266605E+00
        -11   -1    0    0    0    0  0.00000000000E+00  0.00000000000E+00  0.45593999997E+02  0.45594000000E+02  0.51100000000E-03 0. -1.
         11   -1    0    0    0    0 -0.00000000000E+00 -0.00000000000E+00 -0.45593999997E+02  0.45594000000E+02  0.51100000000E-03 0.  1.
    9900012    2    1    2    0    0  0.23106306229E+02  0.16460264249E+02 -0.14556082234E+02  0.59301933815E+02  0.49999981375E+02 0.  0.
         12    1    1    2    0    0 -0.23106306229E+02 -0.16460264249E+02  0.14556082234E+02  0.31886066185E+02  0.00000000000E+00 0. -1.
         11    1    3    3    0    0  0.92626472882E+01  0.28037655996E+02  0.40617224402E+01  0.29806113098E+02  0.51100000000E-03 0. -1.
        -11    1    3    3    0    0  0.15432940220E+02 -0.11547499886E+02 -0.12034489520E+02  0.22723321406E+02  0.51100000000E-03 0.  1.
         12    1    3    3    0    0 -0.15892812783E+01 -0.29891861342E-01 -0.65833151549E+01  0.67724993121E+01  0.00000000000E+00 0. -1.
</event>
<event>
 7    1  0.7749294E-012  0.5930189E+02  0.7816164E-02  0.1266605E+00
        -11   -1    0    0    0    0  0.00000000000E+00  0.00000000000E+00  0.45593999997E+02  0.45594000000E+02  0.51100000000E-03 0.  1.
         11   -1    0    0    0    0 -0.00000000000E+00 -0.00000000000E+00 -0.45593999997E+02  0.45594000000E+02  0.51100000000E-03 0. -1.
    9900012    2    1    2    0    0  0.25284562660E+02  0.81836551269E+01  0.17619379309E+02  0.59301892564E+02  0.49999906143E+02 0.  0.
         12    1    1    2    0    0 -0.25284562660E+02 -0.81836551269E+01 -0.17619379309E+02  0.31886107436E+02  0.00000000000E+00 0. -1.
         11    1    3    3    0    0  0.90105994507E+01  0.13611477064E+02 -0.71694366930E+00  0.16339437531E+02  0.51100000000E-03 0. -1.
        -11    1    3    3    0    0 -0.61745904089E+01 -0.11795526757E+02  0.45703799720E-01  0.13313981647E+02  0.51100000000E-03 0.  1.
        -12    1    3    3    0    0  0.22448553619E+02  0.63677048198E+01  0.18290619179E+02  0.29648473387E+02  0.00000000000E+00 0.  1.
</event>
<event>
 7    1  0.7749294E-012  0.5930194E+02  0.7816164E-02  0.1266605E+00
        -11   -1    0    0    0    0  0.00000000000E+00  0.00000000000E+00  0.45593999997E+02  0.45594000000E+02  0.51100000000E-03 0.  1.
         11   -1    0    0    0    0 -0.00000000000E+00 -0.00000000000E+00 -0.45593999997E+02  0.45594000000E+02  0.51100000000E-03 0. -1.
    9900012    2    1    2    0    0 -0.29858144455E+02 -0.55768308963E+01  0.97010726301E+01  0.59301942807E+02  0.49999997773E+02 0.  0.
         12    1    1    2    0    0  0.29858144455E+02  0.55768308963E+01 -0.97010726301E+01  0.31886057193E+02  0.00000000000E+00 0. -1.
         11    1    3    3    0    0  0.98443141713E+00  0.13715656300E+01  0.94770665849E+00  0.19360903037E+01  0.51100000000E-03 0. -1.
        -11    1    3    3    0    0 -0.30547050093E+02  0.82721593188E+01 -0.10020128177E+02  0.33195690355E+02  0.51100000000E-03 0.  1.
        -12    1    3    3    0    0 -0.29552577939E+00 -0.15220555845E+02  0.18773494149E+02  0.24170162149E+02  0.00000000000E+00 0.  1.
</event>
<event>
 7    1  0.7749294E-012  0.5930193E+02  0.7816164E-02  0.1266605E+00
        -11   -1    0    0    0    0  0.00000000000E+00  0.00000000000E+00  0.45593999997E+02  0.45594000000E+02  0.51100000000E-03 0. -1.
         11   -1    0    0    0    0 -0.00000000000E+00 -0.00000000000E+00 -0.45593999997E+02  0.45594000000E+02  0.51100000000E-03 0.  1.
    9900012    2    1    2    0    0  0.23752723973E+02 -0.15696978785E+02 -0.14357379080E+02  0.59301931363E+02  0.49999976902E+02 0.  0.
         12    1    1    2    0    0 -0.23752723973E+02  0.15696978785E+02  0.14357379080E+02  0.31886068637E+02  0.00000000000E+00 0. -1.
         11    1    3    3    0    0 -0.35817837411E+01  0.39916454646E+00  0.10871685074E+02  0.11453472998E+02  0.51100000000E-03 0. -1.
        -11    1    3    3    0    0  0.10702613759E+02 -0.19532583489E+02 -0.80258172867E+01  0.23674490542E+02  0.51100000000E-03 0.  1.
        -12    1    3    3    0    0  0.16631893955E+02  0.34364401576E+01 -0.17203246868E+02  0.24173967823E+02  0.00000000000E+00 0.  1.
</event>
<event>
 7    1  0.7749294E-012  0.5930194E+02  0.7816164E-02  0.1266605E+00
        -11   -1    0    0    0    0  0.00000000000E+00  0.00000000000E+00  0.45593999997E+02  0.45594000000E+02  0.51100000000E-03 0.  1.
         11   -1    0    0    0    0 -0.00000000000E+00 -0.00000000000E+00 -0.45593999997E+02  0.45594000000E+02  0.51100000000E-03 0. -1.
    9900012    2    1    2    0    0  0.23029737567E+02  0.57101260420E+01  0.21301328286E+02  0.59301938177E+02  0.49999989330E+02 0.  0.
         12    1    1    2    0    0 -0.23029737567E+02 -0.57101260420E+01 -0.21301328286E+02  0.31886061823E+02  0.00000000000E+00 0. -1.
         11    1    3    3    0    0  0.12205602266E+01  0.33071682414E+01 -0.42951565875E+01  0.55565726321E+01  0.51100000000E-03 0. -1.
        -11    1    3    3    0    0  0.86200509115E+01 -0.15229311506E+02  0.26443747625E+02  0.31709761831E+02  0.51100000000E-03 0.  1.
        -12    1    3    3    0    0  0.13189126429E+02  0.17632269307E+02 -0.84726275148E+00  0.22035603714E+02  0.00000000000E+00 0.  1.
</event>
<event>
 7    1  0.7749294E-012  0.5930165E+02  0.7816164E-02  0.1266606E+00
        -11   -1    0    0    0    0  0.00000000000E+00  0.00000000000E+00  0.45593999997E+02  0.45594000000E+02  0.51100000000E-03 0.  1.
         11   -1    0    0    0    0 -0.00000000000E+00 -0.00000000000E+00 -0.45593999997E+02  0.45594000000E+02  0.51100000000E-03 0. -1.
    9900012    2    1    2    0    0 -0.94284737184E+01  0.21149934885E+01  0.30387004625E+02  0.59301649250E+02  0.49999462393E+02 0.  0.
         12    1    1    2    0    0  0.94284737184E+01 -0.21149934885E+01 -0.30387004625E+02  0.31886350750E+02  0.00000000000E+00 0. -1.
         11    1    3    3    0    0  0.66642131510E+01  0.17935991734E+02  0.27549775175E+02  0.33542534920E+02  0.51100000000E-03 0. -1.
        -11    1    3    3    0    0 -0.15178380849E+02 -0.76855797558E+01  0.40352946492E+01  0.17485279081E+02  0.51100000000E-03 0.  1.
         12    1    3    3    0    0 -0.91430602037E+00 -0.81354184896E+01 -0.11980651992E+01  0.82738352486E+01  0.00000000000E+00 0. -1.
</event>
<event>
 7    1  0.7749294E-012  0.5930193E+02  0.7816164E-02  0.1266605E+00
        -11   -1    0    0    0    0  0.00000000000E+00  0.00000000000E+00  0.45593999997E+02  0.45594000000E+02  0.51100000000E-03 0.  1.
         11   -1    0    0    0    0 -0.00000000000E+00 -0.00000000000E+00 -0.45593999997E+02  0.45594000000E+02  0.51100000000E-03 0. -1.
    9900012    2    1    2    0    0  0.10524893334E+02 -0.25254469110E+02  0.16375584498E+02  0.59301931609E+02  0.49999977352E+02 0.  0.
         12    1    1    2    0    0 -0.10524893334E+02  0.25254469110E+02 -0.16375584498E+02  0.31886068391E+02  0.00000000000E+00 0. -1.
         11    1    3    3    0    0  0.25797469702E+01 -0.12984776364E+02 -0.10739977215E+02  0.17047188111E+02  0.51100000000E-03 0. -1.
        -11    1    3    3    0    0 -0.52856171951E+01  0.70509704259E+01  0.94560370508E+01  0.12925578132E+02  0.51100000000E-03 0.  1.
        -12    1    3    3    0    0  0.13230763559E+02 -0.19320663172E+02  0.17659524663E+02  0.29329165366E+02  0.00000000000E+00 0.  1.
</event>
<event>
 7    1  0.7749294E-012  0.5930197E+02  0.7816164E-02  0.1266605E+00
        -11   -1    0    0    0    0  0.00000000000E+00  0.00000000000E+00  0.45593999997E+02  0.45594000000E+02  0.51100000000E-03 0. -1.
         11   -1    0    0    0    0 -0.00000000000E+00 -0.00000000000E+00 -0.45593999997E+02  0.45594000000E+02  0.51100000000E-03 0.  1.
    9900012    2    1    2    0    0 -0.16585682513E+02  0.20101163043E+02 -0.18373278922E+02  0.59301968600E+02  0.50000044813E+02 0.  0.
         12    1    1    2    0    0  0.16585682513E+02 -0.20101163043E+02  0.18373278922E+02  0.31886031400E+02  0.00000000000E+00 0. -1.
         11    1    3    3    0    0  0.12613724688E+01 -0.40673110663E+01 -0.16886460177E+01  0.45810048515E+01  0.51100000000E-03 0. -1.
        -11    1    3    3    0    0 -0.37691492637E+01  0.29929652957E+02  0.24633218135E+01  0.30266459439E+02  0.51100000000E-03 0.  1.
        -12    1    3    3    0    0 -0.14077905719E+02 -0.57611788484E+01 -0.19147954718E+02  0.24454504310E+02  0.00000000000E+00 0.  1.
</event>
<event>
 7    1  0.7749294E-012  0.5930180E+02  0.7816164E-02  0.1266605E+00
        -11   -1    0    0    0    0  0.00000000000E+00  0.00000000000E+00  0.45593999997E+02  0.45594000000E+02  0.51100000000E-03 0.  1.
         11   -1    0    0    0    0 -0.00000000000E+00 -0.00000000000E+00 -0.45593999997E+02  0.45594000000E+02  0.51100000000E-03 0. -1.
    9900012    2    1    2    0    0 -0.10923756514E+02 -0.12090718001E+02  0.27408315833E+02  0.59301800870E+02  0.49999738914E+02 0.  0.
         12    1    1    2    0    0  0.10923756514E+02  0.12090718001E+02 -0.27408315833E+02  0.31886199130E+02  0.00000000000E+00 0. -1.
         11    1    3    3    0    0  0.11167403218E+02 -0.67859008492E-01  0.23990397239E+01  0.11422385536E+02  0.51100000000E-03 0. -1.
        -11    1    3    3    0    0 -0.26779947867E+02 -0.14285874922E+02  0.28480493690E+02  0.41621993599E+02  0.51100000000E-03 0.  1.
        -12    1    3    3    0    0  0.46887881355E+01  0.22630159297E+01 -0.34712175809E+01  0.62574217351E+01  0.00000000000E+00 0.  1.
</event>
<event>
 7    1  0.7749294E-012  0.5930187E+02  0.7816164E-02  0.1266605E+00
        -11   -1    0    0    0    0  0.00000000000E+00  0.00000000000E+00  0.45593999997E+02  0.45594000000E+02  0.51100000000E-03 0. -1.
         11   -1    0    0    0    0 -0.00000000000E+00 -0.00000000000E+00 -0.45593999997E+02  0.45594000000E+02  0.51100000000E-03 0.  1.
    9900012    2    1    2    0    0 -0.27343244529E+02  0.15889730313E+02  0.40729456831E+01  0.59301867633E+02  0.49999860674E+02 0.  0.
         12    1    1    2    0    0  0.27343244529E+02 -0.15889730313E+02 -0.40729456831E+01  0.31886132367E+02  0.00000000000E+00 0. -1.
         11    1    3    3    0    0  0.39754476947E+01  0.22705244974E+02 -0.76433794957E+01  0.24284842682E+02  0.51100000000E-03 0. -1.
        -11    1    3    3    0    0 -0.18718606619E+02 -0.11318307108E+00  0.62639013668E+01  0.19739187034E+02  0.51100000000E-03 0.  1.
         12    1    3    3    0    0 -0.12600085605E+02 -0.67023315902E+01  0.54524238121E+01  0.15277837917E+02  0.00000000000E+00 0. -1.
</event>
<event>
 7    1  0.7749294E-012  0.5930194E+02  0.7816164E-02  0.1266605E+00
        -11   -1    0    0    0    0  0.00000000000E+00  0.00000000000E+00  0.45593999997E+02  0.45594000000E+02  0.51100000000E-03 0.  1.
         11   -1    0    0    0    0 -0.00000000000E+00 -0.00000000000E+00 -0.45593999997E+02  0.45594000000E+02  0.51100000000E-03 0. -1.
    9900012    2    1    2    0    0 -0.20234240154E+00 -0.31515877339E+02  0.48403697239E+01  0.59301942765E+02  0.49999997698E+02 0.  0.
         12    1    1    2    0    0  0.20234240154E+00  0.31515877339E+02 -0.48403697239E+01  0.31886057235E+02  0.00000000000E+00 0. -1.
         11    1    3    3    0    0 -0.13017669898E+02  0.64511825233E+01  0.10364557971E+02  0.17846611660E+02  0.51100000000E-03 0. -1.
        -11    1    3    3    0    0  0.60804371037E+01 -0.29287133984E+02 -0.22724826650E+01  0.29997868426E+02  0.51100000000E-03 0.  1.
         12    1    3    3    0    0  0.67348903932E+01 -0.86799258786E+01 -0.32517055821E+01  0.11457462680E+02  0.00000000000E+00 0. -1.
</event>
<event>
 7    1  0.7749294E-012  0.5930196E+02  0.7816164E-02  0.1266605E+00
        -11   -1    0    0    0    0  0.00000000000E+00  0.00000000000E+00  0.45593999997E+02  0.45594000000E+02  0.51100000000E-03 0.  1.
         11   -1    0    0    0    0 -0.00000000000E+00 -0.00000000000E+00 -0.45593999997E+02  0.45594000000E+02  0.51100000000E-03 0. -1.
    9900012    2    1    2    0    0  0.10282796324E+02 -0.22881254417E+01  0.30095654825E+02  0.59301955127E+02  0.50000020242E+02 0.  0.
         12    1    1    2    0    0 -0.10282796324E+02  0.22881254417E+01 -0.30095654825E+02  0.31886044873E+02  0.00000000000E+00 0. -1.
         11    1    3    3    0    0  0.16847544252E+02 -0.30614573547E+01  0.38856572005E+02  0.42462282755E+02  0.51100000000E-03 0. -1.
        -11    1    3    3    0    0 -0.62169890803E+01 -0.42800916716E-01  0.16169440739E+01  0.64239624486E+01  0.51100000000E-03 0.  1.
         12    1    3    3    0    0 -0.34775884786E+00  0.81613282971E+00 -0.10377861254E+02  0.10415709924E+02  0.00000000000E+00 0. -1.
</event>
<event>
 7    1  0.7749294E-012  0.5930192E+02  0.7816164E-02  0.1266605E+00
        -11   -1    0    0    0    0  0.00000000000E+00  0.00000000000E+00  0.45593999997E+02  0.45594000000E+02  0.51100000000E-03 0.  1.
         11   -1    0    0    0    0 -0.00000000000E+00 -0.00000000000E+00 -0.45593999997E+02  0.45594000000E+02  0.51100000000E-03 0. -1.
    9900012    2    1    2    0    0 -0.18765744831E+02  0.37634436061E+01  0.25503051356E+02  0.59301916589E+02  0.49999949958E+02 0.  0.
         12    1    1    2    0    0  0.18765744831E+02 -0.37634436061E+01 -0.25503051356E+02  0.31886083411E+02  0.00000000000E+00 0. -1.
         11    1    3    3    0    0 -0.18685740892E+02  0.99316395475E+01  0.80884974415E+01  0.22654318968E+02  0.51100000000E-03 0. -1.
        -11    1    3    3    0    0  0.40124302839E+01 -0.10220077224E+02 -0.60160123242E+01  0.12519663725E+02  0.51100000000E-03 0.  1.
        -12    1    3    3    0    0 -0.40924342229E+01  0.40518812828E+01  0.23430566238E+02  0.24127933895E+02  0.00000000000E+00 0.  1.
</event>
<event>
 7    1  0.7749294E-012  0.5930193E+02  0.7816164E-02  0.1266605E+00
        -11   -1    0    0    0    0  0.00000000000E+00  0.00000000000E+00  0.45593999997E+02  0.45594000000E+02  0.51100000000E-03 0.  1.
         11   -1    0    0    0    0 -0.00000000000E+00 -0.00000000000E+00 -0.45593999997E+02  0.45594000000E+02  0.51100000000E-03 0. -1.
    9900012    2    1    2    0    0 -0.32990354206E+01 -0.17638082691E+02  0.26357843919E+02  0.59301928875E+02  0.49999972365E+02 0.  0.
         12    1    1    2    0    0  0.32990354206E+01  0.17638082691E+02 -0.26357843919E+02  0.31886071125E+02  0.00000000000E+00 0. -1.
         11    1    3    3    0    0  0.29445896222E+01 -0.16506198312E+02 -0.15180464255E+01  0.16835369196E+02  0.51100000000E-03 0. -1.
        -11    1    3    3    0    0 -0.14683464197E+02  0.10202805327E+02  0.14740260812E+02  0.23172756557E+02  0.51100000000E-03 0.  1.
        -12    1    3    3    0    0  0.84398391543E+01 -0.11334689706E+02  0.13135629532E+02  0.19293803122E+02  0.00000000000E+00 0.  1.
</event>
<event>
 7    1  0.7749294E-012  0.5930209E+02  0.7816164E-02  0.1266604E+00
        -11   -1    0    0    0    0  0.00000000000E+00  0.00000000000E+00  0.45593999997E+02  0.45594000000E+02  0.51100000000E-03 0.  1.
         11   -1    0    0    0    0 -0.00000000000E+00 -0.00000000000E+00 -0.45593999997E+02  0.45594000000E+02  0.51100000000E-03 0. -1.
    9900012    2    1    2    0    0 -0.36716302632E+01  0.12507797065E+02  0.29099577989E+02  0.59302089391E+02  0.50000265107E+02 0.  0.
         12    1    1    2    0    0  0.36716302632E+01 -0.12507797065E+02 -0.29099577989E+02  0.31885910609E+02  0.00000000000E+00 0. -1.
         11    1    3    3    0    0  0.83998974326E+01 -0.39436924329E+01 -0.59408165195E+00  0.92985977520E+01  0.51100000000E-03 0. -1.
        -11    1    3    3    0    0 -0.88738931629E+01  0.20510076836E+02  0.35676859729E+02  0.42098070646E+02  0.51100000000E-03 0.  1.
        -12    1    3    3    0    0 -0.31976345329E+01 -0.40585873382E+01 -0.59832000883E+01  0.79054209935E+01  0.00000000000E+00 0.  1.
</event>
<event>
 7    1  0.7749294E-012  0.5930194E+02  0.7816164E-02  0.1266605E+00
        -11   -1    0    0    0    0  0.00000000000E+00  0.00000000000E+00  0.45593999997E+02  0.45594000000E+02  0.51100000000E-03 0.  1.
         11   -1    0    0    0    0 -0.00000000000E+00 -0.00000000000E+00 -0.45593999997E+02  0.45594000000E+02  0.51100000000E-03 0. -1.
    9900012    2    1    2    0    0 -0.19330210882E+02 -0.14821153821E+02  0.20576609984E+02  0.59301944556E+02  0.50000000964E+02 0.  0.
         12    1    1    2    0    0  0.19330210882E+02  0.14821153821E+02 -0.20576609984E+02  0.31886055444E+02  0.00000000000E+00 0. -1.
         11    1    3    3    0    0  0.10269291597E+02 -0.37147442258E+00  0.16412113551E+02  0.19363724193E+02  0.51100000000E-03 0. -1.
        -11    1    3    3    0    0 -0.20798294033E+02 -0.16450570279E+02  0.10905833744E+02  0.28672765948E+02  0.51100000000E-03 0.  1.
         12    1    3    3    0    0 -0.88012084463E+01  0.20008908801E+01 -0.67413373114E+01  0.11265454415E+02  0.00000000000E+00 0. -1.
</event>
<event>
 7    1  0.7749294E-012  0.5930194E+02  0.7816164E-02  0.1266605E+00
        -11   -1    0    0    0    0  0.00000000000E+00  0.00000000000E+00  0.45593999997E+02  0.45594000000E+02  0.51100000000E-03 0. -1.
         11   -1    0    0    0    0 -0.00000000000E+00 -0.00000000000E+00 -0.45593999997E+02  0.45594000000E+02  0.51100000000E-03 0.  1.
    9900012    2    1    2    0    0 -0.11898760679E+02 -0.74909719434E+01 -0.28618621139E+02  0.59301942823E+02  0.49999997804E+02 0.  0.
         12    1    1    2    0    0  0.11898760679E+02  0.74909719434E+01  0.28618621139E+02  0.31886057177E+02  0.00000000000E+00 0. -1.
         11    1    3    3    0    0 -0.26117922059E+01 -0.97648690299E+01  0.77897103205E+01  0.12761415001E+02  0.51100000000E-03 0. -1.
        -11    1    3    3    0    0 -0.14971293411E+02 -0.66925878453E+00 -0.37186161635E+02  0.40092370236E+02  0.51100000000E-03 0.  1.
        -12    1    3    3    0    0  0.56843249374E+01  0.29431558711E+01  0.77783017534E+00  0.64481575863E+01  0.00000000000E+00 0.  1.
</event>
<event>
 7    1  0.7749294E-012  0.5930193E+02  0.7816164E-02  0.1266605E+00
        -11   -1    0    0    0    0  0.00000000000E+00  0.00000000000E+00  0.45593999997E+02  0.45594000000E+02  0.51100000000E-03 0.  1.
         11   -1    0    0    0    0 -0.00000000000E+00 -0.00000000000E+00 -0.45593999997E+02  0.45594000000E+02  0.51100000000E-03 0. -1.
    9900012    2    1    2    0    0  0.25022506761E+02  0.11760440134E+02  0.15883565308E+02  0.59301930258E+02  0.49999974887E+02 0.  0.
         12    1    1    2    0    0 -0.25022506761E+02 -0.11760440134E+02 -0.15883565308E+02  0.31886069742E+02  0.00000000000E+00 0. -1.
         11    1    3    3    0    0  0.22578529996E+02  0.36529540084E+01  0.23430643825E+02  0.32743383455E+02  0.51100000000E-03 0. -1.
        -11    1    3    3    0    0 -0.95922889754E+01  0.25761757187E+01  0.21248125385E+01  0.10156944310E+02  0.51100000000E-03 0.  1.
         12    1    3    3    0    0  0.12036265740E+02  0.55313104064E+01 -0.96718910547E+01  0.16401602493E+02  0.00000000000E+00 0. -1.
</event>
<event>
 7    1  0.7749294E-012  0.5930197E+02  0.7816164E-02  0.1266605E+00
        -11   -1    0    0    0    0  0.00000000000E+00  0.00000000000E+00  0.45593999997E+02  0.45594000000E+02  0.51100000000E-03 0. -1.
         11   -1    0    0    0    0 -0.00000000000E+00 -0.00000000000E+00 -0.45593999997E+02  0.45594000000E+02  0.51100000000E-03 0.  1.
    9900012    2    1    2    0    0  0.78088071015E+01  0.19216752792E+02 -0.24216895353E+02  0.59301967372E+02  0.50000042574E+02 0.  0.
         12    1    1    2    0    0 -0.78088071015E+01 -0.19216752792E+02  0.24216895353E+02  0.31886032628E+02  0.00000000000E+00 0. -1.
         11    1    3    3    0    0 -0.11321771339E+02  0.92977723926E+01 -0.15647459773E+02  0.21435346401E+02  0.51100000000E-03 0. -1.
        -11    1    3    3    0    0  0.10272708884E+02 -0.93718013987E+01  0.21760022272E+01  0.14074593963E+02  0.51100000000E-03 0.  1.
        -12    1    3    3    0    0  0.88578695564E+01  0.19290781798E+02 -0.10745437807E+02  0.23792027008E+02  0.00000000000E+00 0.  1.
</event>
<event>
 7    1  0.7749294E-012  0.5930198E+02  0.7816164E-02  0.1266605E+00
        -11   -1    0    0    0    0  0.00000000000E+00  0.00000000000E+00  0.45593999997E+02  0.45594000000E+02  0.51100000000E-03 0.  1.
         11   -1    0    0    0    0 -0.00000000000E+00 -0.00000000000E+00 -0.45593999997E+02  0.45594000000E+02  0.51100000000E-03 0. -1.
    9900012    2    1    2    0    0 -0.12013577405E+02  0.22084941021E+02  0.19612432260E+02  0.59301981731E+02  0.50000068761E+02 0.  0.
         12    1    1    2    0    0  0.12013577405E+02 -0.22084941021E+02 -0.19612432260E+02  0.31886018269E+02  0.00000000000E+00 0. -1.
         11    1    3    3    0    0 -0.98308705190E+01 -0.70860012499E+00  0.93923797048E-01  0.98568225732E+01  0.51100000000E-03 0. -1.
        -11    1    3    3    0    0  0.10476878460E+02  0.12422713991E+02 -0.74677073114E+01  0.17884503290E+02  0.51100000000E-03 0.  1.
        -12    1    3    3    0    0 -0.12659585346E+02  0.10370827154E+02  0.26986215774E+02  0.31560655868E+02  0.00000000000E+00 0.  1.
</event>
<event>
 7    1  0.7749294E-012  0.5930196E+02  0.7816164E-02  0.1266605E+00
        -11   -1    0    0    0    0  0.00000000000E+00  0.00000000000E+00  0.45593999997E+02  0.45594000000E+02  0.51100000000E-03 0. -1.
         11   -1    0    0    0    0 -0.00000000000E+00 -0.00000000000E+00 -0.45593999997E+02  0.45594000000E+02  0.51100000000E-03 0.  1.
    9900012    2    1    2    0    0 -0.69050373693E+01  0.27692364981E+02  0.14218754895E+02  0.59301959009E+02  0.50000027322E+02 0.  0.
         12    1    1    2    0    0  0.69050373693E+01 -0.27692364981E+02 -0.14218754895E+02  0.31886040991E+02  0.00000000000E+00 0. -1.
         11    1    3    3    0    0  0.10172820450E+02 -0.84718568217E+01  0.18424708538E+01  0.13366126328E+02  0.51100000000E-03 0. -1.
        -11    1    3    3    0    0 -0.15321106636E+02  0.12102595854E+02  0.18442837950E+01  0.19611489436E+02  0.51100000000E-03 0.  1.
        -12    1    3    3    0    0 -0.17567511837E+01  0.24061625949E+02  0.10532000246E+02  0.26324343244E+02  0.00000000000E+00 0.  1.
</event>
<event>
 7    1  0.7749294E-012  0.5930193E+02  0.7816164E-02  0.1266605E+00
        -11   -1    0    0    0    0  0.00000000000E+00  0.00000000000E+00  0.45593999997E+02  0.45594000000E+02  0.51100000000E-03 0.  1.
         11   -1    0    0    0    0 -0.00000000000E+00 -0.00000000000E+00 -0.45593999997E+02  0.45594000000E+02  0.51100000000E-03 0. -1.
    9900012    2    1    2    0    0 -0.24834683769E+02 -0.15459347802E+02  0.12687328550E+02  0.59301933167E+02  0.49999980192E+02 0.  0.
         12    1    1    2    0    0  0.24834683769E+02  0.15459347802E+02 -0.12687328550E+02  0.31886066833E+02  0.00000000000E+00 0. -1.
         11    1    3    3    0    0  0.12666224160E+01 -0.13120936876E+02 -0.72810513977E+01  0.15059117722E+02  0.51100000000E-03 0. -1.
        -11    1    3    3    0    0 -0.14600627250E+02 -0.10875790859E+02  0.23268293352E+02  0.29544451571E+02  0.51100000000E-03 0.  1.
        -12    1    3    3    0    0 -0.11500678935E+02  0.85373799324E+01 -0.32999134040E+01  0.14698363874E+02  0.00000000000E+00 0.  1.
</event>
<event>
 7    1  0.7749294E-012  0.5930194E+02  0.7816164E-02  0.1266605E+00
        -11   -1    0    0    0    0  0.00000000000E+00  0.00000000000E+00  0.45593999997E+02  0.45594000000E+02  0.51100000000E-03 0.  1.
         11   -1    0    0    0    0 -0.00000000000E+00 -0.00000000000E+00 -0.45593999997E+02  0.45594000000E+02  0.51100000000E-03 0. -1.
    9900012    2    1    2    0    0  0.17730598404E+02  0.56745169304E+01  0.25887189765E+02  0.59301939470E+02  0.49999991689E+02 0.  0.
         12    1    1    2    0    0 -0.17730598404E+02 -0.56745169304E+01 -0.25887189765E+02  0.31886060530E+02  0.00000000000E+00 0. -1.
         11    1    3    3    0    0  0.11911219668E+02  0.78237632180E+01 -0.26210039751E+01  0.14489930537E+02  0.51100000000E-03 0. -1.
        -11    1    3    3    0    0 -0.36159190626E+01 -0.16778169333E+02  0.13839470722E+02  0.22047965597E+02  0.51100000000E-03 0.  1.
        -12    1    3    3    0    0  0.94352977990E+01  0.14628923046E+02  0.14668723018E+02  0.22764043336E+02  0.00000000000E+00 0.  1.
</event>
<event>
 7    1  0.7749294E-012  0.5930194E+02  0.7816164E-02  0.1266605E+00
        -11   -1    0    0    0    0  0.00000000000E+00  0.00000000000E+00  0.45593999997E+02  0.45594000000E+02  0.51100000000E-03 0.  1.
         11   -1    0    0    0    0 -0.00000000000E+00 -0.00000000000E+00 -0.45593999997E+02  0.45594000000E+02  0.51100000000E-03 0. -1.
    9900012    2    1    2    0    0 -0.25424015679E+02  0.10758724859E+02  0.15955872167E+02  0.59301943636E+02  0.49999999285E+02 0.  0.
         12    1    1    2    0    0  0.25424015679E+02 -0.10758724859E+02 -0.15955872167E+02  0.31886056364E+02  0.00000000000E+00 0. -1.
         11    1    3    3    0    0 -0.29577609843E+00  0.50457173048E+01 -0.15495771322E+02  0.16299253840E+02  0.51100000000E-03 0. -1.
        -11    1    3    3    0    0 -0.18035044282E+02 -0.16809903084E+01  0.14530748313E+02  0.23221352189E+02  0.51100000000E-03 0.  1.
         12    1    3    3    0    0 -0.70931952983E+01  0.73939978623E+01  0.16920895176E+02  0.19781337606E+02  0.00000000000E+00 0. -1.
</event>
<event>
 7    1  0.7749294E-012  0.5930195E+02  0.7816164E-02  0.1266605E+00
        -11   -1    0    0    0    0  0.00000000000E+00  0.00000000000E+00  0.45593999997E+02  0.45594000000E+02  0.51100000000E-03 0.  1.
         11   -1    0    0    0    0 -0.00000000000E+00 -0.00000000000E+00 -0.45593999997E+02  0.45594000000E+02  0.51100000000E-03 0. -1.
    9900012    2    1    2    0    0  0.30706420417E+02 -0.85484222445E+01  0.87183755882E+00  0.59301954801E+02  0.50000019649E+02 0.  0.
         12    1    1    2    0    0 -0.30706420417E+02  0.85484222445E+01 -0.87183755882E+00  0.31886045199E+02  0.00000000000E+00 0. -1.
         11    1    3    3    0    0 -0.10929516593E+02  0.33534429310E+01  0.91376640828E+01  0.14635464380E+02  0.51100000000E-03 0. -1.
        -11    1    3    3    0    0  0.19283814974E+02 -0.55205623253E+01 -0.19298913330E+00  0.20059396138E+02  0.51100000000E-03 0.  1.
         12    1    3    3    0    0  0.22352122036E+02 -0.63813028502E+01 -0.80728373906E+01  0.24607094284E+02  0.00000000000E+00 0. -1.
</event>
<event>
 7    1  0.7749294E-012  0.5930195E+02  0.7816164E-02  0.1266605E+00
        -11   -1    0    0    0    0  0.00000000000E+00  0.00000000000E+00  0.45593999997E+02  0.45594000000E+02  0.51100000000E-03 0.  1.
         11   -1    0    0    0    0 -0.00000000000E+00 -0.00000000000E+00 -0.45593999997E+02  0.45594000000E+02  0.51100000000E-03 0. -1.
    9900012    2    1    2    0    0 -0.84867549383E+01 -0.29234967017E+02  0.94874534207E+01  0.59301951667E+02  0.50000013933E+02 0.  0.
         12    1    1    2    0    0  0.84867549383E+01  0.29234967017E+02 -0.94874534207E+01  0.31886048333E+02  0.00000000000E+00 0. -1.
         11    1    3    3    0    0  0.11690361123E+02 -0.22866680828E+01  0.13356687293E+02  0.17896773168E+02  0.51100000000E-03 0. -1.
        -11    1    3    3    0    0 -0.11350548805E+02 -0.29847915325E+02 -0.29604128848E+01  0.32070189462E+02  0.51100000000E-03 0.  1.
        -12    1    3    3    0    0 -0.88265672557E+01  0.28996163913E+01 -0.90882098785E+00  0.93349890372E+01  0.00000000000E+00 0.  1.
</event>
<event>
 7    1  0.7749294E-012  0.5930195E+02  0.7816164E-02  0.1266605E+00
        -11   -1    0    0    0    0  0.00000000000E+00  0.00000000000E+00  0.45593999997E+02  0.45594000000E+02  0.51100000000E-03 0. -1.
         11   -1    0    0    0    0 -0.00000000000E+00 -0.00000000000E+00 -0.45593999997E+02  0.45594000000E+02  0.51100000000E-03 0.  1.
    9900012    2    1    2    0    0 -0.20953697527E+02  0.40663117559E+01 -0.23688140648E+02  0.59301947583E+02  0.50000006485E+02 0.  0.
         12    1    1    2    0    0  0.20953697527E+02 -0.40663117559E+01  0.23688140648E+02  0.31886052417E+02  0.00000000000E+00 0. -1.
         11    1    3    3    0    0  0.46105398766E+01  0.39510542525E+01 -0.31677085856E+01  0.68485243377E+01  0.51100000000E-03 0. -1.
        -11    1    3    3    0    0 -0.21810522963E+02  0.19037220823E+02 -0.11376509686E+02  0.31105299572E+02  0.51100000000E-03 0.  1.
        -12    1    3    3    0    0 -0.37537144401E+01 -0.18921963319E+02 -0.91439223766E+01  0.21348123674E+02  0.00000000000E+00 0.  1.
</event>
<event>
 7    1  0.7749294E-012  0.5930217E+02  0.7816164E-02  0.1266604E+00
        -11   -1    0    0    0    0  0.00000000000E+00  0.00000000000E+00  0.45593999997E+02  0.45594000000E+02  0.51100000000E-03 0. -1.
         11   -1    0    0    0    0 -0.00000000000E+00 -0.00000000000E+00 -0.45593999997E+02  0.45594000000E+02  0.51100000000E-03 0.  1.
    9900012    2    1    2    0    0  0.63245193369E+01 -0.13581314864E+02 -0.28147012925E+02  0.59302172508E+02  0.50000416692E+02 0.  0.
         12    1    1    2    0    0 -0.63245193369E+01  0.13581314864E+02  0.28147012925E+02  0.31885827492E+02  0.00000000000E+00 0. -1.
         11    1    3    3    0    0  0.17454225655E+01  0.11170233397E+02 -0.52998973284E+01  0.12486373614E+02  0.51100000000E-03 0. -1.
        -11    1    3    3    0    0  0.11179410179E+02 -0.30201162734E+02 -0.16688926402E+02  0.36271334510E+02  0.51100000000E-03 0.  1.
        -12    1    3    3    0    0 -0.66003134073E+01  0.54496144737E+01 -0.61581891942E+01  0.10544464384E+02  0.00000000000E+00 0.  1.
</event>
<event>
 7    1  0.1007856E-011  0.5930194E+02  0.7816164E-02  0.1266605E+00
        -11   -1    0    0    0    0  0.00000000000E+00  0.00000000000E+00  0.45593999997E+02  0.45594000000E+02  0.51100000000E-03 0.  1.
         11   -1    0    0    0    0 -0.00000000000E+00 -0.00000000000E+00 -0.45593999997E+02  0.45594000000E+02  0.51100000000E-03 0. -1.
    9900012    2    1    2    0    0 -0.17441072138E+02  0.22997859672E+02  0.13550941771E+02  0.59301943962E+02  0.49999999879E+02 0.  0.
         12    1    1    2    0    0  0.17441072138E+02 -0.22997859672E+02 -0.13550941771E+02  0.31886056038E+02  0.00000000000E+00 0. -1.
         11    1    3    3    0    0  0.90019949517E+01  0.77801176558E+01 -0.43124471904E+01  0.12655565767E+02  0.51100000000E-03 0. -1.
        -11    1    3    3    0    0 -0.21069644213E+02 -0.40759997382E+01  0.29204001370E+01  0.21658079747E+02  0.51100000000E-03 0.  1.
        -12    1    3    3    0    0 -0.53734228768E+01  0.19293741754E+02  0.14942988825E+02  0.24988298448E+02  0.00000000000E+00 0.  1.
</event>
<event>
 7    1  0.7749294E-012  0.5930196E+02  0.7816164E-02  0.1266605E+00
        -11   -1    0    0    0    0  0.00000000000E+00  0.00000000000E+00  0.45593999997E+02  0.45594000000E+02  0.51100000000E-03 0. -1.
         11   -1    0    0    0    0 -0.00000000000E+00 -0.00000000000E+00 -0.45593999997E+02  0.45594000000E+02  0.51100000000E-03 0.  1.
    9900012    2    1    2    0    0 -0.86561359665E+01 -0.29866322098E+02  0.70564549097E+01  0.59301961653E+02  0.50000032145E+02 0.  0.
         12    1    1    2    0    0  0.86561359665E+01  0.29866322098E+02 -0.70564549097E+01  0.31886038347E+02  0.00000000000E+00 0. -1.
         11    1    3    3    0    0 -0.57027216650E+01  0.42851647189E+01  0.18778910578E+02  0.20088084872E+02  0.51100000000E-03 0. -1.
        -11    1    3    3    0    0 -0.74290756381E+01 -0.99021358005E+01 -0.65994603602E+01  0.14028411726E+02  0.51100000000E-03 0.  1.
         12    1    3    3    0    0  0.44756613366E+01 -0.24249351017E+02 -0.51229953079E+01  0.25185465056E+02  0.00000000000E+00 0. -1.
</event>
<event>
 7    1  0.7749294E-012  0.5930193E+02  0.7816164E-02  0.1266605E+00
        -11   -1    0    0    0    0  0.00000000000E+00  0.00000000000E+00  0.45593999997E+02  0.45594000000E+02  0.51100000000E-03 0. -1.
         11   -1    0    0    0    0 -0.00000000000E+00 -0.00000000000E+00 -0.45593999997E+02  0.45594000000E+02  0.51100000000E-03 0.  1.
    9900012    2    1    2    0    0 -0.42066511597E+01 -0.46704496578E+01 -0.31260394670E+02  0.59301932683E+02  0.49999979311E+02 0.  0.
         12    1    1    2    0    0  0.42066511597E+01  0.46704496578E+01  0.31260394670E+02  0.31886067317E+02  0.00000000000E+00 0. -1.
         11    1    3    3    0    0 -0.10608150964E+02 -0.38196996251E+01 -0.82914590009E+01  0.13995401556E+02  0.51100000000E-03 0. -1.
        -11    1    3    3    0    0  0.20516248660E+02  0.80086495733E+01 -0.16101922155E+02  0.27282353718E+02  0.51100000000E-03 0.  1.
        -12    1    3    3    0    0 -0.14114748856E+02 -0.88593996060E+01 -0.68670135147E+01  0.18024177409E+02  0.00000000000E+00 0.  1.
</event>
<event>
 7    1  0.7749294E-012  0.5930194E+02  0.7816164E-02  0.1266605E+00
        -11   -1    0    0    0    0  0.00000000000E+00  0.00000000000E+00  0.45593999997E+02  0.45594000000E+02  0.51100000000E-03 0. -1.
         11   -1    0    0    0    0 -0.00000000000E+00 -0.00000000000E+00 -0.45593999997E+02  0.45594000000E+02  0.51100000000E-03 0.  1.
    9900012    2    1    2    0    0 -0.16120563787E+02  0.83102494891E+01 -0.26225715557E+02  0.59301937530E+02  0.49999988150E+02 0.  0.
         12    1    1    2    0    0  0.16120563787E+02 -0.83102494891E+01  0.26225715557E+02  0.31886062470E+02  0.00000000000E+00 0. -1.
         11    1    3    3    0    0  0.11932432866E+02 -0.62113340422E+01  0.47974322539E+01  0.14282121032E+02  0.51100000000E-03 0. -1.
        -11    1    3    3    0    0 -0.13902413400E+02  0.87957142048E+01 -0.21330082898E+02  0.26937225607E+02  0.51100000000E-03 0.  1.
         12    1    3    3    0    0 -0.14150583252E+02  0.57258693265E+01 -0.96930649130E+01  0.18082590891E+02  0.00000000000E+00 0. -1.
</event>
<event>
 7    1  0.7749294E-012  0.5930235E+02  0.7816164E-02  0.1266603E+00
        -11   -1    0    0    0    0  0.00000000000E+00  0.00000000000E+00  0.45593999997E+02  0.45594000000E+02  0.51100000000E-03 0. -1.
         11   -1    0    0    0    0 -0.00000000000E+00 -0.00000000000E+00 -0.45593999997E+02  0.45594000000E+02  0.51100000000E-03 0.  1.
    9900012    2    1    2    0    0 -0.19382854107E+02 -0.23798901739E+02  0.86378303269E+01  0.59302346956E+02  0.50000734838E+02 0.  0.
         12    1    1    2    0    0  0.19382854107E+02  0.23798901739E+02 -0.86378303269E+01  0.31885653044E+02  0.00000000000E+00 0. -1.
         11    1    3    3    0    0 -0.11167094828E+02 -0.82449411910E+01  0.91082719425E+01  0.16602520296E+02  0.51100000000E-03 0. -1.
        -11    1    3    3    0    0  0.28620091653E+01 -0.21309173387E+02 -0.12908206717E+02  0.25077754442E+02  0.51100000000E-03 0.  1.
        -12    1    3    3    0    0 -0.11077768444E+02  0.57552128394E+01  0.12437765102E+02  0.17622072218E+02  0.00000000000E+00 0.  1.
</event>
<event>
 7    1  0.7749294E-012  0.5930195E+02  0.7816164E-02  0.1266605E+00
        -11   -1    0    0    0    0  0.00000000000E+00  0.00000000000E+00  0.45593999997E+02  0.45594000000E+02  0.51100000000E-03 0.  1.
         11   -1    0    0    0    0 -0.00000000000E+00 -0.00000000000E+00 -0.45593999997E+02  0.45594000000E+02  0.51100000000E-03 0. -1.
    9900012    2    1    2    0    0 -0.19996620957E+02 -0.24496647647E+02  0.40950876342E+01  0.59301947589E+02  0.50000006495E+02 0.  0.
         12    1    1    2    0    0  0.19996620957E+02  0.24496647647E+02 -0.40950876342E+01  0.31886052411E+02  0.00000000000E+00 0. -1.
         11    1    3    3    0    0  0.55727797350E+01  0.65578268799E+01  0.11671510669E+02  0.14501211291E+02  0.51100000000E-03 0. -1.
        -11    1    3    3    0    0 -0.10063724821E+02 -0.41114455268E+01 -0.83453474931E+01  0.13705012464E+02  0.51100000000E-03 0.  1.
         12    1    3    3    0    0 -0.15505675871E+02 -0.26943029000E+02  0.76892445825E+00  0.31095723834E+02  0.00000000000E+00 0. -1.
</event>
<event>
 7    1  0.7749294E-012  0.5930178E+02  0.7816164E-02  0.1266605E+00
        -11   -1    0    0    0    0  0.00000000000E+00  0.00000000000E+00  0.45593999997E+02  0.45594000000E+02  0.51100000000E-03 0. -1.
         11   -1    0    0    0    0 -0.00000000000E+00 -0.00000000000E+00 -0.45593999997E+02  0.45594000000E+02  0.51100000000E-03 0.  1.
    9900012    2    1    2    0    0  0.62900556169E+01  0.32617771498E+01 -0.31089018123E+02  0.59301779815E+02  0.49999700514E+02 0.  0.
         12    1    1    2    0    0 -0.62900556169E+01 -0.32617771498E+01  0.31089018123E+02  0.31886220185E+02  0.00000000000E+00 0. -1.
         11    1    3    3    0    0 -0.30558054364E+01  0.43141613608E-01  0.47129256502E+01  0.56170701001E+01  0.51100000000E-03 0. -1.
        -11    1    3    3    0    0  0.13176994764E+02 -0.15766702603E+02 -0.20199323053E+02  0.28813794510E+02  0.51100000000E-03 0.  1.
        -12    1    3    3    0    0 -0.38311337111E+01  0.18985338139E+02 -0.15602620721E+02  0.24870915205E+02  0.00000000000E+00 0.  1.
</event>
<event>
 7    1  0.7749294E-012  0.5930198E+02  0.7816164E-02  0.1266605E+00
        -11   -1    0    0    0    0  0.00000000000E+00  0.00000000000E+00  0.45593999997E+02  0.45594000000E+02  0.51100000000E-03 0. -1.
         11   -1    0    0    0    0 -0.00000000000E+00 -0.00000000000E+00 -0.45593999997E+02  0.45594000000E+02  0.51100000000E-03 0.  1.
    9900012    2    1    2    0    0  0.31453381723E+02 -0.51817130668E+01 -0.74370344369E+00  0.59301976935E+02  0.50000060015E+02 0.  0.
         12    1    1    2    0    0 -0.31453381723E+02  0.51817130668E+01  0.74370344369E+00  0.31886023065E+02  0.00000000000E+00 0. -1.
         11    1    3    3    0    0 -0.10590549267E+01  0.15312726016E+01  0.16594036886E+02  0.16698157190E+02  0.51100000000E-03 0. -1.
        -11    1    3    3    0    0  0.26840443204E+02 -0.12740163324E+01 -0.20835465696E+02  0.34002193165E+02  0.51100000000E-03 0.  1.
        -12    1    3    3    0    0  0.56719934455E+01 -0.54389693361E+01  0.34977253668E+01  0.86016265802E+01  0.00000000000E+00 0.  1.
</event>
<event>
 7    1  0.7749294E-012  0.5930197E+02  0.7816164E-02  0.1266605E+00
        -11   -1    0    0    0    0  0.00000000000E+00  0.00000000000E+00  0.45593999997E+02  0.45594000000E+02  0.51100000000E-03 0.  1.
         11   -1    0    0    0    0 -0.00000000000E+00 -0.00000000000E+00 -0.45593999997E+02  0.45594000000E+02  0.51100000000E-03 0. -1.
    9900012    2    1    2    0    0 -0.38426702557E+01 -0.27387191938E+02 -0.15871177842E+02  0.59301973546E+02  0.50000053834E+02 0.  0.
         12    1    1    2    0    0  0.38426702557E+01  0.27387191938E+02  0.15871177842E+02  0.31886026454E+02  0.00000000000E+00 0. -1.
         11    1    3    3    0    0 -0.15441490082E+02 -0.20081494234E+02 -0.22017205494E+01  0.25427418278E+02  0.51100000000E-03 0. -1.
        -11    1    3    3    0    0  0.19562719905E+02 -0.48611951419E+01 -0.15398711200E+02  0.25366346508E+02  0.51100000000E-03 0.  1.
        -12    1    3    3    0    0 -0.79639000783E+01 -0.24445025619E+01  0.17292539070E+01  0.85082087602E+01  0.00000000000E+00 0.  1.
</event>
<event>
 7    1  0.7749294E-012  0.5930197E+02  0.7816164E-02  0.1266605E+00
        -11   -1    0    0    0    0  0.00000000000E+00  0.00000000000E+00  0.45593999997E+02  0.45594000000E+02  0.51100000000E-03 0.  1.
         11   -1    0    0    0    0 -0.00000000000E+00 -0.00000000000E+00 -0.45593999997E+02  0.45594000000E+02  0.51100000000E-03 0. -1.
    9900012    2    1    2    0    0  0.13487278462E+01 -0.17071489408E+02  0.26897293399E+02  0.59301965288E+02  0.50000038774E+02 0.  0.
         12    1    1    2    0    0 -0.13487278462E+01  0.17071489408E+02 -0.26897293399E+02  0.31886034712E+02  0.00000000000E+00 0. -1.
         11    1    3    3    0    0 -0.13322973670E+02 -0.53431954992E+01  0.19211819502E+02  0.23982188691E+02  0.51100000000E-03 0. -1.
        -11    1    3    3    0    0  0.21570565931E+02 -0.17327016618E+01  0.82552896191E+01  0.23161204126E+02  0.51100000000E-03 0.  1.
         12    1    3    3    0    0 -0.68988644147E+01 -0.99955922474E+01 -0.56981572187E+00  0.12158572472E+02  0.00000000000E+00 0. -1.
</event>
<event>
 7    1  0.7749294E-012  0.5930195E+02  0.7816164E-02  0.1266605E+00
        -11   -1    0    0    0    0  0.00000000000E+00  0.00000000000E+00  0.45593999997E+02  0.45594000000E+02  0.51100000000E-03 0.  1.
         11   -1    0    0    0    0 -0.00000000000E+00 -0.00000000000E+00 -0.45593999997E+02  0.45594000000E+02  0.51100000000E-03 0. -1.
    9900012    2    1    2    0    0  0.28383602271E+02  0.10612848704E+01  0.14490164471E+02  0.59301951800E+02  0.50000014174E+02 0.  0.
         12    1    1    2    0    0 -0.28383602271E+02 -0.10612848704E+01 -0.14490164471E+02  0.31886048200E+02  0.00000000000E+00 0. -1.
         11    1    3    3    0    0  0.14464448305E+02 -0.21457529275E+01  0.16007590364E+02  0.21681039410E+02  0.51100000000E-03 0.  1.
        -11    1    3    3    0    0  0.19919085538E+02  0.40841324063E+01 -0.13350550193E+02  0.24324623263E+02  0.51100000000E-03 0. -1.
         12    1    3    3    0    0 -0.59999315723E+01 -0.87709460837E+00  0.11833124300E+02  0.13296289126E+02  0.00000000000E+00 0. -1.
</event>
<event>
 7    1  0.7749294E-012  0.5930187E+02  0.7816164E-02  0.1266605E+00
        -11   -1    0    0    0    0  0.00000000000E+00  0.00000000000E+00  0.45593999997E+02  0.45594000000E+02  0.51100000000E-03 0.  1.
         11   -1    0    0    0    0 -0.00000000000E+00 -0.00000000000E+00 -0.45593999997E+02  0.45594000000E+02  0.51100000000E-03 0. -1.
    9900012    2    1    2    0    0 -0.25969397696E+02  0.10403678047E+01 -0.18472501346E+02  0.59301869977E+02  0.49999864949E+02 0.  0.
         12    1    1    2    0    0  0.25969397696E+02 -0.10403678047E+01  0.18472501346E+02  0.31886130023E+02  0.00000000000E+00 0. -1.
         11    1    3    3    0    0 -0.12865058125E+02 -0.49177766957E+01 -0.17900096485E+02  0.22585564031E+02  0.51100000000E-03 0. -1.
        -11    1    3    3    0    0 -0.14042632902E+02  0.16214105324E+02 -0.91436678114E+01  0.23317362878E+02  0.51100000000E-03 0.  1.
        -12    1    3    3    0    0  0.93829333115E+00 -0.10255960823E+02  0.85712629498E+01  0.13398943068E+02  0.00000000000E+00 0.  1.
</event>
<event>
 7    1  0.7749294E-012  0.5930193E+02  0.7816164E-02  0.1266605E+00
        -11   -1    0    0    0    0  0.00000000000E+00  0.00000000000E+00  0.45593999997E+02  0.45594000000E+02  0.51100000000E-03 0.  1.
         11   -1    0    0    0    0 -0.00000000000E+00 -0.00000000000E+00 -0.45593999997E+02  0.45594000000E+02  0.51100000000E-03 0. -1.
    9900012    2    1    2    0    0 -0.23195942235E+02  0.19424063908E+02  0.10068530554E+02  0.59301932472E+02  0.49999978926E+02 0.  0.
         12    1    1    2    0    0  0.23195942235E+02 -0.19424063908E+02 -0.10068530554E+02  0.31886067528E+02  0.00000000000E+00 0. -1.
         11    1    3    3    0    0  0.38625810797E+00  0.20645023374E+02 -0.98735784734E+01  0.22887851309E+02  0.51100000000E-03 0. -1.
        -11    1    3    3    0    0 -0.17333616075E+02 -0.82033761627E+01  0.69538740771E+01  0.20398676223E+02  0.51100000000E-03 0.  1.
         12    1    3    3    0    0 -0.62485842674E+01  0.69824166970E+01  0.12988234950E+02  0.16015404940E+02  0.00000000000E+00 0. -1.
</event>
<event>
 7    1  0.7749294E-012  0.5930226E+02  0.7816164E-02  0.1266604E+00
        -11   -1    0    0    0    0  0.00000000000E+00  0.00000000000E+00  0.45593999997E+02  0.45594000000E+02  0.51100000000E-03 0. -1.
         11   -1    0    0    0    0 -0.00000000000E+00 -0.00000000000E+00 -0.45593999997E+02  0.45594000000E+02  0.51100000000E-03 0.  1.
    9900012    2    1    2    0    0 -0.11546979991E+02  0.11926699865E+01 -0.29697560636E+02  0.59302261552E+02  0.50000579085E+02 0.  0.
         12    1    1    2    0    0  0.11546979991E+02 -0.11926699865E+01  0.29697560636E+02  0.31885738448E+02  0.00000000000E+00 0. -1.
         11    1    3    3    0    0  0.90733283829E+00 -0.19729372893E+02 -0.24454107243E+02  0.31433656627E+02  0.51100000000E-03 0. -1.
        -11    1    3    3    0    0  0.20141117229E+01  0.45531852378E+01 -0.32181865009E+01  0.59283105905E+01  0.51100000000E-03 0.  1.
         12    1    3    3    0    0 -0.14468424553E+02  0.16368857641E+02 -0.20252668924E+01  0.21940294335E+02  0.00000000000E+00 0. -1.
</event>
<event>
 7    1  0.7749294E-012  0.5930197E+02  0.7816164E-02  0.1266605E+00
        -11   -1    0    0    0    0  0.00000000000E+00  0.00000000000E+00  0.45593999997E+02  0.45594000000E+02  0.51100000000E-03 0.  1.
         11   -1    0    0    0    0 -0.00000000000E+00 -0.00000000000E+00 -0.45593999997E+02  0.45594000000E+02  0.51100000000E-03 0. -1.
    9900012    2    1    2    0    0 -0.16055123151E+02  0.55048900249E+01  0.26993483054E+02  0.59301969815E+02  0.50000047030E+02 0.  0.
         12    1    1    2    0    0  0.16055123151E+02 -0.55048900249E+01 -0.26993483054E+02  0.31886030185E+02  0.00000000000E+00 0. -1.
         11    1    3    3    0    0 -0.45305381202E+00  0.29621060954E+01  0.16617826894E+02  0.16885837297E+02  0.51100000000E-03 0. -1.
        -11    1    3    3    0    0 -0.58058708728E+01 -0.10736492509E+02 -0.10294189951E+02  0.15967177428E+02  0.51100000000E-03 0.  1.
        -12    1    3    3    0    0 -0.97961984661E+01  0.13279276438E+02  0.20669846111E+02  0.26448955090E+02  0.00000000000E+00 0.  1.
</event>
<event>
 7    1  0.7749294E-012  0.5930191E+02  0.7816164E-02  0.1266605E+00
        -11   -1    0    0    0    0  0.00000000000E+00  0.00000000000E+00  0.45593999997E+02  0.45594000000E+02  0.51100000000E-03 0. -1.
         11   -1    0    0    0    0 -0.00000000000E+00 -0.00000000000E+00 -0.45593999997E+02  0.45594000000E+02  0.51100000000E-03 0.  1.
    9900012    2    1    2    0    0  0.15571433349E+02 -0.27262068419E+02 -0.55707298275E+01  0.59301906764E+02  0.49999932041E+02 0.  0.
         12    1    1    2    0    0 -0.15571433349E+02  0.27262068419E+02  0.55707298275E+01  0.31886093236E+02  0.00000000000E+00 0. -1.
         11    1    3    3    0    0  0.25253069970E+01  0.79205787336E+01 -0.11650419861E+01  0.83946450786E+01  0.51100000000E-03 0. -1.
        -11    1    3    3    0    0 -0.53714741509E+01 -0.31220714819E+02 -0.58505966897E+00  0.31684823866E+02  0.51100000000E-03 0.  1.
        -12    1    3    3    0    0  0.18417600503E+02 -0.39619323339E+01 -0.38206281724E+01  0.19222437820E+02  0.00000000000E+00 0.  1.
</event>
<event>
 7    1  0.7749294E-012  0.5930195E+02  0.7816164E-02  0.1266605E+00
        -11   -1    0    0    0    0  0.00000000000E+00  0.00000000000E+00  0.45593999997E+02  0.45594000000E+02  0.51100000000E-03 0.  1.
         11   -1    0    0    0    0 -0.00000000000E+00 -0.00000000000E+00 -0.45593999997E+02  0.45594000000E+02  0.51100000000E-03 0. -1.
    9900012    2    1    2    0    0  0.11571065548E+02  0.11989652987E+02  0.27186003066E+02  0.59301951337E+02  0.50000013330E+02 0.  0.
         12    1    1    2    0    0 -0.11571065548E+02 -0.11989652987E+02 -0.27186003066E+02  0.31886048663E+02  0.00000000000E+00 0. -1.
         11    1    3    3    0    0 -0.12713470783E+02  0.61458517551E+01  0.30190308820E+02  0.33329545152E+02  0.51100000000E-03 0. -1.
        -11    1    3    3    0    0  0.48843696679E+01  0.18185584909E+01  0.19233302131E+01  0.55554857040E+01  0.51100000000E-03 0.  1.
         12    1    3    3    0    0  0.19400166664E+02  0.40252427409E+01 -0.49276359672E+01  0.20416920481E+02  0.00000000000E+00 0. -1.
</event>
<event>
 7    1  0.7749294E-012  0.5930197E+02  0.7816164E-02  0.1266605E+00
        -11   -1    0    0    0    0  0.00000000000E+00  0.00000000000E+00  0.45593999997E+02  0.45594000000E+02  0.51100000000E-03 0.  1.
         11   -1    0    0    0    0 -0.00000000000E+00 -0.00000000000E+00 -0.45593999997E+02  0.45594000000E+02  0.51100000000E-03 0. -1.
    9900012    2    1    2    0    0  0.19868027629E+02 -0.24651154284E+02  0.37816531022E+01  0.59301971248E+02  0.50000049643E+02 0.  0.
         12    1    1    2    0    0 -0.19868027629E+02  0.24651154284E+02 -0.37816531022E+01  0.31886028752E+02  0.00000000000E+00 0. -1.
         11    1    3    3    0    0  0.38223701966E+01 -0.18611664648E+02 -0.39317555580E+01  0.19402661593E+02  0.51100000000E-03 0. -1.
        -11    1    3    3    0    0  0.26449772980E+02 -0.22659706086E+01  0.10399091024E+02  0.28510808615E+02  0.51100000000E-03 0.  1.
        -12    1    3    3    0    0 -0.10404115548E+02 -0.37735190278E+01 -0.26856823634E+01  0.11388501040E+02  0.00000000000E+00 0.  1.
</event>
<event>
 7    1  0.7749294E-012  0.5930196E+02  0.7816164E-02  0.1266605E+00
        -11   -1    0    0    0    0  0.00000000000E+00  0.00000000000E+00  0.45593999997E+02  0.45594000000E+02  0.51100000000E-03 0.  1.
         11   -1    0    0    0    0 -0.00000000000E+00 -0.00000000000E+00 -0.45593999997E+02  0.45594000000E+02  0.51100000000E-03 0. -1.
    9900012    2    1    2    0    0 -0.18471245203E+02 -0.25305750116E+02  0.59288637462E+01  0.59301963658E+02  0.50000035801E+02 0.  0.
         12    1    1    2    0    0  0.18471245203E+02  0.25305750116E+02 -0.59288637462E+01  0.31886036342E+02  0.00000000000E+00 0. -1.
         11    1    3    3    0    0  0.11553182449E+02 -0.24289197299E+01  0.96620246025E+01  0.15255503775E+02  0.51100000000E-03 0. -1.
        -11    1    3    3    0    0 -0.92438282682E+01 -0.13563319377E+02  0.81878594706E+01  0.18342656202E+02  0.51100000000E-03 0.  1.
         12    1    3    3    0    0 -0.20780599383E+02 -0.93135110089E+01 -0.11921020327E+02  0.25703803681E+02  0.00000000000E+00 0. -1.
</event>
<event>
 7    1  0.7749294E-012  0.5930198E+02  0.7816164E-02  0.1266605E+00
        -11   -1    0    0    0    0  0.00000000000E+00  0.00000000000E+00  0.45593999997E+02  0.45594000000E+02  0.51100000000E-03 0. -1.
         11   -1    0    0    0    0 -0.00000000000E+00 -0.00000000000E+00 -0.45593999997E+02  0.45594000000E+02  0.51100000000E-03 0.  1.
    9900012    2    1    2    0    0 -0.17920052705E+02  0.18999874331E+02 -0.18291929694E+02  0.59301981034E+02  0.50000067491E+02 0.  0.
         12    1    1    2    0    0  0.17920052705E+02 -0.18999874331E+02  0.18291929694E+02  0.31886018966E+02  0.00000000000E+00 0. -1.
         11    1    3    3    0    0  0.30051324278E+01 -0.19461474592E+01  0.33540504846E+01  0.49059113074E+01  0.51100000000E-03 0. -1.
        -11    1    3    3    0    0 -0.27177681367E+02  0.31721576157E+01 -0.22660432525E+02  0.35527231118E+02  0.51100000000E-03 0.  1.
        -12    1    3    3    0    0  0.62524962347E+01  0.17773864175E+02  0.10144523465E+01  0.18868838609E+02  0.00000000000E+00 0.  1.
</event>
<event>
 7    1  0.7749294E-012  0.5930194E+02  0.7816164E-02  0.1266605E+00
        -11   -1    0    0    0    0  0.00000000000E+00  0.00000000000E+00  0.45593999997E+02  0.45594000000E+02  0.51100000000E-03 0. -1.
         11   -1    0    0    0    0 -0.00000000000E+00 -0.00000000000E+00 -0.45593999997E+02  0.45594000000E+02  0.51100000000E-03 0.  1.
    9900012    2    1    2    0    0 -0.21575036637E+02  0.23294532079E+02  0.29331389450E+01  0.59301941373E+02  0.49999995159E+02 0.  0.
         12    1    1    2    0    0  0.21575036637E+02 -0.23294532079E+02 -0.29331389450E+01  0.31886058627E+02  0.00000000000E+00 0. -1.
         11    1    3    3    0    0 -0.18052033937E+01 -0.64310355492E+01  0.15968819725E+02  0.17309540179E+02  0.51100000000E-03 0. -1.
        -11    1    3    3    0    0 -0.48161397965E+01  0.22479512927E+02 -0.10134093765E+02  0.25124162885E+02  0.51100000000E-03 0.  1.
        -12    1    3    3    0    0 -0.14953693447E+02  0.72460547011E+01 -0.29015870147E+01  0.16868238309E+02  0.00000000000E+00 0.  1.
</event>
<event>
 7    1  0.7749294E-012  0.5930187E+02  0.7816164E-02  0.1266605E+00
        -11   -1    0    0    0    0  0.00000000000E+00  0.00000000000E+00  0.45593999997E+02  0.45594000000E+02  0.51100000000E-03 0.  1.
         11   -1    0    0    0    0 -0.00000000000E+00 -0.00000000000E+00 -0.45593999997E+02  0.45594000000E+02  0.51100000000E-03 0. -1.
    9900012    2    1    2    0    0  0.25364522181E+02 -0.11298005072E+02  0.15675511215E+02  0.59301865773E+02  0.49999857282E+02 0.  0.
         12    1    1    2    0    0 -0.25364522181E+02  0.11298005072E+02 -0.15675511215E+02  0.31886134227E+02  0.00000000000E+00 0. -1.
         11    1    3    3    0    0 -0.73796896470E+01  0.36810030043E+01 -0.13814177157E+01  0.83616934630E+01  0.51100000000E-03 0. -1.
        -11    1    3    3    0    0  0.34369316569E+02 -0.19889991171E+02  0.79962200909E+01  0.40506804443E+02  0.51100000000E-03 0.  1.
        -12    1    3    3    0    0 -0.16251047410E+01  0.49109830940E+01  0.90607088402E+01  0.10433367867E+02  0.00000000000E+00 0.  1.
</event>
<event>
 7    1  0.7749294E-012  0.5930195E+02  0.7816164E-02  0.1266605E+00
        -11   -1    0    0    0    0  0.00000000000E+00  0.00000000000E+00  0.45593999997E+02  0.45594000000E+02  0.51100000000E-03 0.  1.
         11   -1    0    0    0    0 -0.00000000000E+00 -0.00000000000E+00 -0.45593999997E+02  0.45594000000E+02  0.51100000000E-03 0. -1.
    9900012    2    1    2    0    0 -0.22074985460E+02  0.89214413480E+01  0.21209027865E+02  0.59301953494E+02  0.50000017264E+02 0.  0.
         12    1    1    2    0    0  0.22074985460E+02 -0.89214413480E+01 -0.21209027865E+02  0.31886046506E+02  0.00000000000E+00 0. -1.
         11    1    3    3    0    0  0.32069984940E+01 -0.48429333335E+01  0.17709242809E+02  0.18637492421E+02  0.51100000000E-03 0. -1.
        -11    1    3    3    0    0 -0.32643248204E+01  0.40465471463E+01 -0.11280815482E+02  0.12421238205E+02  0.51100000000E-03 0.  1.
        -12    1    3    3    0    0 -0.22017659133E+02  0.97178275352E+01  0.14780600538E+02  0.28243222868E+02  0.00000000000E+00 0.  1.
</event>
<event>
 7    1  0.7749294E-012  0.5930197E+02  0.7816164E-02  0.1266605E+00
        -11   -1    0    0    0    0  0.00000000000E+00  0.00000000000E+00  0.45593999997E+02  0.45594000000E+02  0.51100000000E-03 0. -1.
         11   -1    0    0    0    0 -0.00000000000E+00 -0.00000000000E+00 -0.45593999997E+02  0.45594000000E+02  0.51100000000E-03 0.  1.
    9900012    2    1    2    0    0  0.21292226987E+01  0.31512847041E+02 -0.43732717327E+01  0.59301974479E+02  0.50000055535E+02 0.  0.
         12    1    1    2    0    0 -0.21292226987E+01 -0.31512847041E+02  0.43732717327E+01  0.31886025521E+02  0.00000000000E+00 0. -1.
         11    1    3    3    0    0  0.44028623702E+01  0.28289244262E+02  0.19116362106E+02  0.34425308109E+02  0.51100000000E-03 0. -1.
        -11    1    3    3    0    0 -0.31475525399E+01  0.51526207111E+01 -0.16334925187E+02  0.17415118958E+02  0.51100000000E-03 0.  1.
         12    1    3    3    0    0  0.87391286831E+00 -0.19290179325E+01 -0.71547086521E+01  0.74615474121E+01  0.00000000000E+00 0. -1.
</event>
<event>
 7    1  0.7749294E-012  0.5930195E+02  0.7816164E-02  0.1266605E+00
        -11   -1    0    0    0    0  0.00000000000E+00  0.00000000000E+00  0.45593999997E+02  0.45594000000E+02  0.51100000000E-03 0.  1.
         11   -1    0    0    0    0 -0.00000000000E+00 -0.00000000000E+00 -0.45593999997E+02  0.45594000000E+02  0.51100000000E-03 0. -1.
    9900012    2    1    2    0    0 -0.28341304169E+02 -0.14591675829E+02 -0.75734693350E+00  0.59301951329E+02  0.50000013316E+02 0.  0.
         12    1    1    2    0    0  0.28341304169E+02  0.14591675829E+02  0.75734693350E+00  0.31886048671E+02  0.00000000000E+00 0. -1.
         11    1    3    3    0    0 -0.36699825973E+02 -0.12185647027E+02  0.43809309936E+01  0.38917345446E+02  0.51100000000E-03 0. -1.
        -11    1    3    3    0    0  0.11432040946E+02 -0.75455531408E+01 -0.29720347835E+01  0.14016416211E+02  0.51100000000E-03 0.  1.
         12    1    3    3    0    0 -0.30735191418E+01  0.51395243388E+01 -0.21662431436E+01  0.63681896722E+01  0.00000000000E+00 0. -1.
</event>
<event>
 7    1  0.7749294E-012  0.5930195E+02  0.7816164E-02  0.1266605E+00
        -11   -1    0    0    0    0  0.00000000000E+00  0.00000000000E+00  0.45593999997E+02  0.45594000000E+02  0.51100000000E-03 0. -1.
         11   -1    0    0    0    0 -0.00000000000E+00 -0.00000000000E+00 -0.45593999997E+02  0.45594000000E+02  0.51100000000E-03 0.  1.
    9900012    2    1    2    0    0 -0.16769335181E+02 -0.27119627141E+02  0.18852237270E+00  0.59301947887E+02  0.50000007038E+02 0.  0.
         12    1    1    2    0    0  0.16769335181E+02  0.27119627141E+02 -0.18852237270E+00  0.31886052113E+02  0.00000000000E+00 0. -1.
         11    1    3    3    0    0 -0.30835307950E+02 -0.52717679330E+01 -0.46765540557E+01  0.31630332145E+02  0.51100000000E-03 0. -1.
        -11    1    3    3    0    0  0.63270905447E+01 -0.12554826663E+02  0.64624283510E+01  0.15473161531E+02  0.51100000000E-03 0.  1.
         12    1    3    3    0    0  0.77388822247E+01 -0.92930325450E+01 -0.15973519226E+01  0.12198454211E+02  0.00000000000E+00 0. -1.
</event>
<event>
 7    1  0.7749294E-012  0.5930188E+02  0.7816164E-02  0.1266605E+00
        -11   -1    0    0    0    0  0.00000000000E+00  0.00000000000E+00  0.45593999997E+02  0.45594000000E+02  0.51100000000E-03 0.  1.
         11   -1    0    0    0    0 -0.00000000000E+00 -0.00000000000E+00 -0.45593999997E+02  0.45594000000E+02  0.51100000000E-03 0. -1.
    9900012    2    1    2    0    0 -0.11738574080E+02  0.29263959594E+02  0.47487932448E+01  0.59301882491E+02  0.49999887771E+02 0.  0.
         12    1    1    2    0    0  0.11738574080E+02 -0.29263959594E+02 -0.47487932448E+01  0.31886117509E+02  0.00000000000E+00 0. -1.
         11    1    3    3    0    0 -0.10190054284E+02  0.38045973239E+02  0.38640060957E+01  0.39576051210E+02  0.51100000000E-03 0. -1.
        -11    1    3    3    0    0  0.55342171669E+01 -0.10974597147E+02  0.62651572746E+00  0.12306984375E+02  0.51100000000E-03 0.  1.
         12    1    3    3    0    0 -0.70827369628E+01  0.21925835018E+01  0.25827142163E+00  0.74188469066E+01  0.00000000000E+00 0. -1.
</event>
<event>
 7    1  0.7749294E-012  0.5930198E+02  0.7816164E-02  0.1266605E+00
        -11   -1    0    0    0    0  0.00000000000E+00  0.00000000000E+00  0.45593999997E+02  0.45594000000E+02  0.51100000000E-03 0.  1.
         11   -1    0    0    0    0 -0.00000000000E+00 -0.00000000000E+00 -0.45593999997E+02  0.45594000000E+02  0.51100000000E-03 0. -1.
    9900012    2    1    2    0    0 -0.71760397544E+01  0.19584269411E+02  0.24118019677E+02  0.59301983816E+02  0.50000072565E+02 0.  0.
         12    1    1    2    0    0  0.71760397544E+01 -0.19584269411E+02 -0.24118019677E+02  0.31886016184E+02  0.00000000000E+00 0. -1.
         11    1    3    3    0    0  0.75403696895E+01 -0.14050795161E+02  0.33817289119E+01  0.16300862259E+02  0.51100000000E-03 0. -1.
        -11    1    3    3    0    0 -0.13515370945E+02  0.21958346904E+02  0.12450474840E+02  0.28632998001E+02  0.51100000000E-03 0.  1.
         12    1    3    3    0    0 -0.12010384988E+01  0.11676717668E+02  0.82858159252E+01  0.14368123556E+02  0.00000000000E+00 0. -1.
</event>
<event>
 7    1  0.7749294E-012  0.5930194E+02  0.7816164E-02  0.1266605E+00
        -11   -1    0    0    0    0  0.00000000000E+00  0.00000000000E+00  0.45593999997E+02  0.45594000000E+02  0.51100000000E-03 0. -1.
         11   -1    0    0    0    0 -0.00000000000E+00 -0.00000000000E+00 -0.45593999997E+02  0.45594000000E+02  0.51100000000E-03 0.  1.
    9900012    2    1    2    0    0  0.57983714084E+01 -0.29487205732E+02 -0.10658531641E+02  0.59301941767E+02  0.49999995877E+02 0.  0.
         12    1    1    2    0    0 -0.57983714084E+01  0.29487205732E+02  0.10658531641E+02  0.31886058233E+02  0.00000000000E+00 0. -1.
         11    1    3    3    0    0 -0.18625847213E+02 -0.17351587205E+02 -0.90726531399E+01  0.27024300143E+02  0.51100000000E-03 0. -1.
        -11    1    3    3    0    0  0.14792898443E+02 -0.11667699848E+02  0.62525886783E+01  0.19850942787E+02  0.51100000000E-03 0.  1.
        -12    1    3    3    0    0  0.96313201785E+01 -0.46791867877E+00 -0.78384671793E+01  0.12426698837E+02  0.00000000000E+00 0.  1.
</event>
<event>
 7    1  0.7749294E-012  0.5930193E+02  0.7816164E-02  0.1266605E+00
        -11   -1    0    0    0    0  0.00000000000E+00  0.00000000000E+00  0.45593999997E+02  0.45594000000E+02  0.51100000000E-03 0. -1.
         11   -1    0    0    0    0 -0.00000000000E+00 -0.00000000000E+00 -0.45593999997E+02  0.45594000000E+02  0.51100000000E-03 0.  1.
    9900012    2    1    2    0    0  0.21192083280E+02  0.23276755704E+02 -0.50803125274E+01  0.59301932114E+02  0.49999978272E+02 0.  0.
         12    1    1    2    0    0 -0.21192083280E+02 -0.23276755704E+02  0.50803125274E+01  0.31886067886E+02  0.00000000000E+00 0. -1.
         11    1    3    3    0    0  0.17615307652E+02 -0.58564010834E+01  0.11998332315E+02  0.22103313686E+02  0.51100000000E-03 0.  1.
        -11    1    3    3    0    0 -0.59185618185E+01  0.13669440766E+02 -0.79965615483E+01  0.16906447933E+02  0.51100000000E-03 0. -1.
        -12    1    3    3    0    0  0.94953374466E+01  0.15463716021E+02 -0.90820832939E+01  0.20292170494E+02  0.00000000000E+00 0.  1.
</event>
<event>
 7    1  0.7749294E-012  0.5930193E+02  0.7816164E-02  0.1266605E+00
        -11   -1    0    0    0    0  0.00000000000E+00  0.00000000000E+00  0.45593999997E+02  0.45594000000E+02  0.51100000000E-03 0.  1.
         11   -1    0    0    0    0 -0.00000000000E+00 -0.00000000000E+00 -0.45593999997E+02  0.45594000000E+02  0.51100000000E-03 0. -1.
    9900012    2    1    2    0    0 -0.23475029693E+02  0.94555527805E+01  0.19396824907E+02  0.59301932291E+02  0.49999978595E+02 0.  0.
         12    1    1    2    0    0  0.23475029693E+02 -0.94555527805E+01 -0.19396824907E+02  0.31886067709E+02  0.00000000000E+00 0. -1.
         11    1    3    3    0    0 -0.60123354129E+01  0.15659763968E+02  0.15641605809E+02  0.22935479441E+02  0.51100000000E-03 0. -1.
        -11    1    3    3    0    0 -0.25754123726E+02 -0.87509939704E+01  0.48319803241E+01  0.27626125651E+02  0.51100000000E-03 0.  1.
         12    1    3    3    0    0  0.82914294459E+01  0.25467827826E+01 -0.10767612260E+01  0.87403271984E+01  0.00000000000E+00 0. -1.
</event>
<event>
 7    1  0.7749294E-012  0.5930192E+02  0.7816164E-02  0.1266605E+00
        -11   -1    0    0    0    0  0.00000000000E+00  0.00000000000E+00  0.45593999997E+02  0.45594000000E+02  0.51100000000E-03 0. -1.
         11   -1    0    0    0    0 -0.00000000000E+00 -0.00000000000E+00 -0.45593999997E+02  0.45594000000E+02  0.51100000000E-03 0.  1.
    9900012    2    1    2    0    0  0.45061552623E+01 -0.26675722837E+02 -0.16876676093E+02  0.59301924354E+02  0.49999964121E+02 0.  0.
         12    1    1    2    0    0 -0.45061552623E+01  0.26675722837E+02  0.16876676093E+02  0.31886075646E+02  0.00000000000E+00 0. -1.
         11    1    3    3    0    0 -0.47534539848E+01 -0.12135114460E+02  0.11726152094E+02  0.17531656252E+02  0.51100000000E-03 0. -1.
        -11    1    3    3    0    0 -0.73052191733E+00 -0.18586491746E+02 -0.23132010771E+02  0.29683012992E+02  0.51100000000E-03 0.  1.
        -12    1    3    3    0    0  0.99901311644E+01  0.40458833689E+01 -0.54708174159E+01  0.12087255111E+02  0.00000000000E+00 0.  1.
</event>
<event>
 7    1  0.7749294E-012  0.5930195E+02  0.7816164E-02  0.1266605E+00
        -11   -1    0    0    0    0  0.00000000000E+00  0.00000000000E+00  0.45593999997E+02  0.45594000000E+02  0.51100000000E-03 0.  1.
         11   -1    0    0    0    0 -0.00000000000E+00 -0.00000000000E+00 -0.45593999997E+02  0.45594000000E+02  0.51100000000E-03 0. -1.
    9900012    2    1    2    0    0 -0.45905374806E+01 -0.31547717489E+02 -0.62331540639E+00  0.59301952342E+02  0.50000015163E+02 0.  0.
         12    1    1    2    0    0  0.45905374806E+01  0.31547717489E+02  0.62331540639E+00  0.31886047658E+02  0.00000000000E+00 0. -1.
         11    1    3    3    0    0  0.90998030558E+01 -0.35171464261E+02 -0.41120613527E+01  0.36561555803E+02  0.51100000000E-03 0. -1.
        -11    1    3    3    0    0 -0.11995520054E+02  0.97264886517E+01 -0.13375989430E+00  0.15443930032E+02  0.51100000000E-03 0.  1.
         12    1    3    3    0    0 -0.16948204821E+01 -0.61027418798E+01  0.36225058406E+01  0.72964665066E+01  0.00000000000E+00 0. -1.
</event>
<event>
 7    1  0.7749294E-012  0.5930200E+02  0.7816164E-02  0.1266605E+00
        -11   -1    0    0    0    0  0.00000000000E+00  0.00000000000E+00  0.45593999997E+02  0.45594000000E+02  0.51100000000E-03 0.  1.
         11   -1    0    0    0    0 -0.00000000000E+00 -0.00000000000E+00 -0.45593999997E+02  0.45594000000E+02  0.51100000000E-03 0. -1.
    9900012    2    1    2    0    0 -0.14277373433E+02  0.19851893393E+02 -0.20464011915E+02  0.59302002335E+02  0.50000106339E+02 0.  0.
         12    1    1    2    0    0  0.14277373433E+02 -0.19851893393E+02  0.20464011915E+02  0.31885997665E+02  0.00000000000E+00 0. -1.
         11    1    3    3    0    0 -0.28664904139E+02  0.20304820954E+02 -0.12286518940E+02  0.37214527152E+02  0.51100000000E-03 0. -1.
        -11    1    3    3    0    0  0.12409425418E+02  0.42806035860E+01 -0.86578362119E+00  0.13155492685E+02  0.51100000000E-03 0.  1.
         12    1    3    3    0    0  0.19781052882E+01 -0.47335311473E+01 -0.73117093544E+01  0.89319824976E+01  0.00000000000E+00 0. -1.
</event>
<event>
 7    1  0.7749294E-012  0.5930191E+02  0.7816164E-02  0.1266605E+00
        -11   -1    0    0    0    0  0.00000000000E+00  0.00000000000E+00  0.45593999997E+02  0.45594000000E+02  0.51100000000E-03 0.  1.
         11   -1    0    0    0    0 -0.00000000000E+00 -0.00000000000E+00 -0.45593999997E+02  0.45594000000E+02  0.51100000000E-03 0. -1.
    9900012    2    1    2    0    0  0.24022082147E+01  0.11950828804E+02  0.29464046120E+02  0.59301906994E+02  0.49999932460E+02 0.  0.
         12    1    1    2    0    0 -0.24022082147E+01 -0.11950828804E+02 -0.29464046120E+02  0.31886093006E+02  0.00000000000E+00 0. -1.
         11    1    3    3    0    0 -0.63834928550E+01 -0.66768694472E+01 -0.31931953793E+01  0.97737435835E+01  0.51100000000E-03 0. -1.
        -11    1    3    3    0    0  0.16239619340E+02  0.12462743209E+01  0.23298193445E+02  0.28426822792E+02  0.51100000000E-03 0.  1.
        -12    1    3    3    0    0 -0.74539182704E+01  0.17381423930E+02  0.93590480540E+01  0.21101340618E+02  0.00000000000E+00 0.  1.
</event>
<event>
 7    1  0.7749294E-012  0.5930190E+02  0.7816164E-02  0.1266605E+00
        -11   -1    0    0    0    0  0.00000000000E+00  0.00000000000E+00  0.45593999997E+02  0.45594000000E+02  0.51100000000E-03 0.  1.
         11   -1    0    0    0    0 -0.00000000000E+00 -0.00000000000E+00 -0.45593999997E+02  0.45594000000E+02  0.51100000000E-03 0. -1.
    9900012    2    1    2    0    0 -0.45525317709E+00 -0.18944379953E+02  0.25644235326E+02  0.59301896558E+02  0.49999913426E+02 0.  0.
         12    1    1    2    0    0  0.45525317709E+00  0.18944379953E+02 -0.25644235326E+02  0.31886103442E+02  0.00000000000E+00 0. -1.
         11    1    3    3    0    0 -0.58724466830E+01  0.14906520322E+01 -0.21943663016E+01  0.64438278416E+01  0.51100000000E-03 0. -1.
        -11    1    3    3    0    0 -0.44879484438E+01 -0.30413351576E+02  0.20942061272E+02  0.37197897332E+02  0.51100000000E-03 0.  1.
         12    1    3    3    0    0  0.99051419497E+01  0.99783195911E+01  0.68965403562E+01  0.15660171384E+02  0.00000000000E+00 0. -1.
</event>
<event>
 7    1  0.7749294E-012  0.5930195E+02  0.7816164E-02  0.1266605E+00
        -11   -1    0    0    0    0  0.00000000000E+00  0.00000000000E+00  0.45593999997E+02  0.45594000000E+02  0.51100000000E-03 0.  1.
         11   -1    0    0    0    0 -0.00000000000E+00 -0.00000000000E+00 -0.45593999997E+02  0.45594000000E+02  0.51100000000E-03 0. -1.
    9900012    2    1    2    0    0 -0.80045084688E+01  0.24376813749E+02  0.18931952560E+02  0.59301952391E+02  0.50000015253E+02 0.  0.
         12    1    1    2    0    0  0.80045084688E+01 -0.24376813749E+02 -0.18931952560E+02  0.31886047609E+02  0.00000000000E+00 0. -1.
         11    1    3    3    0    0 -0.85870267793E+01  0.38338265419E+01  0.25985483458E+02  0.27634771678E+02  0.51100000000E-03 0. -1.
        -11    1    3    3    0    0 -0.49662896090E+01  0.23621343257E+02 -0.75797340923E+01  0.25299886539E+02  0.51100000000E-03 0.  1.
         12    1    3    3    0    0  0.55488079195E+01 -0.30783560494E+01  0.52620319364E+00  0.63672941738E+01  0.00000000000E+00 0. -1.
</event>
<event>
 7    1  0.7749294E-012  0.5930199E+02  0.7816164E-02  0.1266605E+00
        -11   -1    0    0    0    0  0.00000000000E+00  0.00000000000E+00  0.45593999997E+02  0.45594000000E+02  0.51100000000E-03 0. -1.
         11   -1    0    0    0    0 -0.00000000000E+00 -0.00000000000E+00 -0.45593999997E+02  0.45594000000E+02  0.51100000000E-03 0.  1.
    9900012    2    1    2    0    0 -0.37377311025E+01  0.21785862220E+01 -0.31591147844E+02  0.59301992194E+02  0.50000087843E+02 0.  0.
         12    1    1    2    0    0  0.37377311025E+01 -0.21785862220E+01  0.31591147844E+02  0.31886007806E+02  0.00000000000E+00 0. -1.
         11    1    3    3    0    0  0.34186750550E+01 -0.10172515369E+02  0.54911696920E+01  0.12054889170E+02  0.51100000000E-03 0. -1.
        -11    1    3    3    0    0 -0.24941841125E+01  0.13864524092E+02 -0.39387163916E+02  0.41830547024E+02  0.51100000000E-03 0.  1.
         12    1    3    3    0    0 -0.46622220450E+01 -0.15134225019E+01  0.23048463799E+01  0.54165560000E+01  0.00000000000E+00 0. -1.
</event>
<event>
 7    1  0.7749294E-012  0.5930198E+02  0.7816164E-02  0.1266605E+00
        -11   -1    0    0    0    0  0.00000000000E+00  0.00000000000E+00  0.45593999997E+02  0.45594000000E+02  0.51100000000E-03 0.  1.
         11   -1    0    0    0    0 -0.00000000000E+00 -0.00000000000E+00 -0.45593999997E+02  0.45594000000E+02  0.51100000000E-03 0. -1.
    9900012    2    1    2    0    0  0.66389955340E+01 -0.28075627896E+02 -0.13579430840E+02  0.59301982917E+02  0.50000070925E+02 0.  0.
         12    1    1    2    0    0 -0.66389955340E+01  0.28075627896E+02  0.13579430840E+02  0.31886017083E+02  0.00000000000E+00 0. -1.
         11    1    3    3    0    0 -0.93244649041E+01 -0.15613369219E+02  0.56730722653E+01  0.19050110060E+02  0.51100000000E-03 0. -1.
        -11    1    3    3    0    0  0.14643302053E+02 -0.21070463494E+02 -0.18246054115E+02  0.31485063410E+02  0.51100000000E-03 0.  1.
        -12    1    3    3    0    0  0.13201583847E+01  0.86082048160E+01 -0.10064489899E+01  0.87668094472E+01  0.00000000000E+00 0.  1.
</event>
<event>
 7    1  0.7749294E-012  0.5930195E+02  0.7816164E-02  0.1266605E+00
        -11   -1    0    0    0    0  0.00000000000E+00  0.00000000000E+00  0.45593999997E+02  0.45594000000E+02  0.51100000000E-03 0.  1.
         11   -1    0    0    0    0 -0.00000000000E+00 -0.00000000000E+00 -0.45593999997E+02  0.45594000000E+02  0.51100000000E-03 0. -1.
    9900012    2    1    2    0    0  0.27340604407E+02 -0.73000103203E+01  0.14694261436E+02  0.59301951026E+02  0.50000012763E+02 0.  0.
         12    1    1    2    0    0 -0.27340604407E+02  0.73000103203E+01 -0.14694261436E+02  0.31886048974E+02  0.00000000000E+00 0. -1.
         11    1    3    3    0    0  0.16922418891E+02  0.14437354319E+02  0.96339190246E+01  0.24240830367E+02  0.51100000000E-03 0.  1.
        -11    1    3    3    0    0 -0.20722692829E+01 -0.14366765776E+01 -0.76455117604E+01  0.80506018352E+01  0.51100000000E-03 0. -1.
        -12    1    3    3    0    0  0.12490454799E+02 -0.20300688062E+02  0.12705854172E+02  0.27010518823E+02  0.00000000000E+00 0.  1.
</event>
<event>
 7    1  0.7749294E-012  0.5930195E+02  0.7816164E-02  0.1266605E+00
        -11   -1    0    0    0    0  0.00000000000E+00  0.00000000000E+00  0.45593999997E+02  0.45594000000E+02  0.51100000000E-03 0. -1.
         11   -1    0    0    0    0 -0.00000000000E+00 -0.00000000000E+00 -0.45593999997E+02  0.45594000000E+02  0.51100000000E-03 0.  1.
    9900012    2    1    2    0    0  0.25218636403E+02 -0.13916938287E+02 -0.13676967516E+02  0.59301949229E+02  0.50000009486E+02 0.  0.
         12    1    1    2    0    0 -0.25218636403E+02  0.13916938287E+02  0.13676967516E+02  0.31886050771E+02  0.00000000000E+00 0. -1.
         11    1    3    3    0    0  0.95768327454E+01 -0.20772395771E+02  0.22233535911E+01  0.22981545922E+02  0.51100000000E-03 0. -1.
        -11    1    3    3    0    0  0.14361692249E+02  0.17094286589E+02 -0.10455003149E+02  0.24653193087E+02  0.51100000000E-03 0.  1.
        -12    1    3    3    0    0  0.12801114088E+01 -0.10238829105E+02 -0.54453179580E+01  0.11667210220E+02  0.00000000000E+00 0.  1.
</event>
<event>
 7    1  0.7749294E-012  0.5930195E+02  0.7816164E-02  0.1266605E+00
        -11   -1    0    0    0    0  0.00000000000E+00  0.00000000000E+00  0.45593999997E+02  0.45594000000E+02  0.51100000000E-03 0.  1.
         11   -1    0    0    0    0 -0.00000000000E+00 -0.00000000000E+00 -0.45593999997E+02  0.45594000000E+02  0.51100000000E-03 0. -1.
    9900012    2    1    2    0    0  0.21556652171E+02 -0.23174076183E+01  0.23380778694E+02  0.59301945945E+02  0.50000003496E+02 0.  0.
         12    1    1    2    0    0 -0.21556652171E+02  0.23174076183E+01 -0.23380778694E+02  0.31886054055E+02  0.00000000000E+00 0. -1.
         11    1    3    3    0    0  0.23826357364E+02 -0.65971858970E+01  0.12392448864E+02  0.27654854115E+02  0.51100000000E-03 0.  1.
        -11    1    3    3    0    0 -0.34529348888E+01 -0.37241966387E+01 -0.88603707533E+01  0.10212667139E+02  0.51100000000E-03 0. -1.
         12    1    3    3    0    0  0.11832296955E+01  0.80039749174E+01  0.19848700583E+02  0.21434424691E+02  0.00000000000E+00 0. -1.
</event>
<event>
 7    1  0.7749294E-012  0.5930195E+02  0.7816164E-02  0.1266605E+00
        -11   -1    0    0    0    0  0.00000000000E+00  0.00000000000E+00  0.45593999997E+02  0.45594000000E+02  0.51100000000E-03 0.  1.
         11   -1    0    0    0    0 -0.00000000000E+00 -0.00000000000E+00 -0.45593999997E+02  0.45594000000E+02  0.51100000000E-03 0. -1.
    9900012    2    1    2    0    0  0.31703765482E+02 -0.26602901113E+01  0.21246428373E+01  0.59301952952E+02  0.50000016275E+02 0.  0.
         12    1    1    2    0    0 -0.31703765482E+02  0.26602901113E+01 -0.21246428373E+01  0.31886047048E+02  0.00000000000E+00 0. -1.
         11    1    3    3    0    0 -0.93785580626E+01 -0.50941667785E+01 -0.90221025225E+01  0.13975200202E+02  0.51100000000E-03 0. -1.
        -11    1    3    3    0    0  0.35796352603E+02  0.40890042363E+01  0.39496915039E+01  0.36244984185E+02  0.51100000000E-03 0.  1.
        -12    1    3    3    0    0  0.52859709413E+01 -0.16551275691E+01  0.71970538559E+01  0.90817685649E+01  0.00000000000E+00 0.  1.
</event>
<event>
 7    1  0.7749294E-012  0.5930194E+02  0.7816164E-02  0.1266605E+00
        -11   -1    0    0    0    0  0.00000000000E+00  0.00000000000E+00  0.45593999997E+02  0.45594000000E+02  0.51100000000E-03 0.  1.
         11   -1    0    0    0    0 -0.00000000000E+00 -0.00000000000E+00 -0.45593999997E+02  0.45594000000E+02  0.51100000000E-03 0. -1.
    9900012    2    1    2    0    0 -0.17780684970E+02 -0.15072635732E+02  0.21757388431E+02  0.59301936316E+02  0.49999985936E+02 0.  0.
         12    1    1    2    0    0  0.17780684970E+02  0.15072635732E+02 -0.21757388431E+02  0.31886063684E+02  0.00000000000E+00 0. -1.
         11    1    3    3    0    0 -0.10396086027E+02 -0.10197526213E+02  0.32216581934E+02  0.35355003851E+02  0.51100000000E-03 0. -1.
        -11    1    3    3    0    0 -0.13674962918E+02 -0.57095274060E+01 -0.51985481652E+01  0.15704401208E+02  0.51100000000E-03 0.  1.
         12    1    3    3    0    0  0.62903639750E+01  0.83441788667E+00 -0.52606453381E+01  0.82425312569E+01  0.00000000000E+00 0. -1.
</event>
<event>
 7    1  0.7749294E-012  0.5930195E+02  0.7816164E-02  0.1266605E+00
        -11   -1    0    0    0    0  0.00000000000E+00  0.00000000000E+00  0.45593999997E+02  0.45594000000E+02  0.51100000000E-03 0. -1.
         11   -1    0    0    0    0 -0.00000000000E+00 -0.00000000000E+00 -0.45593999997E+02  0.45594000000E+02  0.51100000000E-03 0.  1.
    9900012    2    1    2    0    0 -0.31450021178E+02 -0.22822650985E+01 -0.47336669046E+01  0.59301950253E+02  0.50000011354E+02 0.  0.
         12    1    1    2    0    0  0.31450021178E+02  0.22822650985E+01  0.47336669046E+01  0.31886049747E+02  0.00000000000E+00 0. -1.
         11    1    3    3    0    0 -0.28937543631E+01 -0.53287675950E+01  0.38229706182E+01  0.71683110287E+01  0.51100000000E-03 0. -1.
        -11    1    3    3    0    0 -0.34068118634E+01 -0.47604865696E+01 -0.21860315529E+02  0.22630554451E+02  0.51100000000E-03 0.  1.
        -12    1    3    3    0    0 -0.25149454952E+02  0.78069890661E+01  0.13303678007E+02  0.29503084773E+02  0.00000000000E+00 0.  1.
</event>
<event>
 7    1  0.7749294E-012  0.5930191E+02  0.7816164E-02  0.1266605E+00
        -11   -1    0    0    0    0  0.00000000000E+00  0.00000000000E+00  0.45593999997E+02  0.45594000000E+02  0.51100000000E-03 0. -1.
         11   -1    0    0    0    0 -0.00000000000E+00 -0.00000000000E+00 -0.45593999997E+02  0.45594000000E+02  0.51100000000E-03 0.  1.
    9900012    2    1    2    0    0  0.12188729016E+02 -0.11702767089E+02 -0.27040768049E+02  0.59301905707E+02  0.49999930112E+02 0.  0.
         12    1    1    2    0    0 -0.12188729016E+02  0.11702767089E+02  0.27040768049E+02  0.31886094293E+02  0.00000000000E+00 0. -1.
         11    1    3    3    0    0 -0.10287568167E+02  0.10548005643E+02 -0.66917144077E+01  0.16182506723E+02  0.51100000000E-03 0. -1.
        -11    1    3    3    0    0  0.19641988471E+02 -0.26041217443E+02 -0.20235164458E+02  0.38385083013E+02  0.51100000000E-03 0.  1.
        -12    1    3    3    0    0  0.28343087126E+01  0.37904447098E+01 -0.11388918319E+00  0.47343159720E+01  0.00000000000E+00 0.  1.
</event>
<event>
 7    1  0.7749294E-012  0.5930195E+02  0.7816164E-02  0.1266605E+00
        -11   -1    0    0    0    0  0.00000000000E+00  0.00000000000E+00  0.45593999997E+02  0.45594000000E+02  0.51100000000E-03 0.  1.
         11   -1    0    0    0    0 -0.00000000000E+00 -0.00000000000E+00 -0.45593999997E+02  0.45594000000E+02  0.51100000000E-03 0. -1.
    9900012    2    1    2    0    0  0.23726137872E+02 -0.71033031175E+01  0.20083169405E+02  0.59301949338E+02  0.50000009684E+02 0.  0.
         12    1    1    2    0    0 -0.23726137872E+02  0.71033031175E+01 -0.20083169405E+02  0.31886050662E+02  0.00000000000E+00 0. -1.
         11    1    3    3    0    0  0.13774289424E+01 -0.20126497154E+02  0.18007875485E+02  0.27041759890E+02  0.51100000000E-03 0. -1.
        -11    1    3    3    0    0  0.20087845789E+02  0.17514390730E+02 -0.40390159825E+00  0.26654053497E+02  0.51100000000E-03 0.  1.
        -12    1    3    3    0    0  0.22608631405E+01 -0.44911966941E+01  0.24791955177E+01  0.56061359509E+01  0.00000000000E+00 0.  1.
</event>
<event>
 7    1  0.7749294E-012  0.5930194E+02  0.7816164E-02  0.1266605E+00
        -11   -1    0    0    0    0  0.00000000000E+00  0.00000000000E+00  0.45593999997E+02  0.45594000000E+02  0.51100000000E-03 0.  1.
         11   -1    0    0    0    0 -0.00000000000E+00 -0.00000000000E+00 -0.45593999997E+02  0.45594000000E+02  0.51100000000E-03 0. -1.
    9900012    2    1    2    0    0 -0.14518714156E+02 -0.75854090980E+01 -0.27356704376E+02  0.59301940879E+02  0.49999994258E+02 0.  0.
         12    1    1    2    0    0  0.14518714156E+02  0.75854090980E+01  0.27356704376E+02  0.31886059121E+02  0.00000000000E+00 0. -1.
         11    1    3    3    0    0 -0.21637818964E+02  0.40277286389E+01 -0.89803298683E+01  0.23771077643E+02  0.51100000000E-03 0. -1.
        -11    1    3    3    0    0  0.17399352912E+02 -0.91699720233E+01 -0.10105021136E+02  0.22111927123E+02  0.51100000000E-03 0.  1.
         12    1    3    3    0    0 -0.10280248105E+02 -0.24431657136E+01 -0.82713533714E+01  0.13418936112E+02  0.00000000000E+00 0. -1.
</event>
<event>
 7    1  0.7749294E-012  0.5930195E+02  0.7816164E-02  0.1266605E+00
        -11   -1    0    0    0    0  0.00000000000E+00  0.00000000000E+00  0.45593999997E+02  0.45594000000E+02  0.51100000000E-03 0.  1.
         11   -1    0    0    0    0 -0.00000000000E+00 -0.00000000000E+00 -0.45593999997E+02  0.45594000000E+02  0.51100000000E-03 0. -1.
    9900012    2    1    2    0    0 -0.19842411501E+02 -0.24834700568E+02 -0.24973558615E+01  0.59301946108E+02  0.50000003795E+02 0.  0.
         12    1    1    2    0    0  0.19842411501E+02  0.24834700568E+02  0.24973558615E+01  0.31886053892E+02  0.00000000000E+00 0. -1.
         11    1    3    3    0    0 -0.13219503015E+01  0.12781787539E+02 -0.28330947692E+01  0.13158574069E+02  0.51100000000E-03 0. -1.
        -11    1    3    3    0    0 -0.12378541369E+02 -0.14913566444E+02  0.86145848840E+01  0.21209757743E+02  0.51100000000E-03 0.  1.
         12    1    3    3    0    0 -0.61419198305E+01 -0.22702921663E+02 -0.82788459763E+01  0.24933614297E+02  0.00000000000E+00 0. -1.
</event>
<event>
 7    1  0.7749294E-012  0.5930195E+02  0.7816164E-02  0.1266605E+00
        -11   -1    0    0    0    0  0.00000000000E+00  0.00000000000E+00  0.45593999997E+02  0.45594000000E+02  0.51100000000E-03 0. -1.
         11   -1    0    0    0    0 -0.00000000000E+00 -0.00000000000E+00 -0.45593999997E+02  0.45594000000E+02  0.51100000000E-03 0.  1.
    9900012    2    1    2    0    0 -0.21238621854E+02 -0.96804910877E+01 -0.21723932583E+02  0.59301949558E+02  0.50000010085E+02 0.  0.
         12    1    1    2    0    0  0.21238621854E+02  0.96804910877E+01  0.21723932583E+02  0.31886050442E+02  0.00000000000E+00 0. -1.
         11    1    3    3    0    0  0.87882672382E+01 -0.48568626533E+01  0.10719158034E+02  0.14687515280E+02  0.51100000000E-03 0. -1.
        -11    1    3    3    0    0 -0.26963551871E+02 -0.33300751761E+01 -0.27994455274E+02  0.39010409592E+02  0.51100000000E-03 0.  1.
         12    1    3    3    0    0 -0.30633372208E+01 -0.14935532583E+01 -0.44486353431E+01  0.56040246859E+01  0.00000000000E+00 0. -1.
</event>
<event>
 7    1  0.7749294E-012  0.5930183E+02  0.7816164E-02  0.1266605E+00
        -11   -1    0    0    0    0  0.00000000000E+00  0.00000000000E+00  0.45593999997E+02  0.45594000000E+02  0.51100000000E-03 0.  1.
         11   -1    0    0    0    0 -0.00000000000E+00 -0.00000000000E+00 -0.45593999997E+02  0.45594000000E+02  0.51100000000E-03 0. -1.
    9900012    2    1    2    0    0  0.10841768252E+02 -0.26753080495E+02  0.13544613372E+02  0.59301830487E+02  0.49999792929E+02 0.  0.
         12    1    1    2    0    0 -0.10841768252E+02  0.26753080495E+02 -0.13544613372E+02  0.31886169513E+02  0.00000000000E+00 0. -1.
         11    1    3    3    0    0 -0.14592969456E+01 -0.32684121029E+01 -0.16065869325E+02  0.16459775900E+02  0.51100000000E-03 0. -1.
        -11    1    3    3    0    0  0.15864900816E+01 -0.13468044494E+02  0.55281385891E+01  0.14644640309E+02  0.51100000000E-03 0.  1.
         12    1    3    3    0    0  0.10714575116E+02 -0.10016623899E+02  0.24082344108E+02  0.28197414278E+02  0.00000000000E+00 0. -1.
</event>
<event>
 7    1  0.7749294E-012  0.5930191E+02  0.7816164E-02  0.1266605E+00
        -11   -1    0    0    0    0  0.00000000000E+00  0.00000000000E+00  0.45593999997E+02  0.45594000000E+02  0.51100000000E-03 0.  1.
         11   -1    0    0    0    0 -0.00000000000E+00 -0.00000000000E+00 -0.45593999997E+02  0.45594000000E+02  0.51100000000E-03 0. -1.
    9900012    2    1    2    0    0  0.30521439239E+02 -0.52946664422E+01  0.75585165525E+01  0.59301907131E+02  0.49999932710E+02 0.  0.
         12    1    1    2    0    0 -0.30521439239E+02  0.52946664422E+01 -0.75585165525E+01  0.31886092869E+02  0.00000000000E+00 0. -1.
         11    1    3    3    0    0  0.45504363733E+01  0.27054664058E+01 -0.26356854382E+01  0.59137853910E+01  0.51100000000E-03 0. -1.
        -11    1    3    3    0    0  0.15836918454E+02 -0.18650917083E+02  0.23230568470E+02  0.33739057572E+02  0.51100000000E-03 0.  1.
        -12    1    3    3    0    0  0.10134084412E+02  0.10650784235E+02 -0.13036366480E+02  0.19649064168E+02  0.00000000000E+00 0.  1.
</event>
<event>
 7    1  0.7749294E-012  0.5930194E+02  0.7816164E-02  0.1266605E+00
        -11   -1    0    0    0    0  0.00000000000E+00  0.00000000000E+00  0.45593999997E+02  0.45594000000E+02  0.51100000000E-03 0.  1.
         11   -1    0    0    0    0 -0.00000000000E+00 -0.00000000000E+00 -0.45593999997E+02  0.45594000000E+02  0.51100000000E-03 0. -1.
    9900012    2    1    2    0    0  0.18267511281E+02  0.95091456888E-01  0.26134454875E+02  0.59301941253E+02  0.49999994939E+02 0.  0.
         12    1    1    2    0    0 -0.18267511281E+02 -0.95091456888E-01 -0.26134454875E+02  0.31886058747E+02  0.00000000000E+00 0. -1.
         11    1    3    3    0    0 -0.74673532584E+00  0.13636348902E+02  0.56791423467E+01  0.14790547085E+02  0.51100000000E-03 0. -1.
        -11    1    3    3    0    0  0.26065625417E+01 -0.10482211626E+02 -0.66464735121E+01  0.12682528899E+02  0.51100000000E-03 0.  1.
        -12    1    3    3    0    0  0.16407684066E+02 -0.30590458192E+01  0.27101786040E+02  0.31828865269E+02  0.00000000000E+00 0.  1.
</event>
<event>
 7    1  0.7749294E-012  0.5930195E+02  0.7816164E-02  0.1266605E+00
        -11   -1    0    0    0    0  0.00000000000E+00  0.00000000000E+00  0.45593999997E+02  0.45594000000E+02  0.51100000000E-03 0. -1.
         11   -1    0    0    0    0 -0.00000000000E+00 -0.00000000000E+00 -0.45593999997E+02  0.45594000000E+02  0.51100000000E-03 0.  1.
    9900012    2    1    2    0    0  0.76601259690E+01  0.30932287636E+02 -0.11118887484E+01  0.59301949056E+02  0.50000009170E+02 0.  0.
         12    1    1    2    0    0 -0.76601259690E+01 -0.30932287636E+02  0.11118887484E+01  0.31886050944E+02  0.00000000000E+00 0. -1.
         11    1    3    3    0    0 -0.12754992561E+01  0.28115008650E+02  0.89349269354E+01  0.29528181951E+02  0.51100000000E-03 0. -1.
        -11    1    3    3    0    0 -0.52971068875E+00 -0.97605050513E+01 -0.10067645974E+02  0.14032303731E+02  0.51100000000E-03 0.  1.
        -12    1    3    3    0    0  0.94653359139E+01  0.12577784037E+02  0.20830290156E-01  0.15741463374E+02  0.00000000000E+00 0.  1.
</event>
<event>
 7    1  0.7749294E-012  0.5930194E+02  0.7816164E-02  0.1266605E+00
        -11   -1    0    0    0    0  0.00000000000E+00  0.00000000000E+00  0.45593999997E+02  0.45594000000E+02  0.51100000000E-03 0.  1.
         11   -1    0    0    0    0 -0.00000000000E+00 -0.00000000000E+00 -0.45593999997E+02  0.45594000000E+02  0.51100000000E-03 0. -1.
    9900012    2    1    2    0    0  0.15238923554E+02  0.25315446964E+02  0.11984317269E+02  0.59301944953E+02  0.50000001687E+02 0.  0.
         12    1    1    2    0    0 -0.15238923554E+02 -0.25315446964E+02 -0.11984317269E+02  0.31886055047E+02  0.00000000000E+00 0. -1.
         11    1    3    3    0    0 -0.93104183337E+01  0.14783607576E+02  0.73119333828E+01  0.18939464421E+02  0.51100000000E-03 0.  1.
        -11    1    3    3    0    0  0.30322601049E+02  0.11966685794E+02 -0.31426701102E+00  0.32600007167E+02  0.51100000000E-03 0. -1.
         12    1    3    3    0    0 -0.57732591622E+01 -0.14348464055E+01  0.49866508974E+01  0.77624733644E+01  0.00000000000E+00 0. -1.
</event>
<event>
 7    1  0.7749294E-012  0.5930195E+02  0.7816164E-02  0.1266605E+00
        -11   -1    0    0    0    0  0.00000000000E+00  0.00000000000E+00  0.45593999997E+02  0.45594000000E+02  0.51100000000E-03 0.  1.
         11   -1    0    0    0    0 -0.00000000000E+00 -0.00000000000E+00 -0.45593999997E+02  0.45594000000E+02  0.51100000000E-03 0. -1.
    9900012    2    1    2    0    0 -0.30787387746E+02  0.49568702852E+01  0.66548133207E+01  0.59301947445E+02  0.50000006231E+02 0.  0.
         12    1    1    2    0    0  0.30787387746E+02 -0.49568702852E+01 -0.66548133207E+01  0.31886052555E+02  0.00000000000E+00 0. -1.
         11    1    3    3    0    0  0.73081705863E+01 -0.53628012760E+01  0.88958464094E+01  0.12700593626E+02  0.51100000000E-03 0. -1.
        -11    1    3    3    0    0 -0.24988861187E+02 -0.36483382263E+01  0.56618319745E+01  0.25880685787E+02  0.51100000000E-03 0.  1.
        -12    1    3    3    0    0 -0.13106697145E+02  0.13968009787E+02 -0.79028650631E+01  0.20720668032E+02  0.00000000000E+00 0.  1.
</event>
<event>
 7    1  0.7749294E-012  0.5930194E+02  0.7816164E-02  0.1266605E+00
        -11   -1    0    0    0    0  0.00000000000E+00  0.00000000000E+00  0.45593999997E+02  0.45594000000E+02  0.51100000000E-03 0. -1.
         11   -1    0    0    0    0 -0.00000000000E+00 -0.00000000000E+00 -0.45593999997E+02  0.45594000000E+02  0.51100000000E-03 0.  1.
    9900012    2    1    2    0    0  0.28788633966E+02  0.72958322570E+01 -0.11606303246E+02  0.59301938955E+02  0.49999990749E+02 0.  0.
         12    1    1    2    0    0 -0.28788633966E+02 -0.72958322570E+01  0.11606303246E+02  0.31886061045E+02  0.00000000000E+00 0. -1.
         11    1    3    3    0    0 -0.72078736678E+01  0.81998470301E+01  0.14768038345E+00  0.10918458860E+02  0.51100000000E-03 0. -1.
        -11    1    3    3    0    0  0.40870022471E+02  0.37720933218E+00 -0.13510671200E+02  0.43046942519E+02  0.51100000000E-03 0.  1.
        -12    1    3    3    0    0 -0.48735148376E+01 -0.12812241053E+01  0.17566875708E+01  0.53365375762E+01  0.00000000000E+00 0.  1.
</event>
<event>
 7    1  0.7749294E-012  0.5930201E+02  0.7816164E-02  0.1266605E+00
        -11   -1    0    0    0    0  0.00000000000E+00  0.00000000000E+00  0.45593999997E+02  0.45594000000E+02  0.51100000000E-03 0.  1.
         11   -1    0    0    0    0 -0.00000000000E+00 -0.00000000000E+00 -0.45593999997E+02  0.45594000000E+02  0.51100000000E-03 0. -1.
    9900012    2    1    2    0    0 -0.13139665803E+01 -0.21027962799E+02  0.23933542901E+02  0.59302012428E+02  0.50000124745E+02 0.  0.
         12    1    1    2    0    0  0.13139665803E+01  0.21027962799E+02 -0.23933542901E+02  0.31885987572E+02  0.00000000000E+00 0. -1.
         11    1    3    3    0    0  0.28081510081E+01 -0.65473044089E+01 -0.79879694171E+01  0.10703296818E+02  0.51100000000E-03 0. -1.
        -11    1    3    3    0    0  0.54505107105E+01 -0.59976825688E+01  0.34595194746E+02  0.35531785249E+02  0.51100000000E-03 0.  1.
        -12    1    3    3    0    0 -0.95726282989E+01 -0.84829758208E+01 -0.26736824278E+01  0.13066930361E+02  0.00000000000E+00 0.  1.
</event>
<event>
 7    1  0.7749294E-012  0.5930196E+02  0.7816164E-02  0.1266605E+00
        -11   -1    0    0    0    0  0.00000000000E+00  0.00000000000E+00  0.45593999997E+02  0.45594000000E+02  0.51100000000E-03 0.  1.
         11   -1    0    0    0    0 -0.00000000000E+00 -0.00000000000E+00 -0.45593999997E+02  0.45594000000E+02  0.51100000000E-03 0. -1.
    9900012    2    1    2    0    0  0.36353852542E+01 -0.30985096616E+02  0.65899601658E+01  0.59301955824E+02  0.50000021513E+02 0.  0.
         12    1    1    2    0    0 -0.36353852542E+01  0.30985096616E+02 -0.65899601658E+01  0.31886044176E+02  0.00000000000E+00 0. -1.
         11    1    3    3    0    0  0.24502673355E+02 -0.14243126419E+02 -0.38445608443E+01  0.28601194032E+02  0.51100000000E-03 0. -1.
        -11    1    3    3    0    0 -0.11581142677E+02 -0.14122229048E+02  0.10470451389E+02  0.21052091857E+02  0.51100000000E-03 0.  1.
         12    1    3    3    0    0 -0.92861454240E+01 -0.26197411483E+01 -0.35930379245E-01  0.96486699349E+01  0.00000000000E+00 0. -1.
</event>
<event>
 7    1  0.7749294E-012  0.5930194E+02  0.7816164E-02  0.1266605E+00
        -11   -1    0    0    0    0  0.00000000000E+00  0.00000000000E+00  0.45593999997E+02  0.45594000000E+02  0.51100000000E-03 0. -1.
         11   -1    0    0    0    0 -0.00000000000E+00 -0.00000000000E+00 -0.45593999997E+02  0.45594000000E+02  0.51100000000E-03 0.  1.
    9900012    2    1    2    0    0 -0.26842320358E+02  0.12510886019E+02 -0.11818980644E+02  0.59301941375E+02  0.49999995163E+02 0.  0.
         12    1    1    2    0    0  0.26842320358E+02 -0.12510886019E+02  0.11818980644E+02  0.31886058625E+02  0.00000000000E+00 0. -1.
         11    1    3    3    0    0 -0.18874442707E+02 -0.15424054780E+02  0.26587142014E+01  0.24519682193E+02  0.51100000000E-03 0. -1.
        -11    1    3    3    0    0 -0.10469780426E+01  0.21106163507E+02 -0.13346645910E+02  0.24993984442E+02  0.51100000000E-03 0.  1.
        -12    1    3    3    0    0 -0.69208996078E+01  0.68287772928E+01 -0.11310489352E+01  0.97882747402E+01  0.00000000000E+00 0.  1.
</event>
<event>
 7    1  0.7749294E-012  0.5930188E+02  0.7816164E-02  0.1266605E+00
        -11   -1    0    0    0    0  0.00000000000E+00  0.00000000000E+00  0.45593999997E+02  0.45594000000E+02  0.51100000000E-03 0.  1.
         11   -1    0    0    0    0 -0.00000000000E+00 -0.00000000000E+00 -0.45593999997E+02  0.45594000000E+02  0.51100000000E-03 0. -1.
    9900012    2    1    2    0    0 -0.16431892329E+02 -0.15679002652E+02  0.22380498390E+02  0.59301875778E+02  0.49999875529E+02 0.  0.
         12    1    1    2    0    0  0.16431892329E+02  0.15679002652E+02 -0.22380498390E+02  0.31886124222E+02  0.00000000000E+00 0. -1.
         11    1    3    3    0    0 -0.18407018333E+02  0.11172243930E+02  0.31488732978E+01  0.21761267464E+02  0.51100000000E-03 0. -1.
        -11    1    3    3    0    0 -0.65410081232E+01 -0.15202470828E+02  0.15409747676E+02  0.22613275531E+02  0.51100000000E-03 0.  1.
         12    1    3    3    0    0  0.85161341267E+01 -0.11648775754E+02  0.38218774168E+01  0.14927332783E+02  0.00000000000E+00 0. -1.
</event>
<event>
 7    1  0.7749294E-012  0.5930195E+02  0.7816164E-02  0.1266605E+00
        -11   -1    0    0    0    0  0.00000000000E+00  0.00000000000E+00  0.45593999997E+02  0.45594000000E+02  0.51100000000E-03 0.  1.
         11   -1    0    0    0    0 -0.00000000000E+00 -0.00000000000E+00 -0.45593999997E+02  0.45594000000E+02  0.51100000000E-03 0. -1.
    9900012    2    1    2    0    0  0.56309554409E+01  0.17449740884E+02  0.26086758521E+02  0.59301951542E+02  0.50000013705E+02 0.  0.
         12    1    1    2    0    0 -0.56309554409E+01 -0.17449740884E+02 -0.26086758521E+02  0.31886048458E+02  0.00000000000E+00 0. -1.
         11    1    3    3    0    0 -0.56713224249E+01  0.50830103600E+01 -0.12119053844E+02  0.14313362942E+02  0.51100000000E-03 0. -1.
        -11    1    3    3    0    0  0.13320676634E+02  0.94336746621E+01  0.38074343243E+02  0.41425719756E+02  0.51100000000E-03 0.  1.
        -12    1    3    3    0    0 -0.20183987677E+01  0.29330558621E+01  0.13146912153E+00  0.35628688449E+01  0.00000000000E+00 0.  1.
</event>
<event>
 7    1  0.7749294E-012  0.5930195E+02  0.7816164E-02  0.1266605E+00
        -11   -1    0    0    0    0  0.00000000000E+00  0.00000000000E+00  0.45593999997E+02  0.45594000000E+02  0.51100000000E-03 0.  1.
         11   -1    0    0    0    0 -0.00000000000E+00 -0.00000000000E+00 -0.45593999997E+02  0.45594000000E+02  0.51100000000E-03 0. -1.
    9900012    2    1    2    0    0  0.53749475361E+01 -0.30328063328E+02  0.82485475388E+01  0.59301952538E+02  0.50000015521E+02 0.  0.
         12    1    1    2    0    0 -0.53749475361E+01  0.30328063328E+02 -0.82485475388E+01  0.31886047462E+02  0.00000000000E+00 0. -1.
         11    1    3    3    0    0 -0.84486217762E+01  0.96937682219E+01  0.43041462558E+01  0.13560015764E+02  0.51100000000E-03 0. -1.
        -11    1    3    3    0    0  0.14161231015E+02 -0.22540115945E+02 -0.32848614638E+01  0.26821402010E+02  0.51100000000E-03 0.  1.
        -12    1    3    3    0    0 -0.33766170321E+00 -0.17481715604E+02  0.72292627468E+01  0.18920534764E+02  0.00000000000E+00 0.  1.
</event>
<event>
 7    1  0.7749294E-012  0.5930194E+02  0.7816164E-02  0.1266605E+00
        -11   -1    0    0    0    0  0.00000000000E+00  0.00000000000E+00  0.45593999997E+02  0.45594000000E+02  0.51100000000E-03 0.  1.
         11   -1    0    0    0    0 -0.00000000000E+00 -0.00000000000E+00 -0.45593999997E+02  0.45594000000E+02  0.51100000000E-03 0. -1.
    9900012    2    1    2    0    0 -0.24603487413E+01 -0.19070974499E+02  0.25435514799E+02  0.59301940391E+02  0.49999993368E+02 0.  0.
         12    1    1    2    0    0  0.24603487413E+01  0.19070974499E+02 -0.25435514799E+02  0.31886059609E+02  0.00000000000E+00 0. -1.
         11    1    3    3    0    0 -0.38757341115E+00 -0.28393440146E+01 -0.11483333072E+02  0.11835498565E+02  0.51100000000E-03 0. -1.
        -11    1    3    3    0    0  0.11418472550E+02 -0.74676695920E+01  0.14994107072E+02  0.20272416029E+02  0.51100000000E-03 0.  1.
        -12    1    3    3    0    0 -0.13491247881E+02 -0.87639608925E+01  0.21924740799E+02  0.27194025796E+02  0.00000000000E+00 0.  1.
</event>
<event>
 7    1  0.7749294E-012  0.5930197E+02  0.7816164E-02  0.1266605E+00
        -11   -1    0    0    0    0  0.00000000000E+00  0.00000000000E+00  0.45593999997E+02  0.45594000000E+02  0.51100000000E-03 0. -1.
         11   -1    0    0    0    0 -0.00000000000E+00 -0.00000000000E+00 -0.45593999997E+02  0.45594000000E+02  0.51100000000E-03 0.  1.
    9900012    2    1    2    0    0 -0.30869036192E+02 -0.16076201229E+01  0.78254107079E+01  0.59301970290E+02  0.50000047897E+02 0.  0.
         12    1    1    2    0    0  0.30869036192E+02  0.16076201229E+01 -0.78254107079E+01  0.31886029710E+02  0.00000000000E+00 0. -1.
         11    1    3    3    0    0 -0.62202339731E+01 -0.21826374503E+02 -0.18229588983E+00  0.22696148719E+02  0.51100000000E-03 0. -1.
        -11    1    3    3    0    0 -0.18314784715E+02  0.46273936356E+01  0.42042083273E+01  0.19352505753E+02  0.51100000000E-03 0.  1.
         12    1    3    3    0    0 -0.63340175046E+01  0.15591360745E+02  0.38034982705E+01  0.17253315818E+02  0.00000000000E+00 0. -1.
</event>
<event>
 7    1  0.7749294E-012  0.5930194E+02  0.7816164E-02  0.1266605E+00
        -11   -1    0    0    0    0  0.00000000000E+00  0.00000000000E+00  0.45593999997E+02  0.45594000000E+02  0.51100000000E-03 0.  1.
         11   -1    0    0    0    0 -0.00000000000E+00 -0.00000000000E+00 -0.45593999997E+02  0.45594000000E+02  0.51100000000E-03 0. -1.
    9900012    2    1    2    0    0  0.14025189342E+02  0.15977789791E+02  0.23763943405E+02  0.59301941779E+02  0.49999995900E+02 0.  0.
         12    1    1    2    0    0 -0.14025189342E+02 -0.15977789791E+02 -0.23763943405E+02  0.31886058221E+02  0.00000000000E+00 0. -1.
         11    1    3    3    0    0  0.18378231048E+02  0.18438792350E+02 -0.61717668925E+01  0.26755170466E+02  0.51100000000E-03 0. -1.
        -11    1    3    3    0    0 -0.59578674850E+00 -0.49846111047E+01  0.45966349568E+01  0.68066410881E+01  0.51100000000E-03 0.  1.
         12    1    3    3    0    0 -0.37572549574E+01  0.25236085448E+01  0.25339075341E+02  0.25740130226E+02  0.00000000000E+00 0. -1.
</event>
<event>
 7    1  0.7749294E-012  0.5930183E+02  0.7816164E-02  0.1266605E+00
        -11   -1    0    0    0    0  0.00000000000E+00  0.00000000000E+00  0.45593999997E+02  0.45594000000E+02  0.51100000000E-03 0. -1.
         11   -1    0    0    0    0 -0.00000000000E+00 -0.00000000000E+00 -0.45593999997E+02  0.45594000000E+02  0.51100000000E-03 0.  1.
    9900012    2    1    2    0    0 -0.10303301952E+02 -0.29774297960E+02 -0.49051688238E+01  0.59301834797E+02  0.49999800789E+02 0.  0.
         12    1    1    2    0    0  0.10303301952E+02  0.29774297960E+02  0.49051688238E+01  0.31886165203E+02  0.00000000000E+00 0. -1.
         11    1    3    3    0    0  0.62119077774E+01  0.10024868246E+02 -0.90114536349E+00  0.11827841933E+02  0.51100000000E-03 0. -1.
        -11    1    3    3    0    0 -0.85505877733E+01 -0.15513847326E+02 -0.11155724454E+02  0.20934235082E+02  0.51100000000E-03 0.  1.
        -12    1    3    3    0    0 -0.79646219560E+01 -0.24285318880E+02  0.71517009936E+01  0.26539757782E+02  0.00000000000E+00 0.  1.
</event>
<event>
 7    1  0.7749294E-012  0.5930194E+02  0.7816164E-02  0.1266605E+00
        -11   -1    0    0    0    0  0.00000000000E+00  0.00000000000E+00  0.45593999997E+02  0.45594000000E+02  0.51100000000E-03 0.  1.
         11   -1    0    0    0    0 -0.00000000000E+00 -0.00000000000E+00 -0.45593999997E+02  0.45594000000E+02  0.51100000000E-03 0. -1.
    9900012    2    1    2    0    0 -0.20546395904E+02  0.13356810309E+02  0.20400056887E+02  0.59301935845E+02  0.49999985077E+02 0.  0.
         12    1    1    2    0    0  0.20546395904E+02 -0.13356810309E+02 -0.20400056887E+02  0.31886064155E+02  0.00000000000E+00 0. -1.
         11    1    3    3    0    0 -0.20856499512E+02  0.73459589227E+01  0.34487206550E+01  0.22379686298E+02  0.51100000000E-03 0. -1.
        -11    1    3    3    0    0  0.60634005279E+01 -0.12127261429E+02  0.91458234898E+01  0.16354858095E+02  0.51100000000E-03 0.  1.
        -12    1    3    3    0    0 -0.57532969204E+01  0.18138112816E+02  0.78055127424E+01  0.20567391452E+02  0.00000000000E+00 0.  1.
</event>
<event>
 7    1  0.7749294E-012  0.5930192E+02  0.7816164E-02  0.1266605E+00
        -11   -1    0    0    0    0  0.00000000000E+00  0.00000000000E+00  0.45593999997E+02  0.45594000000E+02  0.51100000000E-03 0.  1.
         11   -1    0    0    0    0 -0.00000000000E+00 -0.00000000000E+00 -0.45593999997E+02  0.45594000000E+02  0.51100000000E-03 0. -1.
    9900012    2    1    2    0    0  0.13552567508E+02  0.25912553912E+02  0.12711780176E+02  0.59301923234E+02  0.49999962077E+02 0.  0.
         12    1    1    2    0    0 -0.13552567508E+02 -0.25912553912E+02 -0.12711780176E+02  0.31886076766E+02  0.00000000000E+00 0. -1.
         11    1    3    3    0    0  0.13282023428E+02 -0.31625404248E+01 -0.11382206969E+02  0.17775501231E+02  0.51100000000E-03 0. -1.
        -11    1    3    3    0    0  0.68052963451E+01  0.25365011004E+02  0.19610603284E+02  0.32776082789E+02  0.51100000000E-03 0.  1.
         12    1    3    3    0    0 -0.65347522654E+01  0.37100833328E+01  0.44833838611E+01  0.87503392136E+01  0.00000000000E+00 0. -1.
</event>
<event>
 7    1  0.7749294E-012  0.5930192E+02  0.7816164E-02  0.1266605E+00
        -11   -1    0    0    0    0  0.00000000000E+00  0.00000000000E+00  0.45593999997E+02  0.45594000000E+02  0.51100000000E-03 0. -1.
         11   -1    0    0    0    0 -0.00000000000E+00 -0.00000000000E+00 -0.45593999997E+02  0.45594000000E+02  0.51100000000E-03 0.  1.
    9900012    2    1    2    0    0 -0.16134980921E+02  0.22769289152E+02 -0.15425428648E+02  0.59301921740E+02  0.49999959353E+02 0.  0.
         12    1    1    2    0    0  0.16134980921E+02 -0.22769289152E+02  0.15425428648E+02  0.31886078260E+02  0.00000000000E+00 0. -1.
         11    1    3    3    0    0 -0.58289694951E+01  0.28624730312E+02  0.67841801542E+01  0.29989617728E+02  0.51100000000E-03 0. -1.
        -11    1    3    3    0    0 -0.13145200584E+02 -0.53446511139E+01 -0.11632173237E+02  0.18348543495E+02  0.51100000000E-03 0.  1.
        -12    1    3    3    0    0  0.28391891576E+01 -0.51079004628E+00 -0.10577435565E+02  0.10963760517E+02  0.00000000000E+00 0.  1.
</event>
<event>
 7    1  0.7749294E-012  0.5930196E+02  0.7816164E-02  0.1266605E+00
        -11   -1    0    0    0    0  0.00000000000E+00  0.00000000000E+00  0.45593999997E+02  0.45594000000E+02  0.51100000000E-03 0. -1.
         11   -1    0    0    0    0 -0.00000000000E+00 -0.00000000000E+00 -0.45593999997E+02  0.45594000000E+02  0.51100000000E-03 0.  1.
    9900012    2    1    2    0    0  0.20480825698E+02 -0.97047921144E+01 -0.22429278904E+02  0.59301956605E+02  0.50000022938E+02 0.  0.
         12    1    1    2    0    0 -0.20480825698E+02  0.97047921144E+01  0.22429278904E+02  0.31886043395E+02  0.00000000000E+00 0. -1.
         11    1    3    3    0    0  0.19998969157E+02 -0.21659139106E+02 -0.28301327659E+02  0.40866150072E+02  0.51100000000E-03 0. -1.
        -11    1    3    3    0    0 -0.60193202685E+01  0.48385687909E+01  0.36622736301E+01  0.85472927200E+01  0.51100000000E-03 0.  1.
         12    1    3    3    0    0  0.65011768102E+01  0.71157782010E+01  0.22097751256E+01  0.98885138130E+01  0.00000000000E+00 0. -1.
</event>
<event>
 7    1  0.7749294E-012  0.5930195E+02  0.7816164E-02  0.1266605E+00
        -11   -1    0    0    0    0  0.00000000000E+00  0.00000000000E+00  0.45593999997E+02  0.45594000000E+02  0.51100000000E-03 0.  1.
         11   -1    0    0    0    0 -0.00000000000E+00 -0.00000000000E+00 -0.45593999997E+02  0.45594000000E+02  0.51100000000E-03 0. -1.
    9900012    2    1    2    0    0  0.26934662188E+02  0.14237882963E+02  0.94088736141E+01  0.59301949113E+02  0.50000009275E+02 0.  0.
         12    1    1    2    0    0 -0.26934662188E+02 -0.14237882963E+02 -0.94088736141E+01  0.31886050887E+02  0.00000000000E+00 0. -1.
         11    1    3    3    0    0  0.34406347210E+02  0.33348575823E+01 -0.32337929933E-01  0.34567601153E+02  0.51100000000E-03 0. -1.
        -11    1    3    3    0    0  0.34239685642E+01 -0.88002669314E-01  0.85750221829E+01  0.92337593047E+01  0.51100000000E-03 0.  1.
         12    1    3    3    0    0 -0.10895653586E+02  0.10991028050E+02  0.86618936118E+00  0.15500588656E+02  0.00000000000E+00 0. -1.
</event>
<event>
 7    1  0.7749294E-012  0.5930200E+02  0.7816164E-02  0.1266605E+00
        -11   -1    0    0    0    0  0.00000000000E+00  0.00000000000E+00  0.45593999997E+02  0.45594000000E+02  0.51100000000E-03 0. -1.
         11   -1    0    0    0    0 -0.00000000000E+00 -0.00000000000E+00 -0.45593999997E+02  0.45594000000E+02  0.51100000000E-03 0.  1.
    9900012    2    1    2    0    0  0.28436795932E+02  0.10133460989E+02 -0.10265423519E+02  0.59301995006E+02  0.50000092971E+02 0.  0.
         12    1    1    2    0    0 -0.28436795932E+02 -0.10133460989E+02  0.10265423519E+02  0.31886004994E+02  0.00000000000E+00 0. -1.
         11    1    3    3    0    0  0.13633501512E+01  0.75963194448E+01  0.13166232508E+02  0.15261470161E+02  0.51100000000E-03 0. -1.
        -11    1    3    3    0    0  0.23284746239E+02 -0.82915385868E+01 -0.20718070577E+02  0.32251627374E+02  0.51100000000E-03 0.  1.
        -12    1    3    3    0    0  0.37886995413E+01  0.10828680131E+02 -0.27135854504E+01  0.11788897471E+02  0.00000000000E+00 0.  1.
</event>
<event>
 7    1  0.7749294E-012  0.5930190E+02  0.7816164E-02  0.1266605E+00
        -11   -1    0    0    0    0  0.00000000000E+00  0.00000000000E+00  0.45593999997E+02  0.45594000000E+02  0.51100000000E-03 0.  1.
         11   -1    0    0    0    0 -0.00000000000E+00 -0.00000000000E+00 -0.45593999997E+02  0.45594000000E+02  0.51100000000E-03 0. -1.
    9900012    2    1    2    0    0 -0.20487147986E+02  0.23860687627E+02 -0.52600076373E+01  0.59301900725E+02  0.49999921026E+02 0.  0.
         12    1    1    2    0    0  0.20487147986E+02 -0.23860687627E+02  0.52600076373E+01  0.31886099275E+02  0.00000000000E+00 0. -1.
         11    1    3    3    0    0 -0.74850194479E+01  0.22250988510E+02 -0.95664141708E+01  0.25350508598E+02  0.51100000000E-03 0. -1.
        -11    1    3    3    0    0  0.48759008300E+01 -0.73897887576E+01 -0.67060473777E+01  0.11106505232E+02  0.51100000000E-03 0.  1.
        -12    1    3    3    0    0 -0.17878029368E+02  0.89994878742E+01  0.11012453911E+02  0.22844886895E+02  0.00000000000E+00 0.  1.
</event>
<event>
 7    1  0.7749294E-012  0.5930194E+02  0.7816164E-02  0.1266605E+00
        -11   -1    0    0    0    0  0.00000000000E+00  0.00000000000E+00  0.45593999997E+02  0.45594000000E+02  0.51100000000E-03 0.  1.
         11   -1    0    0    0    0 -0.00000000000E+00 -0.00000000000E+00 -0.45593999997E+02  0.45594000000E+02  0.51100000000E-03 0. -1.
    9900012    2    1    2    0    0  0.86316816299E+01  0.13829815091E+02  0.27403490429E+02  0.59301937200E+02  0.49999987547E+02 0.  0.
         12    1    1    2    0    0 -0.86316816299E+01 -0.13829815091E+02 -0.27403490429E+02  0.31886062800E+02  0.00000000000E+00 0. -1.
         11    1    3    3    0    0 -0.93988202320E+00  0.58893555961E+01 -0.62654743108E+01  0.86500899507E+01  0.51100000000E-03 0. -1.
        -11    1    3    3    0    0  0.33665391673E+01 -0.14273006734E+02  0.15019667373E+02  0.20991491501E+02  0.51100000000E-03 0.  1.
        -12    1    3    3    0    0  0.62050244858E+01  0.22213466229E+02  0.18649297367E+02  0.29660355748E+02  0.00000000000E+00 0.  1.
</event>
<event>
 7    1  0.7749294E-012  0.5930194E+02  0.7816164E-02  0.1266605E+00
        -11   -1    0    0    0    0  0.00000000000E+00  0.00000000000E+00  0.45593999997E+02  0.45594000000E+02  0.51100000000E-03 0.  1.
         11   -1    0    0    0    0 -0.00000000000E+00 -0.00000000000E+00 -0.45593999997E+02  0.45594000000E+02  0.51100000000E-03 0. -1.
    9900012    2    1    2    0    0  0.16708109211E+02  0.27136616989E+02  0.10788228470E+01  0.59301941075E+02  0.49999994615E+02 0.  0.
         12    1    1    2    0    0 -0.16708109211E+02 -0.27136616989E+02 -0.10788228470E+01  0.31886058925E+02  0.00000000000E+00 0. -1.
         11    1    3    3    0    0  0.21500174800E+01 -0.92899060712E+01  0.12543493866E+02  0.15756400877E+02  0.51100000000E-03 0. -1.
        -11    1    3    3    0    0  0.78930411367E+01  0.17994931649E+02  0.20225631529E+01  0.19753693969E+02  0.51100000000E-03 0.  1.
         12    1    3    3    0    0  0.66650505941E+01  0.18431591411E+02 -0.13487234172E+02  0.23791846229E+02  0.00000000000E+00 0. -1.
</event>
<event>
 7    1  0.7749294E-012  0.5930195E+02  0.7816164E-02  0.1266605E+00
        -11   -1    0    0    0    0  0.00000000000E+00  0.00000000000E+00  0.45593999997E+02  0.45594000000E+02  0.51100000000E-03 0.  1.
         11   -1    0    0    0    0 -0.00000000000E+00 -0.00000000000E+00 -0.45593999997E+02  0.45594000000E+02  0.51100000000E-03 0. -1.
    9900012    2    1    2    0    0  0.11231050025E+02 -0.27400179249E+02  0.11824285628E+02  0.59301952297E+02  0.50000015080E+02 0.  0.
         12    1    1    2    0    0 -0.11231050025E+02  0.27400179249E+02 -0.11824285628E+02  0.31886047703E+02  0.00000000000E+00 0. -1.
         11    1    3    3    0    0  0.57462162837E+01  0.22920210594E+01 -0.49446816665E+01  0.79197373164E+01  0.51100000000E-03 0. -1.
        -11    1    3    3    0    0  0.16555441964E+02 -0.31560660796E+02  0.18279818554E+02  0.40053835461E+02  0.51100000000E-03 0.  1.
        -12    1    3    3    0    0 -0.11070608222E+02  0.18684604880E+01 -0.15108512599E+01  0.11328379519E+02  0.00000000000E+00 0.  1.
</event>
<event>
 7    1  0.9019442E-012  0.5930188E+02  0.7816164E-02  0.1266605E+00
        -11   -1    0    0    0    0  0.00000000000E+00  0.00000000000E+00  0.45593999997E+02  0.45594000000E+02  0.51100000000E-03 0. -1.
         11   -1    0    0    0    0 -0.00000000000E+00 -0.00000000000E+00 -0.45593999997E+02  0.45594000000E+02  0.51100000000E-03 0.  1.
    9900012    2    1    2    0    0  0.22834240408E+02 -0.10992809450E+02 -0.19351488625E+02  0.59301882227E+02  0.49999887291E+02 0.  0.
         12    1    1    2    0    0 -0.22834240408E+02  0.10992809450E+02  0.19351488625E+02  0.31886117773E+02  0.00000000000E+00 0. -1.
         11    1    3    3    0    0  0.15801802395E+01 -0.20246265207E+01  0.13764431762E+02  0.14001987864E+02  0.51100000000E-03 0. -1.
        -11    1    3    3    0    0  0.23456079482E+02 -0.35657042504E+01 -0.20324198002E+02  0.31240597564E+02  0.51100000000E-03 0.  1.
        -12    1    3    3    0    0 -0.22020193129E+01 -0.54024786784E+01 -0.12791722385E+02  0.14059296800E+02  0.00000000000E+00 0.  1.
</event>
<event>
 7    1  0.7749294E-012  0.5930191E+02  0.7816164E-02  0.1266605E+00
        -11   -1    0    0    0    0  0.00000000000E+00  0.00000000000E+00  0.45593999997E+02  0.45594000000E+02  0.51100000000E-03 0.  1.
         11   -1    0    0    0    0 -0.00000000000E+00 -0.00000000000E+00 -0.45593999997E+02  0.45594000000E+02  0.51100000000E-03 0. -1.
    9900012    2    1    2    0    0 -0.20067692060E+02 -0.25384707344E+01  0.24648867479E+02  0.59301909517E+02  0.49999937061E+02 0.  0.
         12    1    1    2    0    0  0.20067692060E+02  0.25384707344E+01 -0.24648867479E+02  0.31886090483E+02  0.00000000000E+00 0. -1.
         11    1    3    3    0    0  0.21032061798E+01 -0.21456831129E+02  0.73941342763E+01  0.22792373731E+02  0.51100000000E-03 0. -1.
        -11    1    3    3    0    0 -0.14182196196E+02  0.18490451431E+02  0.89071252857E+01  0.24947311763E+02  0.51100000000E-03 0.  1.
         12    1    3    3    0    0 -0.79887020439E+01  0.42790896351E+00  0.83476079168E+01  0.11562224023E+02  0.00000000000E+00 0. -1.
</event>
<event>
 7    1  0.7749294E-012  0.5930194E+02  0.7816164E-02  0.1266605E+00
        -11   -1    0    0    0    0  0.00000000000E+00  0.00000000000E+00  0.45593999997E+02  0.45594000000E+02  0.51100000000E-03 0.  1.
         11   -1    0    0    0    0 -0.00000000000E+00 -0.00000000000E+00 -0.45593999997E+02  0.45594000000E+02  0.51100000000E-03 0. -1.
    9900012    2    1    2    0    0 -0.51863809456E+00  0.11887621218E+02  0.29582703255E+02  0.59301939479E+02  0.49999991704E+02 0.  0.
         12    1    1    2    0    0  0.51863809456E+00 -0.11887621218E+02 -0.29582703255E+02  0.31886060521E+02  0.00000000000E+00 0. -1.
         11    1    3    3    0    0  0.44687683591E+01 -0.10656868132E+01  0.11994960953E+01  0.47480912138E+01  0.51100000000E-03 0. -1.
        -11    1    3    3    0    0 -0.24023070023E+02  0.54500207693E+01  0.22246994879E+02  0.33192460004E+02  0.51100000000E-03 0.  1.
        -12    1    3    3    0    0  0.19035663570E+02  0.75032872616E+01  0.61362122813E+01  0.21361388261E+02  0.00000000000E+00 0.  1.
</event>
<event>
 7    1  0.7749294E-012  0.5930194E+02  0.7816164E-02  0.1266605E+00
        -11   -1    0    0    0    0  0.00000000000E+00  0.00000000000E+00  0.45593999997E+02  0.45594000000E+02  0.51100000000E-03 0. -1.
         11   -1    0    0    0    0 -0.00000000000E+00 -0.00000000000E+00 -0.45593999997E+02  0.45594000000E+02  0.51100000000E-03 0.  1.
    9900012    2    1    2    0    0  0.19364856837E+01  0.60513666005E+01 -0.31246628780E+02  0.59301939964E+02  0.49999992589E+02 0.  0.
         12    1    1    2    0    0 -0.19364856837E+01 -0.60513666005E+01  0.31246628780E+02  0.31886060036E+02  0.00000000000E+00 0. -1.
         11    1    3    3    0    0  0.17419461297E+02  0.10511084313E+02 -0.16714299078E-01  0.20345043744E+02  0.51100000000E-03 0. -1.
        -11    1    3    3    0    0 -0.12905141969E+02  0.41796070723E+01 -0.13900700224E+02  0.19422699903E+02  0.51100000000E-03 0.  1.
         12    1    3    3    0    0 -0.25778336434E+01 -0.86393247850E+01 -0.17329214256E+02  0.19534196318E+02  0.00000000000E+00 0. -1.
</event>
<event>
 7    1  0.7749294E-012  0.5930192E+02  0.7816164E-02  0.1266605E+00
        -11   -1    0    0    0    0  0.00000000000E+00  0.00000000000E+00  0.45593999997E+02  0.45594000000E+02  0.51100000000E-03 0.  1.
         11   -1    0    0    0    0 -0.00000000000E+00 -0.00000000000E+00 -0.45593999997E+02  0.45594000000E+02  0.51100000000E-03 0. -1.
    9900012    2    1    2    0    0 -0.28310680404E+02 -0.14670629683E+02  0.21606698757E-02  0.59301921456E+02  0.49999958835E+02 0.  0.
         12    1    1    2    0    0  0.28310680404E+02  0.14670629683E+02 -0.21606698757E-02  0.31886078544E+02  0.00000000000E+00 0. -1.
         11    1    3    3    0    0 -0.33736504707E+02 -0.78154750238E+01 -0.15859561212E+02  0.38088831458E+02  0.51100000000E-03 0. -1.
        -11    1    3    3    0    0 -0.19602952034E+01 -0.44732294361E+01  0.19020483551E+01  0.52412142753E+01  0.51100000000E-03 0.  1.
         12    1    3    3    0    0  0.73861195061E+01 -0.23819252226E+01  0.13959673527E+02  0.15971875723E+02  0.00000000000E+00 0. -1.
</event>
<event>
 7    1  0.7749294E-012  0.5930195E+02  0.7816164E-02  0.1266605E+00
        -11   -1    0    0    0    0  0.00000000000E+00  0.00000000000E+00  0.45593999997E+02  0.45594000000E+02  0.51100000000E-03 0.  1.
         11   -1    0    0    0    0 -0.00000000000E+00 -0.00000000000E+00 -0.45593999997E+02  0.45594000000E+02  0.51100000000E-03 0. -1.
    9900012    2    1    2    0    0 -0.21393578719E+02  0.48052289780E+01  0.23150482927E+02  0.59301948258E+02  0.50000007715E+02 0.  0.
         12    1    1    2    0    0  0.21393578719E+02 -0.48052289780E+01 -0.23150482927E+02  0.31886051742E+02  0.00000000000E+00 0. -1.
         11    1    3    3    0    0  0.53111835426E+01 -0.71314543822E+01 -0.15203092663E+01  0.90209563105E+01  0.51100000000E-03 0. -1.
        -11    1    3    3    0    0 -0.20330755004E+02  0.43424871215E+01  0.31853929112E+02  0.38037739070E+02  0.51100000000E-03 0.  1.
        -12    1    3    3    0    0 -0.63740072582E+01  0.75941962386E+01 -0.71831369182E+01  0.12243252878E+02  0.00000000000E+00 0.  1.
</event>
<event>
 7    1  0.7749294E-012  0.5930192E+02  0.7816164E-02  0.1266605E+00
        -11   -1    0    0    0    0  0.00000000000E+00  0.00000000000E+00  0.45593999997E+02  0.45594000000E+02  0.51100000000E-03 0.  1.
         11   -1    0    0    0    0 -0.00000000000E+00 -0.00000000000E+00 -0.45593999997E+02  0.45594000000E+02  0.51100000000E-03 0. -1.
    9900012    2    1    2    0    0 -0.15589954227E+02  0.19499604386E+02  0.19835336068E+02  0.59301924655E+02  0.49999964668E+02 0.  0.
         12    1    1    2    0    0  0.15589954227E+02 -0.19499604386E+02 -0.19835336068E+02  0.31886075345E+02  0.00000000000E+00 0. -1.
         11    1    3    3    0    0 -0.14694441114E+02  0.19103109192E+02 -0.49994144091E+01  0.24614010749E+02  0.51100000000E-03 0. -1.
        -11    1    3    3    0    0 -0.10250740401E+02 -0.64610290396E+01  0.91682979880E+01  0.15194744594E+02  0.51100000000E-03 0.  1.
         12    1    3    3    0    0  0.93552272880E+01  0.68575242334E+01  0.15666452489E+02  0.19493169311E+02  0.00000000000E+00 0. -1.
</event>
<event>
 7    1  0.7749294E-012  0.5930194E+02  0.7816164E-02  0.1266605E+00
        -11   -1    0    0    0    0  0.00000000000E+00  0.00000000000E+00  0.45593999997E+02  0.45594000000E+02  0.51100000000E-03 0.  1.
         11   -1    0    0    0    0 -0.00000000000E+00 -0.00000000000E+00 -0.45593999997E+02  0.45594000000E+02  0.51100000000E-03 0. -1.
    9900012    2    1    2    0    0  0.73268425367E+01 -0.30723999298E+02  0.43673902356E+01  0.59301939537E+02  0.49999991809E+02 0.  0.
         12    1    1    2    0    0 -0.73268425367E+01  0.30723999298E+02 -0.43673902356E+01  0.31886060463E+02  0.00000000000E+00 0. -1.
         11    1    3    3    0    0 -0.78650289511E+01 -0.31449577165E+02  0.13164447111E+02  0.34989101907E+02  0.51100000000E-03 0. -1.
        -11    1    3    3    0    0  0.16568008995E+02  0.44347846653E+01 -0.31819087651E+01  0.17443932491E+02  0.51100000000E-03 0.  1.
         12    1    3    3    0    0 -0.13761375073E+01 -0.37092067981E+01 -0.56151481102E+01  0.68689051391E+01  0.00000000000E+00 0. -1.
</event>
<event>
 7    1  0.7749294E-012  0.5930195E+02  0.7816164E-02  0.1266605E+00
        -11   -1    0    0    0    0  0.00000000000E+00  0.00000000000E+00  0.45593999997E+02  0.45594000000E+02  0.51100000000E-03 0.  1.
         11   -1    0    0    0    0 -0.00000000000E+00 -0.00000000000E+00 -0.45593999997E+02  0.45594000000E+02  0.51100000000E-03 0. -1.
    9900012    2    1    2    0    0  0.16299307135E+02  0.25395933652E+02 -0.10300442682E+02  0.59301953230E+02  0.50000016783E+02 0.  0.
         12    1    1    2    0    0 -0.16299307135E+02 -0.25395933652E+02  0.10300442682E+02  0.31886046770E+02  0.00000000000E+00 0. -1.
         11    1    3    3    0    0  0.13881129920E+02  0.93597844741E+01 -0.27032380442E+02  0.31796869749E+02  0.51100000000E-03 0. -1.
        -11    1    3    3    0    0  0.49588807180E+00  0.21426150211E+01  0.12731215300E+02  0.12919773504E+02  0.51100000000E-03 0.  1.
        -12    1    3    3    0    0  0.19222891440E+01  0.13893534157E+02  0.40007224600E+01  0.14585309977E+02  0.00000000000E+00 0.  1.
</event>
<event>
 7    1  0.7749294E-012  0.5930196E+02  0.7816164E-02  0.1266605E+00
        -11   -1    0    0    0    0  0.00000000000E+00  0.00000000000E+00  0.45593999997E+02  0.45594000000E+02  0.51100000000E-03 0.  1.
         11   -1    0    0    0    0 -0.00000000000E+00 -0.00000000000E+00 -0.45593999997E+02  0.45594000000E+02  0.51100000000E-03 0. -1.
    9900012    2    1    2    0    0  0.16657245535E+02 -0.22442807461E+02  0.15348488619E+02  0.59301960132E+02  0.50000029371E+02 0.  0.
         12    1    1    2    0    0 -0.16657245535E+02  0.22442807461E+02 -0.15348488619E+02  0.31886039868E+02  0.00000000000E+00 0. -1.
         11    1    3    3    0    0  0.58905638903E+01 -0.16474478644E+02 -0.91354470007E+01  0.19737365116E+02  0.51100000000E-03 0. -1.
        -11    1    3    3    0    0  0.64358537919E+01 -0.15253296399E+02  0.24192847930E+02  0.29315135277E+02  0.51100000000E-03 0.  1.
        -12    1    3    3    0    0  0.43308278531E+01  0.92849675830E+01  0.29108768981E+00  0.10249459740E+02  0.00000000000E+00 0.  1.
</event>
<event>
 7    1  0.7749294E-012  0.5930193E+02  0.7816164E-02  0.1266605E+00
        -11   -1    0    0    0    0  0.00000000000E+00  0.00000000000E+00  0.45593999997E+02  0.45594000000E+02  0.51100000000E-03 0.  1.
         11   -1    0    0    0    0 -0.00000000000E+00 -0.00000000000E+00 -0.45593999997E+02  0.45594000000E+02  0.51100000000E-03 0. -1.
    9900012    2    1    2    0    0  0.20695042114E+02 -0.20657181458E+02  0.12716810406E+02  0.59301934379E+02  0.49999982403E+02 0.  0.
         12    1    1    2    0    0 -0.20695042114E+02  0.20657181458E+02 -0.12716810406E+02  0.31886065621E+02  0.00000000000E+00 0. -1.
         11    1    3    3    0    0 -0.92307881924E+01 -0.14446523269E+02  0.22520661950E+01  0.17291075375E+02  0.51100000000E-03 0. -1.
        -11    1    3    3    0    0  0.17708473939E+02  0.83176345870E+01  0.12024556831E+02  0.22964386811E+02  0.51100000000E-03 0.  1.
        -12    1    3    3    0    0  0.12217356367E+02 -0.14528292777E+02 -0.15598126195E+01  0.19046472193E+02  0.00000000000E+00 0.  1.
</event>
<event>
 7    1  0.7749294E-012  0.5930193E+02  0.7816164E-02  0.1266605E+00
        -11   -1    0    0    0    0  0.00000000000E+00  0.00000000000E+00  0.45593999997E+02  0.45594000000E+02  0.51100000000E-03 0. -1.
         11   -1    0    0    0    0 -0.00000000000E+00 -0.00000000000E+00 -0.45593999997E+02  0.45594000000E+02  0.51100000000E-03 0.  1.
    9900012    2    1    2    0    0  0.10731839759E+02 -0.28263339723E+02  0.10135716220E+02  0.59301929370E+02  0.49999973268E+02 0.  0.
         12    1    1    2    0    0 -0.10731839759E+02  0.28263339723E+02 -0.10135716220E+02  0.31886070630E+02  0.00000000000E+00 0. -1.
         11    1    3    3    0    0 -0.12732897828E+02 -0.78136580712E-02  0.20627214325E+01  0.12898897942E+02  0.51100000000E-03 0. -1.
        -11    1    3    3    0    0  0.15850745354E+01 -0.14318508287E+02  0.13675670720E+02  0.19863436529E+02  0.51100000000E-03 0.  1.
         12    1    3    3    0    0  0.21879663051E+02 -0.13937017779E+02 -0.56026759320E+01  0.26539594899E+02  0.00000000000E+00 0. -1.
</event>
<event>
 7    1  0.7749294E-012  0.5930192E+02  0.7816164E-02  0.1266605E+00
        -11   -1    0    0    0    0  0.00000000000E+00  0.00000000000E+00  0.45593999997E+02  0.45594000000E+02  0.51100000000E-03 0.  1.
         11   -1    0    0    0    0 -0.00000000000E+00 -0.00000000000E+00 -0.45593999997E+02  0.45594000000E+02  0.51100000000E-03 0. -1.
    9900012    2    1    2    0    0  0.15968860046E+02 -0.73433110399E+01  0.26604384415E+02  0.59301921874E+02  0.49999959596E+02 0.  0.
         12    1    1    2    0    0 -0.15968860046E+02  0.73433110399E+01 -0.26604384415E+02  0.31886078126E+02  0.00000000000E+00 0. -1.
         11    1    3    3    0    0  0.55366080552E+01 -0.11257468485E+02  0.80224750685E+01  0.14891095727E+02  0.51100000000E-03 0. -1.
        -11    1    3    3    0    0 -0.46904874687E+01  0.18411055526E+02  0.11916834075E+02  0.22427183794E+02  0.51100000000E-03 0.  1.
        -12    1    3    3    0    0  0.15122739460E+02 -0.14496898081E+02  0.66650752711E+01  0.21983642353E+02  0.00000000000E+00 0.  1.
</event>
<event>
 7    1  0.7749294E-012  0.5930195E+02  0.7816164E-02  0.1266605E+00
        -11   -1    0    0    0    0  0.00000000000E+00  0.00000000000E+00  0.45593999997E+02  0.45594000000E+02  0.51100000000E-03 0.  1.
         11   -1    0    0    0    0 -0.00000000000E+00 -0.00000000000E+00 -0.45593999997E+02  0.45594000000E+02  0.51100000000E-03 0. -1.
    9900012    2    1    2    0    0 -0.12855541653E+02  0.23295239436E+01  0.29086573378E+02  0.59301946875E+02  0.50000005193E+02 0.  0.
         12    1    1    2    0    0  0.12855541653E+02 -0.23295239436E+01 -0.29086573378E+02  0.31886053125E+02  0.00000000000E+00 0. -1.
         11    1    3    3    0    0  0.15075281938E+02 -0.12288451743E+02  0.88427578434E+01  0.21365030735E+02  0.51100000000E-03 0. -1.
        -11    1    3    3    0    0 -0.11242326468E+02  0.78942584830E+01  0.60053024843E+01  0.14992427409E+02  0.51100000000E-03 0.  1.
         12    1    3    3    0    0 -0.16688497123E+02  0.67237172037E+01  0.14238513050E+02  0.22944488732E+02  0.00000000000E+00 0. -1.
</event>
<event>
 7    1  0.7749294E-012  0.5930193E+02  0.7816164E-02  0.1266605E+00
        -11   -1    0    0    0    0  0.00000000000E+00  0.00000000000E+00  0.45593999997E+02  0.45594000000E+02  0.51100000000E-03 0.  1.
         11   -1    0    0    0    0 -0.00000000000E+00 -0.00000000000E+00 -0.45593999997E+02  0.45594000000E+02  0.51100000000E-03 0. -1.
    9900012    2    1    2    0    0  0.14552305975E+02  0.49536017947E+01  0.27935881703E+02  0.59301933035E+02  0.49999979953E+02 0.  0.
         12    1    1    2    0    0 -0.14552305975E+02 -0.49536017947E+01 -0.27935881703E+02  0.31886066965E+02  0.00000000000E+00 0. -1.
         11    1    3    3    0    0  0.16255791608E+01 -0.33992893289E+01 -0.26817540845E+01  0.46248762989E+01  0.51100000000E-03 0. -1.
        -11    1    3    3    0    0  0.11851261228E+01  0.24633576248E+02  0.21124258290E+02  0.32472325005E+02  0.51100000000E-03 0.  1.
        -12    1    3    3    0    0  0.11741600692E+02 -0.16280685125E+02  0.94933774982E+01  0.22204731731E+02  0.00000000000E+00 0.  1.
</event>
<event>
 7    1  0.7749294E-012  0.5930197E+02  0.7816164E-02  0.1266605E+00
        -11   -1    0    0    0    0  0.00000000000E+00  0.00000000000E+00  0.45593999997E+02  0.45594000000E+02  0.51100000000E-03 0. -1.
         11   -1    0    0    0    0 -0.00000000000E+00 -0.00000000000E+00 -0.45593999997E+02  0.45594000000E+02  0.51100000000E-03 0.  1.
    9900012    2    1    2    0    0  0.36188416460E+01 -0.31163193163E+02 -0.56989704600E+01  0.59301970343E+02  0.50000047993E+02 0.  0.
         12    1    1    2    0    0 -0.36188416460E+01  0.31163193163E+02  0.56989704600E+01  0.31886029657E+02  0.00000000000E+00 0. -1.
         11    1    3    3    0    0  0.54716986357E+01 -0.12047510751E+02 -0.16081314463E+02  0.20825241329E+02  0.51100000000E-03 0. -1.
        -11    1    3    3    0    0 -0.10639326842E+02  0.45493844516E+01  0.52972910898E+01  0.12726093969E+02  0.51100000000E-03 0.  1.
        -12    1    3    3    0    0  0.87864698527E+01 -0.23665066864E+02  0.50850529136E+01  0.25750635046E+02  0.00000000000E+00 0.  1.
</event>
<event>
 7    1  0.7749294E-012  0.5930192E+02  0.7816164E-02  0.1266605E+00
        -11   -1    0    0    0    0  0.00000000000E+00  0.00000000000E+00  0.45593999997E+02  0.45594000000E+02  0.51100000000E-03 0. -1.
         11   -1    0    0    0    0 -0.00000000000E+00 -0.00000000000E+00 -0.45593999997E+02  0.45594000000E+02  0.51100000000E-03 0.  1.
    9900012    2    1    2    0    0 -0.20288629866E+02 -0.10308221839E+02 -0.22334591709E+02  0.59301922691E+02  0.49999961088E+02 0.  0.
         12    1    1    2    0    0  0.20288629866E+02  0.10308221839E+02  0.22334591709E+02  0.31886077309E+02  0.00000000000E+00 0. -1.
         11    1    3    3    0    0 -0.18158213421E+02 -0.14134491348E+02 -0.31726371001E+02  0.39192692909E+02  0.51100000000E-03 0.  1.
        -11    1    3    3    0    0  0.24814455241E+01  0.87096378852E+01  0.98453084884E+01  0.13377049879E+02  0.51100000000E-03 0. -1.
         12    1    3    3    0    0 -0.46118619691E+01 -0.48833683758E+01 -0.45352919651E+00  0.67321799031E+01  0.00000000000E+00 0. -1.
</event>
<event>
 7    1  0.7749294E-012  0.5930195E+02  0.7816164E-02  0.1266605E+00
        -11   -1    0    0    0    0  0.00000000000E+00  0.00000000000E+00  0.45593999997E+02  0.45594000000E+02  0.51100000000E-03 0. -1.
         11   -1    0    0    0    0 -0.00000000000E+00 -0.00000000000E+00 -0.45593999997E+02  0.45594000000E+02  0.51100000000E-03 0.  1.
    9900012    2    1    2    0    0  0.31009779564E+01  0.27448991389E+02 -0.15926617561E+02  0.59301947571E+02  0.50000006461E+02 0.  0.
         12    1    1    2    0    0 -0.31009779564E+01 -0.27448991389E+02  0.15926617561E+02  0.31886052429E+02  0.00000000000E+00 0. -1.
         11    1    3    3    0    0  0.16101685791E+02  0.18587957624E+02 -0.13050552824E+02  0.27840498975E+02  0.51100000000E-03 0.  1.
        -11    1    3    3    0    0 -0.11139298395E+02  0.15735884179E+02 -0.97135177716E+01  0.21588294221E+02  0.51100000000E-03 0. -1.
         12    1    3    3    0    0 -0.18614094398E+01 -0.68748504133E+01  0.68374530338E+01  0.98731543743E+01  0.00000000000E+00 0. -1.
</event>
<event>
 7    1  0.7749294E-012  0.5930196E+02  0.7816164E-02  0.1266605E+00
        -11   -1    0    0    0    0  0.00000000000E+00  0.00000000000E+00  0.45593999997E+02  0.45594000000E+02  0.51100000000E-03 0. -1.
         11   -1    0    0    0    0 -0.00000000000E+00 -0.00000000000E+00 -0.45593999997E+02  0.45594000000E+02  0.51100000000E-03 0.  1.
    9900012    2    1    2    0    0 -0.31194307298E+02 -0.26237600022E+01 -0.60622113776E+01  0.59301963383E+02  0.50000035299E+02 0.  0.
         12    1    1    2    0    0  0.31194307298E+02  0.26237600022E+01  0.60622113776E+01  0.31886036617E+02  0.00000000000E+00 0. -1.
         11    1    3    3    0    0  0.68568100681E+01  0.14021851830E+02  0.11769881679E+01  0.15652906262E+02  0.51100000000E-03 0.  1.
        -11    1    3    3    0    0 -0.12595277866E+02 -0.19167685647E+01  0.18335966002E+01  0.12871561794E+02  0.51100000000E-03 0. -1.
         12    1    3    3    0    0 -0.25455839501E+02 -0.14728843267E+02 -0.90727961457E+01  0.30777495327E+02  0.00000000000E+00 0. -1.
</event>
<event>
 7    1  0.7749294E-012  0.5930193E+02  0.7816164E-02  0.1266605E+00
        -11   -1    0    0    0    0  0.00000000000E+00  0.00000000000E+00  0.45593999997E+02  0.45594000000E+02  0.51100000000E-03 0.  1.
         11   -1    0    0    0    0 -0.00000000000E+00 -0.00000000000E+00 -0.45593999997E+02  0.45594000000E+02  0.51100000000E-03 0. -1.
    9900012    2    1    2    0    0  0.64201910073E+01  0.25129231552E+02  0.18547889118E+02  0.59301932169E+02  0.49999978372E+02 0.  0.
         12    1    1    2    0    0 -0.64201910073E+01 -0.25129231552E+02 -0.18547889118E+02  0.31886067831E+02  0.00000000000E+00 0. -1.
         11    1    3    3    0    0  0.11843795345E+02  0.31952070588E+02  0.14494815749E+02  0.37031202882E+02  0.51100000000E-03 0.  1.
        -11    1    3    3    0    0  0.97166743761E+00 -0.10184397909E+02  0.89086544838E+01  0.13565773968E+02  0.51100000000E-03 0. -1.
         12    1    3    3    0    0 -0.63952717749E+01  0.33615588739E+01 -0.48555811149E+01  0.87049553187E+01  0.00000000000E+00 0. -1.
</event>
<event>
 7    1  0.7749294E-012  0.5930210E+02  0.7816164E-02  0.1266604E+00
        -11   -1    0    0    0    0  0.00000000000E+00  0.00000000000E+00  0.45593999997E+02  0.45594000000E+02  0.51100000000E-03 0.  1.
         11   -1    0    0    0    0 -0.00000000000E+00 -0.00000000000E+00 -0.45593999997E+02  0.45594000000E+02  0.51100000000E-03 0. -1.
    9900012    2    1    2    0    0 -0.31843804827E+02 -0.11350748179E+01 -0.11808741324E+01  0.59302097716E+02  0.50000280290E+02 0.  0.
         12    1    1    2    0    0  0.31843804827E+02  0.11350748179E+01  0.11808741324E+01  0.31885902284E+02  0.00000000000E+00 0. -1.
         11    1    3    3    0    0 -0.81210137792E+01 -0.59774192978E+01  0.18380581772E+01  0.10249822652E+02  0.51100000000E-03 0.  1.
        -11    1    3    3    0    0  0.12095560620E+02  0.46062827266E+01 -0.27512246633E+01  0.13232145127E+02  0.51100000000E-03 0. -1.
        -12    1    3    3    0    0 -0.35818351668E+02  0.23606175343E+00 -0.26770764638E+00  0.35820129937E+02  0.00000000000E+00 0.  1.
</event>
<event>
 7    1  0.7749294E-012  0.5930196E+02  0.7816164E-02  0.1266605E+00
        -11   -1    0    0    0    0  0.00000000000E+00  0.00000000000E+00  0.45593999997E+02  0.45594000000E+02  0.51100000000E-03 0. -1.
         11   -1    0    0    0    0 -0.00000000000E+00 -0.00000000000E+00 -0.45593999997E+02  0.45594000000E+02  0.51100000000E-03 0.  1.
    9900012    2    1    2    0    0 -0.23186414191E+02 -0.14099027203E+02 -0.16742975453E+02  0.59301959196E+02  0.50000027664E+02 0.  0.
         12    1    1    2    0    0  0.23186414191E+02  0.14099027203E+02  0.16742975453E+02  0.31886040804E+02  0.00000000000E+00 0. -1.
         11    1    3    3    0    0  0.23564547487E+01  0.62412116224E+00  0.33111627431E+01  0.41117156006E+01  0.51100000000E-03 0. -1.
        -11    1    3    3    0    0 -0.24971218308E+02 -0.25245513597E+02 -0.36543654839E+01  0.35696667742E+02  0.51100000000E-03 0.  1.
        -12    1    3    3    0    0 -0.57165063225E+00  0.10522365232E+02 -0.16399772713E+02  0.19493575853E+02  0.00000000000E+00 0.  1.
</event>
<event>
 7    1  0.7749294E-012  0.5930194E+02  0.7816164E-02  0.1266605E+00
        -11   -1    0    0    0    0  0.00000000000E+00  0.00000000000E+00  0.45593999997E+02  0.45594000000E+02  0.51100000000E-03 0.  1.
         11   -1    0    0    0    0 -0.00000000000E+00 -0.00000000000E+00 -0.45593999997E+02  0.45594000000E+02  0.51100000000E-03 0. -1.
    9900012    2    1    2    0    0 -0.88558597019E+01  0.16866002726E+02  0.25570145010E+02  0.59301943253E+02  0.49999998587E+02 0.  0.
         12    1    1    2    0    0  0.88558597019E+01 -0.16866002726E+02 -0.25570145010E+02  0.31886056747E+02  0.00000000000E+00 0. -1.
         11    1    3    3    0    0 -0.54508804710E+01 -0.15965673013E+02  0.59021790607E+01  0.17873179084E+02  0.51100000000E-03 0. -1.
        -11    1    3    3    0    0 -0.92824064754E+01  0.19900806216E+02  0.14496878492E+02  0.26312822811E+02  0.51100000000E-03 0.  1.
         12    1    3    3    0    0  0.58774272446E+01  0.12930869523E+02  0.51710874575E+01  0.15115941358E+02  0.00000000000E+00 0. -1.
</event>
<event>
 7    1  0.7749294E-012  0.5930195E+02  0.7816164E-02  0.1266605E+00
        -11   -1    0    0    0    0  0.00000000000E+00  0.00000000000E+00  0.45593999997E+02  0.45594000000E+02  0.51100000000E-03 0. -1.
         11   -1    0    0    0    0 -0.00000000000E+00 -0.00000000000E+00 -0.45593999997E+02  0.45594000000E+02  0.51100000000E-03 0.  1.
    9900012    2    1    2    0    0  0.25485907572E+02 -0.10366131395E+02 -0.16116197519E+02  0.59301953093E+02  0.50000016532E+02 0.  0.
         12    1    1    2    0    0 -0.25485907572E+02  0.10366131395E+02  0.16116197519E+02  0.31886046907E+02  0.00000000000E+00 0. -1.
         11    1    3    3    0    0 -0.49793443283E+01  0.66672473028E+01  0.74793469933E+01  0.11188685725E+02  0.51100000000E-03 0. -1.
        -11    1    3    3    0    0  0.32936176047E+02 -0.17279844308E+02 -0.25403755404E+02  0.45041486441E+02  0.51100000000E-03 0.  1.
        -12    1    3    3    0    0 -0.24709241466E+01  0.24646560953E+00  0.18082108918E+01  0.30717809271E+01  0.00000000000E+00 0.  1.
</event>
<event>
 7    1  0.7749294E-012  0.5930208E+02  0.7816164E-02  0.1266604E+00
        -11   -1    0    0    0    0  0.00000000000E+00  0.00000000000E+00  0.45593999997E+02  0.45594000000E+02  0.51100000000E-03 0. -1.
         11   -1    0    0    0    0 -0.00000000000E+00 -0.00000000000E+00 -0.45593999997E+02  0.45594000000E+02  0.51100000000E-03 0.  1.
    9900012    2    1    2    0    0  0.24359518641E+02  0.20569904170E+02  0.45262679367E+00  0.59302078702E+02  0.50000245614E+02 0.  0.
         12    1    1    2    0    0 -0.24359518641E+02 -0.20569904170E+02 -0.45262679367E+00  0.31885921298E+02  0.00000000000E+00 0. -1.
         11    1    3    3    0    0 -0.63002612364E+01  0.15480449394E+02  0.24489971404E+01  0.16891867639E+02  0.51100000000E-03 0. -1.
        -11    1    3    3    0    0  0.29941909149E+02  0.26318483198E+01 -0.11790355502E+02  0.32287103186E+02  0.51100000000E-03 0.  1.
        -12    1    3    3    0    0  0.71787072906E+00  0.24576064559E+01  0.97939851550E+01  0.10123107877E+02  0.00000000000E+00 0.  1.
</event>
<event>
 7    1  0.7749294E-012  0.5930194E+02  0.7816164E-02  0.1266605E+00
        -11   -1    0    0    0    0  0.00000000000E+00  0.00000000000E+00  0.45593999997E+02  0.45594000000E+02  0.51100000000E-03 0.  1.
         11   -1    0    0    0    0 -0.00000000000E+00 -0.00000000000E+00 -0.45593999997E+02  0.45594000000E+02  0.51100000000E-03 0. -1.
    9900012    2    1    2    0    0 -0.13559972259E+02  0.14725530159E+02  0.24819476629E+02  0.59301944956E+02  0.50000001694E+02 0.  0.
         12    1    1    2    0    0  0.13559972259E+02 -0.14725530159E+02 -0.24819476629E+02  0.31886055044E+02  0.00000000000E+00 0. -1.
         11    1    3    3    0    0  0.48280812265E+01  0.10487188342E+02  0.60706302243E+01  0.13043927293E+02  0.51100000000E-03 0. -1.
        -11    1    3    3    0    0 -0.24879403183E+02  0.50318328173E+01  0.26107763672E+02  0.36413175754E+02  0.51100000000E-03 0.  1.
        -12    1    3    3    0    0  0.64913496977E+01 -0.79349100025E+00 -0.73589172679E+01  0.98448419094E+01  0.00000000000E+00 0.  1.
</event>
<event>
 7    1  0.7749294E-012  0.5930195E+02  0.7816164E-02  0.1266605E+00
        -11   -1    0    0    0    0  0.00000000000E+00  0.00000000000E+00  0.45593999997E+02  0.45594000000E+02  0.51100000000E-03 0.  1.
         11   -1    0    0    0    0 -0.00000000000E+00 -0.00000000000E+00 -0.45593999997E+02  0.45594000000E+02  0.51100000000E-03 0. -1.
    9900012    2    1    2    0    0  0.16239476770E+02  0.13447398445E+02  0.23920020133E+02  0.59301945151E+02  0.50000002048E+02 0.  0.
         12    1    1    2    0    0 -0.16239476770E+02 -0.13447398445E+02 -0.23920020133E+02  0.31886054849E+02  0.00000000000E+00 0. -1.
         11    1    3    3    0    0  0.20058097237E+02  0.57808496346E+01  0.11269624895E+02  0.23722350912E+02  0.51100000000E-03 0. -1.
        -11    1    3    3    0    0 -0.45337596597E+01  0.12948958760E+02  0.21349133547E+02  0.25377470581E+02  0.51100000000E-03 0.  1.
        -12    1    3    3    0    0  0.71513919247E+00 -0.52824099503E+01 -0.86987383090E+01  0.10202123657E+02  0.00000000000E+00 0.  1.
</event>
<event>
 7    1  0.7749294E-012  0.5930187E+02  0.7816164E-02  0.1266605E+00
        -11   -1    0    0    0    0  0.00000000000E+00  0.00000000000E+00  0.45593999997E+02  0.45594000000E+02  0.51100000000E-03 0.  1.
         11   -1    0    0    0    0 -0.00000000000E+00 -0.00000000000E+00 -0.45593999997E+02  0.45594000000E+02  0.51100000000E-03 0. -1.
    9900012    2    1    2    0    0 -0.17051865064E+02  0.12572783020E+02  0.23830324266E+02  0.59301869321E+02  0.49999863753E+02 0.  0.
         12    1    1    2    0    0  0.17051865064E+02 -0.12572783020E+02 -0.23830324266E+02  0.31886130679E+02  0.00000000000E+00 0. -1.
         11    1    3    3    0    0  0.10297685913E+02 -0.35726166448E+01 -0.56516328053E+00  0.10914455307E+02  0.51100000000E-03 0. -1.
        -11    1    3    3    0    0 -0.20747007476E+02  0.10190003482E+02  0.30003835772E+02  0.37874855134E+02  0.51100000000E-03 0.  1.
         12    1    3    3    0    0 -0.66025435018E+01  0.59553961828E+01 -0.56083482250E+01  0.10512558880E+02  0.00000000000E+00 0. -1.
</event>
<event>
 7    1  0.7749294E-012  0.5930195E+02  0.7816164E-02  0.1266605E+00
        -11   -1    0    0    0    0  0.00000000000E+00  0.00000000000E+00  0.45593999997E+02  0.45594000000E+02  0.51100000000E-03 0. -1.
         11   -1    0    0    0    0 -0.00000000000E+00 -0.00000000000E+00 -0.45593999997E+02  0.45594000000E+02  0.51100000000E-03 0.  1.
    9900012    2    1    2    0    0 -0.28556937710E+02 -0.13831925467E+02  0.31463364010E+01  0.59301948406E+02  0.50000007986E+02 0.  0.
         12    1    1    2    0    0  0.28556937710E+02  0.13831925467E+02 -0.31463364010E+01  0.31886051594E+02  0.00000000000E+00 0. -1.
         11    1    3    3    0    0 -0.26509243451E+02 -0.10118984463E+02 -0.15585982591E+02  0.32373703657E+02  0.51100000000E-03 0.  1.
        -11    1    3    3    0    0  0.83141964493E+01  0.65031818996E-01  0.78885263112E+01  0.11461192755E+02  0.51100000000E-03 0. -1.
         12    1    3    3    0    0 -0.10361890708E+02 -0.37779728230E+01  0.10843792681E+02  0.15467051994E+02  0.00000000000E+00 0. -1.
</event>
<event>
 7    1  0.7749294E-012  0.5930192E+02  0.7816164E-02  0.1266605E+00
        -11   -1    0    0    0    0  0.00000000000E+00  0.00000000000E+00  0.45593999997E+02  0.45594000000E+02  0.51100000000E-03 0.  1.
         11   -1    0    0    0    0 -0.00000000000E+00 -0.00000000000E+00 -0.45593999997E+02  0.45594000000E+02  0.51100000000E-03 0. -1.
    9900012    2    1    2    0    0 -0.13241731884E+02 -0.22348622902E+02  0.18491016970E+02  0.59301919691E+02  0.49999955615E+02 0.  0.
         12    1    1    2    0    0  0.13241731884E+02  0.22348622902E+02 -0.18491016970E+02  0.31886080309E+02  0.00000000000E+00 0. -1.
         11    1    3    3    0    0 -0.29319629592E+02 -0.83452469046E+01  0.12713453564E+01  0.30510656246E+02  0.51100000000E-03 0. -1.
        -11    1    3    3    0    0  0.45684142311E+01 -0.23745748472E+01  0.92628924399E+01  0.10597650254E+02  0.51100000000E-03 0.  1.
         12    1    3    3    0    0  0.11509483477E+02 -0.11628801150E+02  0.79567791739E+01  0.18193613190E+02  0.00000000000E+00 0. -1.
</event>
<event>
 7    1  0.7749294E-012  0.5930195E+02  0.7816164E-02  0.1266605E+00
        -11   -1    0    0    0    0  0.00000000000E+00  0.00000000000E+00  0.45593999997E+02  0.45594000000E+02  0.51100000000E-03 0. -1.
         11   -1    0    0    0    0 -0.00000000000E+00 -0.00000000000E+00 -0.45593999997E+02  0.45594000000E+02  0.51100000000E-03 0.  1.
    9900012    2    1    2    0    0 -0.55398452186E+01 -0.14303719491E+02 -0.27954142593E+02  0.59301947181E+02  0.50000005750E+02 0.  0.
         12    1    1    2    0    0  0.55398452186E+01  0.14303719491E+02  0.27954142593E+02  0.31886052819E+02  0.00000000000E+00 0. -1.
         11    1    3    3    0    0  0.44431260198E+01 -0.10833442893E+02 -0.15413412629E+02  0.19356604632E+02  0.51100000000E-03 0. -1.
        -11    1    3    3    0    0 -0.99875602855E+01 -0.12067622223E+02  0.80643963072E+01  0.17618551434E+02  0.51100000000E-03 0.  1.
        -12    1    3    3    0    0  0.45890470441E-02  0.85973456249E+01 -0.20605126271E+02  0.22326791115E+02  0.00000000000E+00 0.  1.
</event>
<event>
 7    1  0.7749294E-012  0.5930196E+02  0.7816164E-02  0.1266605E+00
        -11   -1    0    0    0    0  0.00000000000E+00  0.00000000000E+00  0.45593999997E+02  0.45594000000E+02  0.51100000000E-03 0.  1.
         11   -1    0    0    0    0 -0.00000000000E+00 -0.00000000000E+00 -0.45593999997E+02  0.45594000000E+02  0.51100000000E-03 0. -1.
    9900012    2    1    2    0    0 -0.53803848934E+01  0.10317902888E+02  0.29686902567E+02  0.59301955316E+02  0.50000020586E+02 0.  0.
         12    1    1    2    0    0  0.53803848934E+01 -0.10317902888E+02 -0.29686902567E+02  0.31886044684E+02  0.00000000000E+00 0. -1.
         11    1    3    3    0    0  0.17724888098E+02 -0.84528825516E+01  0.10400288264E+02  0.22221360843E+02  0.51100000000E-03 0. -1.
        -11    1    3    3    0    0 -0.91554746850E+01  0.95069500761E+01  0.14621000835E+02  0.19697169394E+02  0.51100000000E-03 0.  1.
         12    1    3    3    0    0 -0.13949798306E+02  0.92638353631E+01  0.46656134687E+01  0.17383425078E+02  0.00000000000E+00 0. -1.
</event>
<event>
 7    1  0.7749294E-012  0.5930194E+02  0.7816164E-02  0.1266605E+00
        -11   -1    0    0    0    0  0.00000000000E+00  0.00000000000E+00  0.45593999997E+02  0.45594000000E+02  0.51100000000E-03 0.  1.
         11   -1    0    0    0    0 -0.00000000000E+00 -0.00000000000E+00 -0.45593999997E+02  0.45594000000E+02  0.51100000000E-03 0. -1.
    9900012    2    1    2    0    0 -0.46276295005E+01 -0.16718277214E+02  0.26754537014E+02  0.59301937235E+02  0.49999987612E+02 0.  0.
         12    1    1    2    0    0  0.46276295005E+01  0.16718277214E+02 -0.26754537014E+02  0.31886062765E+02  0.00000000000E+00 0. -1.
         11    1    3    3    0    0  0.12215068509E+02 -0.12543543982E+02  0.54732801509E+01  0.18344077796E+02  0.51100000000E-03 0. -1.
        -11    1    3    3    0    0 -0.76472528734E+01 -0.16861864128E+02  0.15854811458E+02  0.24375766347E+02  0.51100000000E-03 0.  1.
         12    1    3    3    0    0 -0.91954451362E+01  0.12687130895E+02  0.54264454043E+01  0.16582093092E+02  0.00000000000E+00 0. -1.
</event>
<event>
 7    1  0.7749294E-012  0.5930198E+02  0.7816164E-02  0.1266605E+00
        -11   -1    0    0    0    0  0.00000000000E+00  0.00000000000E+00  0.45593999997E+02  0.45594000000E+02  0.51100000000E-03 0.  1.
         11   -1    0    0    0    0 -0.00000000000E+00 -0.00000000000E+00 -0.45593999997E+02  0.45594000000E+02  0.51100000000E-03 0. -1.
    9900012    2    1    2    0    0  0.10911788572E+02 -0.96265607240E+01  0.28372174532E+02  0.59301982863E+02  0.50000070826E+02 0.  0.
         12    1    1    2    0    0 -0.10911788572E+02  0.96265607240E+01 -0.28372174532E+02  0.31886017137E+02  0.00000000000E+00 0. -1.
         11    1    3    3    0    0  0.24511318815E+02 -0.13790184704E+02  0.15405963358E+02  0.32067392339E+02  0.51100000000E-03 0. -1.
        -11    1    3    3    0    0 -0.15943003221E+02  0.48437099994E+01  0.16162366780E+02  0.23213422378E+02  0.51100000000E-03 0.  1.
        -12    1    3    3    0    0  0.23434729786E+01 -0.68008601984E+00 -0.31961556066E+01  0.40211681459E+01  0.00000000000E+00 0.  1.
</event>
<event>
 7    1  0.7749294E-012  0.5930192E+02  0.7816164E-02  0.1266605E+00
        -11   -1    0    0    0    0  0.00000000000E+00  0.00000000000E+00  0.45593999997E+02  0.45594000000E+02  0.51100000000E-03 0.  1.
         11   -1    0    0    0    0 -0.00000000000E+00 -0.00000000000E+00 -0.45593999997E+02  0.45594000000E+02  0.51100000000E-03 0. -1.
    9900012    2    1    2    0    0 -0.17753529212E+02  0.26485691632E+02 -0.20645039262E+00  0.59301917104E+02  0.49999950897E+02 0.  0.
         12    1    1    2    0    0  0.17753529212E+02 -0.26485691632E+02  0.20645039262E+00  0.31886082896E+02  0.00000000000E+00 0. -1.
         11    1    3    3    0    0  0.68313023692E+01  0.13847573942E+02 -0.25039630494E+01  0.15642628531E+02  0.51100000000E-03 0. -1.
        -11    1    3    3    0    0 -0.21575518668E+02  0.13601613303E+02  0.15659553169E+02  0.29928723594E+02  0.51100000000E-03 0.  1.
        -12    1    3    3    0    0 -0.30093129128E+01 -0.96349561285E+00 -0.13362040512E+02  0.13730564979E+02  0.00000000000E+00 0.  1.
</event>
<event>
 7    1  0.7749294E-012  0.5930193E+02  0.7816164E-02  0.1266605E+00
        -11   -1    0    0    0    0  0.00000000000E+00  0.00000000000E+00  0.45593999997E+02  0.45594000000E+02  0.51100000000E-03 0.  1.
         11   -1    0    0    0    0 -0.00000000000E+00 -0.00000000000E+00 -0.45593999997E+02  0.45594000000E+02  0.51100000000E-03 0. -1.
    9900012    2    1    2    0    0  0.22855326141E+02 -0.13958367635E+02 -0.17306625451E+02  0.59301933379E+02  0.49999980580E+02 0.  0.
         12    1    1    2    0    0 -0.22855326141E+02  0.13958367635E+02  0.17306625451E+02  0.31886066621E+02  0.00000000000E+00 0. -1.
         11    1    3    3    0    0 -0.38011946213E+00  0.56984434781E+01 -0.45124697955E+01  0.72786765826E+01  0.51100000000E-03 0. -1.
        -11    1    3    3    0    0  0.30016265569E+02 -0.17523970570E+02  0.28157063549E+01  0.34871104740E+02  0.51100000000E-03 0.  1.
        -12    1    3    3    0    0 -0.67808199662E+01 -0.21328405434E+01 -0.15609862010E+02  0.17152152057E+02  0.00000000000E+00 0.  1.
</event>
<event>
 7    1  0.7749294E-012  0.5930192E+02  0.7816164E-02  0.1266605E+00
        -11   -1    0    0    0    0  0.00000000000E+00  0.00000000000E+00  0.45593999997E+02  0.45594000000E+02  0.51100000000E-03 0. -1.
         11   -1    0    0    0    0 -0.00000000000E+00 -0.00000000000E+00 -0.45593999997E+02  0.45594000000E+02  0.51100000000E-03 0.  1.
    9900012    2    1    2    0    0  0.30776433185E+02  0.30138749099E+01 -0.77749405199E+01  0.59301921821E+02  0.49999959500E+02 0.  0.
         12    1    1    2    0    0 -0.30776433185E+02 -0.30138749099E+01  0.77749405199E+01  0.31886078179E+02  0.00000000000E+00 0. -1.
         11    1    3    3    0    0  0.44603955707E+01  0.16108572557E+02 -0.11674644685E+01  0.16755423362E+02  0.51100000000E-03 0. -1.
        -11    1    3    3    0    0  0.17671808338E+02 -0.22702443707E+02 -0.20507765934E+01  0.28842667094E+02  0.51100000000E-03 0.  1.
        -12    1    3    3    0    0  0.86442292762E+01  0.96077460598E+01 -0.45566994579E+01  0.13703831365E+02  0.00000000000E+00 0.  1.
</event>
<event>
 7    1  0.7749294E-012  0.5930178E+02  0.7816164E-02  0.1266605E+00
        -11   -1    0    0    0    0  0.00000000000E+00  0.00000000000E+00  0.45593999997E+02  0.45594000000E+02  0.51100000000E-03 0.  1.
         11   -1    0    0    0    0 -0.00000000000E+00 -0.00000000000E+00 -0.45593999997E+02  0.45594000000E+02  0.51100000000E-03 0. -1.
    9900012    2    1    2    0    0 -0.15337245827E+02  0.97962952001E+01  0.26182673863E+02  0.59301781664E+02  0.49999703886E+02 0.  0.
         12    1    1    2    0    0  0.15337245827E+02 -0.97962952001E+01 -0.26182673863E+02  0.31886218336E+02  0.00000000000E+00 0. -1.
         11    1    3    3    0    0  0.11813745834E+02  0.95317978391E+01  0.84680777532E+01  0.17381832520E+02  0.51100000000E-03 0. -1.
        -11    1    3    3    0    0 -0.16019364573E+02 -0.66466092162E+01  0.22109196048E+02  0.28100071273E+02  0.51100000000E-03 0.  1.
         12    1    3    3    0    0 -0.11131627087E+02  0.69111065772E+01 -0.43945999386E+01  0.13819877871E+02  0.00000000000E+00 0. -1.
</event>
<event>
 7    1  0.7749294E-012  0.5930194E+02  0.7816164E-02  0.1266605E+00
        -11   -1    0    0    0    0  0.00000000000E+00  0.00000000000E+00  0.45593999997E+02  0.45594000000E+02  0.51100000000E-03 0.  1.
         11   -1    0    0    0    0 -0.00000000000E+00 -0.00000000000E+00 -0.45593999997E+02  0.45594000000E+02  0.51100000000E-03 0. -1.
    9900012    2    1    2    0    0 -0.19238759039E+02 -0.36968634397E+01  0.25157980466E+02  0.59301943019E+02  0.49999998160E+02 0.  0.
         12    1    1    2    0    0  0.19238759039E+02  0.36968634397E+01 -0.25157980466E+02  0.31886056981E+02  0.00000000000E+00 0. -1.
         11    1    3    3    0    0 -0.10803376953E+02 -0.12239357751E+02  0.27809798047E+02  0.32247475861E+02  0.51100000000E-03 0. -1.
        -11    1    3    3    0    0  0.64686248947E+01 -0.19460332487E+01 -0.53684086602E+01  0.86284393280E+01  0.51100000000E-03 0.  1.
         12    1    3    3    0    0 -0.14904006981E+02  0.10488527560E+02  0.27165910794E+01  0.18426027829E+02  0.00000000000E+00 0. -1.
</event>
<event>
 7    1  0.7749294E-012  0.5930193E+02  0.7816164E-02  0.1266605E+00
        -11   -1    0    0    0    0  0.00000000000E+00  0.00000000000E+00  0.45593999997E+02  0.45594000000E+02  0.51100000000E-03 0. -1.
         11   -1    0    0    0    0 -0.00000000000E+00 -0.00000000000E+00 -0.45593999997E+02  0.45594000000E+02  0.51100000000E-03 0.  1.
    9900012    2    1    2    0    0  0.21829145057E+02 -0.22380232950E+02  0.62717449456E+01  0.59301934306E+02  0.49999982269E+02 0.  0.
         12    1    1    2    0    0 -0.21829145057E+02  0.22380232950E+02 -0.62717449456E+01  0.31886065694E+02  0.00000000000E+00 0. -1.
         11    1    3    3    0    0  0.92085778578E+01  0.82052773457E+00 -0.30677199522E+01  0.97407431899E+01  0.51100000000E-03 0. -1.
        -11    1    3    3    0    0 -0.83447402308E+01 -0.38815908513E+01  0.17615719954E+02  0.19874984951E+02  0.51100000000E-03 0.  1.
        -12    1    3    3    0    0  0.20965307430E+02 -0.19319169833E+02 -0.82762550562E+01  0.29686206164E+02  0.00000000000E+00 0.  1.
</event>
<event>
 7    1  0.7749294E-012  0.5930195E+02  0.7816164E-02  0.1266605E+00
        -11   -1    0    0    0    0  0.00000000000E+00  0.00000000000E+00  0.45593999997E+02  0.45594000000E+02  0.51100000000E-03 0.  1.
         11   -1    0    0    0    0 -0.00000000000E+00 -0.00000000000E+00 -0.45593999997E+02  0.45594000000E+02  0.51100000000E-03 0. -1.
    9900012    2    1    2    0    0  0.28472074120E+02  0.34466449189E+01  0.13934905530E+02  0.59301953553E+02  0.50000017371E+02 0.  0.
         12    1    1    2    0    0 -0.28472074120E+02 -0.34466449189E+01 -0.13934905530E+02  0.31886046447E+02  0.00000000000E+00 0. -1.
         11    1    3    3    0    0  0.97873342062E+01  0.15651742409E+02 -0.13407229966E+02  0.22814968045E+02  0.51100000000E-03 0. -1.
        -11    1    3    3    0    0  0.13714665156E+02 -0.13022056810E+02  0.19483323179E+02  0.27152640502E+02  0.51100000000E-03 0.  1.
        -12    1    3    3    0    0  0.49700747583E+01  0.81695931978E+00  0.78588123174E+01  0.93343450051E+01  0.00000000000E+00 0.  1.
</event>
<event>
 7    1  0.7749294E-012  0.5930194E+02  0.7816164E-02  0.1266605E+00
        -11   -1    0    0    0    0  0.00000000000E+00  0.00000000000E+00  0.45593999997E+02  0.45594000000E+02  0.51100000000E-03 0.  1.
         11   -1    0    0    0    0 -0.00000000000E+00 -0.00000000000E+00 -0.45593999997E+02  0.45594000000E+02  0.51100000000E-03 0. -1.
    9900012    2    1    2    0    0 -0.24355366028E+02 -0.13242270381E+02  0.15753696821E+02  0.59301944384E+02  0.50000000650E+02 0.  0.
         12    1    1    2    0    0  0.24355366028E+02  0.13242270381E+02 -0.15753696821E+02  0.31886055616E+02  0.00000000000E+00 0. -1.
         11    1    3    3    0    0  0.12155047144E+02 -0.44524640698E+01 -0.40972144957E-01  0.12944932845E+02  0.51100000000E-03 0. -1.
        -11    1    3    3    0    0 -0.13757480257E+02 -0.11261097709E+02  0.15314580377E+02  0.23465228680E+02  0.51100000000E-03 0.  1.
         12    1    3    3    0    0 -0.22752932915E+02  0.24712913976E+01  0.48008858850E+00  0.22891782859E+02  0.00000000000E+00 0. -1.
</event>
<event>
 7    1  0.7749294E-012  0.5930192E+02  0.7816164E-02  0.1266605E+00
        -11   -1    0    0    0    0  0.00000000000E+00  0.00000000000E+00  0.45593999997E+02  0.45594000000E+02  0.51100000000E-03 0.  1.
         11   -1    0    0    0    0 -0.00000000000E+00 -0.00000000000E+00 -0.45593999997E+02  0.45594000000E+02  0.51100000000E-03 0. -1.
    9900012    2    1    2    0    0 -0.31810264587E+02 -0.17335290353E+00 -0.21907526249E+01  0.59301915553E+02  0.49999948069E+02 0.  0.
         12    1    1    2    0    0  0.31810264587E+02  0.17335290353E+00  0.21907526249E+01  0.31886084447E+02  0.00000000000E+00 0. -1.
         11    1    3    3    0    0 -0.30291359617E+02 -0.62827195664E+01  0.14310906213E+02  0.34085789847E+02  0.51100000000E-03 0. -1.
        -11    1    3    3    0    0 -0.46178587621E+01  0.11204160908E+02 -0.69905722993E+01  0.13990208810E+02  0.51100000000E-03 0.  1.
         12    1    3    3    0    0  0.30989537924E+01 -0.50947942452E+01 -0.95110865389E+01  0.11225916896E+02  0.00000000000E+00 0. -1.
</event>
<event>
 7    1  0.7749294E-012  0.5930193E+02  0.7816164E-02  0.1266605E+00
        -11   -1    0    0    0    0  0.00000000000E+00  0.00000000000E+00  0.45593999997E+02  0.45594000000E+02  0.51100000000E-03 0.  1.
         11   -1    0    0    0    0 -0.00000000000E+00 -0.00000000000E+00 -0.45593999997E+02  0.45594000000E+02  0.51100000000E-03 0. -1.
    9900012    2    1    2    0    0 -0.13971193424E+01 -0.19659207421E+02  0.25065620265E+02  0.59301926267E+02  0.49999967608E+02 0.  0.
         12    1    1    2    0    0  0.13971193424E+01  0.19659207421E+02 -0.25065620265E+02  0.31886073733E+02  0.00000000000E+00 0. -1.
         11    1    3    3    0    0  0.34923162808E+01 -0.29792106577E+02  0.20040895509E+02  0.36074968890E+02  0.51100000000E-03 0. -1.
        -11    1    3    3    0    0  0.15575143534E+01  0.10087962128E+02  0.10591115016E+02  0.14709335416E+02  0.51100000000E-03 0.  1.
         12    1    3    3    0    0 -0.64469499766E+01  0.44937028713E-01 -0.55663902600E+01  0.85176219606E+01  0.00000000000E+00 0. -1.
</event>
<event>
 7    1  0.7749294E-012  0.5930191E+02  0.7816164E-02  0.1266605E+00
        -11   -1    0    0    0    0  0.00000000000E+00  0.00000000000E+00  0.45593999997E+02  0.45594000000E+02  0.51100000000E-03 0. -1.
         11   -1    0    0    0    0 -0.00000000000E+00 -0.00000000000E+00 -0.45593999997E+02  0.45594000000E+02  0.51100000000E-03 0.  1.
    9900012    2    1    2    0    0  0.12826449875E+02 -0.21907846499E+02  0.19293806782E+02  0.59301913147E+02  0.49999943681E+02 0.  0.
         12    1    1    2    0    0 -0.12826449875E+02  0.21907846499E+02 -0.19293806782E+02  0.31886086853E+02  0.00000000000E+00 0. -1.
         11    1    3    3    0    0  0.58610139689E+01 -0.42559178248E+01  0.61383455597E+01  0.94943987565E+01  0.51100000000E-03 0. -1.
        -11    1    3    3    0    0  0.24817415125E+00 -0.14058538913E+02 -0.15047117181E+02  0.20594170109E+02  0.51100000000E-03 0.  1.
        -12    1    3    3    0    0  0.67172617553E+01 -0.35933897617E+01  0.28202578404E+02  0.29213344281E+02  0.00000000000E+00 0.  1.
</event>
<event>
 7    1  0.7749294E-012  0.5930196E+02  0.7816164E-02  0.1266605E+00
        -11   -1    0    0    0    0  0.00000000000E+00  0.00000000000E+00  0.45593999997E+02  0.45594000000E+02  0.51100000000E-03 0.  1.
         11   -1    0    0    0    0 -0.00000000000E+00 -0.00000000000E+00 -0.45593999997E+02  0.45594000000E+02  0.51100000000E-03 0. -1.
    9900012    2    1    2    0    0  0.19065420134E+02  0.15162211342E+02  0.20575142568E+02  0.59301962470E+02  0.50000033635E+02 0.  0.
         12    1    1    2    0    0 -0.19065420134E+02 -0.15162211342E+02 -0.20575142568E+02  0.31886037530E+02  0.00000000000E+00 0. -1.
         11    1    3    3    0    0  0.41410584147E+01  0.14828344543E+02  0.71600077231E+01  0.16979218991E+02  0.51100000000E-03 0. -1.
        -11    1    3    3    0    0  0.21939815018E+02 -0.18668379992E+01  0.21927245102E+02  0.31074823333E+02  0.51100000000E-03 0.  1.
        -12    1    3    3    0    0 -0.70154532983E+01  0.22007047986E+01 -0.85121102579E+01  0.11247920147E+02  0.00000000000E+00 0.  1.
</event>
<event>
 7    1  0.7749294E-012  0.5930196E+02  0.7816164E-02  0.1266605E+00
        -11   -1    0    0    0    0  0.00000000000E+00  0.00000000000E+00  0.45593999997E+02  0.45594000000E+02  0.51100000000E-03 0.  1.
         11   -1    0    0    0    0 -0.00000000000E+00 -0.00000000000E+00 -0.45593999997E+02  0.45594000000E+02  0.51100000000E-03 0. -1.
    9900012    2    1    2    0    0 -0.45148978054E+01 -0.26939845229E+02  0.16449316956E+02  0.59301959300E+02  0.50000027854E+02 0.  0.
         12    1    1    2    0    0  0.45148978054E+01  0.26939845229E+02 -0.16449316956E+02  0.31886040700E+02  0.00000000000E+00 0. -1.
         11    1    3    3    0    0 -0.21575404877E+02 -0.16659843313E+02  0.60781761180E+01  0.27928349396E+02  0.51100000000E-03 0. -1.
        -11    1    3    3    0    0  0.19930794629E+02 -0.10887541124E+02  0.23490398088E+01  0.22831844309E+02  0.51100000000E-03 0.  1.
        -12    1    3    3    0    0 -0.28702875577E+01  0.60753920753E+00  0.80221010295E+01  0.85417655950E+01  0.00000000000E+00 0.  1.
</event>
<event>
 7    1  0.7749294E-012  0.5930196E+02  0.7816164E-02  0.1266605E+00
        -11   -1    0    0    0    0  0.00000000000E+00  0.00000000000E+00  0.45593999997E+02  0.45594000000E+02  0.51100000000E-03 0. -1.
         11   -1    0    0    0    0 -0.00000000000E+00 -0.00000000000E+00 -0.45593999997E+02  0.45594000000E+02  0.51100000000E-03 0.  1.
    9900012    2    1    2    0    0  0.29997677929E+02 -0.82526557492E+01 -0.69823046402E+01  0.59301959385E+02  0.50000028007E+02 0.  0.
         12    1    1    2    0    0 -0.29997677929E+02  0.82526557492E+01  0.69823046402E+01  0.31886040615E+02  0.00000000000E+00 0. -1.
         11    1    3    3    0    0  0.90996402278E+01  0.49435269637E+01  0.13133960047E+02  0.16725513980E+02  0.51100000000E-03 0. -1.
        -11    1    3    3    0    0  0.22108732510E+02 -0.13577492857E+02 -0.38128525535E+01  0.26223695589E+02  0.51100000000E-03 0.  1.
        -12    1    3    3    0    0 -0.12106948094E+01  0.38131014380E+00 -0.16303412133E+02  0.16352749816E+02  0.00000000000E+00 0.  1.
</event>
<event>
 7    1  0.7749294E-012  0.5930195E+02  0.7816164E-02  0.1266605E+00
        -11   -1    0    0    0    0  0.00000000000E+00  0.00000000000E+00  0.45593999997E+02  0.45594000000E+02  0.51100000000E-03 0.  1.
         11   -1    0    0    0    0 -0.00000000000E+00 -0.00000000000E+00 -0.45593999997E+02  0.45594000000E+02  0.51100000000E-03 0. -1.
    9900012    2    1    2    0    0  0.28426752683E+02  0.12905988351E+02  0.64865405212E+01  0.59301952717E+02  0.50000015847E+02 0.  0.
         12    1    1    2    0    0 -0.28426752683E+02 -0.12905988351E+02 -0.64865405212E+01  0.31886047283E+02  0.00000000000E+00 0. -1.
         11    1    3    3    0    0  0.20683801828E+02 -0.22165775740E+01 -0.58689498423E+01  0.21614288023E+02  0.51100000000E-03 0. -1.
        -11    1    3    3    0    0  0.22396818394E+01  0.10707722100E+02  0.22681359144E+02  0.25181650863E+02  0.51100000000E-03 0.  1.
         12    1    3    3    0    0  0.55032690151E+01  0.44148438256E+01 -0.10325868781E+02  0.12506013831E+02  0.00000000000E+00 0. -1.
</event>
<event>
 7    1  0.7749294E-012  0.5930187E+02  0.7816164E-02  0.1266605E+00
        -11   -1    0    0    0    0  0.00000000000E+00  0.00000000000E+00  0.45593999997E+02  0.45594000000E+02  0.51100000000E-03 0.  1.
         11   -1    0    0    0    0 -0.00000000000E+00 -0.00000000000E+00 -0.45593999997E+02  0.45594000000E+02  0.51100000000E-03 0. -1.
    9900012    2    1    2    0    0 -0.15193926381E+01  0.23293866647E+02  0.21721243381E+02  0.59301871490E+02  0.49999867708E+02 0.  0.
         12    1    1    2    0    0  0.15193926381E+01 -0.23293866647E+02 -0.21721243381E+02  0.31886128510E+02  0.00000000000E+00 0. -1.
         11    1    3    3    0    0 -0.14304377995E+02  0.36325571828E+01 -0.31244710101E+00  0.14761718225E+02  0.51100000000E-03 0. -1.
        -11    1    3    3    0    0  0.60316486399E+01  0.96092918922E+01  0.28597442630E+02  0.30765776461E+02  0.51100000000E-03 0.  1.
        -12    1    3    3    0    0  0.67533367169E+01  0.10052017572E+02 -0.65637521481E+01  0.13774376804E+02  0.00000000000E+00 0.  1.
</event>
<event>
 7    1  0.7749294E-012  0.5930194E+02  0.7816164E-02  0.1266605E+00
        -11   -1    0    0    0    0  0.00000000000E+00  0.00000000000E+00  0.45593999997E+02  0.45594000000E+02  0.51100000000E-03 0. -1.
         11   -1    0    0    0    0 -0.00000000000E+00 -0.00000000000E+00 -0.45593999997E+02  0.45594000000E+02  0.51100000000E-03 0.  1.
    9900012    2    1    2    0    0  0.21723317904E+02 -0.22909466013E+02  0.44693046848E+01  0.59301939438E+02  0.49999991630E+02 0.  0.
         12    1    1    2    0    0 -0.21723317904E+02  0.22909466013E+02 -0.44693046848E+01  0.31886060562E+02  0.00000000000E+00 0. -1.
         11    1    3    3    0    0  0.60080664551E+01 -0.32135911349E+02  0.53734273666E+01  0.33131365542E+02  0.51100000000E-03 0. -1.
        -11    1    3    3    0    0  0.14178886673E+02  0.13963409816E+02  0.26170901360E+01  0.20071542094E+02  0.51100000000E-03 0.  1.
        -12    1    3    3    0    0  0.15363647756E+01 -0.47369644801E+01 -0.35212128178E+01  0.60990318017E+01  0.00000000000E+00 0.  1.
</event>
<event>
 7    1  0.7749294E-012  0.5930196E+02  0.7816164E-02  0.1266605E+00
        -11   -1    0    0    0    0  0.00000000000E+00  0.00000000000E+00  0.45593999997E+02  0.45594000000E+02  0.51100000000E-03 0.  1.
         11   -1    0    0    0    0 -0.00000000000E+00 -0.00000000000E+00 -0.45593999997E+02  0.45594000000E+02  0.51100000000E-03 0. -1.
    9900012    2    1    2    0    0  0.20302061779E+02  0.11631957539E+02  0.21662031649E+02  0.59301956598E+02  0.50000022925E+02 0.  0.
         12    1    1    2    0    0 -0.20302061779E+02 -0.11631957539E+02 -0.21662031649E+02  0.31886043402E+02  0.00000000000E+00 0. -1.
         11    1    3    3    0    0 -0.89133983105E+01 -0.11972754466E+01  0.42611194287E+01  0.99518479180E+01  0.51100000000E-03 0. -1.
        -11    1    3    3    0    0  0.20758447391E+02  0.20700272319E+02  0.22267540213E+02  0.36813825659E+02  0.51100000000E-03 0.  1.
        -12    1    3    3    0    0  0.84570126982E+01 -0.78710393336E+01 -0.48666279936E+01  0.12536283022E+02  0.00000000000E+00 0.  1.
</event>
<event>
 7    1  0.7749294E-012  0.5930192E+02  0.7816164E-02  0.1266605E+00
        -11   -1    0    0    0    0  0.00000000000E+00  0.00000000000E+00  0.45593999997E+02  0.45594000000E+02  0.51100000000E-03 0. -1.
         11   -1    0    0    0    0 -0.00000000000E+00 -0.00000000000E+00 -0.45593999997E+02  0.45594000000E+02  0.51100000000E-03 0.  1.
    9900012    2    1    2    0    0  0.10659428186E+02  0.25228562114E+02 -0.16328448302E+02  0.59301921854E+02  0.49999959560E+02 0.  0.
         12    1    1    2    0    0 -0.10659428186E+02 -0.25228562114E+02  0.16328448302E+02  0.31886078146E+02  0.00000000000E+00 0. -1.
         11    1    3    3    0    0  0.49025879626E+01  0.22945682753E+02  0.31319542220E+01  0.23671689066E+02  0.51100000000E-03 0.  1.
        -11    1    3    3    0    0  0.14971714758E+02 -0.70071292551E+01 -0.86473010853E+01  0.18655506413E+02  0.51100000000E-03 0. -1.
        -12    1    3    3    0    0 -0.92148745346E+01  0.92900086157E+01 -0.10813101439E+02  0.16974726375E+02  0.00000000000E+00 0.  1.
</event>
<event>
 7    1  0.7749294E-012  0.5930193E+02  0.7816164E-02  0.1266605E+00
        -11   -1    0    0    0    0  0.00000000000E+00  0.00000000000E+00  0.45593999997E+02  0.45594000000E+02  0.51100000000E-03 0. -1.
         11   -1    0    0    0    0 -0.00000000000E+00 -0.00000000000E+00 -0.45593999997E+02  0.45594000000E+02  0.51100000000E-03 0.  1.
    9900012    2    1    2    0    0 -0.35623467323E+01  0.11684443333E+02 -0.29453431297E+02  0.59301934933E+02  0.49999983414E+02 0.  0.
         12    1    1    2    0    0  0.35623467323E+01 -0.11684443333E+02  0.29453431297E+02  0.31886065067E+02  0.00000000000E+00 0. -1.
         11    1    3    3    0    0  0.86348553774E+01 -0.16656857342E+02 -0.15326849829E+02  0.24226513365E+02  0.51100000000E-03 0. -1.
        -11    1    3    3    0    0 -0.30178601053E+01  0.67708700697E+01 -0.78721080465E+01  0.10813059071E+02  0.51100000000E-03 0.  1.
         12    1    3    3    0    0 -0.91793420045E+01  0.21570430606E+02 -0.62544734219E+01  0.24262362497E+02  0.00000000000E+00 0. -1.
</event>
<event>
 7    1  0.7749294E-012  0.5930194E+02  0.7816164E-02  0.1266605E+00
        -11   -1    0    0    0    0  0.00000000000E+00  0.00000000000E+00  0.45593999997E+02  0.45594000000E+02  0.51100000000E-03 0. -1.
         11   -1    0    0    0    0 -0.00000000000E+00 -0.00000000000E+00 -0.45593999997E+02  0.45594000000E+02  0.51100000000E-03 0.  1.
    9900012    2    1    2    0    0  0.11065105201E+02  0.10045079051E+01 -0.29887705314E+02  0.59301944770E+02  0.50000001353E+02 0.  0.
         12    1    1    2    0    0 -0.11065105201E+02 -0.10045079051E+01  0.29887705314E+02  0.31886055230E+02  0.00000000000E+00 0. -1.
         11    1    3    3    0    0  0.17083544933E+02 -0.94948279654E+01 -0.27007587775E+01  0.19730518589E+02  0.51100000000E-03 0.  1.
        -11    1    3    3    0    0 -0.57646169192E+01 -0.33372645223E+01 -0.24608876527E+02  0.25494410111E+02  0.51100000000E-03 0. -1.
        -12    1    3    3    0    0 -0.25382281249E+00  0.13836600393E+02 -0.25780700091E+01  0.14077016070E+02  0.00000000000E+00 0.  1.
</event>
<event>
 7    1  0.7749294E-012  0.5930193E+02  0.7816164E-02  0.1266605E+00
        -11   -1    0    0    0    0  0.00000000000E+00  0.00000000000E+00  0.45593999997E+02  0.45594000000E+02  0.51100000000E-03 0. -1.
         11   -1    0    0    0    0 -0.00000000000E+00 -0.00000000000E+00 -0.45593999997E+02  0.45594000000E+02  0.51100000000E-03 0.  1.
    9900012    2    1    2    0    0  0.39449335230E+01 -0.10348847525E+02 -0.29900842003E+02  0.59301929403E+02  0.49999973329E+02 0.  0.
         12    1    1    2    0    0 -0.39449335230E+01  0.10348847525E+02  0.29900842003E+02  0.31886070597E+02  0.00000000000E+00 0. -1.
         11    1    3    3    0    0  0.28406780525E+01  0.81180973530E+01  0.20812901633E+01  0.88489957304E+01  0.51100000000E-03 0. -1.
        -11    1    3    3    0    0  0.47205732202E+01 -0.26501551104E+02 -0.13803331718E+02  0.30251413012E+02  0.51100000000E-03 0.  1.
        -12    1    3    3    0    0 -0.36163177497E+01  0.80346062259E+01 -0.18178800448E+02  0.20201520661E+02  0.00000000000E+00 0.  1.
</event>
<event>
 7    1  0.7749294E-012  0.5930189E+02  0.7816164E-02  0.1266605E+00
        -11   -1    0    0    0    0  0.00000000000E+00  0.00000000000E+00  0.45593999997E+02  0.45594000000E+02  0.51100000000E-03 0.  1.
         11   -1    0    0    0    0 -0.00000000000E+00 -0.00000000000E+00 -0.45593999997E+02  0.45594000000E+02  0.51100000000E-03 0. -1.
    9900012    2    1    2    0    0  0.16627668648E+02  0.11902467271E+02  0.24465813651E+02  0.59301888142E+02  0.49999898078E+02 0.  0.
         12    1    1    2    0    0 -0.16627668648E+02 -0.11902467271E+02 -0.24465813651E+02  0.31886111858E+02  0.00000000000E+00 0. -1.
         11    1    3    3    0    0  0.20547396439E+02 -0.84881418649E+01  0.46170594648E+01  0.22705974788E+02  0.51100000000E-03 0. -1.
        -11    1    3    3    0    0 -0.10365590058E+02  0.11551343727E+02  0.20411037756E+02  0.25641557318E+02  0.51100000000E-03 0.  1.
         12    1    3    3    0    0  0.64458622671E+01  0.88392654097E+01 -0.56228356977E+00  0.10954356036E+02  0.00000000000E+00 0. -1.
</event>
<event>
 7    1  0.7749294E-012  0.5930195E+02  0.7816164E-02  0.1266605E+00
        -11   -1    0    0    0    0  0.00000000000E+00  0.00000000000E+00  0.45593999997E+02  0.45594000000E+02  0.51100000000E-03 0.  1.
         11   -1    0    0    0    0 -0.00000000000E+00 -0.00000000000E+00 -0.45593999997E+02  0.45594000000E+02  0.51100000000E-03 0. -1.
    9900012    2    1    2    0    0  0.12222508330E+02 -0.11158974296E+01  0.29429322401E+02  0.59301953617E+02  0.50000017489E+02 0.  0.
         12    1    1    2    0    0 -0.12222508330E+02  0.11158974296E+01 -0.29429322401E+02  0.31886046383E+02  0.00000000000E+00 0. -1.
         11    1    3    3    0    0 -0.49255881598E+01  0.58438660620E+01  0.89618729064E+01  0.11778257746E+02  0.51100000000E-03 0. -1.
        -11    1    3    3    0    0  0.14353658920E+02 -0.18265963359E+02  0.25797323621E+02  0.34715628297E+02  0.51100000000E-03 0.  1.
        -12    1    3    3    0    0  0.27944375706E+01  0.11306199868E+02 -0.53298741262E+01  0.12808067574E+02  0.00000000000E+00 0.  1.
</event>
<event>
 7    1  0.7749294E-012  0.5930197E+02  0.7816164E-02  0.1266605E+00
        -11   -1    0    0    0    0  0.00000000000E+00  0.00000000000E+00  0.45593999997E+02  0.45594000000E+02  0.51100000000E-03 0.  1.
         11   -1    0    0    0    0 -0.00000000000E+00 -0.00000000000E+00 -0.45593999997E+02  0.45594000000E+02  0.51100000000E-03 0. -1.
    9900012    2    1    2    0    0  0.26459157433E+02  0.33141703144E+01  0.17482799045E+02  0.59301968586E+02  0.50000044788E+02 0.  0.
         12    1    1    2    0    0 -0.26459157433E+02 -0.33141703144E+01 -0.17482799045E+02  0.31886031414E+02  0.00000000000E+00 0. -1.
         11    1    3    3    0    0 -0.93685172508E+01  0.28484231008E+00 -0.40994024294E+01  0.10230119802E+02  0.51100000000E-03 0. -1.
        -11    1    3    3    0    0  0.18494299640E+02  0.46062150424E+01  0.24896343009E+02  0.31354174071E+02  0.51100000000E-03 0.  1.
         12    1    3    3    0    0  0.17333375043E+02 -0.15768870381E+01 -0.33141415346E+01  0.17717674713E+02  0.00000000000E+00 0. -1.
</event>
<event>
 7    1  0.7749294E-012  0.5930196E+02  0.7816164E-02  0.1266605E+00
        -11   -1    0    0    0    0  0.00000000000E+00  0.00000000000E+00  0.45593999997E+02  0.45594000000E+02  0.51100000000E-03 0.  1.
         11   -1    0    0    0    0 -0.00000000000E+00 -0.00000000000E+00 -0.45593999997E+02  0.45594000000E+02  0.51100000000E-03 0. -1.
    9900012    2    1    2    0    0  0.20976920779E+02  0.61385974218E+01  0.23216503557E+02  0.59301958837E+02  0.50000027008E+02 0.  0.
         12    1    1    2    0    0 -0.20976920779E+02 -0.61385974218E+01 -0.23216503557E+02  0.31886041163E+02  0.00000000000E+00 0. -1.
         11    1    3    3    0    0  0.33031001754E+02  0.10865956354E+01  0.85833370100E+01  0.34145298966E+02  0.51100000000E-03 0. -1.
        -11    1    3    3    0    0  0.75633137262E+00  0.12140920742E+01  0.11279171128E+02  0.11369510029E+02  0.51100000000E-03 0.  1.
         12    1    3    3    0    0 -0.12810412348E+02  0.38379097122E+01  0.33539954187E+01  0.13787149842E+02  0.00000000000E+00 0. -1.
</event>
<event>
 7    1  0.7749294E-012  0.5930195E+02  0.7816164E-02  0.1266605E+00
        -11   -1    0    0    0    0  0.00000000000E+00  0.00000000000E+00  0.45593999997E+02  0.45594000000E+02  0.51100000000E-03 0.  1.
         11   -1    0    0    0    0 -0.00000000000E+00 -0.00000000000E+00 -0.45593999997E+02  0.45594000000E+02  0.51100000000E-03 0. -1.
    9900012    2    1    2    0    0  0.16150248289E+02  0.19952473357E+02  0.18915294864E+02  0.59301951442E+02  0.50000013521E+02 0.  0.
         12    1    1    2    0    0 -0.16150248289E+02 -0.19952473357E+02 -0.18915294864E+02  0.31886048558E+02  0.00000000000E+00 0. -1.
         11    1    3    3    0    0  0.13521336864E+02  0.46726016422E+01  0.31441167614E+02  0.34542825274E+02  0.51100000000E-03 0.  1.
        -11    1    3    3    0    0  0.71510696433E+01  0.14187387298E+02 -0.12315674748E+02  0.20102129245E+02  0.51100000000E-03 0. -1.
        -12    1    3    3    0    0 -0.45221582179E+01  0.10924844160E+01 -0.21019800149E+00  0.46569969236E+01  0.00000000000E+00 0.  1.
</event>
<event>
 7    1  0.7749294E-012  0.5930189E+02  0.7816164E-02  0.1266605E+00
        -11   -1    0    0    0    0  0.00000000000E+00  0.00000000000E+00  0.45593999997E+02  0.45594000000E+02  0.51100000000E-03 0.  1.
         11   -1    0    0    0    0 -0.00000000000E+00 -0.00000000000E+00 -0.45593999997E+02  0.45594000000E+02  0.51100000000E-03 0. -1.
    9900012    2    1    2    0    0  0.60961728760E+01 -0.26139527579E+02  0.17212953418E+02  0.59301890310E+02  0.49999902031E+02 0.  0.
         12    1    1    2    0    0 -0.60961728760E+01  0.26139527579E+02 -0.17212953418E+02  0.31886109690E+02  0.00000000000E+00 0. -1.
         11    1    3    3    0    0  0.36424135660E+01  0.36301069122E+01 -0.13455956469E+01  0.53155884609E+01  0.51100000000E-03 0. -1.
        -11    1    3    3    0    0 -0.15350551945E+02 -0.21438228524E+02 -0.82416456410E+00  0.26380226208E+02  0.51100000000E-03 0.  1.
        -12    1    3    3    0    0  0.17804311255E+02 -0.83314059673E+01  0.19382713629E+02  0.27606075641E+02  0.00000000000E+00 0.  1.
</event>
<event>
 7    1  0.7749294E-012  0.5930188E+02  0.7816164E-02  0.1266605E+00
        -11   -1    0    0    0    0  0.00000000000E+00  0.00000000000E+00  0.45593999997E+02  0.45594000000E+02  0.51100000000E-03 0. -1.
         11   -1    0    0    0    0 -0.00000000000E+00 -0.00000000000E+00 -0.45593999997E+02  0.45594000000E+02  0.51100000000E-03 0.  1.
    9900012    2    1    2    0    0 -0.23629016889E+02 -0.16398567973E+02 -0.13765222853E+02  0.59301877143E+02  0.49999878018E+02 0.  0.
         12    1    1    2    0    0  0.23629016889E+02  0.16398567973E+02  0.13765222853E+02  0.31886122857E+02  0.00000000000E+00 0. -1.
         11    1    3    3    0    0  0.57950462800E+01  0.20359149254E+01 -0.11705127665E+02  0.13218832205E+02  0.51100000000E-03 0. -1.
        -11    1    3    3    0    0 -0.15315105725E+02 -0.12004246873E+02  0.13836560989E+02  0.23876868024E+02  0.51100000000E-03 0.  1.
        -12    1    3    3    0    0 -0.14108957443E+02 -0.64302360246E+01 -0.15896656178E+02  0.22206176913E+02  0.00000000000E+00 0.  1.
</event>
<event>
 7    1  0.7749294E-012  0.5930202E+02  0.7816164E-02  0.1266605E+00
        -11   -1    0    0    0    0  0.00000000000E+00  0.00000000000E+00  0.45593999997E+02  0.45594000000E+02  0.51100000000E-03 0.  1.
         11   -1    0    0    0    0 -0.00000000000E+00 -0.00000000000E+00 -0.45593999997E+02  0.45594000000E+02  0.51100000000E-03 0. -1.
    9900012    2    1    2    0    0 -0.28283017499E+02  0.96707019181E+01 -0.11102443861E+02  0.59302018533E+02  0.50000135879E+02 0.  0.
         12    1    1    2    0    0  0.28283017499E+02 -0.96707019181E+01  0.11102443861E+02  0.31885981467E+02  0.00000000000E+00 0. -1.
         11    1    3    3    0    0 -0.29896898835E+02  0.13347792141E+02 -0.21442927406E+02  0.39138053746E+02  0.51100000000E-03 0. -1.
        -11    1    3    3    0    0  0.16658153869E+01  0.65335210678E+01  0.21589709343E+01  0.70797594735E+01  0.51100000000E-03 0.  1.
         12    1    3    3    0    0 -0.51934050892E-01 -0.10210611291E+02  0.81815126110E+01  0.13084205313E+02  0.00000000000E+00 0. -1.
</event>
<event>
 7    1  0.7749294E-012  0.5930193E+02  0.7816164E-02  0.1266605E+00
        -11   -1    0    0    0    0  0.00000000000E+00  0.00000000000E+00  0.45593999997E+02  0.45594000000E+02  0.51100000000E-03 0. -1.
         11   -1    0    0    0    0 -0.00000000000E+00 -0.00000000000E+00 -0.45593999997E+02  0.45594000000E+02  0.51100000000E-03 0.  1.
    9900012    2    1    2    0    0  0.10013161196E+01  0.27449959684E+02 -0.16193163107E+02  0.59301930126E+02  0.49999974646E+02 0.  0.
         12    1    1    2    0    0 -0.10013161196E+01 -0.27449959684E+02  0.16193163107E+02  0.31886069874E+02  0.00000000000E+00 0. -1.
         11    1    3    3    0    0  0.17524415027E+01  0.48184980093E+01  0.23305776404E+01  0.56321014448E+01  0.51100000000E-03 0. -1.
        -11    1    3    3    0    0 -0.59459390097E+01  0.32031281766E+02 -0.25056093847E+02  0.41099453055E+02  0.51100000000E-03 0.  1.
        -12    1    3    3    0    0  0.51948136267E+01 -0.93998200912E+01  0.65323530994E+01  0.12570375626E+02  0.00000000000E+00 0.  1.
</event>
<event>
 7    1  0.7749294E-012  0.5930195E+02  0.7816164E-02  0.1266605E+00
        -11   -1    0    0    0    0  0.00000000000E+00  0.00000000000E+00  0.45593999997E+02  0.45594000000E+02  0.51100000000E-03 0. -1.
         11   -1    0    0    0    0 -0.00000000000E+00 -0.00000000000E+00 -0.45593999997E+02  0.45594000000E+02  0.51100000000E-03 0.  1.
    9900012    2    1    2    0    0  0.22044838011E+02 -0.20569549677E+02 -0.10374918015E+02  0.59301950062E+02  0.50000011006E+02 0.  0.
         12    1    1    2    0    0 -0.22044838011E+02  0.20569549677E+02  0.10374918015E+02  0.31886049938E+02  0.00000000000E+00 0. -1.
         11    1    3    3    0    0  0.37538263706E+01  0.10492027035E+02  0.46975003811E+00  0.11153228639E+02  0.51100000000E-03 0. -1.
        -11    1    3    3    0    0  0.23290727499E+02 -0.11857867510E+02 -0.14030203909E+01  0.26173182378E+02  0.51100000000E-03 0.  1.
        -12    1    3    3    0    0 -0.49997158587E+01 -0.19203709201E+02 -0.94416476622E+01  0.21975539045E+02  0.00000000000E+00 0.  1.
</event>
<event>
 7    1  0.7749294E-012  0.5930194E+02  0.7816164E-02  0.1266605E+00
        -11   -1    0    0    0    0  0.00000000000E+00  0.00000000000E+00  0.45593999997E+02  0.45594000000E+02  0.51100000000E-03 0.  1.
         11   -1    0    0    0    0 -0.00000000000E+00 -0.00000000000E+00 -0.45593999997E+02  0.45594000000E+02  0.51100000000E-03 0. -1.
    9900012    2    1    2    0    0  0.14151102267E+02 -0.15427371472E+02  0.24051265785E+02  0.59301939225E+02  0.49999991241E+02 0.  0.
         12    1    1    2    0    0 -0.14151102267E+02  0.15427371472E+02 -0.24051265785E+02  0.31886060775E+02  0.00000000000E+00 0. -1.
         11    1    3    3    0    0 -0.13468336490E+02  0.21804821556E+01  0.22704283477E+02  0.26488395170E+02  0.51100000000E-03 0. -1.
        -11    1    3    3    0    0  0.15659250133E+02 -0.91611555438E+01  0.58719290666E+00  0.18151685360E+02  0.51100000000E-03 0.  1.
         12    1    3    3    0    0  0.11960188624E+02 -0.84466980842E+01  0.75978940145E+00  0.14661858695E+02  0.00000000000E+00 0. -1.
</event>
<event>
 7    1  0.7749294E-012  0.5930195E+02  0.7816164E-02  0.1266605E+00
        -11   -1    0    0    0    0  0.00000000000E+00  0.00000000000E+00  0.45593999997E+02  0.45594000000E+02  0.51100000000E-03 0. -1.
         11   -1    0    0    0    0 -0.00000000000E+00 -0.00000000000E+00 -0.45593999997E+02  0.45594000000E+02  0.51100000000E-03 0.  1.
    9900012    2    1    2    0    0  0.11329083918E+02  0.29523059172E+02 -0.40939924960E+01  0.59301953838E+02  0.50000017891E+02 0.  0.
         12    1    1    2    0    0 -0.11329083918E+02 -0.29523059172E+02  0.40939924960E+01  0.31886046162E+02  0.00000000000E+00 0. -1.
         11    1    3    3    0    0  0.51556086703E+01 -0.11043209602E+02 -0.22955580106E+01  0.12401708186E+02  0.51100000000E-03 0. -1.
        -11    1    3    3    0    0  0.13709093319E+02  0.15534349743E+02 -0.11581097008E+01  0.20750818777E+02  0.51100000000E-03 0.  1.
         12    1    3    3    0    0 -0.75356180706E+01  0.25031919031E+02 -0.64032478464E+00  0.26149426875E+02  0.00000000000E+00 0. -1.
</event>
<event>
 7    1  0.7749294E-012  0.5930189E+02  0.7816164E-02  0.1266605E+00
        -11   -1    0    0    0    0  0.00000000000E+00  0.00000000000E+00  0.45593999997E+02  0.45594000000E+02  0.51100000000E-03 0.  1.
         11   -1    0    0    0    0 -0.00000000000E+00 -0.00000000000E+00 -0.45593999997E+02  0.45594000000E+02  0.51100000000E-03 0. -1.
    9900012    2    1    2    0    0 -0.15163937386E+02  0.20569741269E+01  0.27974058810E+02  0.59301888511E+02  0.49999898750E+02 0.  0.
         12    1    1    2    0    0  0.15163937386E+02 -0.20569741269E+01 -0.27974058810E+02  0.31886111489E+02  0.00000000000E+00 0. -1.
         11    1    3    3    0    0 -0.24217828990E+02  0.16701830214E+02  0.19020379189E+02  0.35031831214E+02  0.51100000000E-03 0.  1.
        -11    1    3    3    0    0  0.26211103729E+01  0.16989527762E+01 -0.18682260147E+01  0.36396330619E+01  0.51100000000E-03 0. -1.
         12    1    3    3    0    0  0.64327812303E+01 -0.16343808863E+02  0.10821905636E+02  0.20630424235E+02  0.00000000000E+00 0. -1.
</event>
<event>
 7    1  0.7749294E-012  0.5930194E+02  0.7816164E-02  0.1266605E+00
        -11   -1    0    0    0    0  0.00000000000E+00  0.00000000000E+00  0.45593999997E+02  0.45594000000E+02  0.51100000000E-03 0.  1.
         11   -1    0    0    0    0 -0.00000000000E+00 -0.00000000000E+00 -0.45593999997E+02  0.45594000000E+02  0.51100000000E-03 0. -1.
    9900012    2    1    2    0    0  0.42701111786E+01  0.29494783120E+02  0.11337755668E+02  0.59301940596E+02  0.49999993740E+02 0.  0.
         12    1    1    2    0    0 -0.42701111786E+01 -0.29494783120E+02 -0.11337755668E+02  0.31886059404E+02  0.00000000000E+00 0. -1.
         11    1    3    3    0    0  0.23713146505E+02  0.50786249004E+01  0.18969643596E+01  0.24324971163E+02  0.51100000000E-03 0. -1.
        -11    1    3    3    0    0 -0.36420745073E+01  0.68795515058E+01  0.82487718414E+01  0.11341744698E+02  0.51100000000E-03 0.  1.
         12    1    3    3    0    0 -0.15800960819E+02  0.17536606714E+02  0.11920194666E+01  0.23635224735E+02  0.00000000000E+00 0. -1.
</event>
<event>
 7    1  0.7749294E-012  0.5930195E+02  0.7816164E-02  0.1266605E+00
        -11   -1    0    0    0    0  0.00000000000E+00  0.00000000000E+00  0.45593999997E+02  0.45594000000E+02  0.51100000000E-03 0. -1.
         11   -1    0    0    0    0 -0.00000000000E+00 -0.00000000000E+00 -0.45593999997E+02  0.45594000000E+02  0.51100000000E-03 0.  1.
    9900012    2    1    2    0    0  0.13604970106E+02  0.28416260109E+02 -0.49133552799E+01  0.59301951166E+02  0.50000013018E+02 0.  0.
         12    1    1    2    0    0 -0.13604970106E+02 -0.28416260109E+02  0.49133552799E+01  0.31886048834E+02  0.00000000000E+00 0. -1.
         11    1    3    3    0    0  0.17675800915E+02 -0.91637751831E+01 -0.70962432133E+01  0.21136825249E+02  0.51100000000E-03 0. -1.
        -11    1    3    3    0    0 -0.45069361371E-01  0.16395995884E+02  0.25828480736E+01  0.16598247398E+02  0.51100000000E-03 0.  1.
         12    1    3    3    0    0 -0.40257614481E+01  0.21184039409E+02 -0.39996014022E+00  0.21566878518E+02  0.00000000000E+00 0. -1.
</event>
<event>
 7    1  0.7749294E-012  0.5930193E+02  0.7816164E-02  0.1266605E+00
        -11   -1    0    0    0    0  0.00000000000E+00  0.00000000000E+00  0.45593999997E+02  0.45594000000E+02  0.51100000000E-03 0. -1.
         11   -1    0    0    0    0 -0.00000000000E+00 -0.00000000000E+00 -0.45593999997E+02  0.45594000000E+02  0.51100000000E-03 0.  1.
    9900012    2    1    2    0    0  0.26596177539E+01  0.28748479497E+02 -0.13534131053E+02  0.59301931830E+02  0.49999977754E+02 0.  0.
         12    1    1    2    0    0 -0.26596177539E+01 -0.28748479497E+02  0.13534131053E+02  0.31886068170E+02  0.00000000000E+00 0. -1.
         11    1    3    3    0    0  0.15674643264E+02  0.51568212945E+01 -0.14230235183E+01  0.16562374332E+02  0.51100000000E-03 0. -1.
        -11    1    3    3    0    0 -0.78462100541E+01  0.29670511782E+02 -0.33235877298E+01  0.30869864225E+02  0.51100000000E-03 0.  1.
        -12    1    3    3    0    0 -0.51688154564E+01 -0.60788535791E+01 -0.87875198049E+01  0.11869693272E+02  0.00000000000E+00 0.  1.
</event>
<event>
 7    1  0.7749294E-012  0.5930195E+02  0.7816164E-02  0.1266605E+00
        -11   -1    0    0    0    0  0.00000000000E+00  0.00000000000E+00  0.45593999997E+02  0.45594000000E+02  0.51100000000E-03 0.  1.
         11   -1    0    0    0    0 -0.00000000000E+00 -0.00000000000E+00 -0.45593999997E+02  0.45594000000E+02  0.51100000000E-03 0. -1.
    9900012    2    1    2    0    0  0.19651386435E+02 -0.24433602989E+02  0.57915388476E+01  0.59301954995E+02  0.50000020002E+02 0.  0.
         12    1    1    2    0    0 -0.19651386435E+02  0.24433602989E+02 -0.57915388476E+01  0.31886045005E+02  0.00000000000E+00 0. -1.
         11    1    3    3    0    0  0.73429170861E+01 -0.63197354301E+01 -0.10478322717E+02  0.14270694954E+02  0.51100000000E-03 0. -1.
        -11    1    3    3    0    0  0.22029507862E+00  0.84839114666E+01  0.13147951156E+02  0.15649086349E+02  0.51100000000E-03 0.  1.
        -12    1    3    3    0    0  0.12088174270E+02 -0.26597779025E+02  0.31219104091E+01  0.29382173692E+02  0.00000000000E+00 0.  1.
</event>
<event>
 7    1  0.7749294E-012  0.5930192E+02  0.7816164E-02  0.1266605E+00
        -11   -1    0    0    0    0  0.00000000000E+00  0.00000000000E+00  0.45593999997E+02  0.45594000000E+02  0.51100000000E-03 0. -1.
         11   -1    0    0    0    0 -0.00000000000E+00 -0.00000000000E+00 -0.45593999997E+02  0.45594000000E+02  0.51100000000E-03 0.  1.
    9900012    2    1    2    0    0  0.13826535554E+02  0.23292435641E+02 -0.16822947624E+02  0.59301918236E+02  0.49999952962E+02 0.  0.
         12    1    1    2    0    0 -0.13826535554E+02 -0.23292435641E+02  0.16822947624E+02  0.31886081764E+02  0.00000000000E+00 0. -1.
         11    1    3    3    0    0  0.14489144313E+01  0.15544265146E+02  0.12564030740E+01  0.15662122491E+02  0.51100000000E-03 0. -1.
        -11    1    3    3    0    0 -0.90663887076E+01  0.38592070533E+00 -0.18885776976E+02  0.20952825853E+02  0.51100000000E-03 0.  1.
        -12    1    3    3    0    0  0.21444009830E+02  0.73622497891E+01  0.80642627797E+00  0.22686969892E+02  0.00000000000E+00 0.  1.
</event>
<event>
 7    1  0.7749294E-012  0.5930192E+02  0.7816164E-02  0.1266605E+00
        -11   -1    0    0    0    0  0.00000000000E+00  0.00000000000E+00  0.45593999997E+02  0.45594000000E+02  0.51100000000E-03 0. -1.
         11   -1    0    0    0    0 -0.00000000000E+00 -0.00000000000E+00 -0.45593999997E+02  0.45594000000E+02  0.51100000000E-03 0.  1.
    9900012    2    1    2    0    0  0.67149650448E+01 -0.73375727186E+01 -0.30295066996E+02  0.59301924462E+02  0.49999964317E+02 0.  0.
         12    1    1    2    0    0 -0.67149650448E+01  0.73375727186E+01  0.30295066996E+02  0.31886075538E+02  0.00000000000E+00 0. -1.
         11    1    3    3    0    0 -0.20541097083E+02  0.58321085864E+00 -0.51959533897E+01  0.21196101910E+02  0.51100000000E-03 0. -1.
        -11    1    3    3    0    0  0.17683267261E+02 -0.68801229913E+01 -0.17872962934E+02  0.26066776511E+02  0.51100000000E-03 0.  1.
         12    1    3    3    0    0  0.95727948673E+01 -0.10406605859E+01 -0.72261506723E+01  0.12039046040E+02  0.00000000000E+00 0. -1.
</event>
<event>
 7    1  0.7749294E-012  0.5930195E+02  0.7816164E-02  0.1266605E+00
        -11   -1    0    0    0    0  0.00000000000E+00  0.00000000000E+00  0.45593999997E+02  0.45594000000E+02  0.51100000000E-03 0.  1.
         11   -1    0    0    0    0 -0.00000000000E+00 -0.00000000000E+00 -0.45593999997E+02  0.45594000000E+02  0.51100000000E-03 0. -1.
    9900012    2    1    2    0    0 -0.23047430702E+02 -0.37728653810E+01 -0.21709483240E+02  0.59301949168E+02  0.50000009374E+02 0.  0.
         12    1    1    2    0    0  0.23047430702E+02  0.37728653810E+01  0.21709483240E+02  0.31886050832E+02  0.00000000000E+00 0. -1.
         11    1    3    3    0    0  0.37046422430E+01  0.14090046345E+02 -0.18195362130E+02  0.23309332540E+02  0.51100000000E-03 0. -1.
        -11    1    3    3    0    0 -0.19725903589E+02 -0.58924087943E+01  0.27395931675E+01  0.20768657270E+02  0.51100000000E-03 0.  1.
         12    1    3    3    0    0 -0.70261693559E+01 -0.11970502932E+02 -0.62537142772E+01  0.15223959358E+02  0.00000000000E+00 0. -1.
</event>
<event>
 7    1  0.7749294E-012  0.5930195E+02  0.7816164E-02  0.1266605E+00
        -11   -1    0    0    0    0  0.00000000000E+00  0.00000000000E+00  0.45593999997E+02  0.45594000000E+02  0.51100000000E-03 0. -1.
         11   -1    0    0    0    0 -0.00000000000E+00 -0.00000000000E+00 -0.45593999997E+02  0.45594000000E+02  0.51100000000E-03 0.  1.
    9900012    2    1    2    0    0 -0.60596683400E+01  0.31300691911E+02 -0.51709292745E+00  0.59301948511E+02  0.50000008176E+02 0.  0.
         12    1    1    2    0    0  0.60596683400E+01 -0.31300691911E+02  0.51709292745E+00  0.31886051489E+02  0.00000000000E+00 0. -1.
         11    1    3    3    0    0 -0.10764109567E+02 -0.40131802466E+01  0.56807902011E+01  0.12815734393E+02  0.51100000000E-03 0. -1.
        -11    1    3    3    0    0  0.85607974933E+00  0.35526358079E+02  0.38306548835E+01  0.35742536396E+02  0.51100000000E-03 0.  1.
        -12    1    3    3    0    0  0.38483614780E+01 -0.21248592197E+00 -0.10028538012E+02  0.10743677722E+02  0.00000000000E+00 0.  1.
</event>
<event>
 7    1  0.7749294E-012  0.5930196E+02  0.7816164E-02  0.1266605E+00
        -11   -1    0    0    0    0  0.00000000000E+00  0.00000000000E+00  0.45593999997E+02  0.45594000000E+02  0.51100000000E-03 0.  1.
         11   -1    0    0    0    0 -0.00000000000E+00 -0.00000000000E+00 -0.45593999997E+02  0.45594000000E+02  0.51100000000E-03 0. -1.
    9900012    2    1    2    0    0 -0.31681517145E+02 -0.33920607112E+01  0.12226586810E+01  0.59301960755E+02  0.50000030506E+02 0.  0.
         12    1    1    2    0    0  0.31681517145E+02  0.33920607112E+01 -0.12226586810E+01  0.31886039245E+02  0.00000000000E+00 0. -1.
         11    1    3    3    0    0 -0.96469035585E+01 -0.80575954719E+01 -0.11963495101E+01  0.12626117593E+02  0.51100000000E-03 0. -1.
        -11    1    3    3    0    0 -0.61408215193E+01  0.90470267375E+01  0.19862992469E+02  0.22673703972E+02  0.51100000000E-03 0.  1.
        -12    1    3    3    0    0 -0.15893792067E+02 -0.43814919768E+01 -0.17443984278E+02  0.24002139190E+02  0.00000000000E+00 0.  1.
</event>
<event>
 7    1  0.7749294E-012  0.5930195E+02  0.7816164E-02  0.1266605E+00
        -11   -1    0    0    0    0  0.00000000000E+00  0.00000000000E+00  0.45593999997E+02  0.45594000000E+02  0.51100000000E-03 0. -1.
         11   -1    0    0    0    0 -0.00000000000E+00 -0.00000000000E+00 -0.45593999997E+02  0.45594000000E+02  0.51100000000E-03 0.  1.
    9900012    2    1    2    0    0 -0.27146042337E+02  0.16019972293E+02 -0.48138603989E+01  0.59301946955E+02  0.50000005340E+02 0.  0.
         12    1    1    2    0    0  0.27146042337E+02 -0.16019972293E+02  0.48138603989E+01  0.31886053045E+02  0.00000000000E+00 0. -1.
         11    1    3    3    0    0  0.92564585892E+01  0.79710629585E+01  0.72564395241E+01  0.14208299868E+02  0.51100000000E-03 0. -1.
        -11    1    3    3    0    0 -0.22721872019E+02 -0.22475508949E+01  0.20159889520E+01  0.22921587309E+02  0.51100000000E-03 0.  1.
        -12    1    3    3    0    0 -0.13680628907E+02  0.10296460229E+02 -0.14086288875E+02  0.22172059779E+02  0.00000000000E+00 0.  1.
</event>
<event>
 7    1  0.7749294E-012  0.5930192E+02  0.7816164E-02  0.1266605E+00
        -11   -1    0    0    0    0  0.00000000000E+00  0.00000000000E+00  0.45593999997E+02  0.45594000000E+02  0.51100000000E-03 0.  1.
         11   -1    0    0    0    0 -0.00000000000E+00 -0.00000000000E+00 -0.45593999997E+02  0.45594000000E+02  0.51100000000E-03 0. -1.
    9900012    2    1    2    0    0 -0.26721546582E+01 -0.15429770765E+02  0.27775956208E+02  0.59301921852E+02  0.49999959557E+02 0.  0.
         12    1    1    2    0    0  0.26721546582E+01  0.15429770765E+02 -0.27775956208E+02  0.31886078148E+02  0.00000000000E+00 0. -1.
         11    1    3    3    0    0 -0.20625230064E+01  0.68359972569E+01  0.19428386402E+01  0.73999649925E+01  0.51100000000E-03 0. -1.
        -11    1    3    3    0    0  0.79832197407E+01 -0.28488395145E+02  0.28373844049E+02  0.40992627164E+02  0.51100000000E-03 0.  1.
        -12    1    3    3    0    0 -0.85928513926E+01  0.62226271230E+01 -0.25407264817E+01  0.10909329696E+02  0.00000000000E+00 0.  1.
</event>
<event>
 7    1  0.7749294E-012  0.5930196E+02  0.7816164E-02  0.1266605E+00
        -11   -1    0    0    0    0  0.00000000000E+00  0.00000000000E+00  0.45593999997E+02  0.45594000000E+02  0.51100000000E-03 0.  1.
         11   -1    0    0    0    0 -0.00000000000E+00 -0.00000000000E+00 -0.45593999997E+02  0.45594000000E+02  0.51100000000E-03 0. -1.
    9900012    2    1    2    0    0 -0.10080581184E+02  0.30247333413E+02  0.44726077075E+00  0.59301963279E+02  0.50000035109E+02 0.  0.
         12    1    1    2    0    0  0.10080581184E+02 -0.30247333413E+02 -0.44726077075E+00  0.31886036721E+02  0.00000000000E+00 0. -1.
         11    1    3    3    0    0 -0.16607021408E+02  0.10138360924E+02 -0.17714786076E+02  0.26313364822E+02  0.51100000000E-03 0. -1.
        -11    1    3    3    0    0 -0.49770770137E+01  0.18437034683E+01  0.67023109352E+01  0.85493572982E+01  0.51100000000E-03 0.  1.
         12    1    3    3    0    0  0.11503517238E+02  0.18265269021E+02  0.11459735912E+02  0.24439241159E+02  0.00000000000E+00 0. -1.
</event>
<event>
 7    1  0.7749294E-012  0.5930195E+02  0.7816164E-02  0.1266605E+00
        -11   -1    0    0    0    0  0.00000000000E+00  0.00000000000E+00  0.45593999997E+02  0.45594000000E+02  0.51100000000E-03 0.  1.
         11   -1    0    0    0    0 -0.00000000000E+00 -0.00000000000E+00 -0.45593999997E+02  0.45594000000E+02  0.51100000000E-03 0. -1.
    9900012    2    1    2    0    0 -0.27045063934E+02  0.81014462843E+01  0.14820638465E+02  0.59301949137E+02  0.50000009318E+02 0.  0.
         12    1    1    2    0    0  0.27045063934E+02 -0.81014462843E+01 -0.14820638465E+02  0.31886050863E+02  0.00000000000E+00 0. -1.
         11    1    3    3    0    0  0.49832174279E+01 -0.65388216250E+00 -0.36888257851E+01  0.62343767733E+01  0.51100000000E-03 0. -1.
        -11    1    3    3    0    0 -0.25869661749E+02  0.94425204267E+01 -0.56614070426E+01  0.28114980366E+02  0.51100000000E-03 0.  1.
        -12    1    3    3    0    0 -0.61586196137E+01 -0.68719197990E+00  0.24170871293E+02  0.24952591998E+02  0.00000000000E+00 0.  1.
</event>
<event>
 7    1  0.7749294E-012  0.5930193E+02  0.7816164E-02  0.1266605E+00
        -11   -1    0    0    0    0  0.00000000000E+00  0.00000000000E+00  0.45593999997E+02  0.45594000000E+02  0.51100000000E-03 0.  1.
         11   -1    0    0    0    0 -0.00000000000E+00 -0.00000000000E+00 -0.45593999997E+02  0.45594000000E+02  0.51100000000E-03 0. -1.
    9900012    2    1    2    0    0 -0.31245304481E+02  0.89765203973E+00  0.62965776620E+01  0.59301925899E+02  0.49999966938E+02 0.  0.
         12    1    1    2    0    0  0.31245304481E+02 -0.89765203973E+00 -0.62965776620E+01  0.31886074101E+02  0.00000000000E+00 0. -1.
         11    1    3    3    0    0  0.11178682548E+01  0.13372503868E+02 -0.14289068767E+01  0.13495008865E+02  0.51100000000E-03 0. -1.
        -11    1    3    3    0    0 -0.26449392595E+02 -0.55664101752E+01  0.17700414103E+02  0.32308821559E+02  0.51100000000E-03 0.  1.
         12    1    3    3    0    0 -0.59137801409E+01 -0.69084416535E+01 -0.99749295644E+01  0.13498095475E+02  0.00000000000E+00 0. -1.
</event>
<event>
 7    1  0.7749294E-012  0.5930192E+02  0.7816164E-02  0.1266605E+00
        -11   -1    0    0    0    0  0.00000000000E+00  0.00000000000E+00  0.45593999997E+02  0.45594000000E+02  0.51100000000E-03 0.  1.
         11   -1    0    0    0    0 -0.00000000000E+00 -0.00000000000E+00 -0.45593999997E+02  0.45594000000E+02  0.51100000000E-03 0. -1.
    9900012    2    1    2    0    0  0.98368764885E+01 -0.23954724689E+02  0.18604543046E+02  0.59301921597E+02  0.49999959091E+02 0.  0.
         12    1    1    2    0    0 -0.98368764885E+01  0.23954724689E+02 -0.18604543046E+02  0.31886078403E+02  0.00000000000E+00 0. -1.
         11    1    3    3    0    0 -0.29404994110E+01  0.46798614473E+01 -0.69305777982E+01  0.88645670413E+01  0.51100000000E-03 0. -1.
        -11    1    3    3    0    0  0.58327798433E+00 -0.27089515807E+02  0.26762922237E+02  0.38084591199E+02  0.51100000000E-03 0.  1.
         12    1    3    3    0    0  0.12194097915E+02 -0.15450703297E+01 -0.12278013922E+01  0.12352763357E+02  0.00000000000E+00 0. -1.
</event>
<event>
 7    1  0.7749294E-012  0.5930195E+02  0.7816164E-02  0.1266605E+00
        -11   -1    0    0    0    0  0.00000000000E+00  0.00000000000E+00  0.45593999997E+02  0.45594000000E+02  0.51100000000E-03 0.  1.
         11   -1    0    0    0    0 -0.00000000000E+00 -0.00000000000E+00 -0.45593999997E+02  0.45594000000E+02  0.51100000000E-03 0. -1.
    9900012    2    1    2    0    0  0.11405746129E+02 -0.10619579041E+02  0.27818230097E+02  0.59301946160E+02  0.50000003889E+02 0.  0.
         12    1    1    2    0    0 -0.11405746129E+02  0.10619579041E+02 -0.27818230097E+02  0.31886053840E+02  0.00000000000E+00 0. -1.
         11    1    3    3    0    0  0.14593122410E+02 -0.20912511344E+02  0.63049100459E+01  0.26268693217E+02  0.51100000000E-03 0.  1.
        -11    1    3    3    0    0  0.11379610712E+01  0.14227448867E+02  0.22937083374E+02  0.27015274395E+02  0.51100000000E-03 0. -1.
         12    1    3    3    0    0 -0.43253373523E+01 -0.39345165643E+01 -0.14237633227E+01  0.60179785481E+01  0.00000000000E+00 0. -1.
</event>
<event>
 7    1  0.7749294E-012  0.5930195E+02  0.7816164E-02  0.1266605E+00
        -11   -1    0    0    0    0  0.00000000000E+00  0.00000000000E+00  0.45593999997E+02  0.45594000000E+02  0.51100000000E-03 0. -1.
         11   -1    0    0    0    0 -0.00000000000E+00 -0.00000000000E+00 -0.45593999997E+02  0.45594000000E+02  0.51100000000E-03 0.  1.
    9900012    2    1    2    0    0  0.34556563604E+01 -0.16589128116E+02 -0.27010726030E+02  0.59301952061E+02  0.50000014650E+02 0.  0.
         12    1    1    2    0    0 -0.34556563604E+01  0.16589128116E+02  0.27010726030E+02  0.31886047939E+02  0.00000000000E+00 0. -1.
         11    1    3    3    0    0  0.25046585526E+02 -0.13143867565E+02 -0.12124631778E+02  0.30774980050E+02  0.51100000000E-03 0. -1.
        -11    1    3    3    0    0 -0.52187670670E+01  0.35185365514E+01 -0.57571801910E+01  0.85299913937E+01  0.51100000000E-03 0.  1.
         12    1    3    3    0    0 -0.16372162098E+02 -0.69637971018E+01 -0.91289140609E+01  0.19996980617E+02  0.00000000000E+00 0. -1.
</event>
<event>
 7    1  0.7749294E-012  0.5930197E+02  0.7816164E-02  0.1266605E+00
        -11   -1    0    0    0    0  0.00000000000E+00  0.00000000000E+00  0.45593999997E+02  0.45594000000E+02  0.51100000000E-03 0.  1.
         11   -1    0    0    0    0 -0.00000000000E+00 -0.00000000000E+00 -0.45593999997E+02  0.45594000000E+02  0.51100000000E-03 0. -1.
    9900012    2    1    2    0    0  0.15998300630E+02 -0.23281034378E+01  0.27483692357E+02  0.59301968039E+02  0.50000043791E+02 0.  0.
         12    1    1    2    0    0 -0.15998300630E+02  0.23281034378E+01 -0.27483692357E+02  0.31886031961E+02  0.00000000000E+00 0. -1.
         11    1    3    3    0    0 -0.91486014681E+01  0.12157507538E+01  0.80820372047E+01  0.12267611192E+02  0.51100000000E-03 0. -1.
        -11    1    3    3    0    0  0.25996101965E+02 -0.34649398177E+01 -0.13542445730E+01  0.26260942556E+02  0.51100000000E-03 0.  1.
        -12    1    3    3    0    0 -0.84919986716E+00 -0.78914373919E-01  0.20755899725E+02  0.20773414291E+02  0.00000000000E+00 0.  1.
</event>
<event>
 7    1  0.7749294E-012  0.5930195E+02  0.7816164E-02  0.1266605E+00
        -11   -1    0    0    0    0  0.00000000000E+00  0.00000000000E+00  0.45593999997E+02  0.45594000000E+02  0.51100000000E-03 0.  1.
         11   -1    0    0    0    0 -0.00000000000E+00 -0.00000000000E+00 -0.45593999997E+02  0.45594000000E+02  0.51100000000E-03 0. -1.
    9900012    2    1    2    0    0  0.11509996366E+02 -0.29093188405E+02 -0.61503173300E+01  0.59301952405E+02  0.50000015279E+02 0.  0.
         12    1    1    2    0    0 -0.11509996366E+02  0.29093188405E+02  0.61503173300E+01  0.31886047595E+02  0.00000000000E+00 0. -1.
         11    1    3    3    0    0 -0.15763170377E+02 -0.58465042237E+01 -0.14683295132E+02  0.22321700387E+02  0.51100000000E-03 0. -1.
        -11    1    3    3    0    0  0.20069117360E+02 -0.18488394790E+02  0.73985794556E+01  0.28272410434E+02  0.51100000000E-03 0.  1.
         12    1    3    3    0    0  0.72040493838E+01 -0.47582893912E+01  0.11343983461E+01  0.87078415846E+01  0.00000000000E+00 0. -1.
</event>
<event>
 7    1  0.7749294E-012  0.5930194E+02  0.7816164E-02  0.1266605E+00
        -11   -1    0    0    0    0  0.00000000000E+00  0.00000000000E+00  0.45593999997E+02  0.45594000000E+02  0.51100000000E-03 0. -1.
         11   -1    0    0    0    0 -0.00000000000E+00 -0.00000000000E+00 -0.45593999997E+02  0.45594000000E+02  0.51100000000E-03 0.  1.
    9900012    2    1    2    0    0  0.63139311879E+01 -0.25163084253E+01 -0.31153219120E+02  0.59301943538E+02  0.49999999107E+02 0.  0.
         12    1    1    2    0    0 -0.63139311879E+01  0.25163084253E+01  0.31153219120E+02  0.31886056462E+02  0.00000000000E+00 0. -1.
         11    1    3    3    0    0 -0.76363212665E+01 -0.66062578831E+01 -0.29861480202E+02  0.31522437181E+02  0.51100000000E-03 0.  1.
        -11    1    3    3    0    0  0.75414053922E+01 -0.63066312338E+01  0.78036497864E+01  0.12551627108E+02  0.51100000000E-03 0. -1.
         12    1    3    3    0    0  0.64088470622E+01  0.10396580692E+02 -0.90953887044E+01  0.15227879249E+02  0.00000000000E+00 0. -1.
</event>
<event>
 7    1  0.7749294E-012  0.5930193E+02  0.7816164E-02  0.1266605E+00
        -11   -1    0    0    0    0  0.00000000000E+00  0.00000000000E+00  0.45593999997E+02  0.45594000000E+02  0.51100000000E-03 0.  1.
         11   -1    0    0    0    0 -0.00000000000E+00 -0.00000000000E+00 -0.45593999997E+02  0.45594000000E+02  0.51100000000E-03 0. -1.
    9900012    2    1    2    0    0 -0.19523113855E+02  0.20009376708E+02  0.15336036454E+02  0.59301934941E+02  0.49999983428E+02 0.  0.
         12    1    1    2    0    0  0.19523113855E+02 -0.20009376708E+02 -0.15336036454E+02  0.31886065059E+02  0.00000000000E+00 0. -1.
         11    1    3    3    0    0 -0.16383175875E+02  0.26427524842E+02  0.10491860463E+02  0.32816179809E+02  0.51100000000E-03 0. -1.
        -11    1    3    3    0    0  0.10209694466E+02 -0.73181295269E+01  0.12019093656E+01  0.12618932889E+02  0.51100000000E-03 0.  1.
        -12    1    3    3    0    0 -0.13349632446E+02  0.89998139251E+00  0.36422666253E+01  0.13866822243E+02  0.00000000000E+00 0.  1.
</event>
<event>
 7    1  0.7749294E-012  0.5930195E+02  0.7816164E-02  0.1266605E+00
        -11   -1    0    0    0    0  0.00000000000E+00  0.00000000000E+00  0.45593999997E+02  0.45594000000E+02  0.51100000000E-03 0. -1.
         11   -1    0    0    0    0 -0.00000000000E+00 -0.00000000000E+00 -0.45593999997E+02  0.45594000000E+02  0.51100000000E-03 0.  1.
    9900012    2    1    2    0    0 -0.25459268819E+02  0.18346750584E+02 -0.56517929728E+01  0.59301946785E+02  0.50000005029E+02 0.  0.
         12    1    1    2    0    0  0.25459268819E+02 -0.18346750584E+02  0.56517929728E+01  0.31886053215E+02  0.00000000000E+00 0. -1.
         11    1    3    3    0    0  0.61896904043E+00  0.27252964778E+00 -0.47027316621E+01  0.47511135988E+01  0.51100000000E-03 0. -1.
        -11    1    3    3    0    0 -0.33692457319E+02  0.28857996745E+01 -0.10048777909E+02  0.35277293797E+02  0.51100000000E-03 0.  1.
        -12    1    3    3    0    0  0.76142194591E+01  0.15188421262E+02  0.90997165987E+01  0.19273539389E+02  0.00000000000E+00 0.  1.
</event>
<event>
 7    1  0.7749294E-012  0.5930199E+02  0.7816164E-02  0.1266605E+00
        -11   -1    0    0    0    0  0.00000000000E+00  0.00000000000E+00  0.45593999997E+02  0.45594000000E+02  0.51100000000E-03 0. -1.
         11   -1    0    0    0    0 -0.00000000000E+00 -0.00000000000E+00 -0.45593999997E+02  0.45594000000E+02  0.51100000000E-03 0.  1.
    9900012    2    1    2    0    0  0.11237514577E+02  0.29503216943E+02  0.44717198481E+01  0.59301987044E+02  0.50000078451E+02 0.  0.
         12    1    1    2    0    0 -0.11237514577E+02 -0.29503216943E+02 -0.44717198481E+01  0.31886012956E+02  0.00000000000E+00 0. -1.
         11    1    3    3    0    0  0.20598447056E+02  0.34272256166E+02  0.15254342533E+02  0.42796945337E+02  0.51100000000E-03 0. -1.
        -11    1    3    3    0    0 -0.17759743017E+01  0.17343544744E+01 -0.17624689876E+01  0.30443993425E+01  0.51100000000E-03 0.  1.
         12    1    3    3    0    0 -0.75849581770E+01 -0.65033936970E+01 -0.90201536977E+01  0.13460642364E+02  0.00000000000E+00 0. -1.
</event>
<event>
 7    1  0.7749294E-012  0.5930191E+02  0.7816164E-02  0.1266605E+00
        -11   -1    0    0    0    0  0.00000000000E+00  0.00000000000E+00  0.45593999997E+02  0.45594000000E+02  0.51100000000E-03 0. -1.
         11   -1    0    0    0    0 -0.00000000000E+00 -0.00000000000E+00 -0.45593999997E+02  0.45594000000E+02  0.51100000000E-03 0.  1.
    9900012    2    1    2    0    0  0.22764803754E+02  0.21760366237E+02 -0.49972795427E+01  0.59301911630E+02  0.49999940915E+02 0.  0.
         12    1    1    2    0    0 -0.22764803754E+02 -0.21760366237E+02  0.49972795427E+01  0.31886088370E+02  0.00000000000E+00 0. -1.
         11    1    3    3    0    0  0.23957801992E+02  0.18715217114E+02  0.16620279934E+02  0.34647789731E+02  0.51100000000E-03 0. -1.
        -11    1    3    3    0    0  0.43416175651E+01  0.10541672296E+01 -0.15649504102E+02  0.16274762380E+02  0.51100000000E-03 0.  1.
        -12    1    3    3    0    0 -0.55346158031E+01  0.19909818928E+01 -0.59680553745E+01  0.83793595184E+01  0.00000000000E+00 0.  1.
</event>
<event>
 7    1  0.7749294E-012  0.5930198E+02  0.7816164E-02  0.1266605E+00
        -11   -1    0    0    0    0  0.00000000000E+00  0.00000000000E+00  0.45593999997E+02  0.45594000000E+02  0.51100000000E-03 0. -1.
         11   -1    0    0    0    0 -0.00000000000E+00 -0.00000000000E+00 -0.45593999997E+02  0.45594000000E+02  0.51100000000E-03 0.  1.
    9900012    2    1    2    0    0 -0.33395372212E+00  0.20067542584E+02  0.24777013973E+02  0.59301980934E+02  0.50000067308E+02 0.  0.
         12    1    1    2    0    0  0.33395372212E+00 -0.20067542584E+02 -0.24777013973E+02  0.31886019066E+02  0.00000000000E+00 0. -1.
         11    1    3    3    0    0 -0.95015730034E+01 -0.99892976692E+01 -0.11969650460E+01  0.13838304919E+02  0.51100000000E-03 0. -1.
        -11    1    3    3    0    0  0.47478803582E+01  0.19003472801E+02  0.33124598976E+01  0.19865717637E+02  0.51100000000E-03 0.  1.
         12    1    3    3    0    0  0.44197389231E+01  0.11053367453E+02  0.22661519122E+02  0.25597958377E+02  0.00000000000E+00 0. -1.
</event>
<event>
 7    1  0.7749294E-012  0.5930194E+02  0.7816164E-02  0.1266605E+00
        -11   -1    0    0    0    0  0.00000000000E+00  0.00000000000E+00  0.45593999997E+02  0.45594000000E+02  0.51100000000E-03 0.  1.
         11   -1    0    0    0    0 -0.00000000000E+00 -0.00000000000E+00 -0.45593999997E+02  0.45594000000E+02  0.51100000000E-03 0. -1.
    9900012    2    1    2    0    0 -0.52432010017E+01  0.26012261124E+02  0.17680262330E+02  0.59301944089E+02  0.50000000112E+02 0.  0.
         12    1    1    2    0    0  0.52432010017E+01 -0.26012261124E+02 -0.17680262330E+02  0.31886055911E+02  0.00000000000E+00 0. -1.
         11    1    3    3    0    0 -0.57518396242E+01 -0.89827365101E+01  0.11541389041E+01  0.10728711532E+02  0.51100000000E-03 0. -1.
        -11    1    3    3    0    0  0.60688319110E+01  0.31454679520E+02  0.13909623755E+01  0.32064970935E+02  0.51100000000E-03 0.  1.
        -12    1    3    3    0    0 -0.55601932885E+01  0.35403181138E+01  0.15135161050E+02  0.16508261622E+02  0.00000000000E+00 0.  1.
</event>
<event>
 7    1  0.7749294E-012  0.5930200E+02  0.7816164E-02  0.1266605E+00
        -11   -1    0    0    0    0  0.00000000000E+00  0.00000000000E+00  0.45593999997E+02  0.45594000000E+02  0.51100000000E-03 0. -1.
         11   -1    0    0    0    0 -0.00000000000E+00 -0.00000000000E+00 -0.45593999997E+02  0.45594000000E+02  0.51100000000E-03 0.  1.
    9900012    2    1    2    0    0 -0.28047463242E+02  0.15078600506E+02  0.16409715067E+01  0.59301997193E+02  0.50000096960E+02 0.  0.
         12    1    1    2    0    0  0.28047463242E+02 -0.15078600506E+02 -0.16409715067E+01  0.31886002807E+02  0.00000000000E+00 0. -1.
         11    1    3    3    0    0  0.90517892429E+01  0.58408743771E+01  0.90658807264E+01  0.14079804530E+02  0.51100000000E-03 0. -1.
        -11    1    3    3    0    0 -0.38054728441E+02  0.11602706163E+02 -0.27283355359E+01  0.39877674983E+02  0.51100000000E-03 0.  1.
        -12    1    3    3    0    0  0.95547595519E+00 -0.23649800345E+01 -0.46965736837E+01  0.53445176799E+01  0.00000000000E+00 0.  1.
</event>
<event>
 7    1  0.7749294E-012  0.5930195E+02  0.7816164E-02  0.1266605E+00
        -11   -1    0    0    0    0  0.00000000000E+00  0.00000000000E+00  0.45593999997E+02  0.45594000000E+02  0.51100000000E-03 0.  1.
         11   -1    0    0    0    0 -0.00000000000E+00 -0.00000000000E+00 -0.45593999997E+02  0.45594000000E+02  0.51100000000E-03 0. -1.
    9900012    2    1    2    0    0  0.19685854621E+02 -0.62100172051E+01  0.24302740063E+02  0.59301947243E+02  0.50000005863E+02 0.  0.
         12    1    1    2    0    0 -0.19685854621E+02  0.62100172051E+01 -0.24302740063E+02  0.31886052757E+02  0.00000000000E+00 0. -1.
         11    1    3    3    0    0  0.11963550879E+02 -0.37820038720E+00 -0.97081467339E+01  0.15411609209E+02  0.51100000000E-03 0. -1.
        -11    1    3    3    0    0  0.15371842191E+02  0.34092850374E+01  0.19204670280E+02  0.24834172376E+02  0.51100000000E-03 0.  1.
        -12    1    3    3    0    0 -0.76495384483E+01 -0.92411018553E+01  0.14806216518E+02  0.19056165657E+02  0.00000000000E+00 0.  1.
</event>
<event>
 7    1  0.7749294E-012  0.5930194E+02  0.7816164E-02  0.1266605E+00
        -11   -1    0    0    0    0  0.00000000000E+00  0.00000000000E+00  0.45593999997E+02  0.45594000000E+02  0.51100000000E-03 0. -1.
         11   -1    0    0    0    0 -0.00000000000E+00 -0.00000000000E+00 -0.45593999997E+02  0.45594000000E+02  0.51100000000E-03 0.  1.
    9900012    2    1    2    0    0  0.20140886640E+02 -0.35272897219E+01 -0.24466792119E+02  0.59301937151E+02  0.49999987458E+02 0.  0.
         12    1    1    2    0    0 -0.20140886640E+02  0.35272897219E+01  0.24466792119E+02  0.31886062849E+02  0.00000000000E+00 0. -1.
         11    1    3    3    0    0 -0.96527204657E+01  0.11429159611E+02 -0.39859424840E+01  0.15481874549E+02  0.51100000000E-03 0. -1.
        -11    1    3    3    0    0  0.84489548749E+01 -0.14968660942E+02 -0.11391679229E+02  0.20620766348E+02  0.51100000000E-03 0.  1.
         12    1    3    3    0    0  0.21344652231E+02  0.12211609284E-01 -0.90891704062E+01  0.23199296253E+02  0.00000000000E+00 0. -1.
</event>
<event>
 7    1  0.7749294E-012  0.5930192E+02  0.7816164E-02  0.1266605E+00
        -11   -1    0    0    0    0  0.00000000000E+00  0.00000000000E+00  0.45593999997E+02  0.45594000000E+02  0.51100000000E-03 0.  1.
         11   -1    0    0    0    0 -0.00000000000E+00 -0.00000000000E+00 -0.45593999997E+02  0.45594000000E+02  0.51100000000E-03 0. -1.
    9900012    2    1    2    0    0 -0.15761118711E+02 -0.83198489257E+01  0.26440303790E+02  0.59301915047E+02  0.49999947146E+02 0.  0.
         12    1    1    2    0    0  0.15761118711E+02  0.83198489257E+01 -0.26440303790E+02  0.31886084953E+02  0.00000000000E+00 0. -1.
         11    1    3    3    0    0 -0.81108476734E+01  0.14236141572E+02  0.71683684121E+01  0.17884045482E+02  0.51100000000E-03 0. -1.
        -11    1    3    3    0    0 -0.30658025161E+01 -0.18658408532E+02  0.26155801869E+02  0.32274778476E+02  0.51100000000E-03 0.  1.
        -12    1    3    3    0    0 -0.45844685209E+01 -0.38975819651E+01 -0.68838664912E+01  0.91430910891E+01  0.00000000000E+00 0.  1.
</event>
<event>
 7    1  0.7749294E-012  0.5930195E+02  0.7816164E-02  0.1266605E+00
        -11   -1    0    0    0    0  0.00000000000E+00  0.00000000000E+00  0.45593999997E+02  0.45594000000E+02  0.51100000000E-03 0. -1.
         11   -1    0    0    0    0 -0.00000000000E+00 -0.00000000000E+00 -0.45593999997E+02  0.45594000000E+02  0.51100000000E-03 0.  1.
    9900012    2    1    2    0    0 -0.98808316116E+01 -0.29428062076E+02  0.72854901572E+01  0.59301952303E+02  0.50000015092E+02 0.  0.
         12    1    1    2    0    0  0.98808316116E+01  0.29428062076E+02 -0.72854901572E+01  0.31886047697E+02  0.00000000000E+00 0. -1.
         11    1    3    3    0    0 -0.26313312787E+02 -0.16567714376E+02  0.15335657476E+02  0.34670765494E+02  0.51100000000E-03 0. -1.
        -11    1    3    3    0    0  0.16585180572E+02 -0.93143792319E+01 -0.88704924279E+01  0.20988366093E+02  0.51100000000E-03 0.  1.
         12    1    3    3    0    0 -0.15269939758E+00 -0.35459684680E+01  0.82032510866E+00  0.36428207156E+01  0.00000000000E+00 0. -1.
</event>
<event>
 7    1  0.7749294E-012  0.5930197E+02  0.7816164E-02  0.1266605E+00
        -11   -1    0    0    0    0  0.00000000000E+00  0.00000000000E+00  0.45593999997E+02  0.45594000000E+02  0.51100000000E-03 0. -1.
         11   -1    0    0    0    0 -0.00000000000E+00 -0.00000000000E+00 -0.45593999997E+02  0.45594000000E+02  0.51100000000E-03 0.  1.
    9900012    2    1    2    0    0  0.27941832457E+01  0.25806644172E+02 -0.18518338489E+02  0.59301965380E+02  0.50000038941E+02 0.  0.
         12    1    1    2    0    0 -0.27941832457E+01 -0.25806644172E+02  0.18518338489E+02  0.31886034620E+02  0.00000000000E+00 0. -1.
         11    1    3    3    0    0 -0.81804644097E+01  0.30060678833E+02 -0.83345760117E+01  0.32249489414E+02  0.51100000000E-03 0.  1.
        -11    1    3    3    0    0 -0.97424683861E+00 -0.11175431795E+02 -0.52860271240E+01  0.12400867539E+02  0.51100000000E-03 0. -1.
        -12    1    3    3    0    0  0.11948894494E+02  0.69213971335E+01 -0.48977353529E+01  0.14651608427E+02  0.00000000000E+00 0.  1.
</event>
<event>
 7    1  0.7749294E-012  0.5930193E+02  0.7816164E-02  0.1266605E+00
        -11   -1    0    0    0    0  0.00000000000E+00  0.00000000000E+00  0.45593999997E+02  0.45594000000E+02  0.51100000000E-03 0.  1.
         11   -1    0    0    0    0 -0.00000000000E+00 -0.00000000000E+00 -0.45593999997E+02  0.45594000000E+02  0.51100000000E-03 0. -1.
    9900012    2    1    2    0    0  0.30829531688E+02 -0.18145270679E+01  0.79352987685E+01  0.59301929387E+02  0.49999973299E+02 0.  0.
         12    1    1    2    0    0 -0.30829531688E+02  0.18145270679E+01 -0.79352987685E+01  0.31886070613E+02  0.00000000000E+00 0. -1.
         11    1    3    3    0    0  0.13330572566E+02 -0.20282503080E+02 -0.35428317322E+01  0.24528264371E+02  0.51100000000E-03 0. -1.
        -11    1    3    3    0    0  0.16574472263E+02  0.87256764270E+01 -0.11866415499E+01  0.18768555574E+02  0.51100000000E-03 0.  1.
        -12    1    3    3    0    0  0.92448685951E+00  0.97422995852E+01  0.12664772051E+02  0.16005109442E+02  0.00000000000E+00 0.  1.
</event>
<event>
 7    1  0.7749294E-012  0.5930196E+02  0.7816164E-02  0.1266605E+00
        -11   -1    0    0    0    0  0.00000000000E+00  0.00000000000E+00  0.45593999997E+02  0.45594000000E+02  0.51100000000E-03 0. -1.
         11   -1    0    0    0    0 -0.00000000000E+00 -0.00000000000E+00 -0.45593999997E+02  0.45594000000E+02  0.51100000000E-03 0.  1.
    9900012    2    1    2    0    0 -0.13266006349E+02 -0.16137368298E+02 -0.24089789153E+02  0.59301960399E+02  0.50000029857E+02 0.  0.
         12    1    1    2    0    0  0.13266006349E+02  0.16137368298E+02  0.24089789153E+02  0.31886039601E+02  0.00000000000E+00 0. -1.
         11    1    3    3    0    0 -0.26672346278E+02 -0.19183937390E+02 -0.11995224829E+02  0.34976033634E+02  0.51100000000E-03 0. -1.
        -11    1    3    3    0    0  0.64213417737E+01 -0.59796354030E+01 -0.88454405248E+01  0.12459192914E+02  0.51100000000E-03 0.  1.
        -12    1    3    3    0    0  0.69849981559E+01  0.90262044953E+01 -0.32491237988E+01  0.11866733851E+02  0.00000000000E+00 0.  1.
</event>
<event>
 7    1  0.7749294E-012  0.5930207E+02  0.7816164E-02  0.1266604E+00
        -11   -1    0    0    0    0  0.00000000000E+00  0.00000000000E+00  0.45593999997E+02  0.45594000000E+02  0.51100000000E-03 0. -1.
         11   -1    0    0    0    0 -0.00000000000E+00 -0.00000000000E+00 -0.45593999997E+02  0.45594000000E+02  0.51100000000E-03 0.  1.
    9900012    2    1    2    0    0  0.79278618011E+01  0.80134334290E+01 -0.29826945587E+02  0.59302065937E+02  0.50000222332E+02 0.  0.
         12    1    1    2    0    0 -0.79278618011E+01 -0.80134334290E+01  0.29826945587E+02  0.31885934063E+02  0.00000000000E+00 0. -1.
         11    1    3    3    0    0 -0.97866423165E+01  0.44929300632E+01  0.53245942226E+01  0.12013163292E+02  0.51100000000E-03 0. -1.
        -11    1    3    3    0    0  0.11038731458E+02 -0.10525250697E+02 -0.12037952685E+02  0.19430563541E+02  0.51100000000E-03 0.  1.
         12    1    3    3    0    0  0.66757726598E+01  0.14045754063E+02 -0.23113587125E+02  0.27858339103E+02  0.00000000000E+00 0. -1.
</event>
<event>
 7    1  0.7749294E-012  0.5930196E+02  0.7816164E-02  0.1266605E+00
        -11   -1    0    0    0    0  0.00000000000E+00  0.00000000000E+00  0.45593999997E+02  0.45594000000E+02  0.51100000000E-03 0.  1.
         11   -1    0    0    0    0 -0.00000000000E+00 -0.00000000000E+00 -0.45593999997E+02  0.45594000000E+02  0.51100000000E-03 0. -1.
    9900012    2    1    2    0    0  0.12546929041E+02 -0.22211191833E+02  0.19130009798E+02  0.59301956880E+02  0.50000023439E+02 0.  0.
         12    1    1    2    0    0 -0.12546929041E+02  0.22211191833E+02 -0.19130009798E+02  0.31886043120E+02  0.00000000000E+00 0. -1.
         11    1    3    3    0    0 -0.83156292596E+00 -0.22231326887E+02  0.29360520248E+02  0.36836986054E+02  0.51100000000E-03 0. -1.
        -11    1    3    3    0    0  0.11402049133E+02 -0.14220085608E+01  0.45849875537E+00  0.11499524083E+02  0.51100000000E-03 0.  1.
         12    1    3    3    0    0  0.19764428341E+01  0.14421436145E+01 -0.10689009205E+02  0.10965446743E+02  0.00000000000E+00 0. -1.
</event>
<event>
 7    1  0.7749294E-012  0.5930191E+02  0.7816164E-02  0.1266605E+00
        -11   -1    0    0    0    0  0.00000000000E+00  0.00000000000E+00  0.45593999997E+02  0.45594000000E+02  0.51100000000E-03 0. -1.
         11   -1    0    0    0    0 -0.00000000000E+00 -0.00000000000E+00 -0.45593999997E+02  0.45594000000E+02  0.51100000000E-03 0.  1.
    9900012    2    1    2    0    0  0.25121376730E+02 -0.14766865465E+02 -0.12945222722E+02  0.59301910936E+02  0.49999939649E+02 0.  0.
         12    1    1    2    0    0 -0.25121376730E+02  0.14766865465E+02  0.12945222722E+02  0.31886089064E+02  0.00000000000E+00 0. -1.
         11    1    3    3    0    0  0.31622360457E+02 -0.40224710683E+01 -0.31550346883E+01  0.32032923665E+02  0.51100000000E-03 0. -1.
        -11    1    3    3    0    0 -0.14521671490E+02 -0.92675681660E+01 -0.75691189169E+01  0.18816437602E+02  0.51100000000E-03 0.  1.
        -12    1    3    3    0    0  0.80206877626E+01 -0.14768262306E+01 -0.22210691171E+01  0.84525496699E+01  0.00000000000E+00 0.  1.
</event>
<event>
 7    1  0.7749294E-012  0.5930193E+02  0.7816164E-02  0.1266605E+00
        -11   -1    0    0    0    0  0.00000000000E+00  0.00000000000E+00  0.45593999997E+02  0.45594000000E+02  0.51100000000E-03 0. -1.
         11   -1    0    0    0    0 -0.00000000000E+00 -0.00000000000E+00 -0.45593999997E+02  0.45594000000E+02  0.51100000000E-03 0.  1.
    9900012    2    1    2    0    0 -0.66001704884E+01 -0.31182557091E+02 -0.89856332384E+00  0.59301928852E+02  0.49999972323E+02 0.  0.
         12    1    1    2    0    0  0.66001704884E+01  0.31182557091E+02  0.89856332384E+00  0.31886071148E+02  0.00000000000E+00 0. -1.
         11    1    3    3    0    0  0.10900075888E+02 -0.13168899183E+02  0.24640195238E+01  0.17271449058E+02  0.51100000000E-03 0. -1.
        -11    1    3    3    0    0 -0.27292561585E+02 -0.11844116628E+02  0.71234641578E+00  0.29760283168E+02  0.51100000000E-03 0.  1.
        -12    1    3    3    0    0  0.97923152085E+01 -0.61695412794E+01 -0.40749292634E+01  0.12270196626E+02  0.00000000000E+00 0.  1.
</event>
<event>
 7    1  0.7749294E-012  0.5930196E+02  0.7816164E-02  0.1266605E+00
        -11   -1    0    0    0    0  0.00000000000E+00  0.00000000000E+00  0.45593999997E+02  0.45594000000E+02  0.51100000000E-03 0.  1.
         11   -1    0    0    0    0 -0.00000000000E+00 -0.00000000000E+00 -0.45593999997E+02  0.45594000000E+02  0.51100000000E-03 0. -1.
    9900012    2    1    2    0    0  0.14887671647E+02  0.22463262922E+02  0.17043439489E+02  0.59301956379E+02  0.50000022527E+02 0.  0.
         12    1    1    2    0    0 -0.14887671647E+02 -0.22463262922E+02 -0.17043439489E+02  0.31886043621E+02  0.00000000000E+00 0. -1.
         11    1    3    3    0    0  0.49086341851E+01 -0.14139859791E+02  0.81880580049E+01  0.17060909080E+02  0.51100000000E-03 0. -1.
        -11    1    3    3    0    0  0.49979834646E+01  0.33939946951E+02  0.11253707137E+02  0.36104650149E+02  0.51100000000E-03 0.  1.
         12    1    3    3    0    0  0.49810539973E+01  0.26631757615E+01 -0.23983256526E+01  0.61363971511E+01  0.00000000000E+00 0. -1.
</event>
<event>
 7    1  0.7749294E-012  0.5930196E+02  0.7816164E-02  0.1266605E+00
        -11   -1    0    0    0    0  0.00000000000E+00  0.00000000000E+00  0.45593999997E+02  0.45594000000E+02  0.51100000000E-03 0.  1.
         11   -1    0    0    0    0 -0.00000000000E+00 -0.00000000000E+00 -0.45593999997E+02  0.45594000000E+02  0.51100000000E-03 0. -1.
    9900012    2    1    2    0    0 -0.13518057723E+02  0.66828006752E+01  0.28094868643E+02  0.59301963032E+02  0.50000034659E+02 0.  0.
         12    1    1    2    0    0  0.13518057723E+02 -0.66828006752E+01 -0.28094868643E+02  0.31886036968E+02  0.00000000000E+00 0. -1.
         11    1    3    3    0    0 -0.22587427000E+01  0.20713119678E+02  0.21512186585E+01  0.20946670078E+02  0.51100000000E-03 0. -1.
        -11    1    3    3    0    0 -0.56766481953E+01  0.11137180396E+01  0.20532896018E+02  0.21332241368E+02  0.51100000000E-03 0.  1.
         12    1    3    3    0    0 -0.55826668280E+01 -0.15144037042E+02  0.54107539661E+01  0.17023051587E+02  0.00000000000E+00 0. -1.
</event>
<event>
 7    1  0.7749294E-012  0.5930192E+02  0.7816164E-02  0.1266605E+00
        -11   -1    0    0    0    0  0.00000000000E+00  0.00000000000E+00  0.45593999997E+02  0.45594000000E+02  0.51100000000E-03 0.  1.
         11   -1    0    0    0    0 -0.00000000000E+00 -0.00000000000E+00 -0.45593999997E+02  0.45594000000E+02  0.51100000000E-03 0. -1.
    9900012    2    1    2    0    0  0.14457179070E+02 -0.64806468889E+01  0.27671522246E+02  0.59301922251E+02  0.49999960285E+02 0.  0.
         12    1    1    2    0    0 -0.14457179070E+02  0.64806468889E+01 -0.27671522246E+02  0.31886077749E+02  0.00000000000E+00 0. -1.
         11    1    3    3    0    0  0.32003077185E+01 -0.22009203740E+01 -0.87484748109E+01  0.95719293647E+01  0.51100000000E-03 0. -1.
        -11    1    3    3    0    0  0.12573553180E+02  0.24883510445E+01  0.39969971673E+02  0.41974811093E+02  0.51100000000E-03 0.  1.
        -12    1    3    3    0    0 -0.13166818285E+01 -0.67680775594E+01 -0.35499746156E+01  0.77551817940E+01  0.00000000000E+00 0.  1.
</event>
<event>
 7    1  0.7749294E-012  0.5930194E+02  0.7816164E-02  0.1266605E+00
        -11   -1    0    0    0    0  0.00000000000E+00  0.00000000000E+00  0.45593999997E+02  0.45594000000E+02  0.51100000000E-03 0. -1.
         11   -1    0    0    0    0 -0.00000000000E+00 -0.00000000000E+00 -0.45593999997E+02  0.45594000000E+02  0.51100000000E-03 0.  1.
    9900012    2    1    2    0    0  0.25883126847E+02  0.79213913722E+01 -0.16853362379E+02  0.59301944739E+02  0.50000001297E+02 0.  0.
         12    1    1    2    0    0 -0.25883126847E+02 -0.79213913722E+01  0.16853362379E+02  0.31886055261E+02  0.00000000000E+00 0. -1.
         11    1    3    3    0    0 -0.23752071054E+01 -0.19576711083E+01 -0.53215767222E+00  0.31236640362E+01  0.51100000000E-03 0. -1.
        -11    1    3    3    0    0  0.12313437808E+02  0.26735532052E+02 -0.14745772060E+02  0.32921834983E+02  0.51100000000E-03 0.  1.
        -12    1    3    3    0    0  0.15944896144E+02 -0.16856469572E+02 -0.15754326468E+01  0.23256445719E+02  0.00000000000E+00 0.  1.
</event>
<event>
 7    1  0.7749294E-012  0.5930212E+02  0.7816164E-02  0.1266604E+00
        -11   -1    0    0    0    0  0.00000000000E+00  0.00000000000E+00  0.45593999997E+02  0.45594000000E+02  0.51100000000E-03 0.  1.
         11   -1    0    0    0    0 -0.00000000000E+00 -0.00000000000E+00 -0.45593999997E+02  0.45594000000E+02  0.51100000000E-03 0. -1.
    9900012    2    1    2    0    0  0.97646329635E+01 -0.27382797778E+02  0.13097458039E+02  0.59302124159E+02  0.50000328516E+02 0.  0.
         12    1    1    2    0    0 -0.97646329635E+01  0.27382797778E+02 -0.13097458039E+02  0.31885875841E+02  0.00000000000E+00 0. -1.
         11    1    3    3    0    0  0.48568586122E+01  0.34730452128E+01 -0.11991991715E+02  0.13396230223E+02  0.51100000000E-03 0. -1.
        -11    1    3    3    0    0  0.22743806128E+01 -0.15235044833E+02  0.25800148148E+02  0.30048744449E+02  0.51100000000E-03 0.  1.
         12    1    3    3    0    0  0.26333937385E+01 -0.15620798157E+02 -0.71069839432E+00  0.15857149487E+02  0.00000000000E+00 0. -1.
</event>
<event>
 7    1  0.7749294E-012  0.5930195E+02  0.7816164E-02  0.1266605E+00
        -11   -1    0    0    0    0  0.00000000000E+00  0.00000000000E+00  0.45593999997E+02  0.45594000000E+02  0.51100000000E-03 0. -1.
         11   -1    0    0    0    0 -0.00000000000E+00 -0.00000000000E+00 -0.45593999997E+02  0.45594000000E+02  0.51100000000E-03 0.  1.
    9900012    2    1    2    0    0 -0.16305670480E+02  0.27309810531E+02 -0.22405004870E+01  0.59301945314E+02  0.50000002345E+02 0.  0.
         12    1    1    2    0    0  0.16305670480E+02 -0.27309810531E+02  0.22405004870E+01  0.31886054686E+02  0.00000000000E+00 0. -1.
         11    1    3    3    0    0  0.40080563058E+01  0.84642350765E+01  0.88502669216E+01  0.12885457525E+02  0.51100000000E-03 0. -1.
        -11    1    3    3    0    0  0.21206308598E+01 -0.15796502642E+01 -0.15530299943E+02  0.15753811817E+02  0.51100000000E-03 0.  1.
        -12    1    3    3    0    0 -0.22434357645E+02  0.20425225719E+02  0.44395325344E+01  0.30662675971E+02  0.00000000000E+00 0.  1.
</event>
<event>
 7    1  0.7749294E-012  0.5930232E+02  0.7816164E-02  0.1266603E+00
        -11   -1    0    0    0    0  0.00000000000E+00  0.00000000000E+00  0.45593999997E+02  0.45594000000E+02  0.51100000000E-03 0.  1.
         11   -1    0    0    0    0 -0.00000000000E+00 -0.00000000000E+00 -0.45593999997E+02  0.45594000000E+02  0.51100000000E-03 0. -1.
    9900012    2    1    2    0    0 -0.39790007744E+01 -0.28160478741E+02  0.14417059721E+02  0.59302319498E+02  0.50000684762E+02 0.  0.
         12    1    1    2    0    0  0.39790007744E+01  0.28160478741E+02 -0.14417059721E+02  0.31885680502E+02  0.00000000000E+00 0. -1.
         11    1    3    3    0    0 -0.11520481922E+02  0.12521195548E+01 -0.58004674358E+01  0.12958963301E+02  0.51100000000E-03 0. -1.
        -11    1    3    3    0    0  0.11836080772E+02 -0.54249828042E+01  0.17515971308E+02  0.21825042900E+02  0.51100000000E-03 0.  1.
         12    1    3    3    0    0 -0.42945996244E+01 -0.23987615492E+02  0.27015558490E+01  0.24518313297E+02  0.00000000000E+00 0. -1.
</event>
<event>
 7    1  0.7749294E-012  0.5930205E+02  0.7816164E-02  0.1266604E+00
        -11   -1    0    0    0    0  0.00000000000E+00  0.00000000000E+00  0.45593999997E+02  0.45594000000E+02  0.51100000000E-03 0. -1.
         11   -1    0    0    0    0 -0.00000000000E+00 -0.00000000000E+00 -0.45593999997E+02  0.45594000000E+02  0.51100000000E-03 0.  1.
    9900012    2    1    2    0    0  0.25662977775E+02  0.87594770009E+01 -0.16774887778E+02  0.59302051283E+02  0.50000195608E+02 0.  0.
         12    1    1    2    0    0 -0.25662977775E+02 -0.87594770009E+01  0.16774887778E+02  0.31885948717E+02  0.00000000000E+00 0. -1.
         11    1    3    3    0    0  0.36232444738E+01 -0.95955627750E+01  0.83448744691E+01  0.13222694720E+02  0.51100000000E-03 0. -1.
        -11    1    3    3    0    0  0.13697978987E+02  0.90131709883E+01 -0.28699611089E+02  0.33053586137E+02  0.51100000000E-03 0.  1.
        -12    1    3    3    0    0  0.83417543143E+01  0.93418687876E+01  0.35798488413E+01  0.13025770427E+02  0.00000000000E+00 0.  1.
</event>
<event>
 7    1  0.7749294E-012  0.5930196E+02  0.7816164E-02  0.1266605E+00
        -11   -1    0    0    0    0  0.00000000000E+00  0.00000000000E+00  0.45593999997E+02  0.45594000000E+02  0.51100000000E-03 0. -1.
         11   -1    0    0    0    0 -0.00000000000E+00 -0.00000000000E+00 -0.45593999997E+02  0.45594000000E+02  0.51100000000E-03 0.  1.
    9900012    2    1    2    0    0 -0.22418779991E+02  0.19562913294E+02 -0.11463444842E+02  0.59301955396E+02  0.50000020734E+02 0.  0.
         12    1    1    2    0    0  0.22418779991E+02 -0.19562913294E+02  0.11463444842E+02  0.31886044604E+02  0.00000000000E+00 0. -1.
         11    1    3    3    0    0  0.10479917855E+02  0.17398413882E+01 -0.92013319573E+01  0.14054189281E+02  0.51100000000E-03 0. -1.
        -11    1    3    3    0    0 -0.33023043571E+02  0.22316234249E+02  0.70361072601E+00  0.39862649010E+02  0.51100000000E-03 0.  1.
        -12    1    3    3    0    0  0.12434572531E+00 -0.44931623434E+01 -0.29657236107E+01  0.53851171054E+01  0.00000000000E+00 0.  1.
</event>
<event>
 7    1  0.7749294E-012  0.5930199E+02  0.7816164E-02  0.1266605E+00
        -11   -1    0    0    0    0  0.00000000000E+00  0.00000000000E+00  0.45593999997E+02  0.45594000000E+02  0.51100000000E-03 0. -1.
         11   -1    0    0    0    0 -0.00000000000E+00 -0.00000000000E+00 -0.45593999997E+02  0.45594000000E+02  0.51100000000E-03 0.  1.
    9900012    2    1    2    0    0  0.22462794333E+02  0.11173080194E+01 -0.22602926494E+02  0.59301987509E+02  0.50000079300E+02 0.  0.
         12    1    1    2    0    0 -0.22462794333E+02 -0.11173080194E+01  0.22602926494E+02  0.31886012491E+02  0.00000000000E+00 0. -1.
         11    1    3    3    0    0  0.16500348586E+02 -0.14440790134E+02 -0.10060057082E+02  0.24124731541E+02  0.51100000000E-03 0. -1.
        -11    1    3    3    0    0 -0.19432859372E+01  0.41373256459E+00 -0.17323669458E+02  0.17437231965E+02  0.51100000000E-03 0.  1.
         12    1    3    3    0    0  0.79057316840E+01  0.15144365589E+02  0.47808000458E+01  0.17740024003E+02  0.00000000000E+00 0. -1.
</event>
<event>
 7    1  0.7749294E-012  0.5930194E+02  0.7816164E-02  0.1266605E+00
        -11   -1    0    0    0    0  0.00000000000E+00  0.00000000000E+00  0.45593999997E+02  0.45594000000E+02  0.51100000000E-03 0.  1.
         11   -1    0    0    0    0 -0.00000000000E+00 -0.00000000000E+00 -0.45593999997E+02  0.45594000000E+02  0.51100000000E-03 0. -1.
    9900012    2    1    2    0    0 -0.29027705424E+02  0.13194881093E+02 -0.92057738862E-01  0.59301936526E+02  0.49999986319E+02 0.  0.
         12    1    1    2    0    0  0.29027705424E+02 -0.13194881093E+02  0.92057738862E-01  0.31886063474E+02  0.00000000000E+00 0. -1.
         11    1    3    3    0    0  0.11868206990E+02  0.17826660323E+01 -0.28351344643E+01  0.12331675597E+02  0.51100000000E-03 0. -1.
        -11    1    3    3    0    0 -0.28273321052E+02  0.12141154906E+02 -0.63220724631E+01  0.31412687345E+02  0.51100000000E-03 0.  1.
        -12    1    3    3    0    0 -0.12622591362E+02 -0.72893984503E+00  0.90651491886E+01  0.15557573583E+02  0.00000000000E+00 0.  1.
</event>
<event>
 7    1  0.7749294E-012  0.5930193E+02  0.7816164E-02  0.1266605E+00
        -11   -1    0    0    0    0  0.00000000000E+00  0.00000000000E+00  0.45593999997E+02  0.45594000000E+02  0.51100000000E-03 0.  1.
         11   -1    0    0    0    0 -0.00000000000E+00 -0.00000000000E+00 -0.45593999997E+02  0.45594000000E+02  0.51100000000E-03 0. -1.
    9900012    2    1    2    0    0 -0.98766867590E+01 -0.84142795201E+00  0.30306178540E+02  0.59301930941E+02  0.49999976133E+02 0.  0.
         12    1    1    2    0    0  0.98766867590E+01  0.84142795201E+00 -0.30306178540E+02  0.31886069059E+02  0.00000000000E+00 0. -1.
         11    1    3    3    0    0  0.56076964614E+01  0.65805154715E+01  0.11043038165E+02  0.14024911253E+02  0.51100000000E-03 0. -1.
        -11    1    3    3    0    0 -0.40358477405E+01 -0.22015870650E+02  0.11570267188E+02  0.25196382886E+02  0.51100000000E-03 0.  1.
        -12    1    3    3    0    0 -0.11448535480E+02  0.14593927226E+02  0.76928731866E+01  0.20080636802E+02  0.00000000000E+00 0.  1.
</event>
<event>
 7    1  0.7749294E-012  0.5930198E+02  0.7816164E-02  0.1266605E+00
        -11   -1    0    0    0    0  0.00000000000E+00  0.00000000000E+00  0.45593999997E+02  0.45594000000E+02  0.51100000000E-03 0. -1.
         11   -1    0    0    0    0 -0.00000000000E+00 -0.00000000000E+00 -0.45593999997E+02  0.45594000000E+02  0.51100000000E-03 0.  1.
    9900012    2    1    2    0    0 -0.86777744614E+01  0.25851626477E+02 -0.16525973037E+02  0.59301981969E+02  0.50000069195E+02 0.  0.
         12    1    1    2    0    0  0.86777744614E+01 -0.25851626477E+02  0.16525973037E+02  0.31886018031E+02  0.00000000000E+00 0. -1.
         11    1    3    3    0    0 -0.51189603569E+01 -0.28777250531E+01  0.14225349666E+02  0.15389789797E+02  0.51100000000E-03 0. -1.
        -11    1    3    3    0    0 -0.55550869267E+01  0.19144462444E+02 -0.13496780018E+02  0.24073481347E+02  0.51100000000E-03 0.  1.
         12    1    3    3    0    0  0.19962728222E+01  0.95848890856E+01 -0.17254542684E+02  0.19838710825E+02  0.00000000000E+00 0. -1.
</event>
<event>
 7    1  0.7749294E-012  0.5930193E+02  0.7816164E-02  0.1266605E+00
        -11   -1    0    0    0    0  0.00000000000E+00  0.00000000000E+00  0.45593999997E+02  0.45594000000E+02  0.51100000000E-03 0.  1.
         11   -1    0    0    0    0 -0.00000000000E+00 -0.00000000000E+00 -0.45593999997E+02  0.45594000000E+02  0.51100000000E-03 0. -1.
    9900012    2    1    2    0    0 -0.25848010492E+02 -0.13110642163E+02  0.13293332682E+02  0.59301932853E+02  0.49999979620E+02 0.  0.
         12    1    1    2    0    0  0.25848010492E+02  0.13110642163E+02 -0.13293332682E+02  0.31886067147E+02  0.00000000000E+00 0. -1.
         11    1    3    3    0    0  0.18487352074E+01  0.95179070354E+01  0.69984140183E+01  0.11957682687E+02  0.51100000000E-03 0. -1.
        -11    1    3    3    0    0 -0.12589153196E+01 -0.19885144227E+02 -0.41998423902E+00  0.19929380716E+02  0.51100000000E-03 0.  1.
         12    1    3    3    0    0 -0.26437830380E+02 -0.27434049718E+01  0.67149029026E+01  0.27414869451E+02  0.00000000000E+00 0. -1.
</event>
<event>
 7    1  0.7749294E-012  0.5930198E+02  0.7816164E-02  0.1266605E+00
        -11   -1    0    0    0    0  0.00000000000E+00  0.00000000000E+00  0.45593999997E+02  0.45594000000E+02  0.51100000000E-03 0.  1.
         11   -1    0    0    0    0 -0.00000000000E+00 -0.00000000000E+00 -0.45593999997E+02  0.45594000000E+02  0.51100000000E-03 0. -1.
    9900012    2    1    2    0    0 -0.13515466305E+02 -0.28418856338E+02  0.51399582377E+01  0.59301978051E+02  0.50000062051E+02 0.  0.
         12    1    1    2    0    0  0.13515466305E+02  0.28418856338E+02 -0.51399582377E+01  0.31886021949E+02  0.00000000000E+00 0. -1.
         11    1    3    3    0    0 -0.84010123246E+01 -0.21107032456E+02 -0.45783617781E+01  0.23174236212E+02  0.51100000000E-03 0. -1.
        -11    1    3    3    0    0  0.68886140311E+00  0.12898328847E+02  0.76189850719E+01  0.14996344583E+02  0.51100000000E-03 0.  1.
        -12    1    3    3    0    0 -0.58033153831E+01 -0.20210152730E+02  0.20993349439E+01  0.21131397256E+02  0.00000000000E+00 0.  1.
</event>
<event>
 7    1  0.7749294E-012  0.5930193E+02  0.7816164E-02  0.1266605E+00
        -11   -1    0    0    0    0  0.00000000000E+00  0.00000000000E+00  0.45593999997E+02  0.45594000000E+02  0.51100000000E-03 0.  1.
         11   -1    0    0    0    0 -0.00000000000E+00 -0.00000000000E+00 -0.45593999997E+02  0.45594000000E+02  0.51100000000E-03 0. -1.
    9900012    2    1    2    0    0  0.10310943069E+02  0.11911313502E+02  0.27722315011E+02  0.59301926459E+02  0.49999967958E+02 0.  0.
         12    1    1    2    0    0 -0.10310943069E+02 -0.11911313502E+02 -0.27722315011E+02  0.31886073541E+02  0.00000000000E+00 0. -1.
         11    1    3    3    0    0  0.12621788624E+02  0.12130813403E+02 -0.67289744089E+01  0.18754873466E+02  0.51100000000E-03 0. -1.
        -11    1    3    3    0    0 -0.60406120792E+01 -0.93035581735E+01  0.14012653192E+02  0.17871755334E+02  0.51100000000E-03 0.  1.
        -12    1    3    3    0    0  0.37297665244E+01  0.90840582725E+01  0.20438636228E+02  0.22675297658E+02  0.00000000000E+00 0.  1.
</event>
<event>
 7    1  0.7749294E-012  0.5930195E+02  0.7816164E-02  0.1266605E+00
        -11   -1    0    0    0    0  0.00000000000E+00  0.00000000000E+00  0.45593999997E+02  0.45594000000E+02  0.51100000000E-03 0. -1.
         11   -1    0    0    0    0 -0.00000000000E+00 -0.00000000000E+00 -0.45593999997E+02  0.45594000000E+02  0.51100000000E-03 0.  1.
    9900012    2    1    2    0    0 -0.21295613597E+02 -0.15756976109E+02  0.17746408628E+02  0.59301945466E+02  0.50000002622E+02 0.  0.
         12    1    1    2    0    0  0.21295613597E+02  0.15756976109E+02 -0.17746408628E+02  0.31886054534E+02  0.00000000000E+00 0. -1.
         11    1    3    3    0    0  0.31566528472E+01  0.23592198990E+00  0.12512014249E+02  0.12906223971E+02  0.51100000000E-03 0. -1.
        -11    1    3    3    0    0 -0.28546291948E+02  0.10483329539E+01  0.36595956923E+01  0.28799000449E+02  0.51100000000E-03 0.  1.
        -12    1    3    3    0    0  0.40940255039E+01 -0.17041231053E+02  0.15747986866E+01  0.17596721045E+02  0.00000000000E+00 0.  1.
</event>
<event>
 7    1  0.7749294E-012  0.5930191E+02  0.7816164E-02  0.1266605E+00
        -11   -1    0    0    0    0  0.00000000000E+00  0.00000000000E+00  0.45593999997E+02  0.45594000000E+02  0.51100000000E-03 0. -1.
         11   -1    0    0    0    0 -0.00000000000E+00 -0.00000000000E+00 -0.45593999997E+02  0.45594000000E+02  0.51100000000E-03 0.  1.
    9900012    2    1    2    0    0 -0.31738650357E+02  0.26911902314E+01 -0.14623568105E+01  0.59301907126E+02  0.49999932700E+02 0.  0.
         12    1    1    2    0    0  0.31738650357E+02 -0.26911902314E+01  0.14623568105E+01  0.31886092874E+02  0.00000000000E+00 0. -1.
         11    1    3    3    0    0 -0.11097276055E+02  0.24751793527E+02  0.35825437000E+00  0.27128014397E+02  0.51100000000E-03 0. -1.
        -11    1    3    3    0    0 -0.21469783629E+02 -0.18675298118E+02 -0.26884747560E+01  0.28582271877E+02  0.51100000000E-03 0.  1.
        -12    1    3    3    0    0  0.82840932736E+00 -0.33853051778E+01  0.86786357555E+00  0.35916208523E+01  0.00000000000E+00 0.  1.
</event>
<event>
 7    1  0.7749294E-012  0.5930193E+02  0.7816164E-02  0.1266605E+00
        -11   -1    0    0    0    0  0.00000000000E+00  0.00000000000E+00  0.45593999997E+02  0.45594000000E+02  0.51100000000E-03 0.  1.
         11   -1    0    0    0    0 -0.00000000000E+00 -0.00000000000E+00 -0.45593999997E+02  0.45594000000E+02  0.51100000000E-03 0. -1.
    9900012    2    1    2    0    0 -0.20096778956E+02  0.24746666007E+02 -0.66613820137E+00  0.59301925563E+02  0.49999966325E+02 0.  0.
         12    1    1    2    0    0  0.20096778956E+02 -0.24746666007E+02  0.66613820137E+00  0.31886074437E+02  0.00000000000E+00 0. -1.
         11    1    3    3    0    0  0.18904929869E+01  0.25863994420E+02 -0.17372836033E+02  0.31214349316E+02  0.51100000000E-03 0. -1.
        -11    1    3    3    0    0 -0.12433813622E+02 -0.14623239525E+01  0.12336516535E+02  0.17576340717E+02  0.51100000000E-03 0.  1.
         12    1    3    3    0    0 -0.95534583208E+01  0.34499553967E+00  0.43701812973E+01  0.10511235531E+02  0.00000000000E+00 0. -1.
</event>
<event>
 7    1  0.7749294E-012  0.5930189E+02  0.7816164E-02  0.1266605E+00
        -11   -1    0    0    0    0  0.00000000000E+00  0.00000000000E+00  0.45593999997E+02  0.45594000000E+02  0.51100000000E-03 0.  1.
         11   -1    0    0    0    0 -0.00000000000E+00 -0.00000000000E+00 -0.45593999997E+02  0.45594000000E+02  0.51100000000E-03 0. -1.
    9900012    2    1    2    0    0 -0.39327512692E+01  0.19565033202E+02  0.24868991136E+02  0.59301893670E+02  0.49999908159E+02 0.  0.
         12    1    1    2    0    0  0.39327512692E+01 -0.19565033202E+02 -0.24868991136E+02  0.31886106330E+02  0.00000000000E+00 0. -1.
         11    1    3    3    0    0  0.49933612967E+01  0.11930294770E+02 -0.97288946537E+01  0.16183849412E+02  0.51100000000E-03 0. -1.
        -11    1    3    3    0    0 -0.13925509452E+02  0.10996169344E+02  0.31930975976E+02  0.36529751995E+02  0.51100000000E-03 0.  1.
        -12    1    3    3    0    0  0.49993968858E+01 -0.33614309115E+01  0.26669098135E+01  0.65882922634E+01  0.00000000000E+00 0.  1.
</event>
<event>
 7    1  0.7749294E-012  0.5930194E+02  0.7816164E-02  0.1266605E+00
        -11   -1    0    0    0    0  0.00000000000E+00  0.00000000000E+00  0.45593999997E+02  0.45594000000E+02  0.51100000000E-03 0. -1.
         11   -1    0    0    0    0 -0.00000000000E+00 -0.00000000000E+00 -0.45593999997E+02  0.45594000000E+02  0.51100000000E-03 0.  1.
    9900012    2    1    2    0    0 -0.11623074626E+01 -0.26800217244E+02 -0.17237112110E+02  0.59301942908E+02  0.49999997958E+02 0.  0.
         12    1    1    2    0    0  0.11623074626E+01  0.26800217244E+02  0.17237112110E+02  0.31886057092E+02  0.00000000000E+00 0. -1.
         11    1    3    3    0    0 -0.11940785842E+02 -0.35479489598E+02 -0.72130821581E+01  0.38123550505E+02  0.51100000000E-03 0. -1.
        -11    1    3    3    0    0  0.91763595684E+01  0.10317641296E+02 -0.34728117081E+01  0.14237967491E+02  0.51100000000E-03 0.  1.
         12    1    3    3    0    0  0.16021188109E+01 -0.16383689430E+01 -0.65512182442E+01  0.69404249122E+01  0.00000000000E+00 0. -1.
</event>
<event>
 7    1  0.7749294E-012  0.5930200E+02  0.7816164E-02  0.1266605E+00
        -11   -1    0    0    0    0  0.00000000000E+00  0.00000000000E+00  0.45593999997E+02  0.45594000000E+02  0.51100000000E-03 0.  1.
         11   -1    0    0    0    0 -0.00000000000E+00 -0.00000000000E+00 -0.45593999997E+02  0.45594000000E+02  0.51100000000E-03 0. -1.
    9900012    2    1    2    0    0  0.35117841276E+01  0.31453930751E+02  0.38774139465E+01  0.59302004228E+02  0.50000109791E+02 0.  0.
         12    1    1    2    0    0 -0.35117841276E+01 -0.31453930751E+02 -0.38774139465E+01  0.31885995772E+02  0.00000000000E+00 0. -1.
         11    1    3    3    0    0  0.78493127859E+01 -0.57917685387E+01  0.12118736476E+02  0.15556994185E+02  0.51100000000E-03 0. -1.
        -11    1    3    3    0    0 -0.10989664878E+02  0.33623258003E+02 -0.63677657130E+01  0.35942240516E+02  0.51100000000E-03 0.  1.
        -12    1    3    3    0    0  0.66521362195E+01  0.36224412864E+01 -0.18735568168E+01  0.78027695277E+01  0.00000000000E+00 0.  1.
</event>
<event>
 7    1  0.7749294E-012  0.5930195E+02  0.7816164E-02  0.1266605E+00
        -11   -1    0    0    0    0  0.00000000000E+00  0.00000000000E+00  0.45593999997E+02  0.45594000000E+02  0.51100000000E-03 0.  1.
         11   -1    0    0    0    0 -0.00000000000E+00 -0.00000000000E+00 -0.45593999997E+02  0.45594000000E+02  0.51100000000E-03 0. -1.
    9900012    2    1    2    0    0  0.18472982828E+02 -0.40429701726E+01  0.25673394439E+02  0.59301954707E+02  0.50000019477E+02 0.  0.
         12    1    1    2    0    0 -0.18472982828E+02  0.40429701726E+01 -0.25673394439E+02  0.31886045293E+02  0.00000000000E+00 0. -1.
         11    1    3    3    0    0  0.24318865527E+01 -0.10628363811E+02  0.13429611287E+01  0.10985432826E+02  0.51100000000E-03 0. -1.
        -11    1    3    3    0    0  0.27488715400E+02  0.97944923959E+01  0.21055927778E+02  0.35984908649E+02  0.51100000000E-03 0.  1.
        -12    1    3    3    0    0 -0.11447619124E+02 -0.32090987571E+01  0.32745055322E+01  0.12331613233E+02  0.00000000000E+00 0.  1.
</event>
<event>
 7    1  0.7749294E-012  0.5930192E+02  0.7816164E-02  0.1266605E+00
        -11   -1    0    0    0    0  0.00000000000E+00  0.00000000000E+00  0.45593999997E+02  0.45594000000E+02  0.51100000000E-03 0.  1.
         11   -1    0    0    0    0 -0.00000000000E+00 -0.00000000000E+00 -0.45593999997E+02  0.45594000000E+02  0.51100000000E-03 0. -1.
    9900012    2    1    2    0    0 -0.31738892303E+02 -0.30444007414E+01  0.31008333927E+00  0.59301924478E+02  0.49999964346E+02 0.  0.
         12    1    1    2    0    0  0.31738892303E+02  0.30444007414E+01 -0.31008333927E+00  0.31886075522E+02  0.00000000000E+00 0. -1.
         11    1    3    3    0    0 -0.11580768530E+02 -0.15965638328E+02 -0.11563890504E+02  0.22863494283E+02  0.51100000000E-03 0.  1.
        -11    1    3    3    0    0 -0.25363477865E+02  0.14149749801E+02  0.10778828893E+02  0.30979099106E+02  0.51100000000E-03 0. -1.
        -12    1    3    3    0    0  0.52053540914E+01 -0.12285122147E+01  0.10951449502E+01  0.54593310891E+01  0.00000000000E+00 0.  1.
</event>
<event>
 7    1  0.7749294E-012  0.5930203E+02  0.7816164E-02  0.1266604E+00
        -11   -1    0    0    0    0  0.00000000000E+00  0.00000000000E+00  0.45593999997E+02  0.45594000000E+02  0.51100000000E-03 0.  1.
         11   -1    0    0    0    0 -0.00000000000E+00 -0.00000000000E+00 -0.45593999997E+02  0.45594000000E+02  0.51100000000E-03 0. -1.
    9900012    2    1    2    0    0  0.84482569978E+01  0.22825767673E+02  0.20599182306E+02  0.59302030862E+02  0.50000158365E+02 0.  0.
         12    1    1    2    0    0 -0.84482569978E+01 -0.22825767673E+02 -0.20599182306E+02  0.31885969138E+02  0.00000000000E+00 0. -1.
         11    1    3    3    0    0  0.10068122335E+02 -0.40260870649E+01  0.14614347304E+02  0.18197681495E+02  0.51100000000E-03 0. -1.
        -11    1    3    3    0    0 -0.39014534106E+01  0.54680466152E+01 -0.11546813975E+02  0.13358509862E+02  0.51100000000E-03 0.  1.
        -12    1    3    3    0    0  0.22815880733E+01  0.21383808123E+02  0.17531648977E+02  0.27745839505E+02  0.00000000000E+00 0.  1.
</event>
<event>
 7    1  0.7749294E-012  0.5930194E+02  0.7816164E-02  0.1266605E+00
        -11   -1    0    0    0    0  0.00000000000E+00  0.00000000000E+00  0.45593999997E+02  0.45594000000E+02  0.51100000000E-03 0.  1.
         11   -1    0    0    0    0 -0.00000000000E+00 -0.00000000000E+00 -0.45593999997E+02  0.45594000000E+02  0.51100000000E-03 0. -1.
    9900012    2    1    2    0    0 -0.57047904312E+01 -0.11414821764E+01  0.31350804157E+02  0.59301944479E+02  0.50000000823E+02 0.  0.
         12    1    1    2    0    0  0.57047904312E+01  0.11414821764E+01 -0.31350804157E+02  0.31886055521E+02  0.00000000000E+00 0. -1.
         11    1    3    3    0    0  0.77264102069E+01  0.24956239528E+00  0.21676821127E+02  0.23014001618E+02  0.51100000000E-03 0. -1.
        -11    1    3    3    0    0 -0.88619626240E+01 -0.15931125979E+02 -0.10801220733E-01  0.18230065097E+02  0.51100000000E-03 0.  1.
        -12    1    3    3    0    0 -0.45692380141E+01  0.14540081407E+02  0.96847842508E+01  0.18057877764E+02  0.00000000000E+00 0.  1.
</event>
<event>
 7    1  0.7749294E-012  0.5930195E+02  0.7816164E-02  0.1266605E+00
        -11   -1    0    0    0    0  0.00000000000E+00  0.00000000000E+00  0.45593999997E+02  0.45594000000E+02  0.51100000000E-03 0.  1.
         11   -1    0    0    0    0 -0.00000000000E+00 -0.00000000000E+00 -0.45593999997E+02  0.45594000000E+02  0.51100000000E-03 0. -1.
    9900012    2    1    2    0    0 -0.84109034937E+01 -0.13401734818E+02  0.27683400990E+02  0.59301945303E+02  0.50000002327E+02 0.  0.
         12    1    1    2    0    0  0.84109034937E+01  0.13401734818E+02 -0.27683400990E+02  0.31886054697E+02  0.00000000000E+00 0. -1.
         11    1    3    3    0    0 -0.45309185823E+01  0.77232281880E+01  0.39310577979E+00  0.89628125753E+01  0.51100000000E-03 0. -1.
        -11    1    3    3    0    0  0.12674126360E+02 -0.10101563401E+02 -0.44094864290E+00  0.16213250695E+02  0.51100000000E-03 0.  1.
        -12    1    3    3    0    0 -0.16554111272E+02 -0.11023399605E+02  0.27731243853E+02  0.34125882033E+02  0.00000000000E+00 0.  1.
</event>
<event>
 7    1  0.7749294E-012  0.5930195E+02  0.7816164E-02  0.1266605E+00
        -11   -1    0    0    0    0  0.00000000000E+00  0.00000000000E+00  0.45593999997E+02  0.45594000000E+02  0.51100000000E-03 0. -1.
         11   -1    0    0    0    0 -0.00000000000E+00 -0.00000000000E+00 -0.45593999997E+02  0.45594000000E+02  0.51100000000E-03 0.  1.
    9900012    2    1    2    0    0 -0.65374407406E+01 -0.28565292134E+02 -0.12570038823E+02  0.59301954115E+02  0.50000018397E+02 0.  0.
         12    1    1    2    0    0  0.65374407406E+01  0.28565292134E+02  0.12570038823E+02  0.31886045885E+02  0.00000000000E+00 0. -1.
         11    1    3    3    0    0 -0.78244098303E+01 -0.26853771515E+02 -0.59149275800E+01  0.28589032902E+02  0.51100000000E-03 0. -1.
        -11    1    3    3    0    0  0.96792426992E+01  0.85803942305E+01 -0.10747055239E+02  0.16816958731E+02  0.51100000000E-03 0.  1.
        -12    1    3    3    0    0 -0.83922736095E+01 -0.10291914850E+02  0.40919439970E+01  0.13895962482E+02  0.00000000000E+00 0.  1.
</event>
<event>
 7    1  0.7749294E-012  0.5930194E+02  0.7816164E-02  0.1266605E+00
        -11   -1    0    0    0    0  0.00000000000E+00  0.00000000000E+00  0.45593999997E+02  0.45594000000E+02  0.51100000000E-03 0. -1.
         11   -1    0    0    0    0 -0.00000000000E+00 -0.00000000000E+00 -0.45593999997E+02  0.45594000000E+02  0.51100000000E-03 0.  1.
    9900012    2    1    2    0    0 -0.16474253865E+02 -0.26819540887E+02 -0.51021786105E+01  0.59301936581E+02  0.49999986419E+02 0.  0.
         12    1    1    2    0    0  0.16474253865E+02  0.26819540887E+02  0.51021786105E+01  0.31886063419E+02  0.00000000000E+00 0. -1.
         11    1    3    3    0    0  0.92749155363E+01 -0.59162368030E+01 -0.14841137450E+02  0.18473908011E+02  0.51100000000E-03 0. -1.
        -11    1    3    3    0    0 -0.24346872623E+02 -0.22417752329E+02  0.23755865839E+01  0.33180856497E+02  0.51100000000E-03 0.  1.
         12    1    3    3    0    0 -0.14022967777E+01  0.15144482450E+01  0.73633722555E+01  0.76471720729E+01  0.00000000000E+00 0. -1.
</event>
<event>
 7    1  0.7749294E-012  0.5930195E+02  0.7816164E-02  0.1266605E+00
        -11   -1    0    0    0    0  0.00000000000E+00  0.00000000000E+00  0.45593999997E+02  0.45594000000E+02  0.51100000000E-03 0.  1.
         11   -1    0    0    0    0 -0.00000000000E+00 -0.00000000000E+00 -0.45593999997E+02  0.45594000000E+02  0.51100000000E-03 0. -1.
    9900012    2    1    2    0    0  0.18310063186E+02 -0.24303914582E+01  0.25991443570E+02  0.59301947323E+02  0.50000006009E+02 0.  0.
         12    1    1    2    0    0 -0.18310063186E+02  0.24303914582E+01 -0.25991443570E+02  0.31886052677E+02  0.00000000000E+00 0. -1.
         11    1    3    3    0    0  0.27220370346E+02 -0.10797688514E+02  0.50573293832E+01  0.29717254580E+02  0.51100000000E-03 0. -1.
        -11    1    3    3    0    0 -0.49583572676E+01  0.89033442817E+01  0.21933538053E+01  0.10424281624E+02  0.51100000000E-03 0.  1.
        -12    1    3    3    0    0 -0.39519498926E+01 -0.53604722543E+00  0.18740760381E+02  0.19160411119E+02  0.00000000000E+00 0.  1.
</event>
<event>
 7    1  0.7749294E-012  0.5930192E+02  0.7816164E-02  0.1266605E+00
        -11   -1    0    0    0    0  0.00000000000E+00  0.00000000000E+00  0.45593999997E+02  0.45594000000E+02  0.51100000000E-03 0. -1.
         11   -1    0    0    0    0 -0.00000000000E+00 -0.00000000000E+00 -0.45593999997E+02  0.45594000000E+02  0.51100000000E-03 0.  1.
    9900012    2    1    2    0    0 -0.20283043811E+02  0.23845688424E+02  0.60583112906E+01  0.59301923755E+02  0.49999963027E+02 0.  0.
         12    1    1    2    0    0  0.20283043811E+02 -0.23845688424E+02 -0.60583112906E+01  0.31886076245E+02  0.00000000000E+00 0. -1.
         11    1    3    3    0    0 -0.29361772896E+02  0.14051083587E+02  0.15549904240E+02  0.36074176077E+02  0.51100000000E-03 0. -1.
        -11    1    3    3    0    0  0.60879406241E+01  0.11707290820E+02 -0.12793651766E+02  0.18379369009E+02  0.51100000000E-03 0.  1.
         12    1    3    3    0    0  0.29907884608E+01 -0.19126859829E+01  0.33020588169E+01  0.48483786688E+01  0.00000000000E+00 0. -1.
</event>
<event>
 7    1  0.7749294E-012  0.5930195E+02  0.7816164E-02  0.1266605E+00
        -11   -1    0    0    0    0  0.00000000000E+00  0.00000000000E+00  0.45593999997E+02  0.45594000000E+02  0.51100000000E-03 0.  1.
         11   -1    0    0    0    0 -0.00000000000E+00 -0.00000000000E+00 -0.45593999997E+02  0.45594000000E+02  0.51100000000E-03 0. -1.
    9900012    2    1    2    0    0 -0.14502302157E+02  0.28388797479E+02 -0.69272147132E+00  0.59301945788E+02  0.50000003211E+02 0.  0.
         12    1    1    2    0    0  0.14502302157E+02 -0.28388797479E+02  0.69272147132E+00  0.31886054212E+02  0.00000000000E+00 0. -1.
         11    1    3    3    0    0 -0.66161759271E+01  0.14991380880E+01 -0.74247307399E+01  0.10057227537E+02  0.51100000000E-03 0. -1.
        -11    1    3    3    0    0  0.66981439193E+01  0.10986897956E+02  0.20096779511E+02  0.23863310869E+02  0.51100000000E-03 0.  1.
        -12    1    3    3    0    0 -0.14584270150E+02  0.15902761435E+02 -0.13364770243E+02  0.25381407382E+02  0.00000000000E+00 0.  1.
</event>
<event>
 7    1  0.7749294E-012  0.5930195E+02  0.7816164E-02  0.1266605E+00
        -11   -1    0    0    0    0  0.00000000000E+00  0.00000000000E+00  0.45593999997E+02  0.45594000000E+02  0.51100000000E-03 0.  1.
         11   -1    0    0    0    0 -0.00000000000E+00 -0.00000000000E+00 -0.45593999997E+02  0.45594000000E+02  0.51100000000E-03 0. -1.
    9900012    2    1    2    0    0 -0.81222897516E+01 -0.23768302829E+02  0.19642212062E+02  0.59301948114E+02  0.50000007453E+02 0.  0.
         12    1    1    2    0    0  0.81222897516E+01  0.23768302829E+02 -0.19642212062E+02  0.31886051886E+02  0.00000000000E+00 0. -1.
         11    1    3    3    0    0 -0.60612903531E+01 -0.18114936234E+02  0.22492274676E+02  0.29509194768E+02  0.51100000000E-03 0. -1.
        -11    1    3    3    0    0  0.12892919806E+02 -0.20171620929E+01 -0.55271109449E+01  0.14171989264E+02  0.51100000000E-03 0.  1.
         12    1    3    3    0    0 -0.14953919204E+02 -0.36362045016E+01  0.26770483311E+01  0.15620764082E+02  0.00000000000E+00 0. -1.
</event>
<event>
 7    1  0.7749294E-012  0.5930234E+02  0.7816164E-02  0.1266603E+00
        -11   -1    0    0    0    0  0.00000000000E+00  0.00000000000E+00  0.45593999997E+02  0.45594000000E+02  0.51100000000E-03 0. -1.
         11   -1    0    0    0    0 -0.00000000000E+00 -0.00000000000E+00 -0.45593999997E+02  0.45594000000E+02  0.51100000000E-03 0.  1.
    9900012    2    1    2    0    0 -0.71508265574E+01  0.30502162094E+02 -0.59312233575E+01  0.59302335143E+02  0.50000713295E+02 0.  0.
         12    1    1    2    0    0  0.71508265574E+01 -0.30502162094E+02  0.59312233575E+01  0.31885664857E+02  0.00000000000E+00 0. -1.
         11    1    3    3    0    0 -0.60274696631E+01  0.25783767101E+02  0.28555669389E+01  0.26632448240E+02  0.51100000000E-03 0. -1.
        -11    1    3    3    0    0 -0.12045063002E+02  0.94397357679E+01 -0.12967135643E+02  0.20058383811E+02  0.51100000000E-03 0.  1.
         12    1    3    3    0    0  0.10921706108E+02 -0.47213407750E+01  0.41803453463E+01  0.12611503091E+02  0.00000000000E+00 0. -1.
</event>
<event>
 7    1  0.7749294E-012  0.5930194E+02  0.7816164E-02  0.1266605E+00
        -11   -1    0    0    0    0  0.00000000000E+00  0.00000000000E+00  0.45593999997E+02  0.45594000000E+02  0.51100000000E-03 0.  1.
         11   -1    0    0    0    0 -0.00000000000E+00 -0.00000000000E+00 -0.45593999997E+02  0.45594000000E+02  0.51100000000E-03 0. -1.
    9900012    2    1    2    0    0 -0.29465762060E+01  0.28309467576E+02  0.14374016318E+02  0.59301943315E+02  0.49999998701E+02 0.  0.
         12    1    1    2    0    0  0.29465762060E+01 -0.28309467576E+02 -0.14374016318E+02  0.31886056685E+02  0.00000000000E+00 0. -1.
         11    1    3    3    0    0  0.12331023989E+02  0.18352723290E+01 -0.12242904072E+02  0.17473153050E+02  0.51100000000E-03 0. -1.
        -11    1    3    3    0    0 -0.10804936804E+02  0.23820086885E+02  0.25458677816E+02  0.36500513352E+02  0.51100000000E-03 0.  1.
         12    1    3    3    0    0 -0.44726633904E+01  0.26541083619E+01  0.11582425742E+01  0.53282769130E+01  0.00000000000E+00 0. -1.
</event>
<event>
 7    1  0.7749294E-012  0.5930198E+02  0.7816164E-02  0.1266605E+00
        -11   -1    0    0    0    0  0.00000000000E+00  0.00000000000E+00  0.45593999997E+02  0.45594000000E+02  0.51100000000E-03 0.  1.
         11   -1    0    0    0    0 -0.00000000000E+00 -0.00000000000E+00 -0.45593999997E+02  0.45594000000E+02  0.51100000000E-03 0. -1.
    9900012    2    1    2    0    0  0.66012468004E+01 -0.15626096942E+02  0.26999392315E+02  0.59301975627E+02  0.50000057629E+02 0.  0.
         12    1    1    2    0    0 -0.66012468004E+01  0.15626096942E+02 -0.26999392315E+02  0.31886024373E+02  0.00000000000E+00 0. -1.
         11    1    3    3    0    0  0.27491029542E+01 -0.11598371984E+02 -0.78340338115E+01  0.14263656114E+02  0.51100000000E-03 0. -1.
        -11    1    3    3    0    0 -0.34227907006E+01  0.47439906835E+01  0.32977376324E+02  0.33492212428E+02  0.51100000000E-03 0.  1.
         12    1    3    3    0    0  0.72749345468E+01 -0.87717156414E+01  0.18560498019E+01  0.11546107085E+02  0.00000000000E+00 0. -1.
</event>
<event>
 7    1  0.7749294E-012  0.5930192E+02  0.7816164E-02  0.1266605E+00
        -11   -1    0    0    0    0  0.00000000000E+00  0.00000000000E+00  0.45593999997E+02  0.45594000000E+02  0.51100000000E-03 0. -1.
         11   -1    0    0    0    0 -0.00000000000E+00 -0.00000000000E+00 -0.45593999997E+02  0.45594000000E+02  0.51100000000E-03 0.  1.
    9900012    2    1    2    0    0 -0.28015381332E+02  0.14715350958E+01 -0.15155688874E+02  0.59301922913E+02  0.49999961492E+02 0.  0.
         12    1    1    2    0    0  0.28015381332E+02 -0.14715350958E+01  0.15155688874E+02  0.31886077087E+02  0.00000000000E+00 0. -1.
         11    1    3    3    0    0 -0.11967489531E+02  0.62008169196E+01  0.59044078053E+00  0.13491462364E+02  0.51100000000E-03 0. -1.
        -11    1    3    3    0    0 -0.12590406710E+01  0.14053331386E+02 -0.16728444588E+02  0.21884290372E+02  0.51100000000E-03 0.  1.
        -12    1    3    3    0    0 -0.14788851130E+02 -0.18782613210E+02  0.98231493353E+00  0.23926170178E+02  0.00000000000E+00 0.  1.
</event>
<event>
 7    1  0.7749294E-012  0.5930194E+02  0.7816164E-02  0.1266605E+00
        -11   -1    0    0    0    0  0.00000000000E+00  0.00000000000E+00  0.45593999997E+02  0.45594000000E+02  0.51100000000E-03 0. -1.
         11   -1    0    0    0    0 -0.00000000000E+00 -0.00000000000E+00 -0.45593999997E+02  0.45594000000E+02  0.51100000000E-03 0.  1.
    9900012    2    1    2    0    0  0.89004139196E+01 -0.21551975753E+02 -0.21748919743E+02  0.59301944478E+02  0.50000000821E+02 0.  0.
         12    1    1    2    0    0 -0.89004139196E+01  0.21551975753E+02  0.21748919743E+02  0.31886055522E+02  0.00000000000E+00 0. -1.
         11    1    3    3    0    0 -0.19795170106E+02 -0.73549647670E+01 -0.13854307365E+02  0.25256407089E+02  0.51100000000E-03 0. -1.
        -11    1    3    3    0    0  0.70120138184E+01 -0.48978145622E+00  0.51901086751E+00  0.70482335521E+01  0.51100000000E-03 0.  1.
         12    1    3    3    0    0  0.21683570207E+02 -0.13707229530E+02 -0.84136232455E+01  0.26997303836E+02  0.00000000000E+00 0. -1.
</event>
<event>
 7    1  0.7749294E-012  0.5930194E+02  0.7816164E-02  0.1266605E+00
        -11   -1    0    0    0    0  0.00000000000E+00  0.00000000000E+00  0.45593999997E+02  0.45594000000E+02  0.51100000000E-03 0.  1.
         11   -1    0    0    0    0 -0.00000000000E+00 -0.00000000000E+00 -0.45593999997E+02  0.45594000000E+02  0.51100000000E-03 0. -1.
    9900012    2    1    2    0    0 -0.26890103097E+02 -0.65510150819E-01  0.17135898983E+02  0.59301937683E+02  0.49999988429E+02 0.  0.
         12    1    1    2    0    0  0.26890103097E+02  0.65510150819E-01 -0.17135898983E+02  0.31886062317E+02  0.00000000000E+00 0. -1.
         11    1    3    3    0    0 -0.23754011602E+02  0.13016009598E+02 -0.62120846827E+01  0.27789558640E+02  0.51100000000E-03 0. -1.
        -11    1    3    3    0    0  0.31164965744E+01 -0.52801056528E+01  0.20078114780E+02  0.20993398009E+02  0.51100000000E-03 0.  1.
        -12    1    3    3    0    0 -0.62525880695E+01 -0.78014140958E+01  0.32698688860E+01  0.10518981034E+02  0.00000000000E+00 0.  1.
</event>
<event>
 7    1  0.7749294E-012  0.5930196E+02  0.7816164E-02  0.1266605E+00
        -11   -1    0    0    0    0  0.00000000000E+00  0.00000000000E+00  0.45593999997E+02  0.45594000000E+02  0.51100000000E-03 0. -1.
         11   -1    0    0    0    0 -0.00000000000E+00 -0.00000000000E+00 -0.45593999997E+02  0.45594000000E+02  0.51100000000E-03 0.  1.
    9900012    2    1    2    0    0 -0.11584412463E+02  0.15659941066E+02 -0.25244549439E+02  0.59301958498E+02  0.50000026390E+02 0.  0.
         12    1    1    2    0    0  0.11584412463E+02 -0.15659941066E+02  0.25244549439E+02  0.31886041502E+02  0.00000000000E+00 0. -1.
         11    1    3    3    0    0  0.10950215527E+02  0.12564030771E+02  0.18128802535E+01  0.16764504895E+02  0.51100000000E-03 0. -1.
        -11    1    3    3    0    0 -0.16920265071E+02  0.10120614633E+02 -0.27138677294E+02  0.33544448366E+02  0.51100000000E-03 0.  1.
        -12    1    3    3    0    0 -0.56143629184E+01 -0.70247043379E+01  0.81247601261E-01  0.89930052367E+01  0.00000000000E+00 0.  1.
</event>
<event>
 7    1  0.7749294E-012  0.5930192E+02  0.7816164E-02  0.1266605E+00
        -11   -1    0    0    0    0  0.00000000000E+00  0.00000000000E+00  0.45593999997E+02  0.45594000000E+02  0.51100000000E-03 0. -1.
         11   -1    0    0    0    0 -0.00000000000E+00 -0.00000000000E+00 -0.45593999997E+02  0.45594000000E+02  0.51100000000E-03 0.  1.
    9900012    2    1    2    0    0 -0.11210369920E+02  0.92874744109E+01 -0.28368865034E+02  0.59301920310E+02  0.49999956744E+02 0.  0.
         12    1    1    2    0    0  0.11210369920E+02 -0.92874744109E+01  0.28368865034E+02  0.31886079690E+02  0.00000000000E+00 0. -1.
         11    1    3    3    0    0 -0.83659478085E+01 -0.17361232615E+02 -0.15914527250E+02  0.24993472318E+02  0.51100000000E-03 0. -1.
        -11    1    3    3    0    0  0.49835712541E+01  0.22618856939E+02 -0.88377922405E+01  0.24790224759E+02  0.51100000000E-03 0.  1.
         12    1    3    3    0    0 -0.78279933653E+01  0.40298500868E+01 -0.36165455434E+01  0.95182232332E+01  0.00000000000E+00 0. -1.
</event>
<event>
 7    1  0.7749294E-012  0.5930195E+02  0.7816164E-02  0.1266605E+00
        -11   -1    0    0    0    0  0.00000000000E+00  0.00000000000E+00  0.45593999997E+02  0.45594000000E+02  0.51100000000E-03 0.  1.
         11   -1    0    0    0    0 -0.00000000000E+00 -0.00000000000E+00 -0.45593999997E+02  0.45594000000E+02  0.51100000000E-03 0. -1.
    9900012    2    1    2    0    0 -0.29368705354E+02  0.73710861429E+01  0.99933094769E+01  0.59301952905E+02  0.50000016189E+02 0.  0.
         12    1    1    2    0    0  0.29368705354E+02 -0.73710861429E+01 -0.99933094769E+01  0.31886047095E+02  0.00000000000E+00 0. -1.
         11    1    3    3    0    0 -0.52379122227E+01  0.14382073688E+01  0.27099405361E+02  0.27638414138E+02  0.51100000000E-03 0. -1.
        -11    1    3    3    0    0 -0.15088368833E+02  0.61369645240E+01 -0.60425426673E+01  0.17373356894E+02  0.51100000000E-03 0.  1.
         12    1    3    3    0    0 -0.90424242975E+01 -0.20408574986E+00 -0.11063553217E+02  0.14290181873E+02  0.00000000000E+00 0. -1.
</event>
<event>
 7    1  0.7749294E-012  0.5930194E+02  0.7816164E-02  0.1266605E+00
        -11   -1    0    0    0    0  0.00000000000E+00  0.00000000000E+00  0.45593999997E+02  0.45594000000E+02  0.51100000000E-03 0.  1.
         11   -1    0    0    0    0 -0.00000000000E+00 -0.00000000000E+00 -0.45593999997E+02  0.45594000000E+02  0.51100000000E-03 0. -1.
    9900012    2    1    2    0    0  0.15352531734E+02 -0.16669667397E+02  0.22430846293E+02  0.59301938669E+02  0.49999990228E+02 0.  0.
         12    1    1    2    0    0 -0.15352531734E+02  0.16669667397E+02 -0.22430846293E+02  0.31886061331E+02  0.00000000000E+00 0. -1.
         11    1    3    3    0    0 -0.13589989446E+02 -0.52673182720E+01 -0.23639432969E+01  0.14765523461E+02  0.51100000000E-03 0. -1.
        -11    1    3    3    0    0  0.21200042924E+02 -0.15828823522E+02  0.12278492404E+02  0.29167702173E+02  0.51100000000E-03 0.  1.
        -12    1    3    3    0    0  0.77424782556E+01  0.44264743972E+01  0.12516297185E+02  0.15368713035E+02  0.00000000000E+00 0.  1.
</event>
<event>
 7    1  0.7749294E-012  0.5930192E+02  0.7816164E-02  0.1266605E+00
        -11   -1    0    0    0    0  0.00000000000E+00  0.00000000000E+00  0.45593999997E+02  0.45594000000E+02  0.51100000000E-03 0.  1.
         11   -1    0    0    0    0 -0.00000000000E+00 -0.00000000000E+00 -0.45593999997E+02  0.45594000000E+02  0.51100000000E-03 0. -1.
    9900012    2    1    2    0    0 -0.21388711650E+02 -0.15713874216E+02  0.17672550280E+02  0.59301923691E+02  0.49999962911E+02 0.  0.
         12    1    1    2    0    0  0.21388711650E+02  0.15713874216E+02 -0.17672550280E+02  0.31886076309E+02  0.00000000000E+00 0. -1.
         11    1    3    3    0    0 -0.12063249161E+02 -0.48936049365E+01 -0.91440048312E+01  0.15908556635E+02  0.51100000000E-03 0. -1.
        -11    1    3    3    0    0  0.99165106806E+01 -0.10975110141E+02  0.10179881687E+02  0.17956063547E+02  0.51100000000E-03 0.  1.
        -12    1    3    3    0    0 -0.19241973170E+02  0.15484086150E+00  0.16636673425E+02  0.25437303509E+02  0.00000000000E+00 0.  1.
</event>
<event>
 7    1  0.7749294E-012  0.5930196E+02  0.7816164E-02  0.1266605E+00
        -11   -1    0    0    0    0  0.00000000000E+00  0.00000000000E+00  0.45593999997E+02  0.45594000000E+02  0.51100000000E-03 0.  1.
         11   -1    0    0    0    0 -0.00000000000E+00 -0.00000000000E+00 -0.45593999997E+02  0.45594000000E+02  0.51100000000E-03 0. -1.
    9900012    2    1    2    0    0  0.18168724030E+02  0.22518963929E+02  0.13398259374E+02  0.59301958797E+02  0.50000026936E+02 0.  0.
         12    1    1    2    0    0 -0.18168724030E+02 -0.22518963929E+02 -0.13398259374E+02  0.31886041203E+02  0.00000000000E+00 0. -1.
         11    1    3    3    0    0 -0.75121673339E+01  0.28749778769E+02  0.41231788487E+01  0.29999717355E+02  0.51100000000E-03 0.  1.
        -11    1    3    3    0    0  0.23936548121E+02 -0.59594160346E+01  0.57032524142E+01  0.25317979062E+02  0.51100000000E-03 0. -1.
         12    1    3    3    0    0  0.17443432433E+01 -0.27139880502E+00  0.35718281112E+01  0.39842623806E+01  0.00000000000E+00 0. -1.
</event>
<event>
 7    1  0.7749294E-012  0.5930194E+02  0.7816164E-02  0.1266605E+00
        -11   -1    0    0    0    0  0.00000000000E+00  0.00000000000E+00  0.45593999997E+02  0.45594000000E+02  0.51100000000E-03 0.  1.
         11   -1    0    0    0    0 -0.00000000000E+00 -0.00000000000E+00 -0.45593999997E+02  0.45594000000E+02  0.51100000000E-03 0. -1.
    9900012    2    1    2    0    0  0.19445856657E+01  0.50864559020E+01  0.31417627268E+02  0.59301941131E+02  0.49999994717E+02 0.  0.
         12    1    1    2    0    0 -0.19445856657E+01 -0.50864559020E+01 -0.31417627268E+02  0.31886058869E+02  0.00000000000E+00 0. -1.
         11    1    3    3    0    0 -0.62649478845E+01  0.16268994672E+02  0.38172960586E+00  0.17437760103E+02  0.51100000000E-03 0. -1.
        -11    1    3    3    0    0  0.15250146233E+02 -0.54026648164E+01  0.10204437341E+02  0.19128154353E+02  0.51100000000E-03 0.  1.
        -12    1    3    3    0    0 -0.70406126829E+01 -0.57798739540E+01  0.20831460321E+02  0.22736026675E+02  0.00000000000E+00 0.  1.
</event>
<event>
 7    1  0.7749294E-012  0.5930195E+02  0.7816164E-02  0.1266605E+00
        -11   -1    0    0    0    0  0.00000000000E+00  0.00000000000E+00  0.45593999997E+02  0.45594000000E+02  0.51100000000E-03 0. -1.
         11   -1    0    0    0    0 -0.00000000000E+00 -0.00000000000E+00 -0.45593999997E+02  0.45594000000E+02  0.51100000000E-03 0.  1.
    9900012    2    1    2    0    0 -0.30281310031E+02  0.71992298801E+01 -0.69234224536E+01  0.59301946206E+02  0.50000003973E+02 0.  0.
         12    1    1    2    0    0  0.30281310031E+02 -0.71992298801E+01  0.69234224536E+01  0.31886053794E+02  0.00000000000E+00 0. -1.
         11    1    3    3    0    0  0.82339646674E+01  0.19960084875E+01  0.11537752614E+01  0.85506386686E+01  0.51100000000E-03 0. -1.
        -11    1    3    3    0    0 -0.13138865070E+02 -0.20180624964E+01 -0.18160998562E+02  0.22506092966E+02  0.51100000000E-03 0.  1.
        -12    1    3    3    0    0 -0.25376409629E+02  0.72212838890E+01  0.10083800847E+02  0.28245214571E+02  0.00000000000E+00 0.  1.
</event>
<event>
 7    1  0.7749294E-012  0.5930195E+02  0.7816164E-02  0.1266605E+00
        -11   -1    0    0    0    0  0.00000000000E+00  0.00000000000E+00  0.45593999997E+02  0.45594000000E+02  0.51100000000E-03 0.  1.
         11   -1    0    0    0    0 -0.00000000000E+00 -0.00000000000E+00 -0.45593999997E+02  0.45594000000E+02  0.51100000000E-03 0. -1.
    9900012    2    1    2    0    0  0.55700747286E+01  0.73515194878E+00  0.31387165772E+02  0.59301947312E+02  0.50000005989E+02 0.  0.
         12    1    1    2    0    0 -0.55700747286E+01 -0.73515194878E+00 -0.31387165772E+02  0.31886052688E+02  0.00000000000E+00 0. -1.
         11    1    3    3    0    0 -0.11203654665E+02 -0.16147404085E+02  0.15924262562E+02  0.25295111681E+02  0.51100000000E-03 0. -1.
        -11    1    3    3    0    0  0.11725771436E+02  0.50174245477E+01  0.16744858881E+02  0.21048956365E+02  0.51100000000E-03 0.  1.
         12    1    3    3    0    0  0.50479579579E+01  0.11865131486E+02 -0.12819556717E+01  0.12957879266E+02  0.00000000000E+00 0. -1.
</event>
<event>
 7    1  0.7749294E-012  0.5930194E+02  0.7816164E-02  0.1266605E+00
        -11   -1    0    0    0    0  0.00000000000E+00  0.00000000000E+00  0.45593999997E+02  0.45594000000E+02  0.51100000000E-03 0.  1.
         11   -1    0    0    0    0 -0.00000000000E+00 -0.00000000000E+00 -0.45593999997E+02  0.45594000000E+02  0.51100000000E-03 0. -1.
    9900012    2    1    2    0    0 -0.11954709391E+02 -0.72580862819E+01  0.28655294360E+02  0.59301940539E+02  0.49999993638E+02 0.  0.
         12    1    1    2    0    0  0.11954709391E+02  0.72580862819E+01 -0.28655294360E+02  0.31886059461E+02  0.00000000000E+00 0. -1.
         11    1    3    3    0    0 -0.13216658764E+02  0.21010934662E+01 -0.17577290117E+01  0.13497565490E+02  0.51100000000E-03 0. -1.
        -11    1    3    3    0    0  0.16974023070E+02 -0.67397686195E+01  0.14908148609E+02  0.23575301386E+02  0.51100000000E-03 0.  1.
        -12    1    3    3    0    0 -0.15712073697E+02 -0.26194111285E+01  0.15504874762E+02  0.22229073663E+02  0.00000000000E+00 0.  1.
</event>
<event>
 7    1  0.7749294E-012  0.5930197E+02  0.7816164E-02  0.1266605E+00
        -11   -1    0    0    0    0  0.00000000000E+00  0.00000000000E+00  0.45593999997E+02  0.45594000000E+02  0.51100000000E-03 0. -1.
         11   -1    0    0    0    0 -0.00000000000E+00 -0.00000000000E+00 -0.45593999997E+02  0.45594000000E+02  0.51100000000E-03 0.  1.
    9900012    2    1    2    0    0 -0.27476464389E+02  0.15952471017E+02 -0.26984379233E+01  0.59301968668E+02  0.50000044938E+02 0.  0.
         12    1    1    2    0    0  0.27476464389E+02 -0.15952471017E+02  0.26984379233E+01  0.31886031332E+02  0.00000000000E+00 0. -1.
         11    1    3    3    0    0 -0.31135732369E+02  0.17267912339E+02 -0.24851576532E+01  0.35690203635E+02  0.51100000000E-03 0. -1.
        -11    1    3    3    0    0 -0.61478999472E+01 -0.64328778855E+01 -0.63779961709E+01  0.10947941682E+02  0.51100000000E-03 0.  1.
         12    1    3    3    0    0  0.98071679268E+01  0.51174365635E+01  0.61647159008E+01  0.12663823351E+02  0.00000000000E+00 0. -1.
</event>
<event>
 7    1  0.7749294E-012  0.5930190E+02  0.7816164E-02  0.1266605E+00
        -11   -1    0    0    0    0  0.00000000000E+00  0.00000000000E+00  0.45593999997E+02  0.45594000000E+02  0.51100000000E-03 0.  1.
         11   -1    0    0    0    0 -0.00000000000E+00 -0.00000000000E+00 -0.45593999997E+02  0.45594000000E+02  0.51100000000E-03 0. -1.
    9900012    2    1    2    0    0 -0.11667285261E+02  0.22044864003E+02 -0.19865094866E+02  0.59301896940E+02  0.49999914124E+02 0.  0.
         12    1    1    2    0    0  0.11667285261E+02 -0.22044864003E+02  0.19865094866E+02  0.31886103060E+02  0.00000000000E+00 0. -1.
         11    1    3    3    0    0  0.47419721569E+01  0.21745851834E+02  0.73047237259E+01  0.23424930329E+02  0.51100000000E-03 0. -1.
        -11    1    3    3    0    0 -0.10669014047E+02  0.15054349695E+01 -0.32584012564E+01  0.11256614686E+02  0.51100000000E-03 0.  1.
         12    1    3    3    0    0 -0.57402433714E+01 -0.12064228004E+01 -0.23911417336E+02  0.24620351926E+02  0.00000000000E+00 0. -1.
</event>
<event>
 7    1  0.7749294E-012  0.5930190E+02  0.7816164E-02  0.1266605E+00
        -11   -1    0    0    0    0  0.00000000000E+00  0.00000000000E+00  0.45593999997E+02  0.45594000000E+02  0.51100000000E-03 0.  1.
         11   -1    0    0    0    0 -0.00000000000E+00 -0.00000000000E+00 -0.45593999997E+02  0.45594000000E+02  0.51100000000E-03 0. -1.
    9900012    2    1    2    0    0 -0.10922041187E+02 -0.29315282855E+02 -0.61681801492E+01  0.59301902106E+02  0.49999923544E+02 0.  0.
         12    1    1    2    0    0  0.10922041187E+02  0.29315282855E+02  0.61681801492E+01  0.31886097894E+02  0.00000000000E+00 0. -1.
         11    1    3    3    0    0 -0.99301101011E+01 -0.16689808569E+01 -0.20980765416E+02  0.23271981037E+02  0.51100000000E-03 0. -1.
        -11    1    3    3    0    0 -0.86918406017E+01 -0.10179959833E+02  0.87909439090E+01  0.16014380110E+02  0.51100000000E-03 0.  1.
         12    1    3    3    0    0  0.76999095161E+01 -0.17466342166E+02  0.60216413573E+01  0.20015540958E+02  0.00000000000E+00 0. -1.
</event>
<event>
 7    1  0.7749294E-012  0.5930192E+02  0.7816164E-02  0.1266605E+00
        -11   -1    0    0    0    0  0.00000000000E+00  0.00000000000E+00  0.45593999997E+02  0.45594000000E+02  0.51100000000E-03 0. -1.
         11   -1    0    0    0    0 -0.00000000000E+00 -0.00000000000E+00 -0.45593999997E+02  0.45594000000E+02  0.51100000000E-03 0.  1.
    9900012    2    1    2    0    0 -0.18872762206E+01 -0.31021623123E+02  0.71287503350E+01  0.59301921626E+02  0.49999959145E+02 0.  0.
         12    1    1    2    0    0  0.18872762206E+01  0.31021623123E+02 -0.71287503350E+01  0.31886078374E+02  0.00000000000E+00 0. -1.
         11    1    3    3    0    0 -0.10502637101E+02  0.10140908150E+02  0.26548997865E+01  0.14838864421E+02  0.51100000000E-03 0. -1.
        -11    1    3    3    0    0  0.45725066757E+01 -0.19652786718E+02  0.90321970901E+01  0.22107022134E+02  0.51100000000E-03 0.  1.
         12    1    3    3    0    0  0.40428542049E+01 -0.21509744554E+02 -0.45583465416E+01  0.22356035071E+02  0.00000000000E+00 0. -1.
</event>
<event>
 7    1  0.7749294E-012  0.5930194E+02  0.7816164E-02  0.1266605E+00
        -11   -1    0    0    0    0  0.00000000000E+00  0.00000000000E+00  0.45593999997E+02  0.45594000000E+02  0.51100000000E-03 0.  1.
         11   -1    0    0    0    0 -0.00000000000E+00 -0.00000000000E+00 -0.45593999997E+02  0.45594000000E+02  0.51100000000E-03 0. -1.
    9900012    2    1    2    0    0 -0.20872876975E+02  0.22926398193E+02  0.74447158126E+01  0.59301944727E+02  0.50000001276E+02 0.  0.
         12    1    1    2    0    0  0.20872876975E+02 -0.22926398193E+02 -0.74447158126E+01  0.31886055273E+02  0.00000000000E+00 0. -1.
         11    1    3    3    0    0 -0.30957555919E+02  0.41155884032E+01  0.14507997799E+02  0.34435306544E+02  0.51100000000E-03 0. -1.
        -11    1    3    3    0    0  0.82475031010E+01  0.17942809664E+02 -0.25429252902E+01  0.19910605097E+02  0.51100000000E-03 0.  1.
         12    1    3    3    0    0  0.18371758428E+01  0.86800012622E+00 -0.45203566963E+01  0.49560330869E+01  0.00000000000E+00 0. -1.
</event>
<event>
 7    1  0.7749294E-012  0.5930195E+02  0.7816164E-02  0.1266605E+00
        -11   -1    0    0    0    0  0.00000000000E+00  0.00000000000E+00  0.45593999997E+02  0.45594000000E+02  0.51100000000E-03 0.  1.
         11   -1    0    0    0    0 -0.00000000000E+00 -0.00000000000E+00 -0.45593999997E+02  0.45594000000E+02  0.51100000000E-03 0. -1.
    9900012    2    1    2    0    0  0.66472885766E+01  0.16804628595E+02  0.26270479091E+02  0.59301951964E+02  0.50000014474E+02 0.  0.
         12    1    1    2    0    0 -0.66472885766E+01 -0.16804628595E+02 -0.26270479091E+02  0.31886048036E+02  0.00000000000E+00 0. -1.
         11    1    3    3    0    0 -0.34257432106E+01  0.27631729585E+02  0.70798271914E+01  0.28729290798E+02  0.51100000000E-03 0. -1.
        -11    1    3    3    0    0 -0.40493690549E+01 -0.83835003693E+01  0.92963551349E+01  0.13156849442E+02  0.51100000000E-03 0.  1.
        -12    1    3    3    0    0  0.14122400842E+02 -0.24436006206E+01  0.98942967652E+01  0.17415811724E+02  0.00000000000E+00 0.  1.
</event>
<event>
 7    1  0.7749294E-012  0.5930195E+02  0.7816164E-02  0.1266605E+00
        -11   -1    0    0    0    0  0.00000000000E+00  0.00000000000E+00  0.45593999997E+02  0.45594000000E+02  0.51100000000E-03 0. -1.
         11   -1    0    0    0    0 -0.00000000000E+00 -0.00000000000E+00 -0.45593999997E+02  0.45594000000E+02  0.51100000000E-03 0.  1.
    9900012    2    1    2    0    0 -0.77826575544E+01  0.20909228247E+02 -0.22780569971E+02  0.59301953636E+02  0.50000017523E+02 0.  0.
         12    1    1    2    0    0  0.77826575544E+01 -0.20909228247E+02  0.22780569971E+02  0.31886046364E+02  0.00000000000E+00 0. -1.
         11    1    3    3    0    0 -0.21635980988E+02  0.40219980728E+01  0.56636645421E+01  0.22723759331E+02  0.51100000000E-03 0. -1.
        -11    1    3    3    0    0  0.33621632038E+01  0.89017944194E+01 -0.90877800304E+01  0.13158032962E+02  0.51100000000E-03 0.  1.
         12    1    3    3    0    0  0.10491160230E+02  0.79854357552E+01 -0.19356454483E+02  0.23420161343E+02  0.00000000000E+00 0. -1.
</event>
<event>
 7    1  0.7749294E-012  0.5930208E+02  0.7816164E-02  0.1266604E+00
        -11   -1    0    0    0    0  0.00000000000E+00  0.00000000000E+00  0.45593999997E+02  0.45594000000E+02  0.51100000000E-03 0. -1.
         11   -1    0    0    0    0 -0.00000000000E+00 -0.00000000000E+00 -0.45593999997E+02  0.45594000000E+02  0.51100000000E-03 0.  1.
    9900012    2    1    2    0    0 -0.15866036461E+02  0.23092336207E+02  0.15222502299E+02  0.59302083349E+02  0.50000254087E+02 0.  0.
         12    1    1    2    0    0  0.15866036461E+02 -0.23092336207E+02 -0.15222502299E+02  0.31885916651E+02  0.00000000000E+00 0. -1.
         11    1    3    3    0    0  0.18636887451E+01  0.18717784822E+02  0.22957203880E+02  0.29679319646E+02  0.51100000000E-03 0. -1.
        -11    1    3    3    0    0  0.30689650924E+00  0.72696450336E+01 -0.86855748646E+01  0.11330539942E+02  0.51100000000E-03 0.  1.
         12    1    3    3    0    0 -0.18036621715E+02 -0.28950936492E+01  0.95087328379E+00  0.18292223761E+02  0.00000000000E+00 0. -1.
</event>
<event>
 7    1  0.7749294E-012  0.5930196E+02  0.7816164E-02  0.1266605E+00
        -11   -1    0    0    0    0  0.00000000000E+00  0.00000000000E+00  0.45593999997E+02  0.45594000000E+02  0.51100000000E-03 0.  1.
         11   -1    0    0    0    0 -0.00000000000E+00 -0.00000000000E+00 -0.45593999997E+02  0.45594000000E+02  0.51100000000E-03 0. -1.
    9900012    2    1    2    0    0  0.26376626623E+02  0.55623801890E+01  0.17030938437E+02  0.59301962783E+02  0.50000034204E+02 0.  0.
         12    1    1    2    0    0 -0.26376626623E+02 -0.55623801890E+01 -0.17030938437E+02  0.31886037217E+02  0.00000000000E+00 0. -1.
         11    1    3    3    0    0 -0.23802099867E+01  0.29956927451E+00  0.21214574640E+02  0.21349784981E+02  0.51100000000E-03 0. -1.
        -11    1    3    3    0    0  0.27253129382E+02  0.27984330097E+01 -0.11783049722E+02  0.29822886336E+02  0.51100000000E-03 0.  1.
        -12    1    3    3    0    0  0.15037072283E+01  0.24643779048E+01  0.75994135193E+01  0.81292914651E+01  0.00000000000E+00 0.  1.
</event>
<event>
 7    1  0.7749294E-012  0.5930200E+02  0.7816164E-02  0.1266605E+00
        -11   -1    0    0    0    0  0.00000000000E+00  0.00000000000E+00  0.45593999997E+02  0.45594000000E+02  0.51100000000E-03 0.  1.
         11   -1    0    0    0    0 -0.00000000000E+00 -0.00000000000E+00 -0.45593999997E+02  0.45594000000E+02  0.51100000000E-03 0. -1.
    9900012    2    1    2    0    0  0.17156404123E+02 -0.21272822778E+02 -0.16426868221E+02  0.59301996943E+02  0.50000096505E+02 0.  0.
         12    1    1    2    0    0 -0.17156404123E+02  0.21272822778E+02  0.16426868221E+02  0.31886003057E+02  0.00000000000E+00 0. -1.
         11    1    3    3    0    0 -0.35796167281E+01  0.29504271783E+01  0.51398587818E+01  0.69236424671E+01  0.51100000000E-03 0. -1.
        -11    1    3    3    0    0  0.23513591984E+02 -0.31081909414E+01 -0.19997992316E+02  0.31023693460E+02  0.51100000000E-03 0.  1.
        -12    1    3    3    0    0 -0.27775711332E+01 -0.21115059015E+02 -0.15687346867E+01  0.21354661016E+02  0.00000000000E+00 0.  1.
</event>
<event>
 7    1  0.7749294E-012  0.5930196E+02  0.7816164E-02  0.1266605E+00
        -11   -1    0    0    0    0  0.00000000000E+00  0.00000000000E+00  0.45593999997E+02  0.45594000000E+02  0.51100000000E-03 0. -1.
         11   -1    0    0    0    0 -0.00000000000E+00 -0.00000000000E+00 -0.45593999997E+02  0.45594000000E+02  0.51100000000E-03 0.  1.
    9900012    2    1    2    0    0  0.23937580204E+02 -0.19590860412E+02  0.77401510121E+01  0.59301960807E+02  0.50000030601E+02 0.  0.
         12    1    1    2    0    0 -0.23937580204E+02  0.19590860412E+02 -0.77401510121E+01  0.31886039193E+02  0.00000000000E+00 0. -1.
         11    1    3    3    0    0  0.41057405166E+01  0.58361612499E+01  0.33796641036E+01  0.78955692030E+01  0.51100000000E-03 0. -1.
        -11    1    3    3    0    0  0.69279758325E+00 -0.31083355394E+02  0.47108324828E+01  0.31445936049E+02  0.51100000000E-03 0.  1.
        -12    1    3    3    0    0  0.19139042104E+02  0.56563337317E+01 -0.35034557431E+00  0.19960455555E+02  0.00000000000E+00 0.  1.
</event>
<event>
 7    1  0.7749294E-012  0.5930196E+02  0.7816164E-02  0.1266605E+00
        -11   -1    0    0    0    0  0.00000000000E+00  0.00000000000E+00  0.45593999997E+02  0.45594000000E+02  0.51100000000E-03 0.  1.
         11   -1    0    0    0    0 -0.00000000000E+00 -0.00000000000E+00 -0.45593999997E+02  0.45594000000E+02  0.51100000000E-03 0. -1.
    9900012    2    1    2    0    0  0.10363769929E+02  0.28271338192E+02  0.10490136745E+02  0.59301964510E+02  0.50000037356E+02 0.  0.
         12    1    1    2    0    0 -0.10363769929E+02 -0.28271338192E+02 -0.10490136745E+02  0.31886035490E+02  0.00000000000E+00 0. -1.
         11    1    3    3    0    0 -0.38484195369E+01 -0.81779697270E+01 -0.70702978028E+01  0.11475131070E+02  0.51100000000E-03 0. -1.
        -11    1    3    3    0    0  0.16094858093E+02  0.13713402513E+02  0.47843823103E+01  0.21679303030E+02  0.51100000000E-03 0.  1.
         12    1    3    3    0    0 -0.18826686275E+01  0.22735905406E+02  0.12776052238E+02  0.26147530410E+02  0.00000000000E+00 0. -1.
</event>
<event>
 7    1  0.7749294E-012  0.5930194E+02  0.7816164E-02  0.1266605E+00
        -11   -1    0    0    0    0  0.00000000000E+00  0.00000000000E+00  0.45593999997E+02  0.45594000000E+02  0.51100000000E-03 0. -1.
         11   -1    0    0    0    0 -0.00000000000E+00 -0.00000000000E+00 -0.45593999997E+02  0.45594000000E+02  0.51100000000E-03 0.  1.
    9900012    2    1    2    0    0 -0.35668703123E+01  0.10754149696E+02 -0.29805143809E+02  0.59301938830E+02  0.49999990520E+02 0.  0.
         12    1    1    2    0    0  0.35668703123E+01 -0.10754149696E+02  0.29805143809E+02  0.31886061170E+02  0.00000000000E+00 0. -1.
         11    1    3    3    0    0 -0.40997682367E+01  0.18180404567E+02  0.58361563029E+01  0.19529360729E+02  0.51100000000E-03 0. -1.
        -11    1    3    3    0    0  0.17079463568E+01 -0.12137926501E+02 -0.20644686031E+02  0.24009360718E+02  0.51100000000E-03 0.  1.
         12    1    3    3    0    0 -0.11750484324E+01  0.47116716295E+01 -0.14996614081E+02  0.15763217383E+02  0.00000000000E+00 0. -1.
</event>
<event>
 7    1  0.7749294E-012  0.5930206E+02  0.7816164E-02  0.1266604E+00
        -11   -1    0    0    0    0  0.00000000000E+00  0.00000000000E+00  0.45593999997E+02  0.45594000000E+02  0.51100000000E-03 0. -1.
         11   -1    0    0    0    0 -0.00000000000E+00 -0.00000000000E+00 -0.45593999997E+02  0.45594000000E+02  0.51100000000E-03 0.  1.
    9900012    2    1    2    0    0 -0.32617870236E+01  0.57339455088E+01 -0.31196082626E+02  0.59302063337E+02  0.50000217590E+02 0.  0.
         12    1    1    2    0    0  0.32617870236E+01 -0.57339455088E+01  0.31196082626E+02  0.31885936663E+02  0.00000000000E+00 0. -1.
         11    1    3    3    0    0  0.19208561188E+02 -0.61988230836E+01 -0.25152090402E+02  0.32249370264E+02  0.51100000000E-03 0. -1.
        -11    1    3    3    0    0 -0.55210735997E+01 -0.15033085841E+00 -0.18005260420E+01  0.58091950690E+01  0.51100000000E-03 0.  1.
         12    1    3    3    0    0 -0.16949274612E+02  0.12083099451E+02 -0.42434661817E+01  0.21243498004E+02  0.00000000000E+00 0. -1.
</event>
<event>
 7    1  0.7749294E-012  0.5930196E+02  0.7816164E-02  0.1266605E+00
        -11   -1    0    0    0    0  0.00000000000E+00  0.00000000000E+00  0.45593999997E+02  0.45594000000E+02  0.51100000000E-03 0.  1.
         11   -1    0    0    0    0 -0.00000000000E+00 -0.00000000000E+00 -0.45593999997E+02  0.45594000000E+02  0.51100000000E-03 0. -1.
    9900012    2    1    2    0    0 -0.17696517803E+02  0.24615052485E+02  0.98818882284E+01  0.59301964402E+02  0.50000037158E+02 0.  0.
         12    1    1    2    0    0  0.17696517803E+02 -0.24615052485E+02 -0.98818882284E+01  0.31886035598E+02  0.00000000000E+00 0. -1.
         11    1    3    3    0    0  0.16150997408E+00 -0.49208670802E+01 -0.11463590621E+02  0.12476174432E+02  0.51100000000E-03 0. -1.
        -11    1    3    3    0    0 -0.10918713618E+02  0.21414138737E+02  0.25790557617E+02  0.35255304670E+02  0.51100000000E-03 0.  1.
        -12    1    3    3    0    0 -0.69393141588E+01  0.81217808283E+01 -0.44450787679E+01  0.11570485300E+02  0.00000000000E+00 0.  1.
</event>
<event>
 7    1  0.7749294E-012  0.5930192E+02  0.7816164E-02  0.1266605E+00
        -11   -1    0    0    0    0  0.00000000000E+00  0.00000000000E+00  0.45593999997E+02  0.45594000000E+02  0.51100000000E-03 0.  1.
         11   -1    0    0    0    0 -0.00000000000E+00 -0.00000000000E+00 -0.45593999997E+02  0.45594000000E+02  0.51100000000E-03 0. -1.
    9900012    2    1    2    0    0  0.11711839623E+02  0.26138658260E+02  0.14011609607E+02  0.59301923936E+02  0.49999963357E+02 0.  0.
         12    1    1    2    0    0 -0.11711839623E+02 -0.26138658260E+02 -0.14011609607E+02  0.31886076064E+02  0.00000000000E+00 0. -1.
         11    1    3    3    0    0  0.20200215179E+01  0.15358227358E+02 -0.17137152418E+02  0.23100597996E+02  0.51100000000E-03 0. -1.
        -11    1    3    3    0    0 -0.12139997925E+01  0.65641410209E+01  0.12967429292E+02  0.14584785413E+02  0.51100000000E-03 0.  1.
         12    1    3    3    0    0  0.10905817898E+02  0.42162898807E+01  0.18181332733E+02  0.21616540526E+02  0.00000000000E+00 0. -1.
</event>
<event>
 7    1  0.7749294E-012  0.5930194E+02  0.7816164E-02  0.1266605E+00
        -11   -1    0    0    0    0  0.00000000000E+00  0.00000000000E+00  0.45593999997E+02  0.45594000000E+02  0.51100000000E-03 0. -1.
         11   -1    0    0    0    0 -0.00000000000E+00 -0.00000000000E+00 -0.45593999997E+02  0.45594000000E+02  0.51100000000E-03 0.  1.
    9900012    2    1    2    0    0 -0.43540032614E+01 -0.31755519505E+00 -0.31585800318E+02  0.59301937725E+02  0.49999988505E+02 0.  0.
         12    1    1    2    0    0  0.43540032614E+01  0.31755519505E+00  0.31585800318E+02  0.31886062275E+02  0.00000000000E+00 0. -1.
         11    1    3    3    0    0 -0.15492386759E+02 -0.98165213678E+01 -0.20090831451E+02  0.27203302151E+02  0.51100000000E-03 0. -1.
        -11    1    3    3    0    0  0.26470163419E+01  0.16026125495E+02  0.19472315124E+00  0.16244424005E+02  0.51100000000E-03 0.  1.
         12    1    3    3    0    0  0.84913671559E+01 -0.65271593220E+01 -0.11689692019E+02  0.15854211569E+02  0.00000000000E+00 0. -1.
</event>
<event>
 7    1  0.7749294E-012  0.5930195E+02  0.7816164E-02  0.1266605E+00
        -11   -1    0    0    0    0  0.00000000000E+00  0.00000000000E+00  0.45593999997E+02  0.45594000000E+02  0.51100000000E-03 0.  1.
         11   -1    0    0    0    0 -0.00000000000E+00 -0.00000000000E+00 -0.45593999997E+02  0.45594000000E+02  0.51100000000E-03 0. -1.
    9900012    2    1    2    0    0  0.31531719999E+02 -0.47312242349E+01  0.29357399830E+00  0.59301952353E+02  0.50000015183E+02 0.  0.
         12    1    1    2    0    0 -0.31531719999E+02  0.47312242349E+01 -0.29357399830E+00  0.31886047647E+02  0.00000000000E+00 0. -1.
         11    1    3    3    0    0  0.51799173399E+01 -0.13862184814E+02  0.15174263810E+02  0.21195518250E+02  0.51100000000E-03 0. -1.
        -11    1    3    3    0    0  0.58440844003E+01  0.83090166812E+01  0.33070615637E+01  0.10683152022E+02  0.51100000000E-03 0.  1.
         12    1    3    3    0    0  0.20507718259E+02  0.82194389812E+00 -0.18187751375E+02  0.27423282080E+02  0.00000000000E+00 0. -1.
</event>
<event>
 7    1  0.7749294E-012  0.5930191E+02  0.7816164E-02  0.1266605E+00
        -11   -1    0    0    0    0  0.00000000000E+00  0.00000000000E+00  0.45593999997E+02  0.45594000000E+02  0.51100000000E-03 0. -1.
         11   -1    0    0    0    0 -0.00000000000E+00 -0.00000000000E+00 -0.45593999997E+02  0.45594000000E+02  0.51100000000E-03 0.  1.
    9900012    2    1    2    0    0 -0.49415690552E-01 -0.21070059763E+02 -0.23932667770E+02  0.59301914525E+02  0.49999946194E+02 0.  0.
         12    1    1    2    0    0  0.49415690552E-01  0.21070059763E+02  0.23932667770E+02  0.31886085475E+02  0.00000000000E+00 0. -1.
         11    1    3    3    0    0 -0.89708133825E+01  0.58186976929E+01  0.84282436566E+01  0.13614992728E+02  0.51100000000E-03 0. -1.
        -11    1    3    3    0    0  0.67895136111E+01 -0.14685675059E+02 -0.73380051179E+01  0.17765496514E+02  0.51100000000E-03 0.  1.
         12    1    3    3    0    0  0.21318840809E+01 -0.12203082397E+02 -0.25022906309E+02  0.27921425283E+02  0.00000000000E+00 0. -1.
</event>
<event>
 7    1  0.8095300E-012  0.5930194E+02  0.7816164E-02  0.1266605E+00
        -11   -1    0    0    0    0  0.00000000000E+00  0.00000000000E+00  0.45593999997E+02  0.45594000000E+02  0.51100000000E-03 0. -1.
         11   -1    0    0    0    0 -0.00000000000E+00 -0.00000000000E+00 -0.45593999997E+02  0.45594000000E+02  0.51100000000E-03 0.  1.
    9900012    2    1    2    0    0  0.10385985244E+02 -0.88166883558E+01 -0.28829116379E+02  0.59301942949E+02  0.49999998033E+02 0.  0.
         12    1    1    2    0    0 -0.10385985244E+02  0.88166883558E+01  0.28829116379E+02  0.31886057051E+02  0.00000000000E+00 0. -1.
         11    1    3    3    0    0  0.18989876087E+02 -0.33095436596E+01  0.17033792702E+01  0.19351226686E+02  0.51100000000E-03 0. -1.
        -11    1    3    3    0    0 -0.12385412420E+02  0.56302581297E+00 -0.48868311664E+01  0.13326535859E+02  0.51100000000E-03 0.  1.
        -12    1    3    3    0    0  0.37815215762E+01 -0.60701705092E+01 -0.25645664483E+02  0.26624180405E+02  0.00000000000E+00 0.  1.
</event>
<event>
 7    1  0.7749294E-012  0.5930194E+02  0.7816164E-02  0.1266605E+00
        -11   -1    0    0    0    0  0.00000000000E+00  0.00000000000E+00  0.45593999997E+02  0.45594000000E+02  0.51100000000E-03 0. -1.
         11   -1    0    0    0    0 -0.00000000000E+00 -0.00000000000E+00 -0.45593999997E+02  0.45594000000E+02  0.51100000000E-03 0.  1.
    9900012    2    1    2    0    0  0.15357807899E+02 -0.12051206463E+02 -0.25211647916E+02  0.59301936723E+02  0.49999986677E+02 0.  0.
         12    1    1    2    0    0 -0.15357807899E+02  0.12051206463E+02  0.25211647916E+02  0.31886063277E+02  0.00000000000E+00 0. -1.
         11    1    3    3    0    0  0.21461451243E+02 -0.17118457932E+02  0.12117584586E+01  0.27479153012E+02  0.51100000000E-03 0. -1.
        -11    1    3    3    0    0 -0.11016604640E+01 -0.52519331867E+01 -0.13596290456E+02  0.14616961804E+02  0.51100000000E-03 0.  1.
         12    1    3    3    0    0 -0.50019828794E+01  0.10319184656E+02 -0.12827115919E+02  0.17205821907E+02  0.00000000000E+00 0. -1.
</event>
<event>
 7    1  0.7749294E-012  0.5930197E+02  0.7816164E-02  0.1266605E+00
        -11   -1    0    0    0    0  0.00000000000E+00  0.00000000000E+00  0.45593999997E+02  0.45594000000E+02  0.51100000000E-03 0. -1.
         11   -1    0    0    0    0 -0.00000000000E+00 -0.00000000000E+00 -0.45593999997E+02  0.45594000000E+02  0.51100000000E-03 0.  1.
    9900012    2    1    2    0    0  0.13700604325E+01  0.26808102657E+02 -0.17209511388E+02  0.59301973031E+02  0.50000052896E+02 0.  0.
         12    1    1    2    0    0 -0.13700604325E+01 -0.26808102657E+02  0.17209511388E+02  0.31886026969E+02  0.00000000000E+00 0. -1.
         11    1    3    3    0    0 -0.19813833586E+02  0.65847573341E+00 -0.10696367039E+02  0.22526292633E+02  0.51100000000E-03 0. -1.
        -11    1    3    3    0    0  0.58550192694E+01  0.13742689841E+02 -0.80973054357E+01  0.16991442855E+02  0.51100000000E-03 0.  1.
         12    1    3    3    0    0  0.15328874749E+02  0.12406937082E+02  0.15841610873E+01  0.19784237544E+02  0.00000000000E+00 0. -1.
</event>
<event>
 7    1  0.7749294E-012  0.5930194E+02  0.7816164E-02  0.1266605E+00
        -11   -1    0    0    0    0  0.00000000000E+00  0.00000000000E+00  0.45593999997E+02  0.45594000000E+02  0.51100000000E-03 0.  1.
         11   -1    0    0    0    0 -0.00000000000E+00 -0.00000000000E+00 -0.45593999997E+02  0.45594000000E+02  0.51100000000E-03 0. -1.
    9900012    2    1    2    0    0 -0.49469045704E+01  0.30989521399E+02  0.56478562115E+01  0.59301943782E+02  0.49999999552E+02 0.  0.
         12    1    1    2    0    0  0.49469045704E+01 -0.30989521399E+02 -0.56478562115E+01  0.31886056218E+02  0.00000000000E+00 0. -1.
         11    1    3    3    0    0  0.11637050489E+02  0.14697397834E+02  0.17577488774E+02  0.25698298758E+02  0.51100000000E-03 0. -1.
        -11    1    3    3    0    0 -0.13351809852E+02  0.16350744314E+02  0.13843140437E+00  0.21110112019E+02  0.51100000000E-03 0.  1.
         12    1    3    3    0    0 -0.32321452079E+01 -0.58620749580E-01 -0.12068063967E+02  0.12493533005E+02  0.00000000000E+00 0. -1.
</event>
<event>
 7    1  0.7749294E-012  0.5930196E+02  0.7816164E-02  0.1266605E+00
        -11   -1    0    0    0    0  0.00000000000E+00  0.00000000000E+00  0.45593999997E+02  0.45594000000E+02  0.51100000000E-03 0. -1.
         11   -1    0    0    0    0 -0.00000000000E+00 -0.00000000000E+00 -0.45593999997E+02  0.45594000000E+02  0.51100000000E-03 0.  1.
    9900012    2    1    2    0    0 -0.22363313457E+02  0.19409262770E+02 -0.11827179426E+02  0.59301961625E+02  0.50000032093E+02 0.  0.
         12    1    1    2    0    0  0.22363313457E+02 -0.19409262770E+02  0.11827179426E+02  0.31886038375E+02  0.00000000000E+00 0. -1.
         11    1    3    3    0    0 -0.67166123935E+01 -0.14338827506E+02  0.98920119682E+00  0.15864847164E+02  0.51100000000E-03 0. -1.
        -11    1    3    3    0    0 -0.80779408146E+01  0.30581183630E+02 -0.14912195078E+02  0.34969064648E+02  0.51100000000E-03 0.  1.
        -12    1    3    3    0    0 -0.75687602490E+01  0.31669066456E+01  0.20958144549E+01  0.84680498132E+01  0.00000000000E+00 0.  1.
</event>
<event>
 7    1  0.7749294E-012  0.5930194E+02  0.7816164E-02  0.1266605E+00
        -11   -1    0    0    0    0  0.00000000000E+00  0.00000000000E+00  0.45593999997E+02  0.45594000000E+02  0.51100000000E-03 0. -1.
         11   -1    0    0    0    0 -0.00000000000E+00 -0.00000000000E+00 -0.45593999997E+02  0.45594000000E+02  0.51100000000E-03 0.  1.
    9900012    2    1    2    0    0 -0.23806139840E+02  0.19092504457E+02  0.92447315751E+01  0.59301935921E+02  0.49999985216E+02 0.  0.
         12    1    1    2    0    0  0.23806139840E+02 -0.19092504457E+02 -0.92447315751E+01  0.31886064079E+02  0.00000000000E+00 0. -1.
         11    1    3    3    0    0 -0.22779328092E+01 -0.42977465967E+01  0.12249306444E+02  0.13179723530E+02  0.51100000000E-03 0. -1.
        -11    1    3    3    0    0 -0.26439544706E+02  0.26594040044E+02  0.31360488173E+01  0.37631466787E+02  0.51100000000E-03 0.  1.
        -12    1    3    3    0    0  0.49113376756E+01 -0.32037889898E+01 -0.61406236867E+01  0.84907456042E+01  0.00000000000E+00 0.  1.
</event>
<event>
 7    1  0.7749294E-012  0.5930187E+02  0.7816164E-02  0.1266605E+00
        -11   -1    0    0    0    0  0.00000000000E+00  0.00000000000E+00  0.45593999997E+02  0.45594000000E+02  0.51100000000E-03 0. -1.
         11   -1    0    0    0    0 -0.00000000000E+00 -0.00000000000E+00 -0.45593999997E+02  0.45594000000E+02  0.51100000000E-03 0.  1.
    9900012    2    1    2    0    0 -0.91163540989E+01  0.29464906558E+02  0.80893090571E+01  0.59301865842E+02  0.49999857407E+02 0.  0.
         12    1    1    2    0    0  0.91163540989E+01 -0.29464906558E+02 -0.80893090571E+01  0.31886134158E+02  0.00000000000E+00 0. -1.
         11    1    3    3    0    0  0.15834610364E+02  0.14419545252E+02  0.17007560849E+02  0.27348040093E+02  0.51100000000E-03 0. -1.
        -11    1    3    3    0    0 -0.13952131478E+02  0.29943253289E+01 -0.54393615004E+01  0.15271365713E+02  0.51100000000E-03 0.  1.
         12    1    3    3    0    0 -0.10998832985E+02  0.12051035977E+02 -0.34788902910E+01  0.16682460035E+02  0.00000000000E+00 0. -1.
</event>
<event>
 7    1  0.7749294E-012  0.5930194E+02  0.7816164E-02  0.1266605E+00
        -11   -1    0    0    0    0  0.00000000000E+00  0.00000000000E+00  0.45593999997E+02  0.45594000000E+02  0.51100000000E-03 0. -1.
         11   -1    0    0    0    0 -0.00000000000E+00 -0.00000000000E+00 -0.45593999997E+02  0.45594000000E+02  0.51100000000E-03 0.  1.
    9900012    2    1    2    0    0 -0.29888493748E+02  0.10840394090E+02  0.24257864502E+01  0.59301942820E+02  0.49999997798E+02 0.  0.
         12    1    1    2    0    0  0.29888493748E+02 -0.10840394090E+02 -0.24257864502E+01  0.31886057180E+02  0.00000000000E+00 0. -1.
         11    1    3    3    0    0 -0.18290744851E+02  0.23915232884E+02 -0.54131429109E+01  0.30590714727E+02  0.51100000000E-03 0.  1.
        -11    1    3    3    0    0 -0.10990860930E+02 -0.67084199701E+01  0.14557790563E+02  0.19435307788E+02  0.51100000000E-03 0. -1.
         12    1    3    3    0    0 -0.60688796725E+00 -0.63664188236E+01 -0.67188612023E+01  0.92759203047E+01  0.00000000000E+00 0. -1.
</event>
<event>
 7    1  0.7749294E-012  0.5930187E+02  0.7816164E-02  0.1266605E+00
        -11   -1    0    0    0    0  0.00000000000E+00  0.00000000000E+00  0.45593999997E+02  0.45594000000E+02  0.51100000000E-03 0. -1.
         11   -1    0    0    0    0 -0.00000000000E+00 -0.00000000000E+00 -0.45593999997E+02  0.45594000000E+02  0.51100000000E-03 0.  1.
    9900012    2    1    2    0    0  0.20692697054E+02  0.66399032708E+01 -0.23333431628E+02  0.59301873575E+02  0.49999871511E+02 0.  0.
         12    1    1    2    0    0 -0.20692697054E+02 -0.66399032708E+01  0.23333431628E+02  0.31886126425E+02  0.00000000000E+00 0. -1.
         11    1    3    3    0    0  0.27674216602E+01  0.57771666002E+01  0.11448391221E+02  0.13118686611E+02  0.51100000000E-03 0. -1.
        -11    1    3    3    0    0  0.91145398898E+01 -0.11025394529E+02 -0.23753433087E+02  0.27728320281E+02  0.51100000000E-03 0.  1.
        -12    1    3    3    0    0  0.88107355044E+01  0.11888131200E+02 -0.11028389762E+02  0.18454866683E+02  0.00000000000E+00 0.  1.
</event>
<event>
 7    1  0.7749294E-012  0.5930195E+02  0.7816164E-02  0.1266605E+00
        -11   -1    0    0    0    0  0.00000000000E+00  0.00000000000E+00  0.45593999997E+02  0.45594000000E+02  0.51100000000E-03 0.  1.
         11   -1    0    0    0    0 -0.00000000000E+00 -0.00000000000E+00 -0.45593999997E+02  0.45594000000E+02  0.51100000000E-03 0. -1.
    9900012    2    1    2    0    0  0.90547451748E+01 -0.97879436778E+01  0.28964258124E+02  0.59301945050E+02  0.50000001864E+02 0.  0.
         12    1    1    2    0    0 -0.90547451748E+01  0.97879436778E+01 -0.28964258124E+02  0.31886054950E+02  0.00000000000E+00 0. -1.
         11    1    3    3    0    0  0.90052257448E+01  0.84366292076E+01 -0.60232838896E+01  0.13731378379E+02  0.51100000000E-03 0. -1.
        -11    1    3    3    0    0 -0.10914709135E+02 -0.97428106431E+01  0.12964980131E+02  0.19548502367E+02  0.51100000000E-03 0.  1.
         12    1    3    3    0    0  0.10964228565E+02 -0.84817622423E+01  0.22022561882E+02  0.26022064304E+02  0.00000000000E+00 0. -1.
</event>
<event>
 7    1  0.7749294E-012  0.5930194E+02  0.7816164E-02  0.1266605E+00
        -11   -1    0    0    0    0  0.00000000000E+00  0.00000000000E+00  0.45593999997E+02  0.45594000000E+02  0.51100000000E-03 0.  1.
         11   -1    0    0    0    0 -0.00000000000E+00 -0.00000000000E+00 -0.45593999997E+02  0.45594000000E+02  0.51100000000E-03 0. -1.
    9900012    2    1    2    0    0 -0.24904131560E+02 -0.32591361025E+01  0.19643898976E+02  0.59301944994E+02  0.50000001761E+02 0.  0.
         12    1    1    2    0    0  0.24904131560E+02  0.32591361025E+01 -0.19643898976E+02  0.31886055006E+02  0.00000000000E+00 0. -1.
         11    1    3    3    0    0 -0.18564172158E+02  0.59908222209E+01 -0.89628095792E+01  0.21467426362E+02  0.51100000000E-03 0. -1.
        -11    1    3    3    0    0  0.15365441843E+00  0.51167579367E+01  0.18290247761E+02  0.18993103614E+02  0.51100000000E-03 0.  1.
         12    1    3    3    0    0 -0.64936138205E+01 -0.14366716260E+02  0.10316460794E+02  0.18841415018E+02  0.00000000000E+00 0. -1.
</event>
<event>
 7    1  0.7749294E-012  0.5930200E+02  0.7816164E-02  0.1266605E+00
        -11   -1    0    0    0    0  0.00000000000E+00  0.00000000000E+00  0.45593999997E+02  0.45594000000E+02  0.51100000000E-03 0. -1.
         11   -1    0    0    0    0 -0.00000000000E+00 -0.00000000000E+00 -0.45593999997E+02  0.45594000000E+02  0.51100000000E-03 0.  1.
    9900012    2    1    2    0    0 -0.88724557461E+01  0.40176025141E+01 -0.30362073393E+02  0.59301998343E+02  0.50000099059E+02 0.  0.
         12    1    1    2    0    0  0.88724557461E+01 -0.40176025141E+01  0.30362073393E+02  0.31886001657E+02  0.00000000000E+00 0. -1.
         11    1    3    3    0    0 -0.21392694518E+02  0.77760572791E+01 -0.18029265664E+02  0.29037370166E+02  0.51100000000E-03 0. -1.
        -11    1    3    3    0    0  0.96923912712E+01  0.79518696535E+01 -0.13177040169E+02  0.18188157340E+02  0.51100000000E-03 0.  1.
         12    1    3    3    0    0  0.28278475005E+01 -0.11710324418E+02  0.84423243987E+00  0.12076470837E+02  0.00000000000E+00 0. -1.
</event>
<event>
 7    1  0.7749294E-012  0.5930196E+02  0.7816164E-02  0.1266605E+00
        -11   -1    0    0    0    0  0.00000000000E+00  0.00000000000E+00  0.45593999997E+02  0.45594000000E+02  0.51100000000E-03 0.  1.
         11   -1    0    0    0    0 -0.00000000000E+00 -0.00000000000E+00 -0.45593999997E+02  0.45594000000E+02  0.51100000000E-03 0. -1.
    9900012    2    1    2    0    0 -0.30315302413E+02  0.91659088082E+01 -0.36997635239E+01  0.59301957680E+02  0.50000024899E+02 0.  0.
         12    1    1    2    0    0  0.30315302413E+02 -0.91659088082E+01  0.36997635239E+01  0.31886042320E+02  0.00000000000E+00 0. -1.
         11    1    3    3    0    0  0.19398613958E+01 -0.19678686265E+01  0.14133396138E+02  0.14400988016E+02  0.51100000000E-03 0. -1.
        -11    1    3    3    0    0 -0.19697021252E+02  0.12319774424E+02 -0.21597664138E+00  0.23233513170E+02  0.51100000000E-03 0.  1.
         12    1    3    3    0    0 -0.12558142557E+02 -0.11859969893E+01 -0.17617183021E+02  0.21667456494E+02  0.00000000000E+00 0. -1.
</event>
<event>
 7    1  0.7749294E-012  0.5930195E+02  0.7816164E-02  0.1266605E+00
        -11   -1    0    0    0    0  0.00000000000E+00  0.00000000000E+00  0.45593999997E+02  0.45594000000E+02  0.51100000000E-03 0. -1.
         11   -1    0    0    0    0 -0.00000000000E+00 -0.00000000000E+00 -0.45593999997E+02  0.45594000000E+02  0.51100000000E-03 0.  1.
    9900012    2    1    2    0    0 -0.53207647262E+01  0.28645070462E+01  0.31308217688E+02  0.59301946110E+02  0.50000003797E+02 0.  0.
         12    1    1    2    0    0  0.53207647262E+01 -0.28645070462E+01 -0.31308217688E+02  0.31886053890E+02  0.00000000000E+00 0. -1.
         11    1    3    3    0    0  0.25801303434E+01  0.55478772485E+01  0.88364712333E+01  0.10747987657E+02  0.51100000000E-03 0. -1.
        -11    1    3    3    0    0 -0.99763498086E+01 -0.19358385904E+02  0.17110412148E+01  0.21844961035E+02  0.51100000000E-03 0.  1.
        -12    1    3    3    0    0  0.20754547391E+01  0.16675015701E+02  0.20760705240E+02  0.26708997418E+02  0.00000000000E+00 0.  1.
</event>
<event>
 7    1  0.7749294E-012  0.5930195E+02  0.7816164E-02  0.1266605E+00
        -11   -1    0    0    0    0  0.00000000000E+00  0.00000000000E+00  0.45593999997E+02  0.45594000000E+02  0.51100000000E-03 0.  1.
         11   -1    0    0    0    0 -0.00000000000E+00 -0.00000000000E+00 -0.45593999997E+02  0.45594000000E+02  0.51100000000E-03 0. -1.
    9900012    2    1    2    0    0  0.28702512456E+02 -0.10120801224E+02 -0.95108001560E+01  0.59301950412E+02  0.50000011644E+02 0.  0.
         12    1    1    2    0    0 -0.28702512456E+02  0.10120801224E+02  0.95108001560E+01  0.31886049588E+02  0.00000000000E+00 0. -1.
         11    1    3    3    0    0 -0.30183470246E+00 -0.87498805219E+01  0.10811101706E+02  0.13911557558E+02  0.51100000000E-03 0.  1.
        -11    1    3    3    0    0  0.11849757653E+02 -0.10068071238E+02 -0.21017886674E+02  0.26144490345E+02  0.51100000000E-03 0. -1.
        -12    1    3    3    0    0  0.17154589505E+02  0.86971505363E+01  0.69598481123E+00  0.19245902509E+02  0.00000000000E+00 0.  1.
</event>
<event>
 7    1  0.7749294E-012  0.5930194E+02  0.7816164E-02  0.1266605E+00
        -11   -1    0    0    0    0  0.00000000000E+00  0.00000000000E+00  0.45593999997E+02  0.45594000000E+02  0.51100000000E-03 0. -1.
         11   -1    0    0    0    0 -0.00000000000E+00 -0.00000000000E+00 -0.45593999997E+02  0.45594000000E+02  0.51100000000E-03 0.  1.
    9900012    2    1    2    0    0 -0.25301442659E+02  0.77656875230E+01 -0.17783470756E+02  0.59301941362E+02  0.49999995139E+02 0.  0.
         12    1    1    2    0    0  0.25301442659E+02 -0.77656875230E+01  0.17783470756E+02  0.31886058638E+02  0.00000000000E+00 0. -1.
         11    1    3    3    0    0  0.27266855919E+01 -0.30695774761E+01 -0.62560341322E+01  0.74829862704E+01  0.51100000000E-03 0. -1.
        -11    1    3    3    0    0 -0.36299755968E+02  0.20983845452E+00 -0.12309769110E+02  0.38330754379E+02  0.51100000000E-03 0.  1.
        -12    1    3    3    0    0  0.82716277169E+01  0.10625426545E+02  0.78233248624E+00  0.13488200713E+02  0.00000000000E+00 0.  1.
</event>
<event>
 7    1  0.7749294E-012  0.5930194E+02  0.7816164E-02  0.1266605E+00
        -11   -1    0    0    0    0  0.00000000000E+00  0.00000000000E+00  0.45593999997E+02  0.45594000000E+02  0.51100000000E-03 0.  1.
         11   -1    0    0    0    0 -0.00000000000E+00 -0.00000000000E+00 -0.45593999997E+02  0.45594000000E+02  0.51100000000E-03 0. -1.
    9900012    2    1    2    0    0 -0.26474963017E+02  0.17604003262E+02  0.24282638082E+01  0.59301936231E+02  0.49999985780E+02 0.  0.
         12    1    1    2    0    0  0.26474963017E+02 -0.17604003262E+02 -0.24282638082E+01  0.31886063769E+02  0.00000000000E+00 0. -1.
         11    1    3    3    0    0 -0.78084307465E+01  0.93093747794E+01 -0.19522800198E+02  0.22995125078E+02  0.51100000000E-03 0. -1.
        -11    1    3    3    0    0  0.39022033184E+01  0.45711858382E+01  0.53127856988E+01  0.80217593362E+01  0.51100000000E-03 0.  1.
         12    1    3    3    0    0 -0.22568735589E+02  0.37234426444E+01  0.16638278308E+02  0.28285051816E+02  0.00000000000E+00 0. -1.
</event>
<event>
 7    1  0.7749294E-012  0.5930193E+02  0.7816164E-02  0.1266605E+00
        -11   -1    0    0    0    0  0.00000000000E+00  0.00000000000E+00  0.45593999997E+02  0.45594000000E+02  0.51100000000E-03 0. -1.
         11   -1    0    0    0    0 -0.00000000000E+00 -0.00000000000E+00 -0.45593999997E+02  0.45594000000E+02  0.51100000000E-03 0.  1.
    9900012    2    1    2    0    0  0.26264700332E+01 -0.29377333268E+02 -0.12115923354E+02  0.59301926966E+02  0.49999968884E+02 0.  0.
         12    1    1    2    0    0 -0.26264700332E+01  0.29377333268E+02  0.12115923354E+02  0.31886073034E+02  0.00000000000E+00 0. -1.
         11    1    3    3    0    0 -0.18334533646E+01 -0.33536959028E+02 -0.26162853605E+00  0.33588057726E+02  0.51100000000E-03 0. -1.
        -11    1    3    3    0    0  0.95432154024E+01 -0.12924451893E+01 -0.14834245537E+02  0.17686102332E+02  0.51100000000E-03 0.  1.
        -12    1    3    3    0    0 -0.50832920046E+01  0.54520709491E+01  0.29799507193E+01  0.80277669079E+01  0.00000000000E+00 0.  1.
</event>
<event>
 7    1  0.7749294E-012  0.5930193E+02  0.7816164E-02  0.1266605E+00
        -11   -1    0    0    0    0  0.00000000000E+00  0.00000000000E+00  0.45593999997E+02  0.45594000000E+02  0.51100000000E-03 0. -1.
         11   -1    0    0    0    0 -0.00000000000E+00 -0.00000000000E+00 -0.45593999997E+02  0.45594000000E+02  0.51100000000E-03 0.  1.
    9900012    2    1    2    0    0  0.18156200679E+01  0.24931120373E+02  0.19795563398E+02  0.59301928283E+02  0.49999971286E+02 0.  0.
         12    1    1    2    0    0 -0.18156200679E+01 -0.24931120373E+02 -0.19795563398E+02  0.31886071717E+02  0.00000000000E+00 0. -1.
         11    1    3    3    0    0  0.99686146692E+01 -0.36061255605E+01  0.11104548027E+02  0.15352146662E+02  0.51100000000E-03 0. -1.
        -11    1    3    3    0    0 -0.85252881452E+01  0.32315614664E+02  0.14963214313E+02  0.36617991096E+02  0.51100000000E-03 0.  1.
        -12    1    3    3    0    0  0.37229354387E+00 -0.37783687297E+01 -0.62721989424E+01  0.73317905258E+01  0.00000000000E+00 0.  1.
</event>
<event>
 7    1  0.7749294E-012  0.5930194E+02  0.7816164E-02  0.1266605E+00
        -11   -1    0    0    0    0  0.00000000000E+00  0.00000000000E+00  0.45593999997E+02  0.45594000000E+02  0.51100000000E-03 0. -1.
         11   -1    0    0    0    0 -0.00000000000E+00 -0.00000000000E+00 -0.45593999997E+02  0.45594000000E+02  0.51100000000E-03 0.  1.
    9900012    2    1    2    0    0 -0.28121188804E+02 -0.13725385877E+02 -0.61264275601E+01  0.59301943614E+02  0.49999999245E+02 0.  0.
         12    1    1    2    0    0  0.28121188804E+02  0.13725385877E+02  0.61264275601E+01  0.31886056386E+02  0.00000000000E+00 0. -1.
         11    1    3    3    0    0 -0.19727769911E+02  0.91661401633E+01  0.10375829881E+02  0.24101055519E+02  0.51100000000E-03 0. -1.
        -11    1    3    3    0    0  0.45542067535E+01 -0.93951146867E+01 -0.12109754842E+02  0.15989219547E+02  0.51100000000E-03 0.  1.
         12    1    3    3    0    0 -0.12947625646E+02 -0.13496411354E+02 -0.43925025989E+01  0.19211668547E+02  0.00000000000E+00 0. -1.
</event>
<event>
 7    1  0.7749294E-012  0.5930195E+02  0.7816164E-02  0.1266605E+00
        -11   -1    0    0    0    0  0.00000000000E+00  0.00000000000E+00  0.45593999997E+02  0.45594000000E+02  0.51100000000E-03 0.  1.
         11   -1    0    0    0    0 -0.00000000000E+00 -0.00000000000E+00 -0.45593999997E+02  0.45594000000E+02  0.51100000000E-03 0. -1.
    9900012    2    1    2    0    0  0.25693761791E+02  0.11094985014E+01  0.18849933917E+02  0.59301946770E+02  0.50000005002E+02 0.  0.
         12    1    1    2    0    0 -0.25693761791E+02 -0.11094985014E+01 -0.18849933917E+02  0.31886053230E+02  0.00000000000E+00 0. -1.
         11    1    3    3    0    0  0.37959308788E+01 -0.13604718669E+02  0.30785851030E+01  0.14455972738E+02  0.51100000000E-03 0. -1.
        -11    1    3    3    0    0  0.16641285428E+02  0.22045011246E+02  0.20746210526E+02  0.34544466315E+02  0.51100000000E-03 0.  1.
        -12    1    3    3    0    0  0.52565454834E+01 -0.73307940758E+01 -0.49748617123E+01  0.10301507718E+02  0.00000000000E+00 0.  1.
</event>
<event>
 7    1  0.7749294E-012  0.5930194E+02  0.7816164E-02  0.1266605E+00
        -11   -1    0    0    0    0  0.00000000000E+00  0.00000000000E+00  0.45593999997E+02  0.45594000000E+02  0.51100000000E-03 0. -1.
         11   -1    0    0    0    0 -0.00000000000E+00 -0.00000000000E+00 -0.45593999997E+02  0.45594000000E+02  0.51100000000E-03 0.  1.
    9900012    2    1    2    0    0 -0.21213013959E+02  0.17213758561E+02 -0.16444319455E+02  0.59301935844E+02  0.49999985075E+02 0.  0.
         12    1    1    2    0    0  0.21213013959E+02 -0.17213758561E+02  0.16444319455E+02  0.31886064156E+02  0.00000000000E+00 0. -1.
         11    1    3    3    0    0 -0.28529086142E+01 -0.59309334019E+01 -0.99078142815E+01  0.11894529948E+02  0.51100000000E-03 0. -1.
        -11    1    3    3    0    0 -0.29234947330E+02  0.14633156282E+02 -0.15651774924E+01  0.32730126627E+02  0.51100000000E-03 0.  1.
        -12    1    3    3    0    0  0.10874841985E+02  0.85115356808E+01 -0.49713276808E+01  0.14677279269E+02  0.00000000000E+00 0.  1.
</event>
<event>
 7    1  0.7749294E-012  0.5930197E+02  0.7816164E-02  0.1266605E+00
        -11   -1    0    0    0    0  0.00000000000E+00  0.00000000000E+00  0.45593999997E+02  0.45594000000E+02  0.51100000000E-03 0.  1.
         11   -1    0    0    0    0 -0.00000000000E+00 -0.00000000000E+00 -0.45593999997E+02  0.45594000000E+02  0.51100000000E-03 0. -1.
    9900012    2    1    2    0    0  0.20996863649E+02 -0.10600985034E+01  0.23973455128E+02  0.59301974178E+02  0.50000054987E+02 0.  0.
         12    1    1    2    0    0 -0.20996863649E+02  0.10600985034E+01 -0.23973455128E+02  0.31886025822E+02  0.00000000000E+00 0. -1.
         11    1    3    3    0    0 -0.53094461923E+01 -0.41480512513E+01 -0.12409535324E+01  0.68510228421E+01  0.51100000000E-03 0. -1.
        -11    1    3    3    0    0  0.20513078780E+02  0.14181134168E+02  0.72403582830E+00  0.24948250349E+02  0.51100000000E-03 0.  1.
        -12    1    3    3    0    0  0.57932310615E+01 -0.11093181420E+02  0.24490372832E+02  0.27502700987E+02  0.00000000000E+00 0.  1.
</event>
<event>
 7    1  0.7749294E-012  0.5930194E+02  0.7816164E-02  0.1266605E+00
        -11   -1    0    0    0    0  0.00000000000E+00  0.00000000000E+00  0.45593999997E+02  0.45594000000E+02  0.51100000000E-03 0.  1.
         11   -1    0    0    0    0 -0.00000000000E+00 -0.00000000000E+00 -0.45593999997E+02  0.45594000000E+02  0.51100000000E-03 0. -1.
    9900012    2    1    2    0    0 -0.75061236987E+01  0.30879844086E+02  0.26103477565E+01  0.59301943813E+02  0.49999999609E+02 0.  0.
         12    1    1    2    0    0  0.75061236987E+01 -0.30879844086E+02 -0.26103477565E+01  0.31886056187E+02  0.00000000000E+00 0. -1.
         11    1    3    3    0    0 -0.49694221338E+01  0.16891420082E+02 -0.18414485212E+02  0.25477607710E+02  0.51100000000E-03 0. -1.
        -11    1    3    3    0    0 -0.32643834502E+01  0.19935997861E+02  0.13934324831E+02  0.24541100602E+02  0.51100000000E-03 0.  1.
         12    1    3    3    0    0  0.72768188539E+00 -0.59475738573E+01  0.70905081374E+01  0.92832355007E+01  0.00000000000E+00 0. -1.
</event>
<event>
 7    1  0.7749294E-012  0.5930195E+02  0.7816164E-02  0.1266605E+00
        -11   -1    0    0    0    0  0.00000000000E+00  0.00000000000E+00  0.45593999997E+02  0.45594000000E+02  0.51100000000E-03 0. -1.
         11   -1    0    0    0    0 -0.00000000000E+00 -0.00000000000E+00 -0.45593999997E+02  0.45594000000E+02  0.51100000000E-03 0.  1.
    9900012    2    1    2    0    0  0.14001363575E+01  0.12596266029E+02 -0.29259087232E+02  0.59301945284E+02  0.50000002292E+02 0.  0.
         12    1    1    2    0    0 -0.14001363575E+01 -0.12596266029E+02  0.29259087232E+02  0.31886054716E+02  0.00000000000E+00 0. -1.
         11    1    3    3    0    0 -0.49323442856E+01  0.10820664871E+02  0.82158397555E+01  0.14453886382E+02  0.51100000000E-03 0. -1.
        -11    1    3    3    0    0  0.13005720439E+02 -0.48912022022E+01 -0.29043718576E+02  0.32196431667E+02  0.51100000000E-03 0.  1.
        -12    1    3    3    0    0 -0.66732397956E+01  0.66668033597E+01 -0.84312084118E+01  0.12651627235E+02  0.00000000000E+00 0.  1.
</event>
<event>
 7    1  0.7749294E-012  0.5930196E+02  0.7816164E-02  0.1266605E+00
        -11   -1    0    0    0    0  0.00000000000E+00  0.00000000000E+00  0.45593999997E+02  0.45594000000E+02  0.51100000000E-03 0.  1.
         11   -1    0    0    0    0 -0.00000000000E+00 -0.00000000000E+00 -0.45593999997E+02  0.45594000000E+02  0.51100000000E-03 0. -1.
    9900012    2    1    2    0    0 -0.58252911132E+01 -0.10498432222E+02  0.29539274323E+02  0.59301955667E+02  0.50000021228E+02 0.  0.
         12    1    1    2    0    0  0.58252911132E+01  0.10498432222E+02 -0.29539274323E+02  0.31886044333E+02  0.00000000000E+00 0. -1.
         11    1    3    3    0    0  0.39689498183E+01 -0.10347085149E+02  0.19227619677E+02  0.22192703586E+02  0.51100000000E-03 0. -1.
        -11    1    3    3    0    0  0.78861032302E+01  0.11881985192E+02  0.41756722082E+01  0.14859624319E+02  0.51100000000E-03 0.  1.
        -12    1    3    3    0    0 -0.17680344162E+02 -0.12033332265E+02  0.61359824372E+01  0.22249627762E+02  0.00000000000E+00 0.  1.
</event>
<event>
 7    1  0.7749294E-012  0.5930192E+02  0.7816164E-02  0.1266605E+00
        -11   -1    0    0    0    0  0.00000000000E+00  0.00000000000E+00  0.45593999997E+02  0.45594000000E+02  0.51100000000E-03 0.  1.
         11   -1    0    0    0    0 -0.00000000000E+00 -0.00000000000E+00 -0.45593999997E+02  0.45594000000E+02  0.51100000000E-03 0. -1.
    9900012    2    1    2    0    0  0.61063687648E+01 -0.23204573476E+02  0.20999572201E+02  0.59301921497E+02  0.49999958910E+02 0.  0.
         12    1    1    2    0    0 -0.61063687648E+01  0.23204573476E+02 -0.20999572201E+02  0.31886078503E+02  0.00000000000E+00 0. -1.
         11    1    3    3    0    0 -0.16507807826E+02 -0.50775997247E+00  0.96475976936E+01  0.19126988287E+02  0.51100000000E-03 0. -1.
        -11    1    3    3    0    0  0.19193533060E+02 -0.12720230611E+02  0.16608558664E+02  0.28390847104E+02  0.51100000000E-03 0.  1.
         12    1    3    3    0    0  0.34206435306E+01 -0.99765828917E+01 -0.52565841566E+01  0.11784086106E+02  0.00000000000E+00 0. -1.
</event>
<event>
 7    1  0.7749294E-012  0.5930202E+02  0.7816164E-02  0.1266604E+00
        -11   -1    0    0    0    0  0.00000000000E+00  0.00000000000E+00  0.45593999997E+02  0.45594000000E+02  0.51100000000E-03 0. -1.
         11   -1    0    0    0    0 -0.00000000000E+00 -0.00000000000E+00 -0.45593999997E+02  0.45594000000E+02  0.51100000000E-03 0.  1.
    9900012    2    1    2    0    0  0.10829915352E+02 -0.17836669301E+02 -0.24109786099E+02  0.59302021514E+02  0.50000141316E+02 0.  0.
         12    1    1    2    0    0 -0.10829915352E+02  0.17836669301E+02  0.24109786099E+02  0.31885978486E+02  0.00000000000E+00 0. -1.
         11    1    3    3    0    0  0.68921362575E+01  0.15711190660E+02 -0.14000049682E+01  0.17213456025E+02  0.51100000000E-03 0. -1.
        -11    1    3    3    0    0  0.60608275442E+01 -0.99686412684E+01 -0.60691314910E+01  0.13150733690E+02  0.51100000000E-03 0.  1.
         12    1    3    3    0    0 -0.21230484493E+01 -0.23579218692E+02 -0.16640649639E+02  0.28937831800E+02  0.00000000000E+00 0. -1.
</event>
<event>
 7    1  0.7749294E-012  0.5930194E+02  0.7816164E-02  0.1266605E+00
        -11   -1    0    0    0    0  0.00000000000E+00  0.00000000000E+00  0.45593999997E+02  0.45594000000E+02  0.51100000000E-03 0.  1.
         11   -1    0    0    0    0 -0.00000000000E+00 -0.00000000000E+00 -0.45593999997E+02  0.45594000000E+02  0.51100000000E-03 0. -1.
    9900012    2    1    2    0    0  0.32582721011E+01  0.12891586121E+02  0.28981225643E+02  0.59301940827E+02  0.49999994163E+02 0.  0.
         12    1    1    2    0    0 -0.32582721011E+01 -0.12891586121E+02 -0.28981225643E+02  0.31886059173E+02  0.00000000000E+00 0. -1.
         11    1    3    3    0    0  0.85249898060E+00  0.65293770068E+01  0.52995551786E+01  0.84525028223E+01  0.51100000000E-03 0. -1.
        -11    1    3    3    0    0 -0.20603837929E+02  0.68931183528E+01  0.87953459007E+01  0.23439098272E+02  0.51100000000E-03 0.  1.
        -12    1    3    3    0    0  0.23009611049E+02 -0.53090923857E+00  0.14886324564E+02  0.27410339733E+02  0.00000000000E+00 0.  1.
</event>
<event>
 7    1  0.7749294E-012  0.5930193E+02  0.7816164E-02  0.1266605E+00
        -11   -1    0    0    0    0  0.00000000000E+00  0.00000000000E+00  0.45593999997E+02  0.45594000000E+02  0.51100000000E-03 0.  1.
         11   -1    0    0    0    0 -0.00000000000E+00 -0.00000000000E+00 -0.45593999997E+02  0.45594000000E+02  0.51100000000E-03 0. -1.
    9900012    2    1    2    0    0 -0.13697765922E+00  0.85721815898E+01  0.30711890733E+02  0.59301932628E+02  0.49999979209E+02 0.  0.
         12    1    1    2    0    0  0.13697765922E+00 -0.85721815898E+01 -0.30711890733E+02  0.31886067372E+02  0.00000000000E+00 0. -1.
         11    1    3    3    0    0  0.11575500150E+02  0.22840779148E+02  0.10949845141E+02  0.27849461479E+02  0.51100000000E-03 0. -1.
        -11    1    3    3    0    0 -0.54969241199E+00  0.40970016717E+00  0.11025681121E+02  0.11046975171E+02  0.51100000000E-03 0.  1.
         12    1    3    3    0    0 -0.11162785398E+02 -0.14678297725E+02  0.87363644701E+01  0.20405495978E+02  0.00000000000E+00 0. -1.
</event>
<event>
 7    1  0.7749294E-012  0.5930191E+02  0.7816164E-02  0.1266605E+00
        -11   -1    0    0    0    0  0.00000000000E+00  0.00000000000E+00  0.45593999997E+02  0.45594000000E+02  0.51100000000E-03 0. -1.
         11   -1    0    0    0    0 -0.00000000000E+00 -0.00000000000E+00 -0.45593999997E+02  0.45594000000E+02  0.51100000000E-03 0.  1.
    9900012    2    1    2    0    0 -0.18728291578E+02 -0.41952909267E+01 -0.25463172013E+02  0.59301913687E+02  0.49999944666E+02 0.  0.
         12    1    1    2    0    0  0.18728291578E+02  0.41952909267E+01  0.25463172013E+02  0.31886086313E+02  0.00000000000E+00 0. -1.
         11    1    3    3    0    0 -0.19811048721E+02  0.67792915467E+01 -0.34311480495E+02  0.40195946803E+02  0.51100000000E-03 0.  1.
        -11    1    3    3    0    0 -0.57154495553E+01 -0.64319568323E+01  0.58153238514E+01  0.10385298458E+02  0.51100000000E-03 0. -1.
        -12    1    3    3    0    0  0.67982066979E+01 -0.45426256411E+01  0.30329846311E+01  0.87206684259E+01  0.00000000000E+00 0.  1.
</event>
<event>
 7    1  0.7749294E-012  0.5930196E+02  0.7816164E-02  0.1266605E+00
        -11   -1    0    0    0    0  0.00000000000E+00  0.00000000000E+00  0.45593999997E+02  0.45594000000E+02  0.51100000000E-03 0.  1.
         11   -1    0    0    0    0 -0.00000000000E+00 -0.00000000000E+00 -0.45593999997E+02  0.45594000000E+02  0.51100000000E-03 0. -1.
    9900012    2    1    2    0    0 -0.18532011934E+02 -0.25923255901E+02 -0.11264082129E+01  0.59301961390E+02  0.50000031664E+02 0.  0.
         12    1    1    2    0    0  0.18532011934E+02  0.25923255901E+02  0.11264082129E+01  0.31886038610E+02  0.00000000000E+00 0. -1.
         11    1    3    3    0    0 -0.86257460488E+01 -0.37980527854E+01  0.19170929490E+02  0.21362425837E+02  0.51100000000E-03 0. -1.
        -11    1    3    3    0    0 -0.11326249831E+02 -0.17415132321E+02 -0.43156289482E+01  0.21217809087E+02  0.51100000000E-03 0.  1.
         12    1    3    3    0    0  0.14199839454E+01 -0.47100707946E+01 -0.15981708754E+02  0.16721726466E+02  0.00000000000E+00 0. -1.
</event>
<event>
 7    1  0.7749294E-012  0.5930194E+02  0.7816164E-02  0.1266605E+00
        -11   -1    0    0    0    0  0.00000000000E+00  0.00000000000E+00  0.45593999997E+02  0.45594000000E+02  0.51100000000E-03 0. -1.
         11   -1    0    0    0    0 -0.00000000000E+00 -0.00000000000E+00 -0.45593999997E+02  0.45594000000E+02  0.51100000000E-03 0.  1.
    9900012    2    1    2    0    0  0.80402335863E+01 -0.22365146798E+02 -0.21257372399E+02  0.59301936763E+02  0.49999986752E+02 0.  0.
         12    1    1    2    0    0 -0.80402335863E+01  0.22365146798E+02  0.21257372399E+02  0.31886063237E+02  0.00000000000E+00 0. -1.
         11    1    3    3    0    0  0.10023304758E+02 -0.35756320318E+01 -0.29352488175E+02  0.31222113077E+02  0.51100000000E-03 0. -1.
        -11    1    3    3    0    0 -0.43749267084E+01 -0.18165501208E+02  0.12880069887E+02  0.22694087741E+02  0.51100000000E-03 0.  1.
        -12    1    3    3    0    0  0.23918555368E+01 -0.62401355801E+00 -0.47849541107E+01  0.53857359451E+01  0.00000000000E+00 0.  1.
</event>
<event>
 7    1  0.7749294E-012  0.5930189E+02  0.7816164E-02  0.1266605E+00
        -11   -1    0    0    0    0  0.00000000000E+00  0.00000000000E+00  0.45593999997E+02  0.45594000000E+02  0.51100000000E-03 0.  1.
         11   -1    0    0    0    0 -0.00000000000E+00 -0.00000000000E+00 -0.45593999997E+02  0.45594000000E+02  0.51100000000E-03 0. -1.
    9900012    2    1    2    0    0  0.15425200312E+02  0.14090142646E+01  0.27871169183E+02  0.59301887075E+02  0.49999896131E+02 0.  0.
         12    1    1    2    0    0 -0.15425200312E+02 -0.14090142646E+01 -0.27871169183E+02  0.31886112925E+02  0.00000000000E+00 0. -1.
         11    1    3    3    0    0 -0.62961284149E+01  0.51338588623E+01  0.35122693550E+01  0.88506370459E+01  0.51100000000E-03 0. -1.
        -11    1    3    3    0    0  0.28405928487E+02 -0.11904172897E+02  0.25282792545E+02  0.39847530723E+02  0.51100000000E-03 0.  1.
        -12    1    3    3    0    0 -0.66845997596E+01  0.81793282988E+01 -0.92389271757E+00  0.10603719306E+02  0.00000000000E+00 0.  1.
</event>
<event>
 7    1  0.7749294E-012  0.5930193E+02  0.7816164E-02  0.1266605E+00
        -11   -1    0    0    0    0  0.00000000000E+00  0.00000000000E+00  0.45593999997E+02  0.45594000000E+02  0.51100000000E-03 0.  1.
         11   -1    0    0    0    0 -0.00000000000E+00 -0.00000000000E+00 -0.45593999997E+02  0.45594000000E+02  0.51100000000E-03 0. -1.
    9900012    2    1    2    0    0 -0.23992232857E+02 -0.51167418123E+00  0.20996016769E+02  0.59301925170E+02  0.49999965607E+02 0.  0.
         12    1    1    2    0    0  0.23992232857E+02  0.51167418123E+00 -0.20996016769E+02  0.31886074830E+02  0.00000000000E+00 0. -1.
         11    1    3    3    0    0 -0.35429397071E+01 -0.37469162437E+01 -0.31060428776E+01  0.60199091126E+01  0.51100000000E-03 0. -1.
        -11    1    3    3    0    0 -0.20498348837E+02  0.12718240666E+02  0.32595623253E+02  0.40551332976E+02  0.51100000000E-03 0.  1.
        -12    1    3    3    0    0  0.49055687090E-01 -0.94829986037E+01 -0.84935636056E+01  0.12730683081E+02  0.00000000000E+00 0.  1.
</event>
<event>
 7    1  0.7749294E-012  0.5930197E+02  0.7816164E-02  0.1266605E+00
        -11   -1    0    0    0    0  0.00000000000E+00  0.00000000000E+00  0.45593999997E+02  0.45594000000E+02  0.51100000000E-03 0.  1.
         11   -1    0    0    0    0 -0.00000000000E+00 -0.00000000000E+00 -0.45593999997E+02  0.45594000000E+02  0.51100000000E-03 0. -1.
    9900012    2    1    2    0    0  0.21422484464E+02  0.38322996952E+01  0.23304715175E+02  0.59301966836E+02  0.50000041596E+02 0.  0.
         12    1    1    2    0    0 -0.21422484464E+02 -0.38322996952E+01 -0.23304715175E+02  0.31886033164E+02  0.00000000000E+00 0. -1.
         11    1    3    3    0    0  0.13705794254E+02  0.18034227127E+02 -0.25269844897E+01  0.22791836150E+02  0.51100000000E-03 0. -1.
        -11    1    3    3    0    0  0.12740232102E+02 -0.23904036645E+01  0.13277870722E+02  0.18556114756E+02  0.51100000000E-03 0.  1.
         12    1    3    3    0    0 -0.50235418919E+01 -0.11811523768E+02  0.12553828943E+02  0.17954015929E+02  0.00000000000E+00 0. -1.
</event>
<event>
 7    1  0.7749294E-012  0.5930193E+02  0.7816164E-02  0.1266605E+00
        -11   -1    0    0    0    0  0.00000000000E+00  0.00000000000E+00  0.45593999997E+02  0.45594000000E+02  0.51100000000E-03 0.  1.
         11   -1    0    0    0    0 -0.00000000000E+00 -0.00000000000E+00 -0.45593999997E+02  0.45594000000E+02  0.51100000000E-03 0. -1.
    9900012    2    1    2    0    0 -0.19671986156E+02 -0.33682373644E+01  0.24867431390E+02  0.59301933980E+02  0.49999981675E+02 0.  0.
         12    1    1    2    0    0  0.19671986156E+02  0.33682373644E+01 -0.24867431390E+02  0.31886066020E+02  0.00000000000E+00 0. -1.
         11    1    3    3    0    0  0.10930902665E+01  0.58087708485E+01 -0.15544429146E+01  0.61117066468E+01  0.51100000000E-03 0. -1.
        -11    1    3    3    0    0 -0.26134198877E+02 -0.19880171490E+02  0.24708026279E+02  0.41093845431E+02  0.51100000000E-03 0.  1.
        -12    1    3    3    0    0  0.53691224542E+01  0.10703163278E+02  0.17138480263E+01  0.12096381903E+02  0.00000000000E+00 0.  1.
</event>
<event>
 7    1  0.7749294E-012  0.5930198E+02  0.7816164E-02  0.1266605E+00
        -11   -1    0    0    0    0  0.00000000000E+00  0.00000000000E+00  0.45593999997E+02  0.45594000000E+02  0.51100000000E-03 0. -1.
         11   -1    0    0    0    0 -0.00000000000E+00 -0.00000000000E+00 -0.45593999997E+02  0.45594000000E+02  0.51100000000E-03 0.  1.
    9900012    2    1    2    0    0 -0.21615318846E+02  0.20381832822E+02 -0.11579165258E+02  0.59301981339E+02  0.50000068046E+02 0.  0.
         12    1    1    2    0    0  0.21615318846E+02 -0.20381832822E+02  0.11579165258E+02  0.31886018661E+02  0.00000000000E+00 0. -1.
         11    1    3    3    0    0 -0.40822475971E+01  0.13712858934E+02  0.98876946668E+01  0.17391772528E+02  0.51100000000E-03 0. -1.
        -11    1    3    3    0    0 -0.69037248520E+01  0.11386333943E+02 -0.26172497705E+02  0.29365109464E+02  0.51100000000E-03 0.  1.
        -12    1    3    3    0    0 -0.10629346396E+02 -0.47173600539E+01  0.47056377800E+01  0.12545099346E+02  0.00000000000E+00 0.  1.
</event>
<event>
 7    1  0.7749294E-012  0.5930193E+02  0.7816164E-02  0.1266605E+00
        -11   -1    0    0    0    0  0.00000000000E+00  0.00000000000E+00  0.45593999997E+02  0.45594000000E+02  0.51100000000E-03 0.  1.
         11   -1    0    0    0    0 -0.00000000000E+00 -0.00000000000E+00 -0.45593999997E+02  0.45594000000E+02  0.51100000000E-03 0. -1.
    9900012    2    1    2    0    0  0.10284634875E+01  0.19260739847E+02  0.25390697170E+02  0.59301931892E+02  0.49999977868E+02 0.  0.
         12    1    1    2    0    0 -0.10284634875E+01 -0.19260739847E+02 -0.25390697170E+02  0.31886068108E+02  0.00000000000E+00 0. -1.
         11    1    3    3    0    0 -0.14911682248E+02  0.59607216873E+01 -0.92413996980E+01  0.18528139117E+02  0.51100000000E-03 0. -1.
        -11    1    3    3    0    0  0.83444689875E+01  0.33959347822E+01  0.13467353270E+02  0.16202843581E+02  0.51100000000E-03 0.  1.
         12    1    3    3    0    0  0.75956767477E+01  0.99040833774E+01  0.21164743597E+02  0.24570949195E+02  0.00000000000E+00 0. -1.
</event>
<event>
 7    1  0.7749294E-012  0.5930220E+02  0.7816164E-02  0.1266604E+00
        -11   -1    0    0    0    0  0.00000000000E+00  0.00000000000E+00  0.45593999997E+02  0.45594000000E+02  0.51100000000E-03 0.  1.
         11   -1    0    0    0    0 -0.00000000000E+00 -0.00000000000E+00 -0.45593999997E+02  0.45594000000E+02  0.51100000000E-03 0. -1.
    9900012    2    1    2    0    0 -0.19856571501E+02 -0.14227775076E+02  0.20493692564E+02  0.59302196728E+02  0.50000460863E+02 0.  0.
         12    1    1    2    0    0  0.19856571501E+02  0.14227775076E+02 -0.20493692564E+02  0.31885803272E+02  0.00000000000E+00 0. -1.
         11    1    3    3    0    0 -0.14268976039E+02 -0.24898474966E+01 -0.79330670573E+01  0.16514737992E+02  0.51100000000E-03 0. -1.
        -11    1    3    3    0    0  0.65484321047E+01  0.47901808709E+00  0.24174030485E+02  0.25049853723E+02  0.51100000000E-03 0.  1.
        -12    1    3    3    0    0 -0.12136027567E+02 -0.12216945667E+02  0.42527291357E+01  0.17737605014E+02  0.00000000000E+00 0.  1.
</event>
<event>
 7    1  0.7749294E-012  0.5930194E+02  0.7816164E-02  0.1266605E+00
        -11   -1    0    0    0    0  0.00000000000E+00  0.00000000000E+00  0.45593999997E+02  0.45594000000E+02  0.51100000000E-03 0.  1.
         11   -1    0    0    0    0 -0.00000000000E+00 -0.00000000000E+00 -0.45593999997E+02  0.45594000000E+02  0.51100000000E-03 0. -1.
    9900012    2    1    2    0    0  0.14049234729E+02 -0.19891841946E+02 -0.20582863590E+02  0.59301942764E+02  0.49999997696E+02 0.  0.
         12    1    1    2    0    0 -0.14049234729E+02  0.19891841946E+02  0.20582863590E+02  0.31886057236E+02  0.00000000000E+00 0. -1.
         11    1    3    3    0    0 -0.13048014427E+02 -0.23974318196E+00 -0.14553930616E+02  0.19548019181E+02  0.51100000000E-03 0. -1.
        -11    1    3    3    0    0  0.27322133076E+02 -0.20660367425E+02 -0.63304987956E+00  0.34260042182E+02  0.51100000000E-03 0.  1.
        -12    1    3    3    0    0 -0.22488391971E+00  0.10082686606E+01 -0.53958830952E+01  0.54938814008E+01  0.00000000000E+00 0.  1.
</event>
<event>
 7    1  0.7749294E-012  0.5930195E+02  0.7816164E-02  0.1266605E+00
        -11   -1    0    0    0    0  0.00000000000E+00  0.00000000000E+00  0.45593999997E+02  0.45594000000E+02  0.51100000000E-03 0.  1.
         11   -1    0    0    0    0 -0.00000000000E+00 -0.00000000000E+00 -0.45593999997E+02  0.45594000000E+02  0.51100000000E-03 0. -1.
    9900012    2    1    2    0    0  0.23872925117E+01 -0.71434414824E-01  0.31796473943E+02  0.59301952525E+02  0.50000015496E+02 0.  0.
         12    1    1    2    0    0 -0.23872925117E+01  0.71434414824E-01 -0.31796473943E+02  0.31886047475E+02  0.00000000000E+00 0. -1.
         11    1    3    3    0    0  0.42387059544E+01 -0.17080827191E+01 -0.12480817858E+01  0.47372864753E+01  0.51100000000E-03 0. -1.
        -11    1    3    3    0    0 -0.67330788693E+01  0.19405882600E+02  0.29263804582E+02  0.35753222085E+02  0.51100000000E-03 0.  1.
        -12    1    3    3    0    0  0.48816654266E+01 -0.17769234296E+02  0.37807511463E+01  0.18811443964E+02  0.00000000000E+00 0.  1.
</event>
<event>
 7    1  0.7749294E-012  0.5930196E+02  0.7816164E-02  0.1266605E+00
        -11   -1    0    0    0    0  0.00000000000E+00  0.00000000000E+00  0.45593999997E+02  0.45594000000E+02  0.51100000000E-03 0.  1.
         11   -1    0    0    0    0 -0.00000000000E+00 -0.00000000000E+00 -0.45593999997E+02  0.45594000000E+02  0.51100000000E-03 0. -1.
    9900012    2    1    2    0    0 -0.20453344594E+02 -0.32637089144E+00  0.24459637967E+02  0.59301957402E+02  0.50000024392E+02 0.  0.
         12    1    1    2    0    0  0.20453344594E+02  0.32637089144E+00 -0.24459637967E+02  0.31886042598E+02  0.00000000000E+00 0. -1.
         11    1    3    3    0    0 -0.14998750399E+02  0.22434147136E+02  0.16731101800E+02  0.31751901343E+02  0.51100000000E-03 0. -1.
        -11    1    3    3    0    0  0.29630502788E+00 -0.12691485611E+02  0.94517449727E+01  0.15827099765E+02  0.51100000000E-03 0.  1.
         12    1    3    3    0    0 -0.57508992235E+01 -0.10069032417E+02 -0.17232088050E+01  0.11722956294E+02  0.00000000000E+00 0. -1.
</event>
<event>
 7    1  0.7749294E-012  0.5930193E+02  0.7816164E-02  0.1266605E+00
        -11   -1    0    0    0    0  0.00000000000E+00  0.00000000000E+00  0.45593999997E+02  0.45594000000E+02  0.51100000000E-03 0.  1.
         11   -1    0    0    0    0 -0.00000000000E+00 -0.00000000000E+00 -0.45593999997E+02  0.45594000000E+02  0.51100000000E-03 0. -1.
    9900012    2    1    2    0    0  0.14705486150E+02  0.68730318641E+01  0.27445065002E+02  0.59301929642E+02  0.49999973764E+02 0.  0.
         12    1    1    2    0    0 -0.14705486150E+02 -0.68730318641E+01 -0.27445065002E+02  0.31886070358E+02  0.00000000000E+00 0. -1.
         11    1    3    3    0    0  0.92374572998E+01  0.83870179759E+00 -0.82510398264E+01  0.12414253765E+02  0.51100000000E-03 0. -1.
        -11    1    3    3    0    0 -0.59382837016E+01  0.92818368022E+01  0.32909345364E+02  0.34705053239E+02  0.51100000000E-03 0.  1.
        -12    1    3    3    0    0  0.11406312552E+02 -0.32475067357E+01  0.27867594640E+01  0.12182622638E+02  0.00000000000E+00 0.  1.
</event>
<event>
 7    1  0.7749294E-012  0.5930195E+02  0.7816164E-02  0.1266605E+00
        -11   -1    0    0    0    0  0.00000000000E+00  0.00000000000E+00  0.45593999997E+02  0.45594000000E+02  0.51100000000E-03 0.  1.
         11   -1    0    0    0    0 -0.00000000000E+00 -0.00000000000E+00 -0.45593999997E+02  0.45594000000E+02  0.51100000000E-03 0. -1.
    9900012    2    1    2    0    0  0.12705148114E+02  0.22883039420E+02  0.18211704338E+02  0.59301945735E+02  0.50000003114E+02 0.  0.
         12    1    1    2    0    0 -0.12705148114E+02 -0.22883039420E+02 -0.18211704338E+02  0.31886054265E+02  0.00000000000E+00 0. -1.
         11    1    3    3    0    0  0.18223397533E+02 -0.48762166149E+01  0.10615737314E+02  0.21646329599E+02  0.51100000000E-03 0. -1.
        -11    1    3    3    0    0 -0.12856235294E+02  0.14686878806E+02 -0.23579417174E+01  0.19660800706E+02  0.51100000000E-03 0.  1.
        -12    1    3    3    0    0  0.73379858751E+01  0.13072377229E+02  0.99539087415E+01  0.17994815430E+02  0.00000000000E+00 0.  1.
</event>
<event>
 7    1  0.7749294E-012  0.5930199E+02  0.7816164E-02  0.1266605E+00
        -11   -1    0    0    0    0  0.00000000000E+00  0.00000000000E+00  0.45593999997E+02  0.45594000000E+02  0.51100000000E-03 0. -1.
         11   -1    0    0    0    0 -0.00000000000E+00 -0.00000000000E+00 -0.45593999997E+02  0.45594000000E+02  0.51100000000E-03 0.  1.
    9900012    2    1    2    0    0 -0.11588487590E+02 -0.16371598501E+02 -0.24787006076E+02  0.59301985004E+02  0.50000074731E+02 0.  0.
         12    1    1    2    0    0  0.11588487590E+02  0.16371598501E+02  0.24787006076E+02  0.31886014996E+02  0.00000000000E+00 0. -1.
         11    1    3    3    0    0 -0.82134856211E+01  0.17863952890E+01  0.68081645109E+01  0.10816822937E+02  0.51100000000E-03 0. -1.
        -11    1    3    3    0    0  0.10960477641E+02 -0.87968537030E+01 -0.27496751150E+02  0.30880220680E+02  0.51100000000E-03 0.  1.
         12    1    3    3    0    0 -0.14335479610E+02 -0.93611400868E+01 -0.40984194371E+01  0.17604941388E+02  0.00000000000E+00 0. -1.
</event>
<event>
 7    1  0.7749294E-012  0.5930193E+02  0.7816164E-02  0.1266605E+00
        -11   -1    0    0    0    0  0.00000000000E+00  0.00000000000E+00  0.45593999997E+02  0.45594000000E+02  0.51100000000E-03 0.  1.
         11   -1    0    0    0    0 -0.00000000000E+00 -0.00000000000E+00 -0.45593999997E+02  0.45594000000E+02  0.51100000000E-03 0. -1.
    9900012    2    1    2    0    0  0.92152342427E+01 -0.29110010117E+02  0.91873941797E+01  0.59301930268E+02  0.49999974905E+02 0.  0.
         12    1    1    2    0    0 -0.92152342427E+01  0.29110010117E+02 -0.91873941797E+01  0.31886069732E+02  0.00000000000E+00 0. -1.
         11    1    3    3    0    0  0.62311562397E+01 -0.73775304463E+01  0.18237395071E+02  0.20636323384E+02  0.51100000000E-03 0. -1.
        -11    1    3    3    0    0  0.80648965079E+01 -0.61791182659E+01 -0.17511189671E+02  0.20245143175E+02  0.51100000000E-03 0.  1.
        -12    1    3    3    0    0 -0.50808185049E+01 -0.15553361405E+02  0.84611887796E+01  0.18420463708E+02  0.00000000000E+00 0.  1.
</event>
<event>
 7    1  0.7749294E-012  0.5930193E+02  0.7816164E-02  0.1266605E+00
        -11   -1    0    0    0    0  0.00000000000E+00  0.00000000000E+00  0.45593999997E+02  0.45594000000E+02  0.51100000000E-03 0. -1.
         11   -1    0    0    0    0 -0.00000000000E+00 -0.00000000000E+00 -0.45593999997E+02  0.45594000000E+02  0.51100000000E-03 0.  1.
    9900012    2    1    2    0    0 -0.25429271049E+02  0.25905612946E+01 -0.19062075782E+02  0.59301928323E+02  0.49999971358E+02 0.  0.
         12    1    1    2    0    0  0.25429271049E+02 -0.25905612946E+01  0.19062075782E+02  0.31886071677E+02  0.00000000000E+00 0. -1.
         11    1    3    3    0    0 -0.20687280820E+02  0.10617452030E+01  0.39617798042E+01  0.21089964203E+02  0.51100000000E-03 0. -1.
        -11    1    3    3    0    0 -0.34748948248E+01  0.12860624200E+02 -0.23262558570E+02  0.26807036023E+02  0.51100000000E-03 0.  1.
        -12    1    3    3    0    0 -0.12670954036E+01 -0.11331808109E+02  0.23870298399E+00  0.11404928096E+02  0.00000000000E+00 0.  1.
</event>
<event>
 7    1  0.7749294E-012  0.5930193E+02  0.7816164E-02  0.1266605E+00
        -11   -1    0    0    0    0  0.00000000000E+00  0.00000000000E+00  0.45593999997E+02  0.45594000000E+02  0.51100000000E-03 0. -1.
         11   -1    0    0    0    0 -0.00000000000E+00 -0.00000000000E+00 -0.45593999997E+02  0.45594000000E+02  0.51100000000E-03 0.  1.
    9900012    2    1    2    0    0  0.73405678834E+01 -0.30987995591E+02  0.16068036837E+01  0.59301927403E+02  0.49999969680E+02 0.  0.
         12    1    1    2    0    0 -0.73405678834E+01  0.30987995591E+02 -0.16068036837E+01  0.31886072597E+02  0.00000000000E+00 0. -1.
         11    1    3    3    0    0  0.37758869803E+01 -0.29510078988E+00 -0.83270489170E+01  0.91479041803E+01  0.51100000000E-03 0. -1.
        -11    1    3    3    0    0  0.67588062702E+01 -0.39311138192E+02  0.91896419170E+01  0.40932829941E+02  0.51100000000E-03 0.  1.
        -12    1    3    3    0    0 -0.31941253671E+01  0.86182433903E+01  0.74421068371E+00  0.92211932817E+01  0.00000000000E+00 0.  1.
</event>
<event>
 7    1  0.7749294E-012  0.5930194E+02  0.7816164E-02  0.1266605E+00
        -11   -1    0    0    0    0  0.00000000000E+00  0.00000000000E+00  0.45593999997E+02  0.45594000000E+02  0.51100000000E-03 0.  1.
         11   -1    0    0    0    0 -0.00000000000E+00 -0.00000000000E+00 -0.45593999997E+02  0.45594000000E+02  0.51100000000E-03 0. -1.
    9900012    2    1    2    0    0  0.20934875222E+02 -0.23071444044E+02 -0.67941478826E+01  0.59301937585E+02  0.49999988250E+02 0.  0.
         12    1    1    2    0    0 -0.20934875222E+02  0.23071444044E+02  0.67941478826E+01  0.31886062415E+02  0.00000000000E+00 0. -1.
         11    1    3    3    0    0 -0.14906433103E+01 -0.57280445753E+01  0.30927557817E+01  0.66781472522E+01  0.51100000000E-03 0. -1.
        -11    1    3    3    0    0  0.30034196007E+02 -0.43828356810E+00  0.27880545001E+01  0.30166509086E+02  0.51100000000E-03 0.  1.
        -12    1    3    3    0    0 -0.76086774745E+01 -0.16905115901E+02 -0.12674958164E+02  0.22457281247E+02  0.00000000000E+00 0.  1.
</event>
<event>
 7    1  0.7749294E-012  0.5930191E+02  0.7816164E-02  0.1266605E+00
        -11   -1    0    0    0    0  0.00000000000E+00  0.00000000000E+00  0.45593999997E+02  0.45594000000E+02  0.51100000000E-03 0. -1.
         11   -1    0    0    0    0 -0.00000000000E+00 -0.00000000000E+00 -0.45593999997E+02  0.45594000000E+02  0.51100000000E-03 0.  1.
    9900012    2    1    2    0    0 -0.31578356027E+02  0.26222382889E+01 -0.35572502454E+01  0.59301910049E+02  0.49999938032E+02 0.  0.
         12    1    1    2    0    0  0.31578356027E+02 -0.26222382889E+01  0.35572502454E+01  0.31886089951E+02  0.00000000000E+00 0. -1.
         11    1    3    3    0    0 -0.17062503385E+02  0.21994944772E+02  0.11973309820E+02  0.30302916784E+02  0.51100000000E-03 0. -1.
        -11    1    3    3    0    0 -0.14210067293E+02 -0.18609506092E+02 -0.15657171673E+02  0.28167121871E+02  0.51100000000E-03 0.  1.
         12    1    3    3    0    0 -0.30578535015E+00 -0.76320039133E+00  0.12661160730E+00  0.83187139439E+00  0.00000000000E+00 0. -1.
</event>
<event>
 7    1  0.7749294E-012  0.5930195E+02  0.7816164E-02  0.1266605E+00
        -11   -1    0    0    0    0  0.00000000000E+00  0.00000000000E+00  0.45593999997E+02  0.45594000000E+02  0.51100000000E-03 0. -1.
         11   -1    0    0    0    0 -0.00000000000E+00 -0.00000000000E+00 -0.45593999997E+02  0.45594000000E+02  0.51100000000E-03 0.  1.
    9900012    2    1    2    0    0 -0.28946915020E+02  0.97561027518E+01 -0.91441024294E+01  0.59301952278E+02  0.50000015047E+02 0.  0.
         12    1    1    2    0    0  0.28946915020E+02 -0.97561027518E+01  0.91441024294E+01  0.31886047722E+02  0.00000000000E+00 0. -1.
         11    1    3    3    0    0 -0.16441908415E+01 -0.99161470472E+01 -0.32948163376E+00  0.10056932643E+02  0.51100000000E-03 0. -1.
        -11    1    3    3    0    0  0.31555229532E+01  0.13053230935E+02 -0.11874303704E+02  0.17926049528E+02  0.51100000000E-03 0.  1.
        -12    1    3    3    0    0 -0.30458247132E+02  0.66190188638E+01  0.30596829084E+01  0.31318970107E+02  0.00000000000E+00 0.  1.
</event>
<event>
 7    1  0.7749294E-012  0.5930194E+02  0.7816164E-02  0.1266605E+00
        -11   -1    0    0    0    0  0.00000000000E+00  0.00000000000E+00  0.45593999997E+02  0.45594000000E+02  0.51100000000E-03 0. -1.
         11   -1    0    0    0    0 -0.00000000000E+00 -0.00000000000E+00 -0.45593999997E+02  0.45594000000E+02  0.51100000000E-03 0.  1.
    9900012    2    1    2    0    0  0.16979052113E+02 -0.14211730883E+02 -0.22944706859E+02  0.59301935988E+02  0.49999985338E+02 0.  0.
         12    1    1    2    0    0 -0.16979052113E+02  0.14211730883E+02  0.22944706859E+02  0.31886064012E+02  0.00000000000E+00 0. -1.
         11    1    3    3    0    0  0.41549450548E+01 -0.19664864706E+02 -0.27923458157E+01  0.20292059228E+02  0.51100000000E-03 0. -1.
        -11    1    3    3    0    0  0.85062707776E+00  0.15970407113E+02 -0.15818372545E+02  0.22494407750E+02  0.51100000000E-03 0.  1.
        -12    1    3    3    0    0  0.11973479980E+02 -0.10517273291E+02 -0.43339884975E+01  0.16515469010E+02  0.00000000000E+00 0.  1.
</event>
<event>
 7    1  0.7749294E-012  0.5930192E+02  0.7816164E-02  0.1266605E+00
        -11   -1    0    0    0    0  0.00000000000E+00  0.00000000000E+00  0.45593999997E+02  0.45594000000E+02  0.51100000000E-03 0. -1.
         11   -1    0    0    0    0 -0.00000000000E+00 -0.00000000000E+00 -0.45593999997E+02  0.45594000000E+02  0.51100000000E-03 0.  1.
    9900012    2    1    2    0    0 -0.24271224794E+01 -0.29819130583E+02  0.11029530345E+02  0.59301921347E+02  0.49999958635E+02 0.  0.
         12    1    1    2    0    0  0.24271224794E+01  0.29819130583E+02 -0.11029530345E+02  0.31886078653E+02  0.00000000000E+00 0. -1.
         11    1    3    3    0    0  0.56388225711E+01 -0.67376492420E+00  0.90273874407E+01  0.10665083376E+02  0.51100000000E-03 0. -1.
        -11    1    3    3    0    0 -0.16746417278E+02 -0.33716181846E+02 -0.27298653933E+01  0.37744874821E+02  0.51100000000E-03 0.  1.
        -12    1    3    3    0    0  0.86804722279E+01  0.45708161871E+01  0.47320082973E+01  0.10891963149E+02  0.00000000000E+00 0.  1.
</event>
<event>
 7    1  0.7749294E-012  0.5930193E+02  0.7816164E-02  0.1266605E+00
        -11   -1    0    0    0    0  0.00000000000E+00  0.00000000000E+00  0.45593999997E+02  0.45594000000E+02  0.51100000000E-03 0.  1.
         11   -1    0    0    0    0 -0.00000000000E+00 -0.00000000000E+00 -0.45593999997E+02  0.45594000000E+02  0.51100000000E-03 0. -1.
    9900012    2    1    2    0    0 -0.50494841796E+00  0.24815529794E+02  0.20016386463E+02  0.59301933781E+02  0.49999981313E+02 0.  0.
         12    1    1    2    0    0  0.50494841796E+00 -0.24815529794E+02 -0.20016386463E+02  0.31886066219E+02  0.00000000000E+00 0. -1.
         11    1    3    3    0    0  0.22261856438E+02  0.14633862247E+02  0.14811127922E+02  0.30481300611E+02  0.51100000000E-03 0. -1.
        -11    1    3    3    0    0 -0.11240049328E+02 -0.16081807532E+01 -0.52035138907E+00  0.11366429521E+02  0.51100000000E-03 0.  1.
         12    1    3    3    0    0 -0.11526755528E+02  0.11789848301E+02  0.57256099301E+01  0.17454203649E+02  0.00000000000E+00 0. -1.
</event>
<event>
 7    1  0.7749294E-012  0.5930193E+02  0.7816164E-02  0.1266605E+00
        -11   -1    0    0    0    0  0.00000000000E+00  0.00000000000E+00  0.45593999997E+02  0.45594000000E+02  0.51100000000E-03 0. -1.
         11   -1    0    0    0    0 -0.00000000000E+00 -0.00000000000E+00 -0.45593999997E+02  0.45594000000E+02  0.51100000000E-03 0.  1.
    9900012    2    1    2    0    0 -0.31790015793E+02 -0.24674202888E+01  0.16817146642E+00  0.59301928611E+02  0.49999971884E+02 0.  0.
         12    1    1    2    0    0  0.31790015793E+02  0.24674202888E+01 -0.16817146642E+00  0.31886071389E+02  0.00000000000E+00 0. -1.
         11    1    3    3    0    0  0.48381092853E+01  0.11872144125E+01  0.17497605268E+02  0.18192937363E+02  0.51100000000E-03 0. -1.
        -11    1    3    3    0    0 -0.24986567310E+02 -0.50764303571E+01 -0.10844494637E+02  0.27707431409E+02  0.51100000000E-03 0.  1.
         12    1    3    3    0    0 -0.11641557768E+02  0.14217956558E+01 -0.64849391648E+01  0.13401559839E+02  0.00000000000E+00 0. -1.
</event>
<event>
 7    1  0.7749294E-012  0.5930192E+02  0.7816164E-02  0.1266605E+00
        -11   -1    0    0    0    0  0.00000000000E+00  0.00000000000E+00  0.45593999997E+02  0.45594000000E+02  0.51100000000E-03 0. -1.
         11   -1    0    0    0    0 -0.00000000000E+00 -0.00000000000E+00 -0.45593999997E+02  0.45594000000E+02  0.51100000000E-03 0.  1.
    9900012    2    1    2    0    0 -0.54637333372E+01  0.11738374408E+02 -0.29138980752E+02  0.59301921298E+02  0.49999958547E+02 0.  0.
         12    1    1    2    0    0  0.54637333372E+01 -0.11738374408E+02  0.29138980752E+02  0.31886078702E+02  0.00000000000E+00 0. -1.
         11    1    3    3    0    0 -0.63591395668E+01  0.68481654730E+01  0.77852860554E+01  0.12163334477E+02  0.51100000000E-03 0. -1.
        -11    1    3    3    0    0 -0.21825911690E+01 -0.10665753356E+02 -0.25095599059E+02  0.27355275382E+02  0.51100000000E-03 0.  1.
         12    1    3    3    0    0  0.30779973986E+01  0.15555962291E+02 -0.11828667749E+02  0.19783311439E+02  0.00000000000E+00 0. -1.
</event>
<event>
 7    1  0.7749294E-012  0.5930194E+02  0.7816164E-02  0.1266605E+00
        -11   -1    0    0    0    0  0.00000000000E+00  0.00000000000E+00  0.45593999997E+02  0.45594000000E+02  0.51100000000E-03 0.  1.
         11   -1    0    0    0    0 -0.00000000000E+00 -0.00000000000E+00 -0.45593999997E+02  0.45594000000E+02  0.51100000000E-03 0. -1.
    9900012    2    1    2    0    0 -0.81232027467E+01  0.78620744636E+01  0.29814801041E+02  0.59301937232E+02  0.49999987606E+02 0.  0.
         12    1    1    2    0    0  0.81232027467E+01 -0.78620744636E+01 -0.29814801041E+02  0.31886062768E+02  0.00000000000E+00 0. -1.
         11    1    3    3    0    0  0.76845652294E+01  0.19879604462E+02  0.84605217364E+01  0.22931019268E+02  0.51100000000E-03 0. -1.
        -11    1    3    3    0    0 -0.16946375015E+02 -0.73371551891E+01  0.47297746778E+01  0.19062639932E+02  0.51100000000E-03 0.  1.
         12    1    3    3    0    0  0.11386070384E+01 -0.46803748096E+01  0.16624504627E+02  0.17308278032E+02  0.00000000000E+00 0. -1.
</event>
<event>
 7    1  0.7749294E-012  0.5930212E+02  0.7816164E-02  0.1266604E+00
        -11   -1    0    0    0    0  0.00000000000E+00  0.00000000000E+00  0.45593999997E+02  0.45594000000E+02  0.51100000000E-03 0.  1.
         11   -1    0    0    0    0 -0.00000000000E+00 -0.00000000000E+00 -0.45593999997E+02  0.45594000000E+02  0.51100000000E-03 0. -1.
    9900012    2    1    2    0    0 -0.10828389268E+02  0.29004790469E+02  0.76274173763E+01  0.59302119424E+02  0.50000319879E+02 0.  0.
         12    1    1    2    0    0  0.10828389268E+02 -0.29004790469E+02 -0.76274173763E+01  0.31885880576E+02  0.00000000000E+00 0. -1.
         11    1    3    3    0    0 -0.22691587511E+02  0.30369020171E+02  0.13666794893E+02  0.40298471594E+02  0.51100000000E-03 0. -1.
        -11    1    3    3    0    0  0.83115504740E+01  0.18030741489E+01  0.28090120960E+01  0.89567570518E+01  0.51100000000E-03 0.  1.
         12    1    3    3    0    0  0.35516477692E+01 -0.31673038513E+01 -0.88483896125E+01  0.10046890778E+02  0.00000000000E+00 0. -1.
</event>
<event>
 7    1  0.7749294E-012  0.5930194E+02  0.7816164E-02  0.1266605E+00
        -11   -1    0    0    0    0  0.00000000000E+00  0.00000000000E+00  0.45593999997E+02  0.45594000000E+02  0.51100000000E-03 0.  1.
         11   -1    0    0    0    0 -0.00000000000E+00 -0.00000000000E+00 -0.45593999997E+02  0.45594000000E+02  0.51100000000E-03 0. -1.
    9900012    2    1    2    0    0  0.27937279394E+02 -0.12683209873E+02 -0.86813205390E+01  0.59301941621E+02  0.49999995612E+02 0.  0.
         12    1    1    2    0    0 -0.27937279394E+02  0.12683209873E+02  0.86813205390E+01  0.31886058379E+02  0.00000000000E+00 0. -1.
         11    1    3    3    0    0  0.22624396242E+02  0.14911678338E+02 -0.39896082810E+01  0.27388655146E+02  0.51100000000E-03 0. -1.
        -11    1    3    3    0    0 -0.64345358754E+00 -0.10919997562E+02  0.46582852006E+01  0.11889491181E+02  0.51100000000E-03 0.  1.
         12    1    3    3    0    0  0.59563367390E+01 -0.16674890650E+02 -0.93499974585E+01  0.20023795295E+02  0.00000000000E+00 0. -1.
</event>
<event>
 7    1  0.7749294E-012  0.5930191E+02  0.7816164E-02  0.1266605E+00
        -11   -1    0    0    0    0  0.00000000000E+00  0.00000000000E+00  0.45593999997E+02  0.45594000000E+02  0.51100000000E-03 0. -1.
         11   -1    0    0    0    0 -0.00000000000E+00 -0.00000000000E+00 -0.45593999997E+02  0.45594000000E+02  0.51100000000E-03 0.  1.
    9900012    2    1    2    0    0 -0.12082317532E+02  0.75403876408E+01 -0.28528630612E+02  0.59301912010E+02  0.49999941607E+02 0.  0.
         12    1    1    2    0    0  0.12082317532E+02 -0.75403876408E+01  0.28528630612E+02  0.31886087990E+02  0.00000000000E+00 0. -1.
         11    1    3    3    0    0 -0.11710695365E+00 -0.17015150994E+01  0.52259166007E+01  0.54971876674E+01  0.51100000000E-03 0. -1.
        -11    1    3    3    0    0 -0.24037344298E+02  0.14410712621E+02 -0.27479787865E+02  0.39250494270E+02  0.51100000000E-03 0.  1.
        -12    1    3    3    0    0  0.12072133719E+02 -0.51688098806E+01 -0.62747593478E+01  0.14554230072E+02  0.00000000000E+00 0.  1.
</event>
<event>
 7    1  0.7749294E-012  0.5930198E+02  0.7816164E-02  0.1266605E+00
        -11   -1    0    0    0    0  0.00000000000E+00  0.00000000000E+00  0.45593999997E+02  0.45594000000E+02  0.51100000000E-03 0. -1.
         11   -1    0    0    0    0 -0.00000000000E+00 -0.00000000000E+00 -0.45593999997E+02  0.45594000000E+02  0.51100000000E-03 0.  1.
    9900012    2    1    2    0    0 -0.19513988410E+02  0.23694346652E+01 -0.25105938777E+02  0.59301982278E+02  0.50000069760E+02 0.  0.
         12    1    1    2    0    0  0.19513988410E+02 -0.23694346652E+01  0.25105938777E+02  0.31886017722E+02  0.00000000000E+00 0. -1.
         11    1    3    3    0    0 -0.84582952564E+01 -0.38763237888E+01  0.41087876102E+01  0.10171075688E+02  0.51100000000E-03 0. -1.
        -11    1    3    3    0    0 -0.47372945043E+01  0.21403650156E+02 -0.22427280834E+02  0.31361459231E+02  0.51100000000E-03 0.  1.
        -12    1    3    3    0    0 -0.63183986494E+01 -0.15157891702E+02 -0.67874455529E+01  0.17769447360E+02  0.00000000000E+00 0.  1.
</event>
<event>
 7    1  0.7749294E-012  0.5930197E+02  0.7816164E-02  0.1266605E+00
        -11   -1    0    0    0    0  0.00000000000E+00  0.00000000000E+00  0.45593999997E+02  0.45594000000E+02  0.51100000000E-03 0.  1.
         11   -1    0    0    0    0 -0.00000000000E+00 -0.00000000000E+00 -0.45593999997E+02  0.45594000000E+02  0.51100000000E-03 0. -1.
    9900012    2    1    2    0    0  0.13804671391E+02  0.74587042632E+01  0.27758203944E+02  0.59301966887E+02  0.50000041690E+02 0.  0.
         12    1    1    2    0    0 -0.13804671391E+02 -0.74587042632E+01 -0.27758203944E+02  0.31886033113E+02  0.00000000000E+00 0. -1.
         11    1    3    3    0    0  0.20000167018E+02 -0.33943735003E+01 -0.76817016642E+01  0.21691864671E+02  0.51100000000E-03 0. -1.
        -11    1    3    3    0    0 -0.24366752945E+01  0.31270702872E+01  0.12524725540E+02  0.13137149812E+02  0.51100000000E-03 0.  1.
         12    1    3    3    0    0 -0.37588203325E+01  0.77260074762E+01  0.22915180068E+02  0.24472952404E+02  0.00000000000E+00 0. -1.
</event>
<event>
 7    1  0.7749294E-012  0.5930193E+02  0.7816164E-02  0.1266605E+00
        -11   -1    0    0    0    0  0.00000000000E+00  0.00000000000E+00  0.45593999997E+02  0.45594000000E+02  0.51100000000E-03 0.  1.
         11   -1    0    0    0    0 -0.00000000000E+00 -0.00000000000E+00 -0.45593999997E+02  0.45594000000E+02  0.51100000000E-03 0. -1.
    9900012    2    1    2    0    0 -0.56530612110E+01 -0.16690085282E+02  0.26574524472E+02  0.59301930962E+02  0.49999976171E+02 0.  0.
         12    1    1    2    0    0  0.56530612110E+01  0.16690085282E+02 -0.26574524472E+02  0.31886069038E+02  0.00000000000E+00 0. -1.
         11    1    3    3    0    0  0.97388455833E+01 -0.20163655016E+02  0.27482359906E+00  0.22394053344E+02  0.51100000000E-03 0. -1.
        -11    1    3    3    0    0 -0.14944314342E+00  0.87386118867E+01  0.46129886869E+01  0.98825773888E+01  0.51100000000E-03 0.  1.
         12    1    3    3    0    0 -0.15242463651E+02 -0.52650421527E+01  0.21686712186E+02  0.27025300229E+02  0.00000000000E+00 0. -1.
</event>
<event>
 7    1  0.7749294E-012  0.5930196E+02  0.7816164E-02  0.1266605E+00
        -11   -1    0    0    0    0  0.00000000000E+00  0.00000000000E+00  0.45593999997E+02  0.45594000000E+02  0.51100000000E-03 0.  1.
         11   -1    0    0    0    0 -0.00000000000E+00 -0.00000000000E+00 -0.45593999997E+02  0.45594000000E+02  0.51100000000E-03 0. -1.
    9900012    2    1    2    0    0 -0.68803155712E+01  0.26502651212E+02  0.16339844629E+02  0.59301956249E+02  0.50000022288E+02 0.  0.
         12    1    1    2    0    0  0.68803155712E+01 -0.26502651212E+02 -0.16339844629E+02  0.31886043751E+02  0.00000000000E+00 0. -1.
         11    1    3    3    0    0  0.14013173668E+01  0.24255176724E+00 -0.54693243495E+01  0.56511972912E+01  0.51100000000E-03 0. -1.
        -11    1    3    3    0    0 -0.13653254320E+02  0.28273170565E+02  0.30148901907E+02  0.43528609141E+02  0.51100000000E-03 0.  1.
        -12    1    3    3    0    0  0.53716213816E+01 -0.20130711201E+01 -0.83397329283E+01  0.10122149817E+02  0.00000000000E+00 0.  1.
</event>
<event>
 7    1  0.7749294E-012  0.5930195E+02  0.7816164E-02  0.1266605E+00
        -11   -1    0    0    0    0  0.00000000000E+00  0.00000000000E+00  0.45593999997E+02  0.45594000000E+02  0.51100000000E-03 0.  1.
         11   -1    0    0    0    0 -0.00000000000E+00 -0.00000000000E+00 -0.45593999997E+02  0.45594000000E+02  0.51100000000E-03 0. -1.
    9900012    2    1    2    0    0 -0.83012544900E+01 -0.21221869362E+02  0.22303403244E+02  0.59301947224E+02  0.50000005830E+02 0.  0.
         12    1    1    2    0    0  0.83012544900E+01  0.21221869362E+02 -0.22303403244E+02  0.31886052776E+02  0.00000000000E+00 0. -1.
         11    1    3    3    0    0 -0.18444625411E+01 -0.46184418687E+01 -0.33007750800E+01  0.59688494495E+01  0.51100000000E-03 0. -1.
        -11    1    3    3    0    0  0.26476402249E+01  0.29013956989E+01  0.30914199655E+02  0.31162731528E+02  0.51100000000E-03 0.  1.
        -12    1    3    3    0    0 -0.91044321738E+01 -0.19504823192E+02 -0.53100213306E+01  0.22170366247E+02  0.00000000000E+00 0.  1.
</event>
<event>
 7    1  0.7749294E-012  0.5930194E+02  0.7816164E-02  0.1266605E+00
        -11   -1    0    0    0    0  0.00000000000E+00  0.00000000000E+00  0.45593999997E+02  0.45594000000E+02  0.51100000000E-03 0. -1.
         11   -1    0    0    0    0 -0.00000000000E+00 -0.00000000000E+00 -0.45593999997E+02  0.45594000000E+02  0.51100000000E-03 0.  1.
    9900012    2    1    2    0    0 -0.23230492155E+02  0.20129518339E+02 -0.84774744631E+01  0.59301939604E+02  0.49999991932E+02 0.  0.
         12    1    1    2    0    0  0.23230492155E+02 -0.20129518339E+02  0.84774744631E+01  0.31886060396E+02  0.00000000000E+00 0. -1.
         11    1    3    3    0    0 -0.19177103638E+02  0.52919923805E+01 -0.47567936575E+01  0.20454671189E+02  0.51100000000E-03 0. -1.
        -11    1    3    3    0    0  0.88847966038E+01  0.22064183352E+02 -0.33706649972E+01  0.24023513075E+02  0.51100000000E-03 0.  1.
        -12    1    3    3    0    0 -0.12938185121E+02 -0.72266573933E+01 -0.35001580833E+00  0.14823755340E+02  0.00000000000E+00 0.  1.
</event>
<event>
 7    1  0.7749294E-012  0.5930194E+02  0.7816164E-02  0.1266605E+00
        -11   -1    0    0    0    0  0.00000000000E+00  0.00000000000E+00  0.45593999997E+02  0.45594000000E+02  0.51100000000E-03 0. -1.
         11   -1    0    0    0    0 -0.00000000000E+00 -0.00000000000E+00 -0.45593999997E+02  0.45594000000E+02  0.51100000000E-03 0.  1.
    9900012    2    1    2    0    0 -0.20750082434E+02  0.23374602090E+02 -0.63073859856E+01  0.59301936244E+02  0.49999985804E+02 0.  0.
         12    1    1    2    0    0  0.20750082434E+02 -0.23374602090E+02  0.63073859856E+01  0.31886063756E+02  0.00000000000E+00 0. -1.
         11    1    3    3    0    0  0.13853373401E+02 -0.29089027545E+01  0.46809613762E+00  0.14163219411E+02  0.51100000000E-03 0. -1.
        -11    1    3    3    0    0 -0.19279956016E+02  0.82727275874E+01 -0.32280892466E+01  0.21226758730E+02  0.51100000000E-03 0.  1.
         12    1    3    3    0    0 -0.15323499819E+02  0.18010777258E+02 -0.35473928766E+01  0.23911958103E+02  0.00000000000E+00 0. -1.
</event>
<event>
 7    1  0.7749294E-012  0.5930194E+02  0.7816164E-02  0.1266605E+00
        -11   -1    0    0    0    0  0.00000000000E+00  0.00000000000E+00  0.45593999997E+02  0.45594000000E+02  0.51100000000E-03 0.  1.
         11   -1    0    0    0    0 -0.00000000000E+00 -0.00000000000E+00 -0.45593999997E+02  0.45594000000E+02  0.51100000000E-03 0. -1.
    9900012    2    1    2    0    0 -0.50638814896E+01 -0.20804044919E+02  0.23627731155E+02  0.59301939405E+02  0.49999991569E+02 0.  0.
         12    1    1    2    0    0  0.50638814896E+01  0.20804044919E+02 -0.23627731155E+02  0.31886060595E+02  0.00000000000E+00 0. -1.
         11    1    3    3    0    0  0.35797913997E+00  0.95236725919E+01  0.32143181844E+01  0.10057849191E+02  0.51100000000E-03 0. -1.
        -11    1    3    3    0    0  0.39259376241E+01 -0.14473913020E+02 -0.67394341436E+01  0.16441627571E+02  0.51100000000E-03 0.  1.
        -12    1    3    3    0    0 -0.93477982537E+01 -0.15853804490E+02  0.27152847114E+02  0.32802462643E+02  0.00000000000E+00 0.  1.
</event>
<event>
 7    1  0.7749294E-012  0.5930194E+02  0.7816164E-02  0.1266605E+00
        -11   -1    0    0    0    0  0.00000000000E+00  0.00000000000E+00  0.45593999997E+02  0.45594000000E+02  0.51100000000E-03 0.  1.
         11   -1    0    0    0    0 -0.00000000000E+00 -0.00000000000E+00 -0.45593999997E+02  0.45594000000E+02  0.51100000000E-03 0. -1.
    9900012    2    1    2    0    0 -0.28788433908E+02  0.75134436120E+01 -0.11467120406E+02  0.59301943295E+02  0.49999998664E+02 0.  0.
         12    1    1    2    0    0  0.28788433908E+02 -0.75134436120E+01  0.11467120406E+02  0.31886056705E+02  0.00000000000E+00 0. -1.
         11    1    3    3    0    0 -0.11173051767E+02  0.19605809865E+02 -0.22167863569E+02  0.31632879125E+02  0.51100000000E-03 0. -1.
        -11    1    3    3    0    0 -0.17254312634E+02 -0.77552068960E+01  0.12796413241E+02  0.22838623658E+02  0.51100000000E-03 0.  1.
         12    1    3    3    0    0 -0.36106950578E+00 -0.43371593569E+01 -0.20956700774E+01  0.48304405129E+01  0.00000000000E+00 0. -1.
</event>
<event>
 7    1  0.7749294E-012  0.5930194E+02  0.7816164E-02  0.1266605E+00
        -11   -1    0    0    0    0  0.00000000000E+00  0.00000000000E+00  0.45593999997E+02  0.45594000000E+02  0.51100000000E-03 0. -1.
         11   -1    0    0    0    0 -0.00000000000E+00 -0.00000000000E+00 -0.45593999997E+02  0.45594000000E+02  0.51100000000E-03 0.  1.
    9900012    2    1    2    0    0  0.18575531939E+02  0.23977120446E+02 -0.98370834599E+01  0.59301938740E+02  0.49999990356E+02 0.  0.
         12    1    1    2    0    0 -0.18575531939E+02 -0.23977120446E+02  0.98370834599E+01  0.31886061260E+02  0.00000000000E+00 0. -1.
         11    1    3    3    0    0  0.17273914048E+02  0.16126100686E+02  0.48701062214E+01  0.24127933288E+02  0.51100000000E-03 0.  1.
        -11    1    3    3    0    0 -0.12625634859E+02 -0.43497859055E+01 -0.74123248300E+01  0.15273174282E+02  0.51100000000E-03 0. -1.
         12    1    3    3    0    0  0.13927252749E+02  0.12200805666E+02 -0.72948648512E+01  0.19900831170E+02  0.00000000000E+00 0. -1.
</event>
<event>
 7    1  0.7749294E-012  0.5930203E+02  0.7816164E-02  0.1266604E+00
        -11   -1    0    0    0    0  0.00000000000E+00  0.00000000000E+00  0.45593999997E+02  0.45594000000E+02  0.51100000000E-03 0.  1.
         11   -1    0    0    0    0 -0.00000000000E+00 -0.00000000000E+00 -0.45593999997E+02  0.45594000000E+02  0.51100000000E-03 0. -1.
    9900012    2    1    2    0    0 -0.10659751606E+02 -0.25523924160E+02  0.15862345092E+02  0.59302031289E+02  0.50000159144E+02 0.  0.
         12    1    1    2    0    0  0.10659751606E+02  0.25523924160E+02 -0.15862345092E+02  0.31885968711E+02  0.00000000000E+00 0. -1.
         11    1    3    3    0    0 -0.10312521235E+02 -0.19885131779E+02  0.18821123797E+02  0.29257499232E+02  0.51100000000E-03 0.  1.
        -11    1    3    3    0    0  0.12723479062E+02 -0.50006708711E+01 -0.82069005052E+01  0.15945119779E+02  0.51100000000E-03 0. -1.
         12    1    3    3    0    0 -0.13070709433E+02 -0.63812150950E+00  0.52481218001E+01  0.14099412278E+02  0.00000000000E+00 0. -1.
</event>
<event>
 7    1  0.7749294E-012  0.5930194E+02  0.7816164E-02  0.1266605E+00
        -11   -1    0    0    0    0  0.00000000000E+00  0.00000000000E+00  0.45593999997E+02  0.45594000000E+02  0.51100000000E-03 0. -1.
         11   -1    0    0    0    0 -0.00000000000E+00 -0.00000000000E+00 -0.45593999997E+02  0.45594000000E+02  0.51100000000E-03 0.  1.
    9900012    2    1    2    0    0  0.15752308198E+02 -0.24878246568E+02 -0.12233487424E+02  0.59301943793E+02  0.49999999572E+02 0.  0.
         12    1    1    2    0    0 -0.15752308198E+02  0.24878246568E+02  0.12233487424E+02  0.31886056207E+02  0.00000000000E+00 0. -1.
         11    1    3    3    0    0 -0.11885203529E+02 -0.18705935331E+02 -0.18027536097E+02  0.28568551547E+02  0.51100000000E-03 0. -1.
        -11    1    3    3    0    0  0.10430050562E+02 -0.55026198784E+01 -0.17703915874E+01  0.11924725023E+02  0.51100000000E-03 0.  1.
         12    1    3    3    0    0  0.17207461165E+02 -0.66969135943E+00  0.75644402602E+01  0.18808667223E+02  0.00000000000E+00 0. -1.
</event>
<event>
 7    1  0.7749294E-012  0.5930185E+02  0.7816164E-02  0.1266605E+00
        -11   -1    0    0    0    0  0.00000000000E+00  0.00000000000E+00  0.45593999997E+02  0.45594000000E+02  0.51100000000E-03 0.  1.
         11   -1    0    0    0    0 -0.00000000000E+00 -0.00000000000E+00 -0.45593999997E+02  0.45594000000E+02  0.51100000000E-03 0. -1.
    9900012    2    1    2    0    0 -0.30629248633E+02 -0.84362610575E+01 -0.27212941992E+01  0.59301846037E+02  0.49999821288E+02 0.  0.
         12    1    1    2    0    0  0.30629248633E+02  0.84362610575E+01  0.27212941992E+01  0.31886153963E+02  0.00000000000E+00 0. -1.
         11    1    3    3    0    0 -0.82649542933E+01 -0.11971105844E+02  0.12127038924E+02  0.18938899597E+02  0.51100000000E-03 0. -1.
        -11    1    3    3    0    0 -0.18204434065E+02 -0.10088624870E+02 -0.15734029048E+02  0.26091022244E+02  0.51100000000E-03 0.  1.
         12    1    3    3    0    0 -0.41598602741E+01  0.13623469657E+02  0.88569592396E+00  0.14271924196E+02  0.00000000000E+00 0. -1.
</event>
<event>
 7    1  0.7749294E-012  0.5930194E+02  0.7816164E-02  0.1266605E+00
        -11   -1    0    0    0    0  0.00000000000E+00  0.00000000000E+00  0.45593999997E+02  0.45594000000E+02  0.51100000000E-03 0. -1.
         11   -1    0    0    0    0 -0.00000000000E+00 -0.00000000000E+00 -0.45593999997E+02  0.45594000000E+02  0.51100000000E-03 0.  1.
    9900012    2    1    2    0    0  0.78889737840E+00 -0.16656778004E+02 -0.27178119876E+02  0.59301940153E+02  0.49999992933E+02 0.  0.
         12    1    1    2    0    0 -0.78889737840E+00  0.16656778004E+02  0.27178119876E+02  0.31886059847E+02  0.00000000000E+00 0. -1.
         11    1    3    3    0    0  0.25360282725E+01 -0.46331562004E+01  0.22565696764E+01  0.57436645743E+01  0.51100000000E-03 0. -1.
        -11    1    3    3    0    0  0.15824465291E+02  0.28597103093E+01 -0.25573378851E+02  0.30209093845E+02  0.51100000000E-03 0.  1.
        -12    1    3    3    0    0 -0.17571596185E+02 -0.14883332113E+02 -0.38613107015E+01  0.23349181734E+02  0.00000000000E+00 0.  1.
</event>
<event>
 7    1  0.7749294E-012  0.5930202E+02  0.7816164E-02  0.1266605E+00
        -11   -1    0    0    0    0  0.00000000000E+00  0.00000000000E+00  0.45593999997E+02  0.45594000000E+02  0.51100000000E-03 0.  1.
         11   -1    0    0    0    0 -0.00000000000E+00 -0.00000000000E+00 -0.45593999997E+02  0.45594000000E+02  0.51100000000E-03 0. -1.
    9900012    2    1    2    0    0  0.61280384238E+01 -0.24013774149E+02  0.20062444547E+02  0.59302017421E+02  0.50000133852E+02 0.  0.
         12    1    1    2    0    0 -0.61280384238E+01  0.24013774149E+02 -0.20062444547E+02  0.31885982579E+02  0.00000000000E+00 0. -1.
         11    1    3    3    0    0  0.25511250358E+01 -0.12074469024E+02 -0.87193589469E+01  0.15110534798E+02  0.51100000000E-03 0. -1.
        -11    1    3    3    0    0 -0.12626429492E+02  0.73815966398E+00  0.13943545438E+02  0.18825356864E+02  0.51100000000E-03 0.  1.
        -12    1    3    3    0    0  0.16203342880E+02 -0.12677464789E+02  0.14838258056E+02  0.25366125760E+02  0.00000000000E+00 0.  1.
</event>
<event>
 7    1  0.7749294E-012  0.5930195E+02  0.7816164E-02  0.1266605E+00
        -11   -1    0    0    0    0  0.00000000000E+00  0.00000000000E+00  0.45593999997E+02  0.45594000000E+02  0.51100000000E-03 0.  1.
         11   -1    0    0    0    0 -0.00000000000E+00 -0.00000000000E+00 -0.45593999997E+02  0.45594000000E+02  0.51100000000E-03 0. -1.
    9900012    2    1    2    0    0 -0.29670903009E+02  0.90169300537E+01  0.74197573636E+01  0.59301947998E+02  0.50000007241E+02 0.  0.
         12    1    1    2    0    0  0.29670903009E+02 -0.90169300537E+01 -0.74197573636E+01  0.31886052002E+02  0.00000000000E+00 0. -1.
         11    1    3    3    0    0 -0.13571418099E+01  0.18548516796E+02 -0.70413668236E+01  0.19886431460E+02  0.51100000000E-03 0. -1.
        -11    1    3    3    0    0 -0.11846691331E+01 -0.48453954657E+01 -0.38929689947E+01  0.63274407171E+01  0.51100000000E-03 0.  1.
         12    1    3    3    0    0 -0.27129092066E+02 -0.46861912761E+01  0.18354093182E+02  0.33088075821E+02  0.00000000000E+00 0. -1.
</event>
<event>
 7    1  0.7749294E-012  0.5930214E+02  0.7816164E-02  0.1266604E+00
        -11   -1    0    0    0    0  0.00000000000E+00  0.00000000000E+00  0.45593999997E+02  0.45594000000E+02  0.51100000000E-03 0.  1.
         11   -1    0    0    0    0 -0.00000000000E+00 -0.00000000000E+00 -0.45593999997E+02  0.45594000000E+02  0.51100000000E-03 0. -1.
    9900012    2    1    2    0    0  0.29045224267E+02  0.12937453625E+02 -0.23885363667E+01  0.59302143182E+02  0.50000363208E+02 0.  0.
         12    1    1    2    0    0 -0.29045224267E+02 -0.12937453625E+02  0.23885363667E+01  0.31885856818E+02  0.00000000000E+00 0. -1.
         11    1    3    3    0    0 -0.10264349776E+02 -0.40576278176E+01 -0.32498019019E+01  0.11505756494E+02  0.51100000000E-03 0. -1.
        -11    1    3    3    0    0  0.74816174433E+01  0.13923190112E+02  0.66332356424E+00  0.15819918485E+02  0.51100000000E-03 0.  1.
         12    1    3    3    0    0  0.31827956600E+02  0.30718913307E+01  0.19794197091E+00  0.31976468203E+02  0.00000000000E+00 0. -1.
</event>
<event>
 7    1  0.7749294E-012  0.5930170E+02  0.7816164E-02  0.1266606E+00
        -11   -1    0    0    0    0  0.00000000000E+00  0.00000000000E+00  0.45593999997E+02  0.45594000000E+02  0.51100000000E-03 0. -1.
         11   -1    0    0    0    0 -0.00000000000E+00 -0.00000000000E+00 -0.45593999997E+02  0.45594000000E+02  0.51100000000E-03 0.  1.
    9900012    2    1    2    0    0  0.11062242485E+02 -0.29671109688E+02 -0.37400546222E+01  0.59301702512E+02  0.49999559531E+02 0.  0.
         12    1    1    2    0    0 -0.11062242485E+02  0.29671109688E+02  0.37400546222E+01  0.31886297488E+02  0.00000000000E+00 0. -1.
         11    1    3    3    0    0 -0.11877856921E+02 -0.81622338036E+01  0.42280513754E+01  0.15019386285E+02  0.51100000000E-03 0. -1.
        -11    1    3    3    0    0  0.18404679255E+02 -0.69956670235E+01  0.88697048644E+01  0.21594981830E+02  0.51100000000E-03 0.  1.
        -12    1    3    3    0    0  0.45354201511E+01 -0.14513208861E+02 -0.16837810862E+02  0.22687334396E+02  0.00000000000E+00 0.  1.
</event>
<event>
 7    1  0.7749294E-012  0.5930194E+02  0.7816164E-02  0.1266605E+00
        -11   -1    0    0    0    0  0.00000000000E+00  0.00000000000E+00  0.45593999997E+02  0.45594000000E+02  0.51100000000E-03 0. -1.
         11   -1    0    0    0    0 -0.00000000000E+00 -0.00000000000E+00 -0.45593999997E+02  0.45594000000E+02  0.51100000000E-03 0.  1.
    9900012    2    1    2    0    0 -0.14201668576E+02 -0.22539394758E+02 -0.17521684318E+02  0.59301935211E+02  0.49999983920E+02 0.  0.
         12    1    1    2    0    0  0.14201668576E+02  0.22539394758E+02  0.17521684318E+02  0.31886064789E+02  0.00000000000E+00 0. -1.
         11    1    3    3    0    0 -0.11781150678E+01 -0.93276049801E+00  0.24355440342E+01  0.28617952868E+01  0.51100000000E-03 0. -1.
        -11    1    3    3    0    0 -0.62617347208E+01 -0.26676634414E+01 -0.32190151040E+02  0.32901847580E+02  0.51100000000E-03 0.  1.
        -12    1    3    3    0    0 -0.67618187871E+01 -0.18938970819E+02  0.12232922688E+02  0.23538292344E+02  0.00000000000E+00 0.  1.
</event>
<event>
 7    1  0.7749294E-012  0.5930195E+02  0.7816164E-02  0.1266605E+00
        -11   -1    0    0    0    0  0.00000000000E+00  0.00000000000E+00  0.45593999997E+02  0.45594000000E+02  0.51100000000E-03 0.  1.
         11   -1    0    0    0    0 -0.00000000000E+00 -0.00000000000E+00 -0.45593999997E+02  0.45594000000E+02  0.51100000000E-03 0. -1.
    9900012    2    1    2    0    0 -0.14871505485E+01 -0.12902583900E+02  0.29120989595E+02  0.59301947830E+02  0.50000006934E+02 0.  0.
         12    1    1    2    0    0  0.14871505485E+01  0.12902583900E+02 -0.29120989595E+02  0.31886052170E+02  0.00000000000E+00 0. -1.
         11    1    3    3    0    0  0.33258387226E+01 -0.73385355752E+01 -0.13489140205E+01  0.81691417477E+01  0.51100000000E-03 0. -1.
        -11    1    3    3    0    0 -0.11770210045E+01 -0.39833107643E+01  0.40310304091E+02  0.40523730816E+02  0.51100000000E-03 0.  1.
        -12    1    3    3    0    0 -0.36359682665E+01 -0.15807375602E+01 -0.98404004759E+01  0.10609075266E+02  0.00000000000E+00 0.  1.
</event>
<event>
 7    1  0.7749294E-012  0.5930195E+02  0.7816164E-02  0.1266605E+00
        -11   -1    0    0    0    0  0.00000000000E+00  0.00000000000E+00  0.45593999997E+02  0.45594000000E+02  0.51100000000E-03 0. -1.
         11   -1    0    0    0    0 -0.00000000000E+00 -0.00000000000E+00 -0.45593999997E+02  0.45594000000E+02  0.51100000000E-03 0.  1.
    9900012    2    1    2    0    0 -0.27399147898E+02 -0.15419417136E+02 -0.53149436664E+01  0.59301947304E+02  0.50000005974E+02 0.  0.
         12    1    1    2    0    0  0.27399147898E+02  0.15419417136E+02  0.53149436664E+01  0.31886052696E+02  0.00000000000E+00 0. -1.
         11    1    3    3    0    0 -0.23632733899E+02 -0.12146033515E+02  0.98271763369E+01  0.28330295387E+02  0.51100000000E-03 0. -1.
        -11    1    3    3    0    0 -0.74123467131E+01  0.75709983211E+01 -0.16333302213E+02  0.19468940927E+02  0.51100000000E-03 0.  1.
        -12    1    3    3    0    0  0.36459327136E+01 -0.10844381942E+02  0.11911822097E+01  0.11502710990E+02  0.00000000000E+00 0.  1.
</event>
<event>
 7    1  0.7749294E-012  0.5930194E+02  0.7816164E-02  0.1266605E+00
        -11   -1    0    0    0    0  0.00000000000E+00  0.00000000000E+00  0.45593999997E+02  0.45594000000E+02  0.51100000000E-03 0. -1.
         11   -1    0    0    0    0 -0.00000000000E+00 -0.00000000000E+00 -0.45593999997E+02  0.45594000000E+02  0.51100000000E-03 0.  1.
    9900012    2    1    2    0    0  0.56090039288E+01  0.29926951749E+02 -0.94677067498E+01  0.59301939767E+02  0.49999992230E+02 0.  0.
         12    1    1    2    0    0 -0.56090039288E+01 -0.29926951749E+02  0.94677067498E+01  0.31886060233E+02  0.00000000000E+00 0. -1.
         11    1    3    3    0    0  0.12228366852E+02 -0.13247293445E+00 -0.50257134985E+01  0.13221509043E+02  0.51100000000E-03 0. -1.
        -11    1    3    3    0    0 -0.20330341312E+02  0.15406925843E+02 -0.50515510436E+01  0.26004121020E+02  0.51100000000E-03 0.  1.
        -12    1    3    3    0    0  0.13710978389E+02  0.14652498840E+02  0.60955779228E+00  0.20076309705E+02  0.00000000000E+00 0.  1.
</event>
<event>
 7    1  0.7749294E-012  0.5930197E+02  0.7816164E-02  0.1266605E+00
        -11   -1    0    0    0    0  0.00000000000E+00  0.00000000000E+00  0.45593999997E+02  0.45594000000E+02  0.51100000000E-03 0. -1.
         11   -1    0    0    0    0 -0.00000000000E+00 -0.00000000000E+00 -0.45593999997E+02  0.45594000000E+02  0.51100000000E-03 0.  1.
    9900012    2    1    2    0    0 -0.75448654000E+01  0.28208386002E+02  0.12809414392E+02  0.59301966509E+02  0.50000041001E+02 0.  0.
         12    1    1    2    0    0  0.75448654000E+01 -0.28208386002E+02 -0.12809414392E+02  0.31886033491E+02  0.00000000000E+00 0. -1.
         11    1    3    3    0    0 -0.58527414544E+01  0.16127026798E+02  0.21992463773E+02  0.27892723764E+02  0.51100000000E-03 0. -1.
        -11    1    3    3    0    0  0.49916561432E+01 -0.10827946172E+01 -0.14766538635E+02  0.15624971640E+02  0.51100000000E-03 0.  1.
         12    1    3    3    0    0 -0.66837800889E+01  0.13164153820E+02  0.55834892532E+01  0.15784271105E+02  0.00000000000E+00 0. -1.
</event>
<event>
 7    1  0.7749294E-012  0.5930192E+02  0.7816164E-02  0.1266605E+00
        -11   -1    0    0    0    0  0.00000000000E+00  0.00000000000E+00  0.45593999997E+02  0.45594000000E+02  0.51100000000E-03 0. -1.
         11   -1    0    0    0    0 -0.00000000000E+00 -0.00000000000E+00 -0.45593999997E+02  0.45594000000E+02  0.51100000000E-03 0.  1.
    9900012    2    1    2    0    0  0.26970928474E+02 -0.16909537056E+02 -0.18325953389E+01  0.59301924170E+02  0.49999963783E+02 0.  0.
         12    1    1    2    0    0 -0.26970928474E+02  0.16909537056E+02  0.18325953389E+01  0.31886075830E+02  0.00000000000E+00 0. -1.
         11    1    3    3    0    0  0.32532040961E+02  0.50952693303E+01  0.85022730707E+01  0.34008588713E+02  0.51100000000E-03 0.  1.
        -11    1    3    3    0    0 -0.49918576344E+01 -0.11170213256E+02 -0.53516731299E+01  0.13354127166E+02  0.51100000000E-03 0. -1.
        -12    1    3    3    0    0 -0.56925485288E+00 -0.10834593131E+02 -0.49831952798E+01  0.11939208290E+02  0.00000000000E+00 0.  1.
</event>
<event>
 7    1  0.7749294E-012  0.5930194E+02  0.7816164E-02  0.1266605E+00
        -11   -1    0    0    0    0  0.00000000000E+00  0.00000000000E+00  0.45593999997E+02  0.45594000000E+02  0.51100000000E-03 0.  1.
         11   -1    0    0    0    0 -0.00000000000E+00 -0.00000000000E+00 -0.45593999997E+02  0.45594000000E+02  0.51100000000E-03 0. -1.
    9900012    2    1    2    0    0  0.25413713175E+02 -0.18652557777E+02 -0.47901843841E+01  0.59301943558E+02  0.49999999144E+02 0.  0.
         12    1    1    2    0    0 -0.25413713175E+02  0.18652557777E+02  0.47901843841E+01  0.31886056442E+02  0.00000000000E+00 0. -1.
         11    1    3    3    0    0  0.25703342975E+02  0.17518572049E+01 -0.10858402103E+01  0.25785846757E+02  0.51100000000E-03 0. -1.
        -11    1    3    3    0    0 -0.78798379694E+01 -0.49368588616E+01  0.83426918378E+01  0.12492594975E+02  0.51100000000E-03 0.  1.
        -12    1    3    3    0    0  0.75902081695E+01 -0.15467556120E+02 -0.12047036012E+02  0.21023501826E+02  0.00000000000E+00 0.  1.
</event>
<event>
 7    1  0.7749294E-012  0.5930193E+02  0.7816164E-02  0.1266605E+00
        -11   -1    0    0    0    0  0.00000000000E+00  0.00000000000E+00  0.45593999997E+02  0.45594000000E+02  0.51100000000E-03 0. -1.
         11   -1    0    0    0    0 -0.00000000000E+00 -0.00000000000E+00 -0.45593999997E+02  0.45594000000E+02  0.51100000000E-03 0.  1.
    9900012    2    1    2    0    0 -0.11865565204E+02 -0.29352487594E+02  0.37896441604E+01  0.59301928300E+02  0.49999971317E+02 0.  0.
         12    1    1    2    0    0  0.11865565204E+02  0.29352487594E+02 -0.37896441604E+01  0.31886071700E+02  0.00000000000E+00 0. -1.
         11    1    3    3    0    0 -0.47642090978E+01  0.96908798378E+01  0.76620862427E-01  0.10798921769E+02  0.51100000000E-03 0. -1.
        -11    1    3    3    0    0  0.85499191777E+01 -0.26236467892E+02 -0.14453253157E+01  0.27632269739E+02  0.51100000000E-03 0.  1.
         12    1    3    3    0    0 -0.15651275284E+02 -0.12806899540E+02  0.51583486137E+01  0.20870736792E+02  0.00000000000E+00 0. -1.
</event>
<event>
 7    1  0.7749294E-012  0.5930194E+02  0.7816164E-02  0.1266605E+00
        -11   -1    0    0    0    0  0.00000000000E+00  0.00000000000E+00  0.45593999997E+02  0.45594000000E+02  0.51100000000E-03 0. -1.
         11   -1    0    0    0    0 -0.00000000000E+00 -0.00000000000E+00 -0.45593999997E+02  0.45594000000E+02  0.51100000000E-03 0.  1.
    9900012    2    1    2    0    0  0.19000100227E+02 -0.17884902382E+02 -0.18326143839E+02  0.59301935805E+02  0.49999985003E+02 0.  0.
         12    1    1    2    0    0 -0.19000100227E+02  0.17884902382E+02  0.18326143839E+02  0.31886064195E+02  0.00000000000E+00 0. -1.
         11    1    3    3    0    0 -0.40577788557E+01 -0.67098279730E+01 -0.26002196205E+02  0.27158821190E+02  0.51100000000E-03 0.  1.
        -11    1    3    3    0    0  0.15641359137E+02 -0.12291450040E+02  0.12246276348E+02  0.23360289904E+02  0.51100000000E-03 0. -1.
        -12    1    3    3    0    0  0.74165199462E+01  0.11163756311E+01 -0.45702239821E+01  0.87828247113E+01  0.00000000000E+00 0.  1.
</event>
<event>
 7    1  0.7749294E-012  0.5930194E+02  0.7816164E-02  0.1266605E+00
        -11   -1    0    0    0    0  0.00000000000E+00  0.00000000000E+00  0.45593999997E+02  0.45594000000E+02  0.51100000000E-03 0. -1.
         11   -1    0    0    0    0 -0.00000000000E+00 -0.00000000000E+00 -0.45593999997E+02  0.45594000000E+02  0.51100000000E-03 0.  1.
    9900012    2    1    2    0    0 -0.44967251686E+01  0.25775393042E+02 -0.18224412662E+02  0.59301942850E+02  0.49999997852E+02 0.  0.
         12    1    1    2    0    0  0.44967251686E+01 -0.25775393042E+02  0.18224412662E+02  0.31886057150E+02  0.00000000000E+00 0. -1.
         11    1    3    3    0    0  0.69092282461E+01 -0.81012087937E+01  0.28762422991E+01  0.11029042973E+02  0.51100000000E-03 0. -1.
        -11    1    3    3    0    0  0.20545761533E+01  0.20939013794E+02 -0.13321402218E+01  0.21081702485E+02  0.51100000000E-03 0.  1.
        -12    1    3    3    0    0 -0.13460529568E+02  0.12937588041E+02 -0.19768514740E+02  0.27191197391E+02  0.00000000000E+00 0.  1.
</event>
<event>
 7    1  0.7749294E-012  0.5930193E+02  0.7816164E-02  0.1266605E+00
        -11   -1    0    0    0    0  0.00000000000E+00  0.00000000000E+00  0.45593999997E+02  0.45594000000E+02  0.51100000000E-03 0.  1.
         11   -1    0    0    0    0 -0.00000000000E+00 -0.00000000000E+00 -0.45593999997E+02  0.45594000000E+02  0.51100000000E-03 0. -1.
    9900012    2    1    2    0    0  0.28362422057E+02  0.10478386330E+02  0.10124116072E+02  0.59301932647E+02  0.49999979244E+02 0.  0.
         12    1    1    2    0    0 -0.28362422057E+02 -0.10478386330E+02 -0.10124116072E+02  0.31886067353E+02  0.00000000000E+00 0. -1.
         11    1    3    3    0    0 -0.34467055267E+01  0.64640087428E+01  0.20792568012E+02  0.22045273254E+02  0.51100000000E-03 0.  1.
        -11    1    3    3    0    0  0.91959746223E+01 -0.57069239707E+01 -0.53561691022E+01  0.12075739239E+02  0.51100000000E-03 0. -1.
        -12    1    3    3    0    0  0.22613152962E+02  0.97213015575E+01 -0.53122828382E+01  0.25180920154E+02  0.00000000000E+00 0.  1.
</event>
<event>
 7    1  0.7749294E-012  0.5930193E+02  0.7816164E-02  0.1266605E+00
        -11   -1    0    0    0    0  0.00000000000E+00  0.00000000000E+00  0.45593999997E+02  0.45594000000E+02  0.51100000000E-03 0. -1.
         11   -1    0    0    0    0 -0.00000000000E+00 -0.00000000000E+00 -0.45593999997E+02  0.45594000000E+02  0.51100000000E-03 0.  1.
    9900012    2    1    2    0    0  0.10622752468E+02  0.21446487373E+02 -0.21069567104E+02  0.59301931748E+02  0.49999977605E+02 0.  0.
         12    1    1    2    0    0 -0.10622752468E+02 -0.21446487373E+02  0.21069567104E+02  0.31886068252E+02  0.00000000000E+00 0. -1.
         11    1    3    3    0    0 -0.75262132354E+01 -0.40616285434E+01  0.21679876660E+01  0.88227480340E+01  0.51100000000E-03 0. -1.
        -11    1    3    3    0    0  0.12416187911E+02  0.26093068646E+02 -0.29960174577E+02  0.41624776451E+02  0.51100000000E-03 0.  1.
        -12    1    3    3    0    0  0.57327777921E+01 -0.58495272961E+00  0.67226198076E+01  0.88544072634E+01  0.00000000000E+00 0.  1.
</event>
<event>
 7    1  0.7749294E-012  0.5930193E+02  0.7816164E-02  0.1266605E+00
        -11   -1    0    0    0    0  0.00000000000E+00  0.00000000000E+00  0.45593999997E+02  0.45594000000E+02  0.51100000000E-03 0.  1.
         11   -1    0    0    0    0 -0.00000000000E+00 -0.00000000000E+00 -0.45593999997E+02  0.45594000000E+02  0.51100000000E-03 0. -1.
    9900012    2    1    2    0    0 -0.28188492470E+02  0.11121198378E+02 -0.99221780097E+01  0.59301925021E+02  0.49999965337E+02 0.  0.
         12    1    1    2    0    0  0.28188492470E+02 -0.11121198378E+02  0.99221780097E+01  0.31886074979E+02  0.00000000000E+00 0. -1.
         11    1    3    3    0    0 -0.13865422637E+02 -0.16302018310E+02  0.11941114466E+01  0.21434356727E+02  0.51100000000E-03 0.  1.
        -11    1    3    3    0    0 -0.16009773529E+01  0.16110587978E+02  0.20862336820E+01  0.16323803010E+02  0.51100000000E-03 0. -1.
        -12    1    3    3    0    0 -0.12722092480E+02  0.11312628710E+02 -0.13202523138E+02  0.21543765284E+02  0.00000000000E+00 0.  1.
</event>
<event>
 7    1  0.7749294E-012  0.5930195E+02  0.7816164E-02  0.1266605E+00
        -11   -1    0    0    0    0  0.00000000000E+00  0.00000000000E+00  0.45593999997E+02  0.45594000000E+02  0.51100000000E-03 0.  1.
         11   -1    0    0    0    0 -0.00000000000E+00 -0.00000000000E+00 -0.45593999997E+02  0.45594000000E+02  0.51100000000E-03 0. -1.
    9900012    2    1    2    0    0  0.28221720307E+02  0.67332650702E+01  0.13225657147E+02  0.59301947209E+02  0.50000005803E+02 0.  0.
         12    1    1    2    0    0 -0.28221720307E+02 -0.67332650702E+01 -0.13225657147E+02  0.31886052791E+02  0.00000000000E+00 0. -1.
         11    1    3    3    0    0 -0.12212446156E+02  0.30453122018E+01  0.25157533186E+01  0.12835372318E+02  0.51100000000E-03 0. -1.
        -11    1    3    3    0    0  0.13385212340E+02 -0.23583444162E+01  0.12801943646E+02  0.18671246856E+02  0.51100000000E-03 0.  1.
         12    1    3    3    0    0  0.27048954123E+02  0.60462972846E+01 -0.20920398180E+01  0.27795328035E+02  0.00000000000E+00 0. -1.
</event>
<event>
 7    1  0.7749294E-012  0.5930194E+02  0.7816164E-02  0.1266605E+00
        -11   -1    0    0    0    0  0.00000000000E+00  0.00000000000E+00  0.45593999997E+02  0.45594000000E+02  0.51100000000E-03 0.  1.
         11   -1    0    0    0    0 -0.00000000000E+00 -0.00000000000E+00 -0.45593999997E+02  0.45594000000E+02  0.51100000000E-03 0. -1.
    9900012    2    1    2    0    0 -0.56733783360E+01 -0.17409743703E+02  0.26104302600E+02  0.59301937029E+02  0.49999987237E+02 0.  0.
         12    1    1    2    0    0  0.56733783360E+01  0.17409743703E+02 -0.26104302600E+02  0.31886062971E+02  0.00000000000E+00 0. -1.
         11    1    3    3    0    0 -0.12540581694E+02 -0.23687590347E+01  0.23637631607E+02  0.26862889585E+02  0.51100000000E-03 0. -1.
        -11    1    3    3    0    0 -0.48249302264E+01  0.20635172190E+01 -0.77331912041E+01  0.93456033226E+01  0.51100000000E-03 0.  1.
         12    1    3    3    0    0  0.11692133585E+02 -0.17104501887E+02  0.10199862197E+02  0.23093444122E+02  0.00000000000E+00 0. -1.
</event>
<event>
 7    1  0.7749294E-012  0.5930194E+02  0.7816164E-02  0.1266605E+00
        -11   -1    0    0    0    0  0.00000000000E+00  0.00000000000E+00  0.45593999997E+02  0.45594000000E+02  0.51100000000E-03 0. -1.
         11   -1    0    0    0    0 -0.00000000000E+00 -0.00000000000E+00 -0.45593999997E+02  0.45594000000E+02  0.51100000000E-03 0.  1.
    9900012    2    1    2    0    0  0.21975900645E+02 -0.13114649719E+01 -0.23066442103E+02  0.59301938769E+02  0.49999990409E+02 0.  0.
         12    1    1    2    0    0 -0.21975900645E+02  0.13114649719E+01  0.23066442103E+02  0.31886061231E+02  0.00000000000E+00 0. -1.
         11    1    3    3    0    0  0.12397636461E+02  0.20612387414E+02 -0.49068258310E+01  0.24548907200E+02  0.51100000000E-03 0. -1.
        -11    1    3    3    0    0 -0.31242920683E+01 -0.46426491912E+01 -0.10646620593E+02  0.12027714777E+02  0.51100000000E-03 0.  1.
         12    1    3    3    0    0  0.12702556252E+02 -0.17281203195E+02 -0.75129956796E+01  0.22725316792E+02  0.00000000000E+00 0. -1.
</event>
<event>
 7    1  0.7749294E-012  0.5930195E+02  0.7816164E-02  0.1266605E+00
        -11   -1    0    0    0    0  0.00000000000E+00  0.00000000000E+00  0.45593999997E+02  0.45594000000E+02  0.51100000000E-03 0.  1.
         11   -1    0    0    0    0 -0.00000000000E+00 -0.00000000000E+00 -0.45593999997E+02  0.45594000000E+02  0.51100000000E-03 0. -1.
    9900012    2    1    2    0    0 -0.31756532242E+02  0.28287601308E+01 -0.49092115832E+00  0.59301949327E+02  0.50000009665E+02 0.  0.
         12    1    1    2    0    0  0.31756532242E+02 -0.28287601308E+01  0.49092115832E+00  0.31886050673E+02  0.00000000000E+00 0. -1.
         11    1    3    3    0    0  0.59118495323E+00 -0.94459494273E+00 -0.14313241072E+02  0.14356553539E+02  0.51100000000E-03 0. -1.
        -11    1    3    3    0    0  0.11930973726E+01  0.74393482113E+01  0.74743204489E+01  0.10612862459E+02  0.51100000000E-03 0.  1.
         12    1    3    3    0    0 -0.33540814568E+02 -0.36659931378E+01  0.63479994652E+01  0.34332533329E+02  0.00000000000E+00 0. -1.
</event>
<event>
 7    1  0.7749294E-012  0.5930194E+02  0.7816164E-02  0.1266605E+00
        -11   -1    0    0    0    0  0.00000000000E+00  0.00000000000E+00  0.45593999997E+02  0.45594000000E+02  0.51100000000E-03 0. -1.
         11   -1    0    0    0    0 -0.00000000000E+00 -0.00000000000E+00 -0.45593999997E+02  0.45594000000E+02  0.51100000000E-03 0.  1.
    9900012    2    1    2    0    0 -0.24437513480E+02  0.15067815593E+02 -0.13874073912E+02  0.59301936293E+02  0.49999985893E+02 0.  0.
         12    1    1    2    0    0  0.24437513480E+02 -0.15067815593E+02  0.13874073912E+02  0.31886063707E+02  0.00000000000E+00 0. -1.
         11    1    3    3    0    0  0.66459776815E+01 -0.43297878350E+01  0.15772406134E+01  0.80872597493E+01  0.51100000000E-03 0. -1.
        -11    1    3    3    0    0 -0.26613505765E+02  0.27758367538E+02 -0.83037285563E+01  0.39341550118E+02  0.51100000000E-03 0.  1.
        -12    1    3    3    0    0 -0.44699853963E+01 -0.83607641094E+01 -0.71475859694E+01  0.11873126426E+02  0.00000000000E+00 0.  1.
</event>
<event>
 7    1  0.7749294E-012  0.5930185E+02  0.7816164E-02  0.1266605E+00
        -11   -1    0    0    0    0  0.00000000000E+00  0.00000000000E+00  0.45593999997E+02  0.45594000000E+02  0.51100000000E-03 0. -1.
         11   -1    0    0    0    0 -0.00000000000E+00 -0.00000000000E+00 -0.45593999997E+02  0.45594000000E+02  0.51100000000E-03 0.  1.
    9900012    2    1    2    0    0  0.10044130983E+02 -0.20363894813E+01 -0.30194285925E+02  0.59301853293E+02  0.49999834521E+02 0.  0.
         12    1    1    2    0    0 -0.10044130983E+02  0.20363894813E+01  0.30194285925E+02  0.31886146707E+02  0.00000000000E+00 0. -1.
         11    1    3    3    0    0 -0.72319042964E-01  0.36975317592E+01  0.52264280168E+01  0.64025402170E+01  0.51100000000E-03 0. -1.
        -11    1    3    3    0    0  0.14009563740E+02  0.10868008926E+02 -0.30279449526E+02  0.35088838084E+02  0.51100000000E-03 0.  1.
        -12    1    3    3    0    0 -0.38931137138E+01 -0.16601930167E+02 -0.51412644150E+01  0.17810474992E+02  0.00000000000E+00 0.  1.
</event>
<event>
 7    1  0.7749294E-012  0.5930208E+02  0.7816164E-02  0.1266604E+00
        -11   -1    0    0    0    0  0.00000000000E+00  0.00000000000E+00  0.45593999997E+02  0.45594000000E+02  0.51100000000E-03 0. -1.
         11   -1    0    0    0    0 -0.00000000000E+00 -0.00000000000E+00 -0.45593999997E+02  0.45594000000E+02  0.51100000000E-03 0.  1.
    9900012    2    1    2    0    0  0.23209474969E+02  0.17794917444E+02 -0.12703280442E+02  0.59302076003E+02  0.50000240690E+02 0.  0.
         12    1    1    2    0    0 -0.23209474969E+02 -0.17794917444E+02  0.12703280442E+02  0.31885923997E+02  0.00000000000E+00 0. -1.
         11    1    3    3    0    0 -0.32208657979E+01  0.23268160769E+02 -0.14353584162E+02  0.27528288371E+02  0.51100000000E-03 0. -1.
        -11    1    3    3    0    0  0.74875181887E+00 -0.50106587809E+01 -0.26706856148E+01  0.57271190505E+01  0.51100000000E-03 0.  1.
         12    1    3    3    0    0  0.25681588948E+02 -0.46258454418E+00  0.43209893344E+01  0.26046668581E+02  0.00000000000E+00 0. -1.
</event>
<event>
 7    1  0.7749294E-012  0.5930194E+02  0.7816164E-02  0.1266605E+00
        -11   -1    0    0    0    0  0.00000000000E+00  0.00000000000E+00  0.45593999997E+02  0.45594000000E+02  0.51100000000E-03 0.  1.
         11   -1    0    0    0    0 -0.00000000000E+00 -0.00000000000E+00 -0.45593999997E+02  0.45594000000E+02  0.51100000000E-03 0. -1.
    9900012    2    1    2    0    0  0.31115213103E+02 -0.69569411033E+01 -0.40661291341E+00  0.59301939566E+02  0.49999991863E+02 0.  0.
         12    1    1    2    0    0 -0.31115213103E+02  0.69569411033E+01  0.40661291341E+00  0.31886060434E+02  0.00000000000E+00 0. -1.
         11    1    3    3    0    0  0.89879460061E+01 -0.66098388398E+01 -0.12129616360E+02  0.16480313595E+02  0.51100000000E-03 0. -1.
        -11    1    3    3    0    0  0.34109424119E+01 -0.10627040089E+02  0.17449371890E+02  0.20713500158E+02  0.51100000000E-03 0.  1.
        -12    1    3    3    0    0  0.18716324685E+02  0.10279937825E+02 -0.57263684432E+01  0.22108125812E+02  0.00000000000E+00 0.  1.
</event>
<event>
 7    1  0.7749294E-012  0.5930194E+02  0.7816164E-02  0.1266605E+00
        -11   -1    0    0    0    0  0.00000000000E+00  0.00000000000E+00  0.45593999997E+02  0.45594000000E+02  0.51100000000E-03 0. -1.
         11   -1    0    0    0    0 -0.00000000000E+00 -0.00000000000E+00 -0.45593999997E+02  0.45594000000E+02  0.51100000000E-03 0.  1.
    9900012    2    1    2    0    0 -0.26078112312E+02 -0.17167778654E+02  0.64745795707E+01  0.59301941192E+02  0.49999994829E+02 0.  0.
         12    1    1    2    0    0  0.26078112312E+02  0.17167778654E+02 -0.64745795707E+01  0.31886058808E+02  0.00000000000E+00 0. -1.
         11    1    3    3    0    0 -0.44524969016E+01 -0.35136365840E+01  0.10672925028E+02  0.12086426255E+02  0.51100000000E-03 0. -1.
        -11    1    3    3    0    0 -0.31775177523E+02 -0.61239557986E+01 -0.91711399896E+01  0.33634425076E+02  0.51100000000E-03 0.  1.
        -12    1    3    3    0    0  0.10149562112E+02 -0.75301862717E+01  0.49727945321E+01  0.13581089861E+02  0.00000000000E+00 0.  1.
</event>
<event>
 7    1  0.7749294E-012  0.5930194E+02  0.7816164E-02  0.1266605E+00
        -11   -1    0    0    0    0  0.00000000000E+00  0.00000000000E+00  0.45593999997E+02  0.45594000000E+02  0.51100000000E-03 0. -1.
         11   -1    0    0    0    0 -0.00000000000E+00 -0.00000000000E+00 -0.45593999997E+02  0.45594000000E+02  0.51100000000E-03 0.  1.
    9900012    2    1    2    0    0  0.23518486545E+02  0.18760429215E+02 -0.10566366189E+02  0.59301937086E+02  0.49999987341E+02 0.  0.
         12    1    1    2    0    0 -0.23518486545E+02 -0.18760429215E+02  0.10566366189E+02  0.31886062914E+02  0.00000000000E+00 0. -1.
         11    1    3    3    0    0  0.14763097778E+02  0.72488209750E+01  0.29389747417E+01  0.16707244965E+02  0.51100000000E-03 0. -1.
        -11    1    3    3    0    0 -0.13411162254E+02  0.11648028113E+02 -0.28165217799E+01  0.17985233586E+02  0.51100000000E-03 0.  1.
        -12    1    3    3    0    0  0.22166551022E+02 -0.13641987355E+00 -0.10688819151E+02  0.24609458535E+02  0.00000000000E+00 0.  1.
</event>
<event>
 7    1  0.7749294E-012  0.5930196E+02  0.7816164E-02  0.1266605E+00
        -11   -1    0    0    0    0  0.00000000000E+00  0.00000000000E+00  0.45593999997E+02  0.45594000000E+02  0.51100000000E-03 0.  1.
         11   -1    0    0    0    0 -0.00000000000E+00 -0.00000000000E+00 -0.45593999997E+02  0.45594000000E+02  0.51100000000E-03 0. -1.
    9900012    2    1    2    0    0 -0.14939112725E+02  0.16044339218E+02  0.23154299827E+02  0.59301960571E+02  0.50000030172E+02 0.  0.
         12    1    1    2    0    0  0.14939112725E+02 -0.16044339218E+02 -0.23154299827E+02  0.31886039429E+02  0.00000000000E+00 0. -1.
         11    1    3    3    0    0  0.80627510148E+01 -0.79709312874E+01  0.32788220334E+01  0.11802303746E+02  0.51100000000E-03 0. -1.
        -11    1    3    3    0    0 -0.22062242402E+02  0.29443558290E+02  0.13791564644E+02  0.39292148327E+02  0.51100000000E-03 0.  1.
        -12    1    3    3    0    0 -0.93962133752E+00 -0.54282877846E+01  0.60839131504E+01  0.82075084985E+01  0.00000000000E+00 0.  1.
</event>
<event>
 7    1  0.7749294E-012  0.5930190E+02  0.7816164E-02  0.1266605E+00
        -11   -1    0    0    0    0  0.00000000000E+00  0.00000000000E+00  0.45593999997E+02  0.45594000000E+02  0.51100000000E-03 0. -1.
         11   -1    0    0    0    0 -0.00000000000E+00 -0.00000000000E+00 -0.45593999997E+02  0.45594000000E+02  0.51100000000E-03 0.  1.
    9900012    2    1    2    0    0 -0.13921269477E+00  0.31806304382E+02  0.22501709440E+01  0.59301895693E+02  0.49999911848E+02 0.  0.
         12    1    1    2    0    0  0.13921269477E+00 -0.31806304382E+02 -0.22501709440E+01  0.31886104307E+02  0.00000000000E+00 0. -1.
         11    1    3    3    0    0  0.54656291537E+01  0.37276178391E+01  0.22227302327E+02  0.23190972507E+02  0.51100000000E-03 0. -1.
        -11    1    3    3    0    0 -0.46351361167E+01  0.11376160370E+02 -0.13278134032E+02  0.18088956720E+02  0.51100000000E-03 0.  1.
         12    1    3    3    0    0 -0.96970573184E+00  0.16702526174E+02 -0.66989973513E+01  0.18021966466E+02  0.00000000000E+00 0. -1.
</event>
<event>
 7    1  0.7749294E-012  0.5930195E+02  0.7816164E-02  0.1266605E+00
        -11   -1    0    0    0    0  0.00000000000E+00  0.00000000000E+00  0.45593999997E+02  0.45594000000E+02  0.51100000000E-03 0. -1.
         11   -1    0    0    0    0 -0.00000000000E+00 -0.00000000000E+00 -0.45593999997E+02  0.45594000000E+02  0.51100000000E-03 0.  1.
    9900012    2    1    2    0    0 -0.20633824943E+02  0.22698267753E+02  0.87036661926E+01  0.59301954526E+02  0.50000019146E+02 0.  0.
         12    1    1    2    0    0  0.20633824943E+02 -0.22698267753E+02 -0.87036661926E+01  0.31886045474E+02  0.00000000000E+00 0. -1.
         11    1    3    3    0    0 -0.48106961000E+01  0.27782198797E+01  0.23544975153E+02  0.24191468700E+02  0.51100000000E-03 0. -1.
        -11    1    3    3    0    0 -0.47307225813E+01  0.45142803184E+01 -0.14741361155E+02  0.16126567890E+02  0.51100000000E-03 0.  1.
         12    1    3    3    0    0 -0.11092406262E+02  0.15405767555E+02 -0.99947804517E-01  0.18983917936E+02  0.00000000000E+00 0. -1.
</event>
<event>
 7    1  0.7749294E-012  0.5930195E+02  0.7816164E-02  0.1266605E+00
        -11   -1    0    0    0    0  0.00000000000E+00  0.00000000000E+00  0.45593999997E+02  0.45594000000E+02  0.51100000000E-03 0. -1.
         11   -1    0    0    0    0 -0.00000000000E+00 -0.00000000000E+00 -0.45593999997E+02  0.45594000000E+02  0.51100000000E-03 0.  1.
    9900012    2    1    2    0    0 -0.14754469194E+02  0.25324412548E+02 -0.12557857773E+02  0.59301952520E+02  0.50000015487E+02 0.  0.
         12    1    1    2    0    0  0.14754469194E+02 -0.25324412548E+02  0.12557857773E+02  0.31886047480E+02  0.00000000000E+00 0. -1.
         11    1    3    3    0    0 -0.51279232361E+01  0.82909945040E+01  0.87293028479E+01  0.13085752369E+02  0.51100000000E-03 0. -1.
        -11    1    3    3    0    0  0.80589622089E+01  0.50287555612E+01 -0.22888417519E+02  0.24781341997E+02  0.51100000000E-03 0.  1.
        -12    1    3    3    0    0 -0.17685508167E+02  0.12004662483E+02  0.16012568982E+01  0.21434858154E+02  0.00000000000E+00 0.  1.
</event>
<event>
 7    1  0.7749294E-012  0.5930194E+02  0.7816164E-02  0.1266605E+00
        -11   -1    0    0    0    0  0.00000000000E+00  0.00000000000E+00  0.45593999997E+02  0.45594000000E+02  0.51100000000E-03 0.  1.
         11   -1    0    0    0    0 -0.00000000000E+00 -0.00000000000E+00 -0.45593999997E+02  0.45594000000E+02  0.51100000000E-03 0. -1.
    9900012    2    1    2    0    0 -0.42868574589E+01  0.30369171183E+02 -0.87210805616E+01  0.59301937976E+02  0.49999988963E+02 0.  0.
         12    1    1    2    0    0  0.42868574589E+01 -0.30369171183E+02  0.87210805616E+01  0.31886062024E+02  0.00000000000E+00 0. -1.
         11    1    3    3    0    0 -0.12612832628E+02  0.39699448588E+01  0.88698490789E+01  0.15922255871E+02  0.51100000000E-03 0.  1.
        -11    1    3    3    0    0  0.15958485970E+02  0.69399675986E+01 -0.13631211972E+02  0.22105346973E+02  0.51100000000E-03 0. -1.
         12    1    3    3    0    0 -0.76325108011E+01  0.19459258726E+02 -0.39597176683E+01  0.21274335132E+02  0.00000000000E+00 0. -1.
</event>
<event>
 7    1  0.7749294E-012  0.5930196E+02  0.7816164E-02  0.1266605E+00
        -11   -1    0    0    0    0  0.00000000000E+00  0.00000000000E+00  0.45593999997E+02  0.45594000000E+02  0.51100000000E-03 0.  1.
         11   -1    0    0    0    0 -0.00000000000E+00 -0.00000000000E+00 -0.45593999997E+02  0.45594000000E+02  0.51100000000E-03 0. -1.
    9900012    2    1    2    0    0  0.14280027487E+02 -0.25859279062E+02  0.12004074255E+02  0.59301963912E+02  0.50000036265E+02 0.  0.
         12    1    1    2    0    0 -0.14280027487E+02  0.25859279062E+02 -0.12004074255E+02  0.31886036088E+02  0.00000000000E+00 0. -1.
         11    1    3    3    0    0 -0.37994824083E+01 -0.23688069548E+02 -0.96545658413E+01  0.25860613824E+02  0.51100000000E-03 0. -1.
        -11    1    3    3    0    0  0.16543070684E+02 -0.45254609515E+01  0.24193518110E+02  0.29656016309E+02  0.51100000000E-03 0.  1.
         12    1    3    3    0    0  0.15364392114E+01  0.23542514373E+01 -0.25348780143E+01  0.37853337802E+01  0.00000000000E+00 0. -1.
</event>
<event>
 7    1  0.7749294E-012  0.5930192E+02  0.7816164E-02  0.1266605E+00
        -11   -1    0    0    0    0  0.00000000000E+00  0.00000000000E+00  0.45593999997E+02  0.45594000000E+02  0.51100000000E-03 0.  1.
         11   -1    0    0    0    0 -0.00000000000E+00 -0.00000000000E+00 -0.45593999997E+02  0.45594000000E+02  0.51100000000E-03 0. -1.
    9900012    2    1    2    0    0  0.83079687139E+01  0.18330668914E+02  0.24732288953E+02  0.59301923355E+02  0.49999962297E+02 0.  0.
         12    1    1    2    0    0 -0.83079687139E+01 -0.18330668914E+02 -0.24732288953E+02  0.31886076645E+02  0.00000000000E+00 0. -1.
         11    1    3    3    0    0  0.17251715314E+02  0.12078856583E+02  0.19043431933E+02  0.28393181535E+02  0.51100000000E-03 0. -1.
        -11    1    3    3    0    0 -0.11844373119E+02  0.10386401931E+02  0.14071065396E+02  0.21122533023E+02  0.51100000000E-03 0.  1.
        -12    1    3    3    0    0  0.29006265192E+01 -0.41345896000E+01 -0.83822083757E+01  0.97862087970E+01  0.00000000000E+00 0.  1.
</event>
<event>
 7    1  0.7749294E-012  0.5930193E+02  0.7816164E-02  0.1266605E+00
        -11   -1    0    0    0    0  0.00000000000E+00  0.00000000000E+00  0.45593999997E+02  0.45594000000E+02  0.51100000000E-03 0.  1.
         11   -1    0    0    0    0 -0.00000000000E+00 -0.00000000000E+00 -0.45593999997E+02  0.45594000000E+02  0.51100000000E-03 0. -1.
    9900012    2    1    2    0    0 -0.20315247314E+02 -0.10801723778E+02  0.22075665421E+02  0.59301929157E+02  0.49999972880E+02 0.  0.
         12    1    1    2    0    0  0.20315247314E+02  0.10801723778E+02 -0.22075665421E+02  0.31886070843E+02  0.00000000000E+00 0. -1.
         11    1    3    3    0    0  0.17295802103E+01 -0.20010827651E+02  0.20242058134E+02  0.28516058436E+02  0.51100000000E-03 0. -1.
        -11    1    3    3    0    0 -0.25732344193E+01  0.54283692616E+01  0.80089244571E+01  0.10011573275E+02  0.51100000000E-03 0.  1.
         12    1    3    3    0    0 -0.19471593105E+02  0.37807346110E+01 -0.61753171702E+01  0.20774297446E+02  0.00000000000E+00 0. -1.
</event>
<event>
 7    1  0.7749294E-012  0.5930195E+02  0.7816164E-02  0.1266605E+00
        -11   -1    0    0    0    0  0.00000000000E+00  0.00000000000E+00  0.45593999997E+02  0.45594000000E+02  0.51100000000E-03 0.  1.
         11   -1    0    0    0    0 -0.00000000000E+00 -0.00000000000E+00 -0.45593999997E+02  0.45594000000E+02  0.51100000000E-03 0. -1.
    9900012    2    1    2    0    0 -0.31034758498E+02  0.32930753543E+01  0.65360302251E+01  0.59301948639E+02  0.50000008409E+02 0.  0.
         12    1    1    2    0    0  0.31034758498E+02 -0.32930753543E+01 -0.65360302251E+01  0.31886051361E+02  0.00000000000E+00 0. -1.
         11    1    3    3    0    0 -0.30842977990E+02 -0.12959301925E+02  0.91822710202E+01  0.34692173455E+02  0.51100000000E-03 0. -1.
        -11    1    3    3    0    0 -0.67441439735E+01  0.12717068822E+02  0.36599899864E+01  0.14852704950E+02  0.51100000000E-03 0.  1.
         12    1    3    3    0    0  0.65523634656E+01  0.35353084573E+01 -0.63062307815E+01  0.97570702336E+01  0.00000000000E+00 0. -1.
</event>
<event>
 7    1  0.7749294E-012  0.5930197E+02  0.7816164E-02  0.1266605E+00
        -11   -1    0    0    0    0  0.00000000000E+00  0.00000000000E+00  0.45593999997E+02  0.45594000000E+02  0.51100000000E-03 0.  1.
         11   -1    0    0    0    0 -0.00000000000E+00 -0.00000000000E+00 -0.45593999997E+02  0.45594000000E+02  0.51100000000E-03 0. -1.
    9900012    2    1    2    0    0 -0.84079954524E+01  0.12855343376E+02  0.27942169209E+02  0.59301967620E+02  0.50000043026E+02 0.  0.
         12    1    1    2    0    0  0.84079954524E+01 -0.12855343376E+02 -0.27942169209E+02  0.31886032380E+02  0.00000000000E+00 0. -1.
         11    1    3    3    0    0 -0.12895970904E+02 -0.59766550896E+01 -0.85334504908E+00  0.14239194839E+02  0.51100000000E-03 0. -1.
        -11    1    3    3    0    0  0.10591965667E+02 -0.12443396433E+01  0.19256662075E+02  0.22012658912E+02  0.51100000000E-03 0.  1.
        -12    1    3    3    0    0 -0.61039902148E+01  0.20076338109E+02  0.95388521832E+01  0.23050113869E+02  0.00000000000E+00 0.  1.
</event>
<event>
 7    1  0.7749294E-012  0.5930195E+02  0.7816164E-02  0.1266605E+00
        -11   -1    0    0    0    0  0.00000000000E+00  0.00000000000E+00  0.45593999997E+02  0.45594000000E+02  0.51100000000E-03 0.  1.
         11   -1    0    0    0    0 -0.00000000000E+00 -0.00000000000E+00 -0.45593999997E+02  0.45594000000E+02  0.51100000000E-03 0. -1.
    9900012    2    1    2    0    0  0.25685153357E+02  0.11429259685E+02  0.15045425004E+02  0.59301954565E+02  0.50000019218E+02 0.  0.
         12    1    1    2    0    0 -0.25685153357E+02 -0.11429259685E+02 -0.15045425004E+02  0.31886045435E+02  0.00000000000E+00 0. -1.
         11    1    3    3    0    0  0.96971821029E+01  0.55600556066E+01 -0.14628774562E+02  0.18410611194E+02  0.51100000000E-03 0. -1.
        -11    1    3    3    0    0 -0.18214213661E+00 -0.32927680861E+01  0.19353923532E+02  0.19632876859E+02  0.51100000000E-03 0.  1.
        -12    1    3    3    0    0  0.16170113391E+02  0.91619721644E+01  0.10320276035E+02  0.21258466512E+02  0.00000000000E+00 0.  1.
</event>
<event>
 7    1  0.7749294E-012  0.5930196E+02  0.7816164E-02  0.1266605E+00
        -11   -1    0    0    0    0  0.00000000000E+00  0.00000000000E+00  0.45593999997E+02  0.45594000000E+02  0.51100000000E-03 0.  1.
         11   -1    0    0    0    0 -0.00000000000E+00 -0.00000000000E+00 -0.45593999997E+02  0.45594000000E+02  0.51100000000E-03 0. -1.
    9900012    2    1    2    0    0  0.26403552050E+02 -0.16729376158E+02  0.63007981259E+01  0.59301958469E+02  0.50000026338E+02 0.  0.
         12    1    1    2    0    0 -0.26403552050E+02  0.16729376158E+02 -0.63007981259E+01  0.31886041531E+02  0.00000000000E+00 0. -1.
         11    1    3    3    0    0 -0.79334632788E+01 -0.37259500268E+01  0.59061739127E+01  0.10569079134E+02  0.51100000000E-03 0. -1.
        -11    1    3    3    0    0  0.19119650572E+02  0.48074514598E+01 -0.11114572118E+02  0.22631976077E+02  0.51100000000E-03 0.  1.
        -12    1    3    3    0    0  0.15217364757E+02 -0.17810877591E+02  0.11509196331E+02  0.26100903258E+02  0.00000000000E+00 0.  1.
</event>
<event>
 7    1  0.7749294E-012  0.5930194E+02  0.7816164E-02  0.1266605E+00
        -11   -1    0    0    0    0  0.00000000000E+00  0.00000000000E+00  0.45593999997E+02  0.45594000000E+02  0.51100000000E-03 0.  1.
         11   -1    0    0    0    0 -0.00000000000E+00 -0.00000000000E+00 -0.45593999997E+02  0.45594000000E+02  0.51100000000E-03 0. -1.
    9900012    2    1    2    0    0 -0.12544209065E+01  0.31385211024E+02  0.54877907871E+01  0.59301938930E+02  0.49999990703E+02 0.  0.
         12    1    1    2    0    0  0.12544209065E+01 -0.31385211024E+02 -0.54877907871E+01  0.31886061070E+02  0.00000000000E+00 0. -1.
         11    1    3    3    0    0  0.12505623113E+02  0.30725382640E+01 -0.10471809123E+02  0.16597888041E+02  0.51100000000E-03 0. -1.
        -11    1    3    3    0    0 -0.18041575959E+02  0.10451577571E+02  0.54832766562E+01  0.21559226794E+02  0.51100000000E-03 0.  1.
         12    1    3    3    0    0  0.42815319396E+01  0.17861095189E+02  0.10476323254E+02  0.21144824095E+02  0.00000000000E+00 0. -1.
</event>
<event>
 7    1  0.7749294E-012  0.5930206E+02  0.7816164E-02  0.1266604E+00
        -11   -1    0    0    0    0  0.00000000000E+00  0.00000000000E+00  0.45593999997E+02  0.45594000000E+02  0.51100000000E-03 0.  1.
         11   -1    0    0    0    0 -0.00000000000E+00 -0.00000000000E+00 -0.45593999997E+02  0.45594000000E+02  0.51100000000E-03 0. -1.
    9900012    2    1    2    0    0 -0.21928537455E+02  0.22345734560E+02  0.60432124668E+01  0.59302062271E+02  0.50000215647E+02 0.  0.
         12    1    1    2    0    0  0.21928537455E+02 -0.22345734560E+02 -0.60432124668E+01  0.31885937729E+02  0.00000000000E+00 0. -1.
         11    1    3    3    0    0 -0.33802000882E+01  0.12756239043E+02  0.21484205212E+02  0.25213457934E+02  0.51100000000E-03 0.  1.
        -11    1    3    3    0    0 -0.17687705699E+02  0.11187809124E+02 -0.20143467514E+02  0.29047913688E+02  0.51100000000E-03 0. -1.
         12    1    3    3    0    0 -0.86063166828E+00 -0.15983136072E+01  0.47024747694E+01  0.50406906484E+01  0.00000000000E+00 0. -1.
</event>
<event>
 7    1  0.7749294E-012  0.5930196E+02  0.7816164E-02  0.1266605E+00
        -11   -1    0    0    0    0  0.00000000000E+00  0.00000000000E+00  0.45593999997E+02  0.45594000000E+02  0.51100000000E-03 0.  1.
         11   -1    0    0    0    0 -0.00000000000E+00 -0.00000000000E+00 -0.45593999997E+02  0.45594000000E+02  0.51100000000E-03 0. -1.
    9900012    2    1    2    0    0 -0.18435922316E+01  0.11218570405E+02  0.29790338028E+02  0.59301962396E+02  0.50000033500E+02 0.  0.
         12    1    1    2    0    0  0.18435922316E+01 -0.11218570405E+02 -0.29790338028E+02  0.31886037604E+02  0.00000000000E+00 0. -1.
         11    1    3    3    0    0  0.15343692590E+02  0.17820356294E+00  0.21098127863E+02  0.26088151686E+02  0.51100000000E-03 0. -1.
        -11    1    3    3    0    0 -0.15552288526E+02  0.63723480277E+01  0.16769613892E+02  0.23742376631E+02  0.51100000000E-03 0.  1.
        -12    1    3    3    0    0 -0.16349962964E+01  0.46680188141E+01 -0.80774037267E+01  0.94714340785E+01  0.00000000000E+00 0.  1.
</event>
<event>
 7    1  0.7749294E-012  0.5930195E+02  0.7816164E-02  0.1266605E+00
        -11   -1    0    0    0    0  0.00000000000E+00  0.00000000000E+00  0.45593999997E+02  0.45594000000E+02  0.51100000000E-03 0.  1.
         11   -1    0    0    0    0 -0.00000000000E+00 -0.00000000000E+00 -0.45593999997E+02  0.45594000000E+02  0.51100000000E-03 0. -1.
    9900012    2    1    2    0    0 -0.64956166398E+01 -0.27923259678E+02  0.13957753314E+02  0.59301947498E+02  0.50000006329E+02 0.  0.
         12    1    1    2    0    0  0.64956166398E+01  0.27923259678E+02 -0.13957753314E+02  0.31886052502E+02  0.00000000000E+00 0. -1.
         11    1    3    3    0    0 -0.16592377511E+02  0.10406332116E+01 -0.71288843443E+01  0.18088971812E+02  0.51100000000E-03 0. -1.
        -11    1    3    3    0    0  0.11456401792E+02 -0.30079846695E+02  0.16230802700E+02  0.36048374107E+02  0.51100000000E-03 0.  1.
         12    1    3    3    0    0 -0.13596409204E+01  0.11159538057E+01  0.48558349582E+01  0.51646015790E+01  0.00000000000E+00 0. -1.
</event>
<event>
 7    1  0.7749294E-012  0.5930194E+02  0.7816164E-02  0.1266605E+00
        -11   -1    0    0    0    0  0.00000000000E+00  0.00000000000E+00  0.45593999997E+02  0.45594000000E+02  0.51100000000E-03 0. -1.
         11   -1    0    0    0    0 -0.00000000000E+00 -0.00000000000E+00 -0.45593999997E+02  0.45594000000E+02  0.51100000000E-03 0.  1.
    9900012    2    1    2    0    0  0.40703753104E+01  0.24058265047E+02 -0.20526873194E+02  0.59301943559E+02  0.49999999145E+02 0.  0.
         12    1    1    2    0    0 -0.40703753104E+01 -0.24058265047E+02  0.20526873194E+02  0.31886056441E+02  0.00000000000E+00 0. -1.
         11    1    3    3    0    0 -0.15215058767E+02  0.71177156227E+01  0.60866315724E+01  0.17866364295E+02  0.51100000000E-03 0. -1.
        -11    1    3    3    0    0  0.13890489366E+02  0.12785477030E+02 -0.28665268485E+02  0.34323632315E+02  0.51100000000E-03 0.  1.
         12    1    3    3    0    0  0.53949447114E+01  0.41550723951E+01  0.20517637191E+01  0.71119469490E+01  0.00000000000E+00 0. -1.
</event>
<event>
 7    1  0.7749294E-012  0.5930196E+02  0.7816164E-02  0.1266605E+00
        -11   -1    0    0    0    0  0.00000000000E+00  0.00000000000E+00  0.45593999997E+02  0.45594000000E+02  0.51100000000E-03 0.  1.
         11   -1    0    0    0    0 -0.00000000000E+00 -0.00000000000E+00 -0.45593999997E+02  0.45594000000E+02  0.51100000000E-03 0. -1.
    9900012    2    1    2    0    0 -0.12942168386E+02  0.96892289639E+01  0.27483429234E+02  0.59301956613E+02  0.50000022952E+02 0.  0.
         12    1    1    2    0    0  0.12942168386E+02 -0.96892289639E+01 -0.27483429234E+02  0.31886043387E+02  0.00000000000E+00 0. -1.
         11    1    3    3    0    0 -0.16908273875E+02  0.23515517777E+01 -0.12833902132E+01  0.17119188413E+02  0.51100000000E-03 0. -1.
        -11    1    3    3    0    0  0.77830497411E+01 -0.95165420863E+01  0.18081437067E+02  0.21865013223E+02  0.51100000000E-03 0.  1.
        -12    1    3    3    0    0 -0.38169442516E+01  0.16854219272E+02  0.10685382380E+02  0.20317754977E+02  0.00000000000E+00 0.  1.
</event>
<event>
 7    1  0.7749294E-012  0.5930197E+02  0.7816164E-02  0.1266605E+00
        -11   -1    0    0    0    0  0.00000000000E+00  0.00000000000E+00  0.45593999997E+02  0.45594000000E+02  0.51100000000E-03 0. -1.
         11   -1    0    0    0    0 -0.00000000000E+00 -0.00000000000E+00 -0.45593999997E+02  0.45594000000E+02  0.51100000000E-03 0.  1.
    9900012    2    1    2    0    0 -0.16898776327E+01 -0.26824845546E+02 -0.17154917087E+02  0.59301965357E+02  0.50000038900E+02 0.  0.
         12    1    1    2    0    0  0.16898776327E+01  0.26824845546E+02  0.17154917087E+02  0.31886034643E+02  0.00000000000E+00 0. -1.
         11    1    3    3    0    0 -0.10478158950E+02 -0.17511531909E+02 -0.14073224771E+01  0.20455466790E+02  0.51100000000E-03 0. -1.
        -11    1    3    3    0    0  0.15015195159E+02  0.74630748581E+01 -0.11849723345E+02  0.20532158084E+02  0.51100000000E-03 0.  1.
        -12    1    3    3    0    0 -0.62269138413E+01 -0.16776388495E+02 -0.38978712652E+01  0.18314340483E+02  0.00000000000E+00 0.  1.
</event>
<event>
 7    1  0.7749294E-012  0.5930194E+02  0.7816164E-02  0.1266605E+00
        -11   -1    0    0    0    0  0.00000000000E+00  0.00000000000E+00  0.45593999997E+02  0.45594000000E+02  0.51100000000E-03 0. -1.
         11   -1    0    0    0    0 -0.00000000000E+00 -0.00000000000E+00 -0.45593999997E+02  0.45594000000E+02  0.51100000000E-03 0.  1.
    9900012    2    1    2    0    0  0.13588097272E+02 -0.25637811807E+02 -0.13220706163E+02  0.59301939516E+02  0.49999991772E+02 0.  0.
         12    1    1    2    0    0 -0.13588097272E+02  0.25637811807E+02  0.13220706163E+02  0.31886060484E+02  0.00000000000E+00 0. -1.
         11    1    3    3    0    0 -0.83179750085E+01 -0.13701262208E+02  0.74878512110E+01  0.17691274978E+02  0.51100000000E-03 0. -1.
        -11    1    3    3    0    0  0.23463218692E+02 -0.13451328916E+02 -0.24981240571E+02  0.36817431493E+02  0.51100000000E-03 0.  1.
        -12    1    3    3    0    0 -0.15571464115E+01  0.15147793171E+01  0.42726831972E+01  0.47932330457E+01  0.00000000000E+00 0.  1.
</event>
<event>
 7    1  0.7749294E-012  0.5930186E+02  0.7816164E-02  0.1266605E+00
        -11   -1    0    0    0    0  0.00000000000E+00  0.00000000000E+00  0.45593999997E+02  0.45594000000E+02  0.51100000000E-03 0. -1.
         11   -1    0    0    0    0 -0.00000000000E+00 -0.00000000000E+00 -0.45593999997E+02  0.45594000000E+02  0.51100000000E-03 0.  1.
    9900012    2    1    2    0    0 -0.12933597528E+01 -0.17900634533E+02 -0.26355651631E+02  0.59301860864E+02  0.49999848329E+02 0.  0.
         12    1    1    2    0    0  0.12933597528E+01  0.17900634533E+02  0.26355651631E+02  0.31886139136E+02  0.00000000000E+00 0. -1.
         11    1    3    3    0    0 -0.10131448028E+02 -0.94511417250E+01 -0.44020026662E+01  0.14537810935E+02  0.51100000000E-03 0. -1.
        -11    1    3    3    0    0  0.15580668608E+02  0.44174290466E+01 -0.25128123629E+02  0.29894707074E+02  0.51100000000E-03 0.  1.
        -12    1    3    3    0    0 -0.67425803335E+01 -0.12866921854E+02  0.31744746638E+01  0.14869342855E+02  0.00000000000E+00 0.  1.
</event>
<event>
 7    1  0.7749294E-012  0.5930195E+02  0.7816164E-02  0.1266605E+00
        -11   -1    0    0    0    0  0.00000000000E+00  0.00000000000E+00  0.45593999997E+02  0.45594000000E+02  0.51100000000E-03 0.  1.
         11   -1    0    0    0    0 -0.00000000000E+00 -0.00000000000E+00 -0.45593999997E+02  0.45594000000E+02  0.51100000000E-03 0. -1.
    9900012    2    1    2    0    0  0.20423420907E+02  0.91900714736E+01  0.22696847583E+02  0.59301946224E+02  0.50000004005E+02 0.  0.
         12    1    1    2    0    0 -0.20423420907E+02 -0.91900714736E+01 -0.22696847583E+02  0.31886053776E+02  0.00000000000E+00 0. -1.
         11    1    3    3    0    0 -0.47358375122E+00 -0.15295371106E+02  0.21233757252E+02  0.26173366350E+02  0.51100000000E-03 0. -1.
        -11    1    3    3    0    0  0.17413035117E+01  0.63646728029E+01  0.14683638886E+01  0.67599771137E+01  0.51100000000E-03 0.  1.
         12    1    3    3    0    0  0.19155701146E+02  0.18120769777E+02 -0.52735574193E-02  0.26368602760E+02  0.00000000000E+00 0. -1.
</event>
<event>
 7    1  0.7749294E-012  0.5930197E+02  0.7816164E-02  0.1266605E+00
        -11   -1    0    0    0    0  0.00000000000E+00  0.00000000000E+00  0.45593999997E+02  0.45594000000E+02  0.51100000000E-03 0.  1.
         11   -1    0    0    0    0 -0.00000000000E+00 -0.00000000000E+00 -0.45593999997E+02  0.45594000000E+02  0.51100000000E-03 0. -1.
    9900012    2    1    2    0    0  0.83458618588E+01  0.19751315017E+02  0.23599811503E+02  0.59301969233E+02  0.50000045969E+02 0.  0.
         12    1    1    2    0    0 -0.83458618588E+01 -0.19751315017E+02 -0.23599811503E+02  0.31886030767E+02  0.00000000000E+00 0. -1.
         11    1    3    3    0    0 -0.17236013101E+02  0.15399147446E+02  0.57822905147E+01  0.23825380868E+02  0.51100000000E-03 0.  1.
        -11    1    3    3    0    0  0.10786453995E+02 -0.60431242613E+01  0.51233510472E+01  0.13383410135E+02  0.51100000000E-03 0. -1.
         12    1    3    3    0    0  0.14795420964E+02  0.10395291833E+02  0.12694169941E+02  0.22093178230E+02  0.00000000000E+00 0. -1.
</event>
<event>
 7    1  0.7749294E-012  0.5930193E+02  0.7816164E-02  0.1266605E+00
        -11   -1    0    0    0    0  0.00000000000E+00  0.00000000000E+00  0.45593999997E+02  0.45594000000E+02  0.51100000000E-03 0. -1.
         11   -1    0    0    0    0 -0.00000000000E+00 -0.00000000000E+00 -0.45593999997E+02  0.45594000000E+02  0.51100000000E-03 0.  1.
    9900012    2    1    2    0    0 -0.31417306703E+02 -0.16869787564E+01 -0.51795979317E+01  0.59301932627E+02  0.49999979208E+02 0.  0.
         12    1    1    2    0    0  0.31417306703E+02  0.16869787564E+01  0.51795979317E+01  0.31886067373E+02  0.00000000000E+00 0. -1.
         11    1    3    3    0    0 -0.20137556873E+02 -0.17726876534E+02  0.24886888363E+01  0.26943587750E+02  0.51100000000E-03 0. -1.
        -11    1    3    3    0    0 -0.13734670064E+01  0.18295999327E+02  0.18446764120E+01  0.18439979239E+02  0.51100000000E-03 0.  1.
        -12    1    3    3    0    0 -0.99062828230E+01 -0.22561015497E+01 -0.95129631800E+01  0.13918365638E+02  0.00000000000E+00 0.  1.
</event>
<event>
 7    1  0.7749294E-012  0.5930196E+02  0.7816164E-02  0.1266605E+00
        -11   -1    0    0    0    0  0.00000000000E+00  0.00000000000E+00  0.45593999997E+02  0.45594000000E+02  0.51100000000E-03 0.  1.
         11   -1    0    0    0    0 -0.00000000000E+00 -0.00000000000E+00 -0.45593999997E+02  0.45594000000E+02  0.51100000000E-03 0. -1.
    9900012    2    1    2    0    0 -0.31563857732E+02 -0.80499057126E+00 -0.44490605561E+01  0.59301964427E+02  0.50000037203E+02 0.  0.
         12    1    1    2    0    0  0.31563857732E+02  0.80499057126E+00  0.44490605561E+01  0.31886035573E+02  0.00000000000E+00 0. -1.
         11    1    3    3    0    0 -0.64030567886E-01 -0.13464116898E+02  0.79026812066E+01  0.15612139965E+02  0.51100000000E-03 0. -1.
        -11    1    3    3    0    0 -0.29225418820E+02  0.17499725539E+02 -0.47478842433E+01  0.34393428212E+02  0.51100000000E-03 0.  1.
         12    1    3    3    0    0 -0.22744083444E+01 -0.48405992126E+01 -0.76038575193E+01  0.92963962495E+01  0.00000000000E+00 0. -1.
</event>
<event>
 7    1  0.7749294E-012  0.5930194E+02  0.7816164E-02  0.1266605E+00
        -11   -1    0    0    0    0  0.00000000000E+00  0.00000000000E+00  0.45593999997E+02  0.45594000000E+02  0.51100000000E-03 0.  1.
         11   -1    0    0    0    0 -0.00000000000E+00 -0.00000000000E+00 -0.45593999997E+02  0.45594000000E+02  0.51100000000E-03 0. -1.
    9900012    2    1    2    0    0  0.39673258906E+00  0.28791363300E+02  0.13697484460E+02  0.59301935991E+02  0.49999985344E+02 0.  0.
         12    1    1    2    0    0 -0.39673258906E+00 -0.28791363300E+02 -0.13697484460E+02  0.31886064009E+02  0.00000000000E+00 0. -1.
         11    1    3    3    0    0  0.58337211535E+00 -0.37120459708E+01 -0.14012437633E+00  0.37602185331E+01  0.51100000000E-03 0. -1.
        -11    1    3    3    0    0  0.12082026764E+02  0.22415635295E+02  0.25345064799E+02  0.35927821898E+02  0.51100000000E-03 0.  1.
        -12    1    3    3    0    0 -0.12268666290E+02  0.10087773976E+02 -0.11507455962E+02  0.19613895560E+02  0.00000000000E+00 0.  1.
</event>
<event>
 7    1  0.7749294E-012  0.5930197E+02  0.7816164E-02  0.1266605E+00
        -11   -1    0    0    0    0  0.00000000000E+00  0.00000000000E+00  0.45593999997E+02  0.45594000000E+02  0.51100000000E-03 0.  1.
         11   -1    0    0    0    0 -0.00000000000E+00 -0.00000000000E+00 -0.45593999997E+02  0.45594000000E+02  0.51100000000E-03 0. -1.
    9900012    2    1    2    0    0 -0.19916252079E+02  0.21851994355E+02  0.11939513880E+02  0.59301972561E+02  0.50000052037E+02 0.  0.
         12    1    1    2    0    0  0.19916252079E+02 -0.21851994355E+02 -0.11939513880E+02  0.31886027439E+02  0.00000000000E+00 0. -1.
         11    1    3    3    0    0  0.72368875313E+01 -0.85745704121E+01 -0.72101405696E+01  0.13337238327E+02  0.51100000000E-03 0. -1.
        -11    1    3    3    0    0 -0.17483343485E+02  0.15874923117E+02  0.15099432153E+02  0.28029865055E+02  0.51100000000E-03 0.  1.
         12    1    3    3    0    0 -0.96697961250E+01  0.14551641650E+02  0.40502222964E+01  0.17934869179E+02  0.00000000000E+00 0. -1.
</event>
<event>
 7    1  0.7749294E-012  0.5930195E+02  0.7816164E-02  0.1266605E+00
        -11   -1    0    0    0    0  0.00000000000E+00  0.00000000000E+00  0.45593999997E+02  0.45594000000E+02  0.51100000000E-03 0. -1.
         11   -1    0    0    0    0 -0.00000000000E+00 -0.00000000000E+00 -0.45593999997E+02  0.45594000000E+02  0.51100000000E-03 0.  1.
    9900012    2    1    2    0    0 -0.16192280201E+02  0.12111299755E+02 -0.24654547606E+02  0.59301949170E+02  0.50000009378E+02 0.  0.
         12    1    1    2    0    0  0.16192280201E+02 -0.12111299755E+02  0.24654547606E+02  0.31886050830E+02  0.00000000000E+00 0. -1.
         11    1    3    3    0    0 -0.11977228543E+01  0.20154238595E+02  0.22319139807E+01  0.20312786949E+02  0.51100000000E-03 0. -1.
        -11    1    3    3    0    0  0.12530417329E+01 -0.31820640556E+01 -0.20631921743E+02  0.20913436836E+02  0.51100000000E-03 0.  1.
         12    1    3    3    0    0 -0.16247599080E+02 -0.48608747836E+01 -0.62545398442E+01  0.18075725385E+02  0.00000000000E+00 0. -1.
</event>
<event>
 7    1  0.7749294E-012  0.5930191E+02  0.7816164E-02  0.1266605E+00
        -11   -1    0    0    0    0  0.00000000000E+00  0.00000000000E+00  0.45593999997E+02  0.45594000000E+02  0.51100000000E-03 0.  1.
         11   -1    0    0    0    0 -0.00000000000E+00 -0.00000000000E+00 -0.45593999997E+02  0.45594000000E+02  0.51100000000E-03 0. -1.
    9900012    2    1    2    0    0  0.13775264299E+02  0.21426892037E+02  0.19179496293E+02  0.59301910762E+02  0.49999939331E+02 0.  0.
         12    1    1    2    0    0 -0.13775264299E+02 -0.21426892037E+02 -0.19179496293E+02  0.31886089238E+02  0.00000000000E+00 0. -1.
         11    1    3    3    0    0 -0.80988228648E+01  0.45476869662E+01 -0.51381638348E+01  0.10614759366E+02  0.51100000000E-03 0. -1.
        -11    1    3    3    0    0  0.15110806164E+02 -0.22939259728E+01 -0.20182137795E+01  0.15416606189E+02  0.51100000000E-03 0.  1.
        -12    1    3    3    0    0  0.67632810001E+01  0.19173131044E+02  0.26335873907E+02  0.33270545207E+02  0.00000000000E+00 0.  1.
</event>
<event>
 7    1  0.7749294E-012  0.5930194E+02  0.7816164E-02  0.1266605E+00
        -11   -1    0    0    0    0  0.00000000000E+00  0.00000000000E+00  0.45593999997E+02  0.45594000000E+02  0.51100000000E-03 0. -1.
         11   -1    0    0    0    0 -0.00000000000E+00 -0.00000000000E+00 -0.45593999997E+02  0.45594000000E+02  0.51100000000E-03 0.  1.
    9900012    2    1    2    0    0  0.59704080208E+01 -0.22211883921E+02 -0.22084090354E+02  0.59301943392E+02  0.49999998841E+02 0.  0.
         12    1    1    2    0    0 -0.59704080208E+01  0.22211883921E+02  0.22084090354E+02  0.31886056608E+02  0.00000000000E+00 0. -1.
         11    1    3    3    0    0  0.18311131777E+01  0.62398845603E+01 -0.12178308431E+01  0.66160597805E+01  0.51100000000E-03 0. -1.
        -11    1    3    3    0    0  0.17584016136E+02 -0.29460204569E+02 -0.18560647343E+02  0.39007677536E+02  0.51100000000E-03 0.  1.
        -12    1    3    3    0    0 -0.13444721293E+02  0.10084360877E+01 -0.23056121680E+01  0.13678206076E+02  0.00000000000E+00 0.  1.
</event>
<event>
 7    1  0.7749294E-012  0.5930193E+02  0.7816164E-02  0.1266605E+00
        -11   -1    0    0    0    0  0.00000000000E+00  0.00000000000E+00  0.45593999997E+02  0.45594000000E+02  0.51100000000E-03 0.  1.
         11   -1    0    0    0    0 -0.00000000000E+00 -0.00000000000E+00 -0.45593999997E+02  0.45594000000E+02  0.51100000000E-03 0. -1.
    9900012    2    1    2    0    0  0.26881096755E+02  0.56809234988E+01  0.16181932210E+02  0.59301934319E+02  0.49999982294E+02 0.  0.
         12    1    1    2    0    0 -0.26881096755E+02 -0.56809234988E+01 -0.16181932210E+02  0.31886065681E+02  0.00000000000E+00 0. -1.
         11    1    3    3    0    0  0.79584524204E+00  0.13635872463E+02 -0.52002335708E+01  0.14615499202E+02  0.51100000000E-03 0. -1.
        -11    1    3    3    0    0  0.49911524376E+01  0.26153837614E+01  0.20299711866E+02  0.21067276449E+02  0.51100000000E-03 0.  1.
         12    1    3    3    0    0  0.21094099075E+02 -0.10570332725E+02  0.10824539148E+01  0.23619158668E+02  0.00000000000E+00 0. -1.
</event>
<event>
 7    1  0.7749294E-012  0.5930194E+02  0.7816164E-02  0.1266605E+00
        -11   -1    0    0    0    0  0.00000000000E+00  0.00000000000E+00  0.45593999997E+02  0.45594000000E+02  0.51100000000E-03 0.  1.
         11   -1    0    0    0    0 -0.00000000000E+00 -0.00000000000E+00 -0.45593999997E+02  0.45594000000E+02  0.51100000000E-03 0. -1.
    9900012    2    1    2    0    0 -0.12744272370E+02 -0.29198095989E+02  0.13326090977E+01  0.59301935103E+02  0.49999983723E+02 0.  0.
         12    1    1    2    0    0  0.12744272370E+02  0.29198095989E+02 -0.13326090977E+01  0.31886064897E+02  0.00000000000E+00 0. -1.
         11    1    3    3    0    0 -0.14692803516E+01 -0.11422671287E+01 -0.60182089288E+01  0.62993966311E+01  0.51100000000E-03 0. -1.
        -11    1    3    3    0    0 -0.27362887236E+02 -0.13232193476E+02  0.66606038664E+01  0.31115626078E+02  0.51100000000E-03 0.  1.
        -12    1    3    3    0    0  0.16087895218E+02 -0.14823635384E+02  0.69021416001E+00  0.21886912394E+02  0.00000000000E+00 0.  1.
</event>
<event>
 7    1  0.7749294E-012  0.5930198E+02  0.7816164E-02  0.1266605E+00
        -11   -1    0    0    0    0  0.00000000000E+00  0.00000000000E+00  0.45593999997E+02  0.45594000000E+02  0.51100000000E-03 0. -1.
         11   -1    0    0    0    0 -0.00000000000E+00 -0.00000000000E+00 -0.45593999997E+02  0.45594000000E+02  0.51100000000E-03 0.  1.
    9900012    2    1    2    0    0 -0.24283349945E+02 -0.13698329313E+02  0.15472318893E+02  0.59301984846E+02  0.50000074442E+02 0.  0.
         12    1    1    2    0    0  0.24283349945E+02  0.13698329313E+02 -0.15472318893E+02  0.31886015154E+02  0.00000000000E+00 0. -1.
         11    1    3    3    0    0 -0.13318436634E+02  0.64338701548E+01  0.29465476591E+01  0.15081696951E+02  0.51100000000E-03 0. -1.
        -11    1    3    3    0    0 -0.19495679454E+02 -0.25349420606E+02  0.12162423710E+02  0.34214020418E+02  0.51100000000E-03 0.  1.
        -12    1    3    3    0    0  0.85307661434E+01  0.52172211376E+01  0.36334752368E+00  0.10006267477E+02  0.00000000000E+00 0.  1.
</event>
<event>
 7    1  0.7749294E-012  0.5930192E+02  0.7816164E-02  0.1266605E+00
        -11   -1    0    0    0    0  0.00000000000E+00  0.00000000000E+00  0.45593999997E+02  0.45594000000E+02  0.51100000000E-03 0.  1.
         11   -1    0    0    0    0 -0.00000000000E+00 -0.00000000000E+00 -0.45593999997E+02  0.45594000000E+02  0.51100000000E-03 0. -1.
    9900012    2    1    2    0    0  0.18736138699E+02  0.12244017125E+02  0.22710420518E+02  0.59301920768E+02  0.49999957579E+02 0.  0.
         12    1    1    2    0    0 -0.18736138699E+02 -0.12244017125E+02 -0.22710420518E+02  0.31886079232E+02  0.00000000000E+00 0. -1.
         11    1    3    3    0    0  0.29821718239E+02  0.14698725000E+02  0.11012969822E+02  0.35023890416E+02  0.51100000000E-03 0. -1.
        -11    1    3    3    0    0 -0.14627833884E+02 -0.35357182630E+01  0.37488753962E+01  0.15508993996E+02  0.51100000000E-03 0.  1.
        -12    1    3    3    0    0  0.35422543449E+01  0.10810103882E+01  0.79485752998E+01  0.87690363552E+01  0.00000000000E+00 0.  1.
</event>
<event>
 7    1  0.7749294E-012  0.5930195E+02  0.7816164E-02  0.1266605E+00
        -11   -1    0    0    0    0  0.00000000000E+00  0.00000000000E+00  0.45593999997E+02  0.45594000000E+02  0.51100000000E-03 0. -1.
         11   -1    0    0    0    0 -0.00000000000E+00 -0.00000000000E+00 -0.45593999997E+02  0.45594000000E+02  0.51100000000E-03 0.  1.
    9900012    2    1    2    0    0 -0.21389954479E+01  0.19046658686E+02 -0.25482736123E+02  0.59301947423E+02  0.50000006192E+02 0.  0.
         12    1    1    2    0    0  0.21389954479E+01 -0.19046658686E+02  0.25482736123E+02  0.31886052577E+02  0.00000000000E+00 0. -1.
         11    1    3    3    0    0  0.17457199582E+02  0.16472333902E+02 -0.13693895386E+02  0.27633573285E+02  0.51100000000E-03 0. -1.
        -11    1    3    3    0    0 -0.73829098317E+01 -0.85084711388E+01  0.22011571629E+00  0.11267204174E+02  0.51100000000E-03 0.  1.
        -12    1    3    3    0    0 -0.12213285198E+02  0.11082795923E+02 -0.12008956453E+02  0.20401169964E+02  0.00000000000E+00 0.  1.
</event>
<event>
 7    1  0.7749294E-012  0.5930189E+02  0.7816164E-02  0.1266605E+00
        -11   -1    0    0    0    0  0.00000000000E+00  0.00000000000E+00  0.45593999997E+02  0.45594000000E+02  0.51100000000E-03 0.  1.
         11   -1    0    0    0    0 -0.00000000000E+00 -0.00000000000E+00 -0.45593999997E+02  0.45594000000E+02  0.51100000000E-03 0. -1.
    9900012    2    1    2    0    0  0.25509088594E+02  0.11388570768E+02  0.15372403283E+02  0.59301891304E+02  0.49999903845E+02 0.  0.
         12    1    1    2    0    0 -0.25509088594E+02 -0.11388570768E+02 -0.15372403283E+02  0.31886108696E+02  0.00000000000E+00 0. -1.
         11    1    3    3    0    0  0.11996679928E+01 -0.66812953707E+01 -0.53768629774E+01  0.86596516594E+01  0.51100000000E-03 0. -1.
        -11    1    3    3    0    0  0.16428882372E+02  0.27018462417E+02  0.22191813410E+02  0.38631361225E+02  0.51100000000E-03 0.  1.
        -12    1    3    3    0    0  0.78805382292E+01 -0.89485962783E+01 -0.14425471492E+01  0.12010878420E+02  0.00000000000E+00 0.  1.
</event>
<event>
 7    1  0.7749294E-012  0.5930196E+02  0.7816164E-02  0.1266605E+00
        -11   -1    0    0    0    0  0.00000000000E+00  0.00000000000E+00  0.45593999997E+02  0.45594000000E+02  0.51100000000E-03 0.  1.
         11   -1    0    0    0    0 -0.00000000000E+00 -0.00000000000E+00 -0.45593999997E+02  0.45594000000E+02  0.51100000000E-03 0. -1.
    9900012    2    1    2    0    0  0.27413358255E+01 -0.10947416125E+02  0.29822118758E+02  0.59301959024E+02  0.50000027349E+02 0.  0.
         12    1    1    2    0    0 -0.27413358255E+01  0.10947416125E+02 -0.29822118758E+02  0.31886040976E+02  0.00000000000E+00 0. -1.
         11    1    3    3    0    0  0.29959043500E+01 -0.83302075395E+01  0.58966213746E+01  0.10636632194E+02  0.51100000000E-03 0. -1.
        -11    1    3    3    0    0 -0.10098278106E+02  0.93682609770E+01 -0.59493068877E+01  0.15004458909E+02  0.51100000000E-03 0.  1.
        -12    1    3    3    0    0  0.98437095817E+01 -0.11985469563E+02  0.29874804271E+02  0.33660867921E+02  0.00000000000E+00 0.  1.
</event>
<event>
 7    1  0.7749294E-012  0.5930194E+02  0.7816164E-02  0.1266605E+00
        -11   -1    0    0    0    0  0.00000000000E+00  0.00000000000E+00  0.45593999997E+02  0.45594000000E+02  0.51100000000E-03 0.  1.
         11   -1    0    0    0    0 -0.00000000000E+00 -0.00000000000E+00 -0.45593999997E+02  0.45594000000E+02  0.51100000000E-03 0. -1.
    9900012    2    1    2    0    0  0.35148188681E+01 -0.29171302128E+01  0.31557200664E+02  0.59301944833E+02  0.50000001469E+02 0.  0.
         12    1    1    2    0    0 -0.35148188681E+01  0.29171302128E+01 -0.31557200664E+02  0.31886055167E+02  0.00000000000E+00 0. -1.
         11    1    3    3    0    0 -0.16218834847E+02  0.16920722960E+01  0.65670562606E+01  0.17579531866E+02  0.51100000000E-03 0. -1.
        -11    1    3    3    0    0  0.17570115790E+02  0.88627910692E+01  0.16224648197E+02  0.25504847457E+02  0.51100000000E-03 0.  1.
        -12    1    3    3    0    0  0.21635379247E+01 -0.13471993578E+02  0.87654962065E+01  0.16217565510E+02  0.00000000000E+00 0.  1.
</event>
<event>
 7    1  0.7749294E-012  0.5930195E+02  0.7816164E-02  0.1266605E+00
        -11   -1    0    0    0    0  0.00000000000E+00  0.00000000000E+00  0.45593999997E+02  0.45594000000E+02  0.51100000000E-03 0.  1.
         11   -1    0    0    0    0 -0.00000000000E+00 -0.00000000000E+00 -0.45593999997E+02  0.45594000000E+02  0.51100000000E-03 0. -1.
    9900012    2    1    2    0    0 -0.89700978586E+01 -0.12424143525E+02  0.27962441866E+02  0.59301950495E+02  0.50000011795E+02 0.  0.
         12    1    1    2    0    0  0.89700978586E+01  0.12424143525E+02 -0.27962441866E+02  0.31886049505E+02  0.00000000000E+00 0. -1.
         11    1    3    3    0    0 -0.21353580388E+02  0.27726570061E+01 -0.36111421088E+01  0.21833537731E+02  0.51100000000E-03 0. -1.
        -11    1    3    3    0    0  0.50247310390E+01 -0.97733846557E+01  0.18450580136E+02  0.21475355113E+02  0.51100000000E-03 0.  1.
         12    1    3    3    0    0  0.73587514908E+01 -0.54234158755E+01  0.13123003839E+02  0.15993057651E+02  0.00000000000E+00 0. -1.
</event>
<event>
 7    1  0.7749294E-012  0.5930189E+02  0.7816164E-02  0.1266605E+00
        -11   -1    0    0    0    0  0.00000000000E+00  0.00000000000E+00  0.45593999997E+02  0.45594000000E+02  0.51100000000E-03 0.  1.
         11   -1    0    0    0    0 -0.00000000000E+00 -0.00000000000E+00 -0.45593999997E+02  0.45594000000E+02  0.51100000000E-03 0. -1.
    9900012    2    1    2    0    0 -0.63887733305E+00 -0.20408557170E+02  0.24490950539E+02  0.59301889727E+02  0.49999900969E+02 0.  0.
         12    1    1    2    0    0  0.63887733305E+00  0.20408557170E+02 -0.24490950539E+02  0.31886110273E+02  0.00000000000E+00 0. -1.
         11    1    3    3    0    0 -0.66085633980E+00  0.95602607327E+01 -0.47959218274E+01  0.10716164557E+02  0.51100000000E-03 0. -1.
        -11    1    3    3    0    0 -0.71093390261E+01 -0.29206632491E+02  0.28409643696E+02  0.41360342576E+02  0.51100000000E-03 0.  1.
         12    1    3    3    0    0  0.71313180328E+01 -0.76218541112E+00  0.87722867116E+00  0.72253825939E+01  0.00000000000E+00 0. -1.
</event>
<event>
 7    1  0.7749294E-012  0.5930192E+02  0.7816164E-02  0.1266605E+00
        -11   -1    0    0    0    0  0.00000000000E+00  0.00000000000E+00  0.45593999997E+02  0.45594000000E+02  0.51100000000E-03 0.  1.
         11   -1    0    0    0    0 -0.00000000000E+00 -0.00000000000E+00 -0.45593999997E+02  0.45594000000E+02  0.51100000000E-03 0. -1.
    9900012    2    1    2    0    0 -0.10227288942E+02 -0.26216581473E+02  0.14993844102E+02  0.59301922408E+02  0.49999960572E+02 0.  0.
         12    1    1    2    0    0  0.10227288942E+02  0.26216581473E+02 -0.14993844102E+02  0.31886077592E+02  0.00000000000E+00 0. -1.
         11    1    3    3    0    0 -0.18776243488E+02 -0.37591413054E+01 -0.96530285182E+01  0.21444333114E+02  0.51100000000E-03 0. -1.
        -11    1    3    3    0    0  0.21840309675E+01 -0.17796283772E+02  0.23977760402E+02  0.29940118596E+02  0.51100000000E-03 0.  1.
        -12    1    3    3    0    0  0.63649235785E+01 -0.46611563954E+01  0.66911221750E+00  0.79174706986E+01  0.00000000000E+00 0.  1.
</event>
<event>
 7    1  0.7749294E-012  0.5930199E+02  0.7816164E-02  0.1266605E+00
        -11   -1    0    0    0    0  0.00000000000E+00  0.00000000000E+00  0.45593999997E+02  0.45594000000E+02  0.51100000000E-03 0.  1.
         11   -1    0    0    0    0 -0.00000000000E+00 -0.00000000000E+00 -0.45593999997E+02  0.45594000000E+02  0.51100000000E-03 0. -1.
    9900012    2    1    2    0    0  0.63866015174E+01 -0.16010489703E+02 -0.26825232009E+02  0.59301991598E+02  0.50000086756E+02 0.  0.
         12    1    1    2    0    0 -0.63866015174E+01  0.16010489703E+02  0.26825232009E+02  0.31886008402E+02  0.00000000000E+00 0. -1.
         11    1    3    3    0    0 -0.12835053125E+02 -0.68281444328E+01 -0.26849545049E+02  0.30532936556E+02  0.51100000000E-03 0. -1.
        -11    1    3    3    0    0  0.19220515496E+02 -0.66011868953E+01 -0.68342524914E+01  0.21440869659E+02  0.51100000000E-03 0.  1.
        -12    1    3    3    0    0  0.11391464092E-02 -0.25811583750E+01  0.68585655312E+01  0.73281853825E+01  0.00000000000E+00 0.  1.
</event>
<event>
 7    1  0.7749294E-012  0.5930211E+02  0.7816164E-02  0.1266604E+00
        -11   -1    0    0    0    0  0.00000000000E+00  0.00000000000E+00  0.45593999997E+02  0.45594000000E+02  0.51100000000E-03 0. -1.
         11   -1    0    0    0    0 -0.00000000000E+00 -0.00000000000E+00 -0.45593999997E+02  0.45594000000E+02  0.51100000000E-03 0.  1.
    9900012    2    1    2    0    0  0.28686443818E+01 -0.26760932301E+02 -0.17097766304E+02  0.59302106084E+02  0.50000295551E+02 0.  0.
         12    1    1    2    0    0 -0.28686443818E+01  0.26760932301E+02  0.17097766304E+02  0.31885893916E+02  0.00000000000E+00 0. -1.
         11    1    3    3    0    0 -0.10940427581E+02 -0.19645869662E+02 -0.23180730055E+02  0.32295501182E+02  0.51100000000E-03 0.  1.
        -11    1    3    3    0    0  0.17686459163E+02 -0.55411898466E+01 -0.12364924851E+01  0.18575374467E+02  0.51100000000E-03 0. -1.
        -12    1    3    3    0    0 -0.38773872003E+01 -0.15738727930E+01  0.73194562359E+01  0.84312304357E+01  0.00000000000E+00 0.  1.
</event>
<event>
 7    1  0.7749294E-012  0.5930195E+02  0.7816164E-02  0.1266605E+00
        -11   -1    0    0    0    0  0.00000000000E+00  0.00000000000E+00  0.45593999997E+02  0.45594000000E+02  0.51100000000E-03 0. -1.
         11   -1    0    0    0    0 -0.00000000000E+00 -0.00000000000E+00 -0.45593999997E+02  0.45594000000E+02  0.51100000000E-03 0.  1.
    9900012    2    1    2    0    0 -0.25058215104E+02  0.17179262089E+02  0.96787792484E+01  0.59301953555E+02  0.50000017376E+02 0.  0.
         12    1    1    2    0    0  0.25058215104E+02 -0.17179262089E+02 -0.96787792484E+01  0.31886046445E+02  0.00000000000E+00 0. -1.
         11    1    3    3    0    0  0.36434841285E+01 -0.14843340915E+02  0.43862245316E+01  0.15900902868E+02  0.51100000000E-03 0. -1.
        -11    1    3    3    0    0 -0.15563104810E+02  0.18844462808E+02  0.22268975828E+01  0.24541456415E+02  0.51100000000E-03 0.  1.
         12    1    3    3    0    0 -0.13138594423E+02  0.13178140196E+02  0.30656571339E+01  0.18859594272E+02  0.00000000000E+00 0. -1.
</event>
<event>
 7    1  0.7749294E-012  0.5930206E+02  0.7816164E-02  0.1266604E+00
        -11   -1    0    0    0    0  0.00000000000E+00  0.00000000000E+00  0.45593999997E+02  0.45594000000E+02  0.51100000000E-03 0. -1.
         11   -1    0    0    0    0 -0.00000000000E+00 -0.00000000000E+00 -0.45593999997E+02  0.45594000000E+02  0.51100000000E-03 0.  1.
    9900012    2    1    2    0    0  0.11682426638E+02  0.28018022125E+02  0.97583125727E+01  0.59302057639E+02  0.50000207200E+02 0.  0.
         12    1    1    2    0    0 -0.11682426638E+02 -0.28018022125E+02 -0.97583125727E+01  0.31885942361E+02  0.00000000000E+00 0. -1.
         11    1    3    3    0    0 -0.54479128275E+01  0.15506757730E+02  0.24388019899E+02  0.29409433935E+02  0.51100000000E-03 0. -1.
        -11    1    3    3    0    0  0.40544946634E+01  0.91163903531E+01  0.29700583131E-02  0.99773498048E+01  0.51100000000E-03 0.  1.
         12    1    3    3    0    0  0.13075844803E+02  0.33948740416E+01 -0.14632677385E+02  0.19915273900E+02  0.00000000000E+00 0. -1.
</event>
<event>
 7    1  0.7749294E-012  0.5930195E+02  0.7816164E-02  0.1266605E+00
        -11   -1    0    0    0    0  0.00000000000E+00  0.00000000000E+00  0.45593999997E+02  0.45594000000E+02  0.51100000000E-03 0.  1.
         11   -1    0    0    0    0 -0.00000000000E+00 -0.00000000000E+00 -0.45593999997E+02  0.45594000000E+02  0.51100000000E-03 0. -1.
    9900012    2    1    2    0    0 -0.11300437839E+02 -0.17261302830E+02  0.24311890700E+02  0.59301945052E+02  0.50000001868E+02 0.  0.
         12    1    1    2    0    0  0.11300437839E+02  0.17261302830E+02 -0.24311890700E+02  0.31886054948E+02  0.00000000000E+00 0. -1.
         11    1    3    3    0    0 -0.35313564450E+01  0.35906953203E+01 -0.79381887573E+01  0.94009793231E+01  0.51100000000E-03 0. -1.
        -11    1    3    3    0    0 -0.12299418903E+02 -0.69553036844E+01  0.32331494848E+02  0.35284238890E+02  0.51100000000E-03 0.  1.
        -12    1    3    3    0    0  0.45303375085E+01 -0.13896694466E+02 -0.81415390293E-01  0.14616726839E+02  0.00000000000E+00 0.  1.
</event>
<event>
 7    1  0.7749294E-012  0.5930195E+02  0.7816164E-02  0.1266605E+00
        -11   -1    0    0    0    0  0.00000000000E+00  0.00000000000E+00  0.45593999997E+02  0.45594000000E+02  0.51100000000E-03 0.  1.
         11   -1    0    0    0    0 -0.00000000000E+00 -0.00000000000E+00 -0.45593999997E+02  0.45594000000E+02  0.51100000000E-03 0. -1.
    9900012    2    1    2    0    0  0.26895093402E+02 -0.53216143061E+01  0.16280493056E+02  0.59301951608E+02  0.50000013824E+02 0.  0.
         12    1    1    2    0    0 -0.26895093402E+02  0.53216143061E+01 -0.16280493056E+02  0.31886048392E+02  0.00000000000E+00 0. -1.
         11    1    3    3    0    0  0.20804637072E+02  0.96108334370E+01  0.28731311996E+02  0.36751725569E+02  0.51100000000E-03 0.  1.
        -11    1    3    3    0    0  0.59245051599E+01 -0.10149188656E+02 -0.13235889414E+02  0.17700128830E+02  0.51100000000E-03 0. -1.
        -12    1    3    3    0    0  0.16595117065E+00 -0.47832590869E+01  0.78507047269E+00  0.48500972083E+01  0.00000000000E+00 0.  1.
</event>
<event>
 7    1  0.7749294E-012  0.5930191E+02  0.7816164E-02  0.1266605E+00
        -11   -1    0    0    0    0  0.00000000000E+00  0.00000000000E+00  0.45593999997E+02  0.45594000000E+02  0.51100000000E-03 0.  1.
         11   -1    0    0    0    0 -0.00000000000E+00 -0.00000000000E+00 -0.45593999997E+02  0.45594000000E+02  0.51100000000E-03 0. -1.
    9900012    2    1    2    0    0  0.59283708780E+01  0.59727769913E+01  0.30755532951E+02  0.59301914424E+02  0.49999946010E+02 0.  0.
         12    1    1    2    0    0 -0.59283708780E+01 -0.59727769913E+01 -0.30755532951E+02  0.31886085576E+02  0.00000000000E+00 0. -1.
         11    1    3    3    0    0  0.19982812269E+01  0.52721847045E+01  0.35217943240E+01  0.66477135123E+01  0.51100000000E-03 0. -1.
        -11    1    3    3    0    0 -0.17342256936E+02  0.11282534886E+01  0.26088140782E+02  0.31346737012E+02  0.51100000000E-03 0.  1.
        -12    1    3    3    0    0  0.21272346587E+02 -0.42766120188E+00  0.11455978449E+01  0.21307463900E+02  0.00000000000E+00 0.  1.
</event>
<event>
 7    1  0.7749294E-012  0.5930194E+02  0.7816164E-02  0.1266605E+00
        -11   -1    0    0    0    0  0.00000000000E+00  0.00000000000E+00  0.45593999997E+02  0.45594000000E+02  0.51100000000E-03 0.  1.
         11   -1    0    0    0    0 -0.00000000000E+00 -0.00000000000E+00 -0.45593999997E+02  0.45594000000E+02  0.51100000000E-03 0. -1.
    9900012    2    1    2    0    0 -0.18211871915E+02  0.26160407156E+02  0.82551509186E+00  0.59301942602E+02  0.49999997400E+02 0.  0.
         12    1    1    2    0    0  0.18211871915E+02 -0.26160407156E+02 -0.82551509186E+00  0.31886057398E+02  0.00000000000E+00 0. -1.
         11    1    3    3    0    0 -0.15757042623E+02 -0.56051319007E+01 -0.10683731757E+01  0.16758380511E+02  0.51100000000E-03 0. -1.
        -11    1    3    3    0    0  0.65901561168E+01  0.11103715759E+02  0.12183230259E+02  0.17752570549E+02  0.51100000000E-03 0.  1.
        -12    1    3    3    0    0 -0.90449854088E+01  0.20661823297E+02 -0.10289341991E+02  0.24790991542E+02  0.00000000000E+00 0.  1.
</event>
<event>
 7    1  0.7749294E-012  0.5930200E+02  0.7816164E-02  0.1266605E+00
        -11   -1    0    0    0    0  0.00000000000E+00  0.00000000000E+00  0.45593999997E+02  0.45594000000E+02  0.51100000000E-03 0.  1.
         11   -1    0    0    0    0 -0.00000000000E+00 -0.00000000000E+00 -0.45593999997E+02  0.45594000000E+02  0.51100000000E-03 0. -1.
    9900012    2    1    2    0    0 -0.27637323195E+02  0.13600441409E+02 -0.82415795503E+01  0.59301995650E+02  0.50000094146E+02 0.  0.
         12    1    1    2    0    0  0.27637323195E+02 -0.13600441409E+02  0.82415795503E+01  0.31886004350E+02  0.00000000000E+00 0. -1.
         11    1    3    3    0    0  0.12951939582E+01 -0.10271535911E+02 -0.10951824473E+02  0.15070648191E+02  0.51100000000E-03 0. -1.
        -11    1    3    3    0    0 -0.71186286614E+01  0.55898503802E+01  0.11321968797E+02  0.14495112245E+02  0.51100000000E-03 0.  1.
         12    1    3    3    0    0 -0.21813888492E+02  0.18282126940E+02 -0.86117238741E+01  0.29736235214E+02  0.00000000000E+00 0. -1.
</event>
<event>
 7    1  0.7749294E-012  0.5930194E+02  0.7816164E-02  0.1266605E+00
        -11   -1    0    0    0    0  0.00000000000E+00  0.00000000000E+00  0.45593999997E+02  0.45594000000E+02  0.51100000000E-03 0.  1.
         11   -1    0    0    0    0 -0.00000000000E+00 -0.00000000000E+00 -0.45593999997E+02  0.45594000000E+02  0.51100000000E-03 0. -1.
    9900012    2    1    2    0    0 -0.96334636380E+01  0.11856576586E+02  0.27988190932E+02  0.59301939383E+02  0.49999991530E+02 0.  0.
         12    1    1    2    0    0  0.96334636380E+01 -0.11856576586E+02 -0.27988190932E+02  0.31886060617E+02  0.00000000000E+00 0. -1.
         11    1    3    3    0    0  0.71694678554E+01 -0.87906655186E+01  0.12627368574E+02  0.16974319043E+02  0.51100000000E-03 0. -1.
        -11    1    3    3    0    0 -0.10786483069E+02  0.13681867815E+02 -0.65100283052E+01  0.18598983646E+02  0.51100000000E-03 0.  1.
        -12    1    3    3    0    0 -0.60164484246E+01  0.69653742899E+01  0.21870850663E+02  0.23728636694E+02  0.00000000000E+00 0.  1.
</event>
<event>
 7    1  0.7749294E-012  0.5930194E+02  0.7816164E-02  0.1266605E+00
        -11   -1    0    0    0    0  0.00000000000E+00  0.00000000000E+00  0.45593999997E+02  0.45594000000E+02  0.51100000000E-03 0.  1.
         11   -1    0    0    0    0 -0.00000000000E+00 -0.00000000000E+00 -0.45593999997E+02  0.45594000000E+02  0.51100000000E-03 0. -1.
    9900012    2    1    2    0    0  0.21392780126E+02  0.22834031472E+02  0.61381376514E+01  0.59301940843E+02  0.49999994191E+02 0.  0.
         12    1    1    2    0    0 -0.21392780126E+02 -0.22834031472E+02 -0.61381376514E+01  0.31886059157E+02  0.00000000000E+00 0. -1.
         11    1    3    3    0    0  0.87691959678E+01 -0.35119157041E+00 -0.74118901821E+01  0.11487308204E+02  0.51100000000E-03 0. -1.
        -11    1    3    3    0    0 -0.52172116734E+01  0.54939659450E+01  0.20409095890E+02  0.21770028818E+02  0.51100000000E-03 0.  1.
        -12    1    3    3    0    0  0.17840795831E+02  0.17691257097E+02 -0.68590680560E+01  0.26044603821E+02  0.00000000000E+00 0.  1.
</event>
<event>
 7    1  0.7749294E-012  0.5930193E+02  0.7816164E-02  0.1266605E+00
        -11   -1    0    0    0    0  0.00000000000E+00  0.00000000000E+00  0.45593999997E+02  0.45594000000E+02  0.51100000000E-03 0.  1.
         11   -1    0    0    0    0 -0.00000000000E+00 -0.00000000000E+00 -0.45593999997E+02  0.45594000000E+02  0.51100000000E-03 0. -1.
    9900012    2    1    2    0    0  0.73449843177E+01  0.80605749522E+01  0.29963305388E+02  0.59301931993E+02  0.49999978051E+02 0.  0.
         12    1    1    2    0    0 -0.73449843177E+01 -0.80605749522E+01 -0.29963305388E+02  0.31886068007E+02  0.00000000000E+00 0. -1.
         11    1    3    3    0    0  0.74867304178E+01  0.69133979395E+01 -0.33235451178E+01  0.10718775855E+02  0.51100000000E-03 0. -1.
        -11    1    3    3    0    0 -0.15650758767E+02 -0.38099014543E+00  0.28085214714E+02  0.32153859632E+02  0.51100000000E-03 0.  1.
        -12    1    3    3    0    0  0.15509012666E+02  0.15281671581E+01  0.52016357918E+01  0.16429296505E+02  0.00000000000E+00 0.  1.
</event>
<event>
 7    1  0.7749294E-012  0.5930192E+02  0.7816164E-02  0.1266605E+00
        -11   -1    0    0    0    0  0.00000000000E+00  0.00000000000E+00  0.45593999997E+02  0.45594000000E+02  0.51100000000E-03 0.  1.
         11   -1    0    0    0    0 -0.00000000000E+00 -0.00000000000E+00 -0.45593999997E+02  0.45594000000E+02  0.51100000000E-03 0. -1.
    9900012    2    1    2    0    0 -0.57900852409E+01 -0.28103140751E+02  0.13907218755E+02  0.59301916191E+02  0.49999949232E+02 0.  0.
         12    1    1    2    0    0  0.57900852409E+01  0.28103140751E+02 -0.13907218755E+02  0.31886083809E+02  0.00000000000E+00 0. -1.
         11    1    3    3    0    0 -0.13077929462E+01  0.55444646110E+01 -0.82967920322E+01  0.10064202328E+02  0.51100000000E-03 0. -1.
        -11    1    3    3    0    0  0.22057293800E+01 -0.28882426526E+02  0.27108373953E+02  0.39672707782E+02  0.51100000000E-03 0.  1.
        -12    1    3    3    0    0 -0.66880216747E+01 -0.47651788363E+01 -0.49043631658E+01  0.95650060807E+01  0.00000000000E+00 0.  1.
</event>
<event>
 7    1  0.7749294E-012  0.5930199E+02  0.7816164E-02  0.1266605E+00
        -11   -1    0    0    0    0  0.00000000000E+00  0.00000000000E+00  0.45593999997E+02  0.45594000000E+02  0.51100000000E-03 0.  1.
         11   -1    0    0    0    0 -0.00000000000E+00 -0.00000000000E+00 -0.45593999997E+02  0.45594000000E+02  0.51100000000E-03 0. -1.
    9900012    2    1    2    0    0  0.18835586778E+02 -0.21024915768E+02  0.14828733373E+02  0.59301988243E+02  0.50000080638E+02 0.  0.
         12    1    1    2    0    0 -0.18835586778E+02  0.21024915768E+02 -0.14828733373E+02  0.31886011757E+02  0.00000000000E+00 0. -1.
         11    1    3    3    0    0 -0.10497650824E+02 -0.15719646989E+02 -0.62464194447E+01  0.19907931344E+02  0.51100000000E-03 0. -1.
        -11    1    3    3    0    0  0.22358050394E+02  0.23840616641E+01  0.11429306588E+02  0.25222910554E+02  0.51100000000E-03 0.  1.
         12    1    3    3    0    0  0.69751872079E+01 -0.76893304430E+01  0.96458462297E+01  0.14171146345E+02  0.00000000000E+00 0. -1.
</event>
<event>
 7    1  0.7749294E-012  0.5930196E+02  0.7816164E-02  0.1266605E+00
        -11   -1    0    0    0    0  0.00000000000E+00  0.00000000000E+00  0.45593999997E+02  0.45594000000E+02  0.51100000000E-03 0.  1.
         11   -1    0    0    0    0 -0.00000000000E+00 -0.00000000000E+00 -0.45593999997E+02  0.45594000000E+02  0.51100000000E-03 0. -1.
    9900012    2    1    2    0    0 -0.19600602534E+02 -0.18878950718E+01  0.25079313256E+02  0.59301957271E+02  0.50000024153E+02 0.  0.
         12    1    1    2    0    0  0.19600602534E+02  0.18878950718E+01 -0.25079313256E+02  0.31886042729E+02  0.00000000000E+00 0. -1.
         11    1    3    3    0    0 -0.12842103985E+02  0.11294022372E+02  0.62075942003E+01  0.18193647301E+02  0.51100000000E-03 0. -1.
        -11    1    3    3    0    0  0.23329006993E+01 -0.13198609391E+02  0.26201155171E+02  0.29430362691E+02  0.51100000000E-03 0.  1.
        -12    1    3    3    0    0 -0.90913992474E+01  0.16691947425E-01 -0.73294361153E+01  0.11677947280E+02  0.00000000000E+00 0.  1.
</event>
<event>
 7    1  0.7749294E-012  0.5930194E+02  0.7816164E-02  0.1266605E+00
        -11   -1    0    0    0    0  0.00000000000E+00  0.00000000000E+00  0.45593999997E+02  0.45594000000E+02  0.51100000000E-03 0. -1.
         11   -1    0    0    0    0 -0.00000000000E+00 -0.00000000000E+00 -0.45593999997E+02  0.45594000000E+02  0.51100000000E-03 0.  1.
    9900012    2    1    2    0    0  0.15342092819E+02 -0.12361538733E+02 -0.25070566928E+02  0.59301940695E+02  0.49999993923E+02 0.  0.
         12    1    1    2    0    0 -0.15342092819E+02  0.12361538733E+02  0.25070566928E+02  0.31886059305E+02  0.00000000000E+00 0. -1.
         11    1    3    3    0    0  0.94138746262E+01 -0.10665100560E+02 -0.20611178438E+02  0.25043683481E+02  0.51100000000E-03 0.  1.
        -11    1    3    3    0    0 -0.56566899984E+01 -0.13547479106E+02  0.45822014909E+01  0.15379496176E+02  0.51100000000E-03 0. -1.
        -12    1    3    3    0    0  0.11584908191E+02  0.11851040933E+02 -0.90415899806E+01  0.18878761039E+02  0.00000000000E+00 0.  1.
</event>
<event>
 7    1  0.7749294E-012  0.5930195E+02  0.7816164E-02  0.1266605E+00
        -11   -1    0    0    0    0  0.00000000000E+00  0.00000000000E+00  0.45593999997E+02  0.45594000000E+02  0.51100000000E-03 0.  1.
         11   -1    0    0    0    0 -0.00000000000E+00 -0.00000000000E+00 -0.45593999997E+02  0.45594000000E+02  0.51100000000E-03 0. -1.
    9900012    2    1    2    0    0 -0.81347670809E+01  0.22260750926E+02  0.21330839150E+02  0.59301950290E+02  0.50000011421E+02 0.  0.
         12    1    1    2    0    0  0.81347670809E+01 -0.22260750926E+02 -0.21330839150E+02  0.31886049710E+02  0.00000000000E+00 0. -1.
         11    1    3    3    0    0 -0.13624464412E+02 -0.25372962819E+01  0.12489120427E+02  0.18655884654E+02  0.51100000000E-03 0. -1.
        -11    1    3    3    0    0  0.10224994482E+02  0.41071810856E+01 -0.79448741670E+01  0.13584567509E+02  0.51100000000E-03 0.  1.
        -12    1    3    3    0    0 -0.47352971508E+01  0.20690866123E+02  0.16786592890E+02  0.27061498127E+02  0.00000000000E+00 0.  1.
</event>
<event>
 7    1  0.7749294E-012  0.5930219E+02  0.7816164E-02  0.1266604E+00
        -11   -1    0    0    0    0  0.00000000000E+00  0.00000000000E+00  0.45593999997E+02  0.45594000000E+02  0.51100000000E-03 0. -1.
         11   -1    0    0    0    0 -0.00000000000E+00 -0.00000000000E+00 -0.45593999997E+02  0.45594000000E+02  0.51100000000E-03 0.  1.
    9900012    2    1    2    0    0  0.12510726940E+01  0.19828172798E+02 -0.24939587918E+02  0.59302193362E+02  0.50000454725E+02 0.  0.
         12    1    1    2    0    0 -0.12510726940E+01 -0.19828172798E+02  0.24939587918E+02  0.31885806638E+02  0.00000000000E+00 0. -1.
         11    1    3    3    0    0  0.10560010586E+02  0.18588781822E+02 -0.26756289150E+02  0.34248440001E+02  0.51100000000E-03 0. -1.
        -11    1    3    3    0    0 -0.14680357164E+02 -0.73753523928E+00 -0.55614385532E+01  0.15715802358E+02  0.51100000000E-03 0.  1.
         12    1    3    3    0    0  0.53714192721E+01  0.19769262155E+01  0.73781397849E+01  0.93379510035E+01  0.00000000000E+00 0. -1.
</event>
<event>
 7    1  0.7749294E-012  0.5930195E+02  0.7816164E-02  0.1266605E+00
        -11   -1    0    0    0    0  0.00000000000E+00  0.00000000000E+00  0.45593999997E+02  0.45594000000E+02  0.51100000000E-03 0.  1.
         11   -1    0    0    0    0 -0.00000000000E+00 -0.00000000000E+00 -0.45593999997E+02  0.45594000000E+02  0.51100000000E-03 0. -1.
    9900012    2    1    2    0    0  0.13007027370E+01  0.23444658628E+01  0.31773131925E+02  0.59301948816E+02  0.50000008732E+02 0.  0.
         12    1    1    2    0    0 -0.13007027370E+01 -0.23444658628E+01 -0.31773131925E+02  0.31886051184E+02  0.00000000000E+00 0. -1.
         11    1    3    3    0    0  0.10432609001E+02  0.10415797931E+02 -0.15401712925E+01  0.14822290814E+02  0.51100000000E-03 0. -1.
        -11    1    3    3    0    0 -0.75803835857E+01 -0.94460073316E+01  0.37716228995E+02  0.39613169524E+02  0.51100000000E-03 0.  1.
         12    1    3    3    0    0 -0.15515226783E+01  0.13746752632E+01 -0.44029257776E+01  0.48664884777E+01  0.00000000000E+00 0. -1.
</event>
<event>
 7    1  0.7749294E-012  0.5930193E+02  0.7816164E-02  0.1266605E+00
        -11   -1    0    0    0    0  0.00000000000E+00  0.00000000000E+00  0.45593999997E+02  0.45594000000E+02  0.51100000000E-03 0. -1.
         11   -1    0    0    0    0 -0.00000000000E+00 -0.00000000000E+00 -0.45593999997E+02  0.45594000000E+02  0.51100000000E-03 0.  1.
    9900012    2    1    2    0    0 -0.61596073929E+01  0.17386975025E+01 -0.31237116881E+02  0.59301932458E+02  0.49999978900E+02 0.  0.
         12    1    1    2    0    0  0.61596073929E+01 -0.17386975025E+01  0.31237116881E+02  0.31886067542E+02  0.00000000000E+00 0. -1.
         11    1    3    3    0    0  0.16177547387E+02  0.93391927011E+01 -0.93007234513E+01  0.20867127659E+02  0.51100000000E-03 0. -1.
        -11    1    3    3    0    0 -0.12094795665E+02 -0.80405573213E+01 -0.23928529252E+02  0.27991233568E+02  0.51100000000E-03 0.  1.
         12    1    3    3    0    0 -0.10242359115E+02  0.44006212266E+00  0.19921358222E+01  0.10443571231E+02  0.00000000000E+00 0. -1.
</event>
<event>
 7    1  0.7749294E-012  0.5930194E+02  0.7816164E-02  0.1266605E+00
        -11   -1    0    0    0    0  0.00000000000E+00  0.00000000000E+00  0.45593999997E+02  0.45594000000E+02  0.51100000000E-03 0.  1.
         11   -1    0    0    0    0 -0.00000000000E+00 -0.00000000000E+00 -0.45593999997E+02  0.45594000000E+02  0.51100000000E-03 0. -1.
    9900012    2    1    2    0    0  0.22194076202E+02  0.18586313419E+01  0.22818612756E+02  0.59301943219E+02  0.49999998525E+02 0.  0.
         12    1    1    2    0    0 -0.22194076202E+02 -0.18586313419E+01 -0.22818612756E+02  0.31886056781E+02  0.00000000000E+00 0. -1.
         11    1    3    3    0    0  0.43041591844E+01  0.15755438340E+02 -0.34543024731E+01  0.16694065694E+02  0.51100000000E-03 0. -1.
        -11    1    3    3    0    0  0.58242003715E+01 -0.16566441785E+02  0.54367075183E+01  0.18382766176E+02  0.51100000000E-03 0.  1.
        -12    1    3    3    0    0  0.12065716646E+02  0.26696347872E+01  0.20836207710E+02  0.24225111348E+02  0.00000000000E+00 0.  1.
</event>
<event>
 7    1  0.7749294E-012  0.5930195E+02  0.7816164E-02  0.1266605E+00
        -11   -1    0    0    0    0  0.00000000000E+00  0.00000000000E+00  0.45593999997E+02  0.45594000000E+02  0.51100000000E-03 0. -1.
         11   -1    0    0    0    0 -0.00000000000E+00 -0.00000000000E+00 -0.45593999997E+02  0.45594000000E+02  0.51100000000E-03 0.  1.
    9900012    2    1    2    0    0  0.29940528155E+02 -0.15685818572E+01 -0.10854692536E+02  0.59301952498E+02  0.50000015448E+02 0.  0.
         12    1    1    2    0    0 -0.29940528155E+02  0.15685818572E+01  0.10854692536E+02  0.31886047502E+02  0.00000000000E+00 0. -1.
         11    1    3    3    0    0  0.19161538621E+02  0.19604915414E+02  0.50855921529E+01  0.27881544407E+02  0.51100000000E-03 0. -1.
        -11    1    3    3    0    0  0.54107671993E+00 -0.69829517748E+01 -0.11338453924E+02  0.13327224661E+02  0.51100000000E-03 0.  1.
         12    1    3    3    0    0  0.10237912814E+02 -0.14190545496E+02 -0.46018307649E+01  0.18093183431E+02  0.00000000000E+00 0. -1.
</event>
<event>
 7    1  0.7749294E-012  0.5930195E+02  0.7816164E-02  0.1266605E+00
        -11   -1    0    0    0    0  0.00000000000E+00  0.00000000000E+00  0.45593999997E+02  0.45594000000E+02  0.51100000000E-03 0.  1.
         11   -1    0    0    0    0 -0.00000000000E+00 -0.00000000000E+00 -0.45593999997E+02  0.45594000000E+02  0.51100000000E-03 0. -1.
    9900012    2    1    2    0    0  0.17052558859E+02  0.29199284794E+01  0.26784411905E+02  0.59301945570E+02  0.50000002813E+02 0.  0.
         12    1    1    2    0    0 -0.17052558859E+02 -0.29199284794E+01 -0.26784411905E+02  0.31886054430E+02  0.00000000000E+00 0. -1.
         11    1    3    3    0    0  0.82245713165E-01 -0.92049386048E+01  0.22153725075E+02  0.23990106169E+02  0.51100000000E-03 0. -1.
        -11    1    3    3    0    0  0.12751371843E+02  0.12085692078E+02  0.15640028550E+02  0.23521733146E+02  0.51100000000E-03 0.  1.
         12    1    3    3    0    0  0.42189413036E+01  0.39175006184E-01 -0.11009341720E+02  0.11790106255E+02  0.00000000000E+00 0. -1.
</event>
<event>
 7    1  0.7749294E-012  0.5930188E+02  0.7816164E-02  0.1266605E+00
        -11   -1    0    0    0    0  0.00000000000E+00  0.00000000000E+00  0.45593999997E+02  0.45594000000E+02  0.51100000000E-03 0.  1.
         11   -1    0    0    0    0 -0.00000000000E+00 -0.00000000000E+00 -0.45593999997E+02  0.45594000000E+02  0.51100000000E-03 0. -1.
    9900012    2    1    2    0    0 -0.23356475949E+02  0.26473411638E+01  0.21545100346E+02  0.59301878679E+02  0.49999880819E+02 0.  0.
         12    1    1    2    0    0  0.23356475949E+02 -0.26473411638E+01 -0.21545100346E+02  0.31886121321E+02  0.00000000000E+00 0. -1.
         11    1    3    3    0    0  0.15576566147E+02  0.99950951598E+00  0.29460173432E+01  0.15884188700E+02  0.51100000000E-03 0. -1.
        -11    1    3    3    0    0 -0.87650534234E+01 -0.11430059898E+01  0.54976072922E+01  0.10409433722E+02  0.51100000000E-03 0.  1.
         12    1    3    3    0    0 -0.30167988673E+02  0.27908376377E+01  0.13101475710E+02  0.33008256257E+02  0.00000000000E+00 0. -1.
</event>
<event>
 7    1  0.7749294E-012  0.5930196E+02  0.7816164E-02  0.1266605E+00
        -11   -1    0    0    0    0  0.00000000000E+00  0.00000000000E+00  0.45593999997E+02  0.45594000000E+02  0.51100000000E-03 0. -1.
         11   -1    0    0    0    0 -0.00000000000E+00 -0.00000000000E+00 -0.45593999997E+02  0.45594000000E+02  0.51100000000E-03 0.  1.
    9900012    2    1    2    0    0  0.17532290923E+02  0.22113580987E+02 -0.14843448198E+02  0.59301958485E+02  0.50000026366E+02 0.  0.
         12    1    1    2    0    0 -0.17532290923E+02 -0.22113580987E+02  0.14843448198E+02  0.31886041515E+02  0.00000000000E+00 0. -1.
         11    1    3    3    0    0 -0.12558909143E+02  0.32775305399E+01 -0.99207082795E+01  0.16336733404E+02  0.51100000000E-03 0. -1.
        -11    1    3    3    0    0  0.22429401928E+02  0.20868705855E+02 -0.11440676670E+02  0.32702752756E+02  0.51100000000E-03 0.  1.
         12    1    3    3    0    0  0.76617981380E+01 -0.20326554080E+01  0.65179367511E+01  0.10262472324E+02  0.00000000000E+00 0. -1.
</event>
<event>
 7    1  0.7749294E-012  0.5930196E+02  0.7816164E-02  0.1266605E+00
        -11   -1    0    0    0    0  0.00000000000E+00  0.00000000000E+00  0.45593999997E+02  0.45594000000E+02  0.51100000000E-03 0.  1.
         11   -1    0    0    0    0 -0.00000000000E+00 -0.00000000000E+00 -0.45593999997E+02  0.45594000000E+02  0.51100000000E-03 0. -1.
    9900012    2    1    2    0    0 -0.61426964463E+01  0.42978883580E+01  0.30992175865E+02  0.59301960284E+02  0.50000029647E+02 0.  0.
         12    1    1    2    0    0  0.61426964463E+01 -0.42978883580E+01 -0.30992175865E+02  0.31886039716E+02  0.00000000000E+00 0. -1.
         11    1    3    3    0    0  0.12447801425E+02  0.17578137901E+02  0.98300850436E+00  0.21561655743E+02  0.51100000000E-03 0. -1.
        -11    1    3    3    0    0 -0.41408262778E+01 -0.29709801506E+01  0.57989629551E+01  0.77201772605E+01  0.51100000000E-03 0.  1.
         12    1    3    3    0    0 -0.14449671594E+02 -0.10309269393E+02  0.24210204405E+02  0.30020127280E+02  0.00000000000E+00 0. -1.
</event>
<event>
 7    1  0.7749294E-012  0.5930197E+02  0.7816164E-02  0.1266605E+00
        -11   -1    0    0    0    0  0.00000000000E+00  0.00000000000E+00  0.45593999997E+02  0.45594000000E+02  0.51100000000E-03 0. -1.
         11   -1    0    0    0    0 -0.00000000000E+00 -0.00000000000E+00 -0.45593999997E+02  0.45594000000E+02  0.51100000000E-03 0.  1.
    9900012    2    1    2    0    0  0.53982955676E+01 -0.25357861062E+02 -0.18562226532E+02  0.59301969100E+02  0.50000045727E+02 0.  0.
         12    1    1    2    0    0 -0.53982955676E+01  0.25357861062E+02  0.18562226532E+02  0.31886030900E+02  0.00000000000E+00 0. -1.
         11    1    3    3    0    0 -0.10786530057E+02  0.11583856168E+02 -0.53299172900E+01  0.16701585941E+02  0.51100000000E-03 0. -1.
        -11    1    3    3    0    0  0.13515345377E+02 -0.26995924864E+02 -0.95674086493E+01  0.31669856779E+02  0.51100000000E-03 0.  1.
         12    1    3    3    0    0  0.26694802475E+01 -0.99457923661E+01 -0.36649005930E+01  0.10930526380E+02  0.00000000000E+00 0. -1.
</event>
<event>
 7    1  0.7749294E-012  0.5930193E+02  0.7816164E-02  0.1266605E+00
        -11   -1    0    0    0    0  0.00000000000E+00  0.00000000000E+00  0.45593999997E+02  0.45594000000E+02  0.51100000000E-03 0.  1.
         11   -1    0    0    0    0 -0.00000000000E+00 -0.00000000000E+00 -0.45593999997E+02  0.45594000000E+02  0.51100000000E-03 0. -1.
    9900012    2    1    2    0    0  0.23476463817E+01  0.31798631870E+02  0.23821288639E+00  0.59301934427E+02  0.49999982490E+02 0.  0.
         12    1    1    2    0    0 -0.23476463817E+01 -0.31798631870E+02 -0.23821288639E+00  0.31886065573E+02  0.00000000000E+00 0. -1.
         11    1    3    3    0    0 -0.95725313954E+00  0.26550308002E+02 -0.12202996533E+02  0.29236078965E+02  0.51100000000E-03 0. -1.
        -11    1    3    3    0    0 -0.63091260796E+01 -0.84546652245E+01  0.36816179950E+01  0.11173215619E+02  0.51100000000E-03 0.  1.
        -12    1    3    3    0    0  0.96140256008E+01  0.13702989092E+02  0.87595914242E+01  0.18892639843E+02  0.00000000000E+00 0.  1.
</event>
<event>
 7    1  0.7749294E-012  0.5930194E+02  0.7816164E-02  0.1266605E+00
        -11   -1    0    0    0    0  0.00000000000E+00  0.00000000000E+00  0.45593999997E+02  0.45594000000E+02  0.51100000000E-03 0. -1.
         11   -1    0    0    0    0 -0.00000000000E+00 -0.00000000000E+00 -0.45593999997E+02  0.45594000000E+02  0.51100000000E-03 0.  1.
    9900012    2    1    2    0    0  0.53613976120E+01 -0.29468214259E+02 -0.10936213913E+02  0.59301937046E+02  0.49999987267E+02 0.  0.
         12    1    1    2    0    0 -0.53613976120E+01  0.29468214259E+02  0.10936213913E+02  0.31886062954E+02  0.00000000000E+00 0. -1.
         11    1    3    3    0    0 -0.14276594911E+02 -0.90501911110E+01  0.33407740860E+01  0.17230435083E+02  0.51100000000E-03 0. -1.
        -11    1    3    3    0    0  0.23889028296E+02 -0.14715446892E+02 -0.18679173858E+02  0.33706699430E+02  0.51100000000E-03 0.  1.
        -12    1    3    3    0    0 -0.42510357732E+01 -0.57025762552E+01  0.44021858592E+01  0.83648025339E+01  0.00000000000E+00 0.  1.
</event>
<event>
 7    1  0.7749294E-012  0.5930194E+02  0.7816164E-02  0.1266605E+00
        -11   -1    0    0    0    0  0.00000000000E+00  0.00000000000E+00  0.45593999997E+02  0.45594000000E+02  0.51100000000E-03 0. -1.
         11   -1    0    0    0    0 -0.00000000000E+00 -0.00000000000E+00 -0.45593999997E+02  0.45594000000E+02  0.51100000000E-03 0.  1.
    9900012    2    1    2    0    0 -0.27467705718E+02 -0.15550966036E+02 -0.45181562648E+01  0.59301935048E+02  0.49999983624E+02 0.  0.
         12    1    1    2    0    0  0.27467705718E+02  0.15550966036E+02  0.45181562648E+01  0.31886064952E+02  0.00000000000E+00 0. -1.
         11    1    3    3    0    0 -0.20619365423E+02 -0.24616031753E+02  0.78104209806E+01  0.33047086496E+02  0.51100000000E-03 0. -1.
        -11    1    3    3    0    0 -0.11980867551E+02  0.27923365035E+01 -0.13270425176E+02  0.18095372752E+02  0.51100000000E-03 0.  1.
         12    1    3    3    0    0  0.51325272559E+01  0.62727292130E+01  0.94184793087E+00  0.81594758004E+01  0.00000000000E+00 0. -1.
</event>
<event>
 7    1  0.7749294E-012  0.5930195E+02  0.7816164E-02  0.1266605E+00
        -11   -1    0    0    0    0  0.00000000000E+00  0.00000000000E+00  0.45593999997E+02  0.45594000000E+02  0.51100000000E-03 0. -1.
         11   -1    0    0    0    0 -0.00000000000E+00 -0.00000000000E+00 -0.45593999997E+02  0.45594000000E+02  0.51100000000E-03 0.  1.
    9900012    2    1    2    0    0  0.14329940761E+02  0.26016400404E+02  0.11598269390E+02  0.59301950621E+02  0.50000012024E+02 0.  0.
         12    1    1    2    0    0 -0.14329940761E+02 -0.26016400404E+02 -0.11598269390E+02  0.31886049379E+02  0.00000000000E+00 0. -1.
         11    1    3    3    0    0 -0.13194845478E+02 -0.22176452222E+01 -0.46071943025E+01  0.14150905876E+02  0.51100000000E-03 0. -1.
        -11    1    3    3    0    0  0.21499241438E+02  0.26975797235E+02  0.89520374156E+01  0.35637760774E+02  0.51100000000E-03 0.  1.
         12    1    3    3    0    0  0.60255448004E+01  0.12582483911E+01  0.72534262769E+01  0.95132839709E+01  0.00000000000E+00 0. -1.
</event>
<event>
 7    1  0.7749294E-012  0.5930205E+02  0.7816164E-02  0.1266604E+00
        -11   -1    0    0    0    0  0.00000000000E+00  0.00000000000E+00  0.45593999997E+02  0.45594000000E+02  0.51100000000E-03 0.  1.
         11   -1    0    0    0    0 -0.00000000000E+00 -0.00000000000E+00 -0.45593999997E+02  0.45594000000E+02  0.51100000000E-03 0. -1.
    9900012    2    1    2    0    0 -0.25157468455E+02 -0.13431999660E+02  0.14261740112E+02  0.59302045961E+02  0.50000185902E+02 0.  0.
         12    1    1    2    0    0  0.25157468455E+02  0.13431999660E+02 -0.14261740112E+02  0.31885954039E+02  0.00000000000E+00 0. -1.
         11    1    3    3    0    0 -0.31476889768E+02 -0.53092084769E+01 -0.21268388563E+00  0.31922210432E+02  0.51100000000E-03 0.  1.
        -11    1    3    3    0    0  0.88314515071E+01 -0.13750527668E+02  0.72344838208E+01  0.17872025719E+02  0.51100000000E-03 0. -1.
         12    1    3    3    0    0 -0.25120301939E+01  0.56277364851E+01  0.72399401769E+01  0.95078098112E+01  0.00000000000E+00 0. -1.
</event>
<event>
 7    1  0.7749294E-012  0.5930201E+02  0.7816164E-02  0.1266605E+00
        -11   -1    0    0    0    0  0.00000000000E+00  0.00000000000E+00  0.45593999997E+02  0.45594000000E+02  0.51100000000E-03 0. -1.
         11   -1    0    0    0    0 -0.00000000000E+00 -0.00000000000E+00 -0.45593999997E+02  0.45594000000E+02  0.51100000000E-03 0.  1.
    9900012    2    1    2    0    0  0.19126247296E+02  0.21387775856E+02 -0.13909214919E+02  0.59302006972E+02  0.50000114796E+02 0.  0.
         12    1    1    2    0    0 -0.19126247296E+02 -0.21387775856E+02  0.13909214919E+02  0.31885993028E+02  0.00000000000E+00 0. -1.
         11    1    3    3    0    0  0.51191676203E+01 -0.14737503528E+02 -0.11511426456E+02  0.19388471489E+02  0.51100000000E-03 0. -1.
        -11    1    3    3    0    0  0.58166135594E+01  0.87458252681E+01  0.27911901488E+01  0.10867989493E+02  0.51100000000E-03 0.  1.
         12    1    3    3    0    0  0.81904661168E+01  0.27379454115E+02 -0.51889786117E+01  0.29045545990E+02  0.00000000000E+00 0. -1.
</event>
<event>
 7    1  0.7749294E-012  0.5930191E+02  0.7816164E-02  0.1266605E+00
        -11   -1    0    0    0    0  0.00000000000E+00  0.00000000000E+00  0.45593999997E+02  0.45594000000E+02  0.51100000000E-03 0.  1.
         11   -1    0    0    0    0 -0.00000000000E+00 -0.00000000000E+00 -0.45593999997E+02  0.45594000000E+02  0.51100000000E-03 0. -1.
    9900012    2    1    2    0    0  0.74380076275E+01  0.59001137183E+01  0.30439894449E+02  0.59301914109E+02  0.49999945435E+02 0.  0.
         12    1    1    2    0    0 -0.74380076275E+01 -0.59001137183E+01 -0.30439894449E+02  0.31886085891E+02  0.00000000000E+00 0. -1.
         11    1    3    3    0    0  0.10873643264E+02  0.17869063549E+00  0.53855506567E+01  0.12135575978E+02  0.51100000000E-03 0. -1.
        -11    1    3    3    0    0 -0.46614751792E+01  0.13849550864E+02  0.32777462572E+02  0.35887344049E+02  0.51100000000E-03 0.  1.
        -12    1    3    3    0    0  0.12258395423E+01 -0.81281277817E+01 -0.77231187792E+01  0.11278994082E+02  0.00000000000E+00 0.  1.
</event>
<event>
 7    1  0.7749294E-012  0.5930194E+02  0.7816164E-02  0.1266605E+00
        -11   -1    0    0    0    0  0.00000000000E+00  0.00000000000E+00  0.45593999997E+02  0.45594000000E+02  0.51100000000E-03 0.  1.
         11   -1    0    0    0    0 -0.00000000000E+00 -0.00000000000E+00 -0.45593999997E+02  0.45594000000E+02  0.51100000000E-03 0. -1.
    9900012    2    1    2    0    0  0.11443983307E+02  0.91981184053E+01  0.28304603974E+02  0.59301941255E+02  0.49999994944E+02 0.  0.
         12    1    1    2    0    0 -0.11443983307E+02 -0.91981184053E+01 -0.28304603974E+02  0.31886058745E+02  0.00000000000E+00 0. -1.
         11    1    3    3    0    0  0.19915447584E+02  0.11052943407E+02  0.24460548418E+02  0.33423211091E+02  0.51100000000E-03 0.  1.
        -11    1    3    3    0    0 -0.75639661011E+01 -0.43015164462E+01 -0.91490069539E+01  0.12626201148E+02  0.51100000000E-03 0. -1.
         12    1    3    3    0    0 -0.90749817513E+00  0.24466914441E+01  0.12993062510E+02  0.13252529017E+02  0.00000000000E+00 0. -1.
</event>
<event>
 7    1  0.7749294E-012  0.5930194E+02  0.7816164E-02  0.1266605E+00
        -11   -1    0    0    0    0  0.00000000000E+00  0.00000000000E+00  0.45593999997E+02  0.45594000000E+02  0.51100000000E-03 0.  1.
         11   -1    0    0    0    0 -0.00000000000E+00 -0.00000000000E+00 -0.45593999997E+02  0.45594000000E+02  0.51100000000E-03 0. -1.
    9900012    2    1    2    0    0  0.10558696864E+02 -0.12425316627E+02  0.27401573518E+02  0.59301940287E+02  0.49999993178E+02 0.  0.
         12    1    1    2    0    0 -0.10558696864E+02  0.12425316627E+02 -0.27401573518E+02  0.31886059713E+02  0.00000000000E+00 0. -1.
         11    1    3    3    0    0  0.17038448059E+02 -0.20602192723E+02  0.21901555564E+02  0.34560630689E+02  0.51100000000E-03 0.  1.
        -11    1    3    3    0    0  0.34616227852E+01  0.11952048821E+02  0.65387524811E+01  0.14056656345E+02  0.51100000000E-03 0. -1.
         12    1    3    3    0    0 -0.99413739799E+01 -0.37751727254E+01 -0.10387345275E+01  0.10684653253E+02  0.00000000000E+00 0. -1.
</event>
<event>
 7    1  0.7749294E-012  0.5930196E+02  0.7816164E-02  0.1266605E+00
        -11   -1    0    0    0    0  0.00000000000E+00  0.00000000000E+00  0.45593999997E+02  0.45594000000E+02  0.51100000000E-03 0. -1.
         11   -1    0    0    0    0 -0.00000000000E+00 -0.00000000000E+00 -0.45593999997E+02  0.45594000000E+02  0.51100000000E-03 0.  1.
    9900012    2    1    2    0    0  0.89087043623E+01  0.30267735919E+02 -0.46064038407E+01  0.59301955914E+02  0.50000021678E+02 0.  0.
         12    1    1    2    0    0 -0.89087043623E+01 -0.30267735919E+02  0.46064038407E+01  0.31886044086E+02  0.00000000000E+00 0. -1.
         11    1    3    3    0    0 -0.10974645466E+02  0.74290676956E+00 -0.57538218070E+01  0.12413751214E+02  0.51100000000E-03 0. -1.
        -11    1    3    3    0    0  0.19894650394E+02  0.18356116216E+02  0.13488390106E+02  0.30243689999E+02  0.51100000000E-03 0.  1.
        -12    1    3    3    0    0 -0.11300566005E-01  0.11168712933E+02 -0.12340972139E+02  0.16644514701E+02  0.00000000000E+00 0.  1.
</event>
<event>
 7    1  0.7749294E-012  0.5930195E+02  0.7816164E-02  0.1266605E+00
        -11   -1    0    0    0    0  0.00000000000E+00  0.00000000000E+00  0.45593999997E+02  0.45594000000E+02  0.51100000000E-03 0.  1.
         11   -1    0    0    0    0 -0.00000000000E+00 -0.00000000000E+00 -0.45593999997E+02  0.45594000000E+02  0.51100000000E-03 0. -1.
    9900012    2    1    2    0    0 -0.64314110773E+01  0.12559630667E+02  0.28593926500E+02  0.59301952838E+02  0.50000016068E+02 0.  0.
         12    1    1    2    0    0  0.64314110773E+01 -0.12559630667E+02 -0.28593926500E+02  0.31886047162E+02  0.00000000000E+00 0. -1.
         11    1    3    3    0    0 -0.71442684635E+01 -0.30201501266E+01  0.13440620432E+02  0.15518123486E+02  0.51100000000E-03 0. -1.
        -11    1    3    3    0    0  0.21415760280E+01  0.28025756229E+02  0.13385539545E+02  0.31132009721E+02  0.51100000000E-03 0.  1.
        -12    1    3    3    0    0 -0.14287186418E+01 -0.12445975436E+02  0.17677665224E+01  0.12651819631E+02  0.00000000000E+00 0.  1.
</event>
<event>
 7    1  0.7749294E-012  0.5930196E+02  0.7816164E-02  0.1266605E+00
        -11   -1    0    0    0    0  0.00000000000E+00  0.00000000000E+00  0.45593999997E+02  0.45594000000E+02  0.51100000000E-03 0.  1.
         11   -1    0    0    0    0 -0.00000000000E+00 -0.00000000000E+00 -0.45593999997E+02  0.45594000000E+02  0.51100000000E-03 0. -1.
    9900012    2    1    2    0    0 -0.70456652923E+00  0.21213187856E+02  0.23795463342E+02  0.59301955582E+02  0.50000021072E+02 0.  0.
         12    1    1    2    0    0  0.70456652923E+00 -0.21213187856E+02 -0.23795463342E+02  0.31886044418E+02  0.00000000000E+00 0. -1.
         11    1    3    3    0    0 -0.88412484998E+00  0.72564224642E+01 -0.12814059429E+02  0.14752540901E+02  0.51100000000E-03 0. -1.
        -11    1    3    3    0    0 -0.14482118006E+00 -0.47368889021E+01  0.16163203385E+02  0.16843640746E+02  0.51100000000E-03 0.  1.
         12    1    3    3    0    0  0.32437950082E+00  0.18693654294E+02  0.20446319386E+02  0.27705773935E+02  0.00000000000E+00 0. -1.
</event>
<event>
 7    1  0.7749294E-012  0.5930193E+02  0.7816164E-02  0.1266605E+00
        -11   -1    0    0    0    0  0.00000000000E+00  0.00000000000E+00  0.45593999997E+02  0.45594000000E+02  0.51100000000E-03 0.  1.
         11   -1    0    0    0    0 -0.00000000000E+00 -0.00000000000E+00 -0.45593999997E+02  0.45594000000E+02  0.51100000000E-03 0. -1.
    9900012    2    1    2    0    0  0.22272673429E+02  0.59468963508E+01 -0.22029161887E+02  0.59301928882E+02  0.49999972378E+02 0.  0.
         12    1    1    2    0    0 -0.22272673429E+02 -0.59468963508E+01  0.22029161887E+02  0.31886071118E+02  0.00000000000E+00 0. -1.
         11    1    3    3    0    0  0.10968721788E+02  0.64641375264E+01  0.13707618358E+02  0.18708199618E+02  0.51100000000E-03 0. -1.
        -11    1    3    3    0    0  0.11090736209E+02  0.56920593366E+01 -0.18840222412E+02  0.22591103336E+02  0.51100000000E-03 0.  1.
         12    1    3    3    0    0  0.21321543146E+00 -0.62093005121E+01 -0.16896557834E+02  0.18002625928E+02  0.00000000000E+00 0. -1.
</event>
<event>
 7    1  0.7749294E-012  0.5930193E+02  0.7816164E-02  0.1266605E+00
        -11   -1    0    0    0    0  0.00000000000E+00  0.00000000000E+00  0.45593999997E+02  0.45594000000E+02  0.51100000000E-03 0.  1.
         11   -1    0    0    0    0 -0.00000000000E+00 -0.00000000000E+00 -0.45593999997E+02  0.45594000000E+02  0.51100000000E-03 0. -1.
    9900012    2    1    2    0    0  0.22425017270E+02 -0.18820279842E+02  0.12634768790E+02  0.59301925998E+02  0.49999967118E+02 0.  0.
         12    1    1    2    0    0 -0.22425017270E+02  0.18820279842E+02 -0.12634768790E+02  0.31886074002E+02  0.00000000000E+00 0. -1.
         11    1    3    3    0    0  0.11112806454E+02 -0.99567334055E+01  0.71893224123E+00  0.14938134798E+02  0.51100000000E-03 0. -1.
        -11    1    3    3    0    0  0.17664398830E+01 -0.48486902816E+01  0.26209683790E+02  0.26712873899E+02  0.51100000000E-03 0.  1.
        -12    1    3    3    0    0  0.95457709322E+01 -0.40148561550E+01 -0.14293847241E+02  0.17650917302E+02  0.00000000000E+00 0.  1.
</event>
<event>
 7    1  0.7749294E-012  0.5930183E+02  0.7816164E-02  0.1266605E+00
        -11   -1    0    0    0    0  0.00000000000E+00  0.00000000000E+00  0.45593999997E+02  0.45594000000E+02  0.51100000000E-03 0.  1.
         11   -1    0    0    0    0 -0.00000000000E+00 -0.00000000000E+00 -0.45593999997E+02  0.45594000000E+02  0.51100000000E-03 0. -1.
    9900012    2    1    2    0    0  0.70537740002E+01  0.64189991586E+00  0.31089546768E+02  0.59301832444E+02  0.49999796499E+02 0.  0.
         12    1    1    2    0    0 -0.70537740002E+01 -0.64189991586E+00 -0.31089546768E+02  0.31886167556E+02  0.00000000000E+00 0. -1.
         11    1    3    3    0    0 -0.40677664256E+01  0.85218147400E+01 -0.76850540485E+01  0.12174896556E+02  0.51100000000E-03 0. -1.
        -11    1    3    3    0    0  0.11296322607E+02 -0.13105951167E+02  0.15363308105E+02  0.23138800674E+02  0.51100000000E-03 0.  1.
         12    1    3    3    0    0 -0.17478218123E+00  0.52260363429E+01  0.23411292711E+02  0.23988135215E+02  0.00000000000E+00 0. -1.
</event>
<event>
 7    1  0.7749294E-012  0.5930194E+02  0.7816164E-02  0.1266605E+00
        -11   -1    0    0    0    0  0.00000000000E+00  0.00000000000E+00  0.45593999997E+02  0.45594000000E+02  0.51100000000E-03 0.  1.
         11   -1    0    0    0    0 -0.00000000000E+00 -0.00000000000E+00 -0.45593999997E+02  0.45594000000E+02  0.51100000000E-03 0. -1.
    9900012    2    1    2    0    0 -0.21086888972E+02  0.11092995855E+02  0.21189838139E+02  0.59301942171E+02  0.49999996613E+02 0.  0.
         12    1    1    2    0    0  0.21086888972E+02 -0.11092995855E+02 -0.21189838139E+02  0.31886057829E+02  0.00000000000E+00 0. -1.
         11    1    3    3    0    0  0.33800250641E+01 -0.46885639915E+01 -0.72771420325E+01  0.92932232384E+01  0.51100000000E-03 0. -1.
        -11    1    3    3    0    0 -0.30467340228E+02  0.17055592725E+02  0.25186571170E+02  0.43052472999E+02  0.51100000000E-03 0.  1.
        -12    1    3    3    0    0  0.60004261924E+01 -0.12740328783E+01  0.32804090011E+01  0.69562459330E+01  0.00000000000E+00 0.  1.
</event>
<event>
 7    1  0.7749294E-012  0.5930193E+02  0.7816164E-02  0.1266605E+00
        -11   -1    0    0    0    0  0.00000000000E+00  0.00000000000E+00  0.45593999997E+02  0.45594000000E+02  0.51100000000E-03 0. -1.
         11   -1    0    0    0    0 -0.00000000000E+00 -0.00000000000E+00 -0.45593999997E+02  0.45594000000E+02  0.51100000000E-03 0.  1.
    9900012    2    1    2    0    0 -0.30258184520E+02  0.90518497139E+01 -0.43849685700E+01  0.59301926816E+02  0.49999968611E+02 0.  0.
         12    1    1    2    0    0  0.30258184520E+02 -0.90518497139E+01  0.43849685700E+01  0.31886073184E+02  0.00000000000E+00 0. -1.
         11    1    3    3    0    0 -0.28152250826E+02 -0.61688946777E+01 -0.10595487377E+02  0.30706169431E+02  0.51100000000E-03 0. -1.
        -11    1    3    3    0    0  0.83590720720E+01  0.11217883224E+02  0.95093982828E+01  0.16915780972E+02  0.51100000000E-03 0.  1.
        -12    1    3    3    0    0 -0.10465005766E+02  0.40028611673E+01 -0.32988794757E+01  0.11679976413E+02  0.00000000000E+00 0.  1.
</event>
<event>
 7    1  0.7749294E-012  0.5930197E+02  0.7816164E-02  0.1266605E+00
        -11   -1    0    0    0    0  0.00000000000E+00  0.00000000000E+00  0.45593999997E+02  0.45594000000E+02  0.51100000000E-03 0. -1.
         11   -1    0    0    0    0 -0.00000000000E+00 -0.00000000000E+00 -0.45593999997E+02  0.45594000000E+02  0.51100000000E-03 0.  1.
    9900012    2    1    2    0    0 -0.31745941502E+02  0.51488962708E+00  0.29409714222E+01  0.59301965030E+02  0.50000038304E+02 0.  0.
         12    1    1    2    0    0  0.31745941502E+02 -0.51488962708E+00 -0.29409714222E+01  0.31886034970E+02  0.00000000000E+00 0. -1.
         11    1    3    3    0    0 -0.56006522032E+01  0.47805349639E+01 -0.85162895675E+01  0.11258241777E+02  0.51100000000E-03 0. -1.
        -11    1    3    3    0    0 -0.99159009356E+01 -0.21058950011E+02  0.65350394347E+01  0.24176666594E+02  0.51100000000E-03 0.  1.
        -12    1    3    3    0    0 -0.16229388363E+02  0.16793304674E+02  0.49222215549E+01  0.23867056659E+02  0.00000000000E+00 0.  1.
</event>
<event>
 7    1  0.7749294E-012  0.5930189E+02  0.7816164E-02  0.1266605E+00
        -11   -1    0    0    0    0  0.00000000000E+00  0.00000000000E+00  0.45593999997E+02  0.45594000000E+02  0.51100000000E-03 0.  1.
         11   -1    0    0    0    0 -0.00000000000E+00 -0.00000000000E+00 -0.45593999997E+02  0.45594000000E+02  0.51100000000E-03 0. -1.
    9900012    2    1    2    0    0  0.19075686574E+02 -0.22174392294E+01  0.25454377116E+02  0.59301887515E+02  0.49999896935E+02 0.  0.
         12    1    1    2    0    0 -0.19075686574E+02  0.22174392294E+01 -0.25454377116E+02  0.31886112485E+02  0.00000000000E+00 0. -1.
         11    1    3    3    0    0  0.21605513866E+02  0.74677515976E+01  0.46392451452E+01  0.23325696970E+02  0.51100000000E-03 0. -1.
        -11    1    3    3    0    0 -0.13608884397E+02 -0.11817043389E+02  0.11912497798E+02  0.21604440586E+02  0.51100000000E-03 0.  1.
         12    1    3    3    0    0  0.11079057105E+02  0.21318525620E+01  0.89026341728E+01  0.14371749959E+02  0.00000000000E+00 0. -1.
</event>
<event>
 7    1  0.7749294E-012  0.5930194E+02  0.7816164E-02  0.1266605E+00
        -11   -1    0    0    0    0  0.00000000000E+00  0.00000000000E+00  0.45593999997E+02  0.45594000000E+02  0.51100000000E-03 0. -1.
         11   -1    0    0    0    0 -0.00000000000E+00 -0.00000000000E+00 -0.45593999997E+02  0.45594000000E+02  0.51100000000E-03 0.  1.
    9900012    2    1    2    0    0  0.13695729613E+02  0.14679369073E+02 -0.24772243109E+02  0.59301938553E+02  0.49999990015E+02 0.  0.
         12    1    1    2    0    0 -0.13695729613E+02 -0.14679369073E+02  0.24772243109E+02  0.31886061447E+02  0.00000000000E+00 0. -1.
         11    1    3    3    0    0  0.18557769860E+01 -0.59342245441E+00 -0.51427048696E+00  0.20150763822E+01  0.51100000000E-03 0. -1.
        -11    1    3    3    0    0 -0.15263913419E+02  0.18165580385E+02 -0.59831737480E+01  0.24469853534E+02  0.51100000000E-03 0.  1.
        -12    1    3    3    0    0  0.27103866046E+02 -0.28927888584E+01 -0.18274798874E+02  0.32817008637E+02  0.00000000000E+00 0.  1.
</event>
<event>
 7    1  0.7749294E-012  0.5930210E+02  0.7816164E-02  0.1266604E+00
        -11   -1    0    0    0    0  0.00000000000E+00  0.00000000000E+00  0.45593999997E+02  0.45594000000E+02  0.51100000000E-03 0.  1.
         11   -1    0    0    0    0 -0.00000000000E+00 -0.00000000000E+00 -0.45593999997E+02  0.45594000000E+02  0.51100000000E-03 0. -1.
    9900012    2    1    2    0    0  0.71096405757E+01  0.29615689847E+02  0.94379313602E+01  0.59302099941E+02  0.50000284348E+02 0.  0.
         12    1    1    2    0    0 -0.71096405757E+01 -0.29615689847E+02 -0.94379313602E+01  0.31885900059E+02  0.00000000000E+00 0. -1.
         11    1    3    3    0    0 -0.71940918255E+01  0.17185487009E+02 -0.13314779921E+02  0.22899329369E+02  0.51100000000E-03 0. -1.
        -11    1    3    3    0    0  0.81223204235E+01  0.17982181105E+02  0.18591004388E+02  0.27110078767E+02  0.51100000000E-03 0.  1.
         12    1    3    3    0    0  0.61814119776E+01 -0.55519782672E+01  0.41617068941E+01  0.92926918053E+01  0.00000000000E+00 0. -1.
</event>
<event>
 7    1  0.7749294E-012  0.5930192E+02  0.7816164E-02  0.1266605E+00
        -11   -1    0    0    0    0  0.00000000000E+00  0.00000000000E+00  0.45593999997E+02  0.45594000000E+02  0.51100000000E-03 0. -1.
         11   -1    0    0    0    0 -0.00000000000E+00 -0.00000000000E+00 -0.45593999997E+02  0.45594000000E+02  0.51100000000E-03 0.  1.
    9900012    2    1    2    0    0 -0.68458503985E+01 -0.17947409133E+02 -0.25450867037E+02  0.59301924745E+02  0.49999964833E+02 0.  0.
         12    1    1    2    0    0  0.68458503985E+01  0.17947409133E+02  0.25450867037E+02  0.31886075255E+02  0.00000000000E+00 0. -1.
         11    1    3    3    0    0  0.31282034164E+01  0.34762933762E+01  0.93999481399E+00  0.47701009175E+01  0.51100000000E-03 0. -1.
        -11    1    3    3    0    0 -0.22099393571E+02 -0.22098439280E+02 -0.76084890477E+01  0.32165405651E+02  0.51100000000E-03 0.  1.
        -12    1    3    3    0    0  0.12125339756E+02  0.67473677132E+00 -0.18782372803E+02  0.22366418176E+02  0.00000000000E+00 0.  1.
</event>
<event>
 7    1  0.7749294E-012  0.5930191E+02  0.7816164E-02  0.1266605E+00
        -11   -1    0    0    0    0  0.00000000000E+00  0.00000000000E+00  0.45593999997E+02  0.45594000000E+02  0.51100000000E-03 0. -1.
         11   -1    0    0    0    0 -0.00000000000E+00 -0.00000000000E+00 -0.45593999997E+02  0.45594000000E+02  0.51100000000E-03 0.  1.
    9900012    2    1    2    0    0 -0.15529459730E+02  0.22492415465E+02  0.16421014672E+02  0.59301912190E+02  0.49999941935E+02 0.  0.
         12    1    1    2    0    0  0.15529459730E+02 -0.22492415465E+02 -0.16421014672E+02  0.31886087810E+02  0.00000000000E+00 0. -1.
         11    1    3    3    0    0 -0.10639831786E+02 -0.77099220486E+01  0.64181150538E+01  0.14623307408E+02  0.51100000000E-03 0. -1.
        -11    1    3    3    0    0  0.70915531866E+01  0.12447613250E+02 -0.82546953220E+01  0.16534001250E+02  0.51100000000E-03 0.  1.
        -12    1    3    3    0    0 -0.11981181130E+02  0.17754724264E+02  0.18257594940E+02  0.28144603532E+02  0.00000000000E+00 0.  1.
</event>
<event>
 7    1  0.7749294E-012  0.5930194E+02  0.7816164E-02  0.1266605E+00
        -11   -1    0    0    0    0  0.00000000000E+00  0.00000000000E+00  0.45593999997E+02  0.45594000000E+02  0.51100000000E-03 0.  1.
         11   -1    0    0    0    0 -0.00000000000E+00 -0.00000000000E+00 -0.45593999997E+02  0.45594000000E+02  0.51100000000E-03 0. -1.
    9900012    2    1    2    0    0 -0.13774767729E+02 -0.28617961226E+02  0.28264163147E+01  0.59301944115E+02  0.50000000159E+02 0.  0.
         12    1    1    2    0    0  0.13774767729E+02  0.28617961226E+02 -0.28264163147E+01  0.31886055885E+02  0.00000000000E+00 0. -1.
         11    1    3    3    0    0 -0.82642801004E+01 -0.79574619403E+00 -0.99396712421E+01  0.12951007769E+02  0.51100000000E-03 0. -1.
        -11    1    3    3    0    0  0.14502276424E+02 -0.90157204170E+01  0.42317561334E+01  0.17592810928E+02  0.51100000000E-03 0.  1.
        -12    1    3    3    0    0 -0.20012764052E+02 -0.18806494615E+02  0.85343314234E+01  0.28758125418E+02  0.00000000000E+00 0.  1.
</event>
<event>
 7    1  0.7749294E-012  0.5930195E+02  0.7816164E-02  0.1266605E+00
        -11   -1    0    0    0    0  0.00000000000E+00  0.00000000000E+00  0.45593999997E+02  0.45594000000E+02  0.51100000000E-03 0.  1.
         11   -1    0    0    0    0 -0.00000000000E+00 -0.00000000000E+00 -0.45593999997E+02  0.45594000000E+02  0.51100000000E-03 0. -1.
    9900012    2    1    2    0    0 -0.29015808568E+02  0.33187336019E+01 -0.12797998881E+02  0.59301954229E+02  0.50000018604E+02 0.  0.
         12    1    1    2    0    0  0.29015808568E+02 -0.33187336019E+01  0.12797998881E+02  0.31886045771E+02  0.00000000000E+00 0. -1.
         11    1    3    3    0    0 -0.32637874943E+02 -0.12527390520E+02 -0.18298302261E+01  0.35007351699E+02  0.51100000000E-03 0. -1.
        -11    1    3    3    0    0  0.48038226903E+01  0.10011023923E+02  0.77242930399E+00  0.11130766358E+02  0.51100000000E-03 0.  1.
         12    1    3    3    0    0 -0.11817563152E+01  0.58351001986E+01 -0.11740597959E+02  0.13163836171E+02  0.00000000000E+00 0. -1.
</event>
<event>
 7    1  0.7749294E-012  0.5930190E+02  0.7816164E-02  0.1266605E+00
        -11   -1    0    0    0    0  0.00000000000E+00  0.00000000000E+00  0.45593999997E+02  0.45594000000E+02  0.51100000000E-03 0.  1.
         11   -1    0    0    0    0 -0.00000000000E+00 -0.00000000000E+00 -0.45593999997E+02  0.45594000000E+02  0.51100000000E-03 0. -1.
    9900012    2    1    2    0    0  0.44724447262E+00 -0.17219135307E+02  0.26833275789E+02  0.59301900554E+02  0.49999920714E+02 0.  0.
         12    1    1    2    0    0 -0.44724447262E+00  0.17219135307E+02 -0.26833275789E+02  0.31886099446E+02  0.00000000000E+00 0. -1.
         11    1    3    3    0    0 -0.74573469351E+01  0.89511288476E+01 -0.37163265450E+00  0.11656450663E+02  0.51100000000E-03 0. -1.
        -11    1    3    3    0    0 -0.67244916807E+01 -0.22656527419E+02  0.13093496122E+02  0.27018080317E+02  0.51100000000E-03 0.  1.
        -12    1    3    3    0    0  0.14629083088E+02 -0.35137367355E+01  0.14111412322E+02  0.20627369575E+02  0.00000000000E+00 0.  1.
</event>
<event>
 7    1  0.7749294E-012  0.5930194E+02  0.7816164E-02  0.1266605E+00
        -11   -1    0    0    0    0  0.00000000000E+00  0.00000000000E+00  0.45593999997E+02  0.45594000000E+02  0.51100000000E-03 0.  1.
         11   -1    0    0    0    0 -0.00000000000E+00 -0.00000000000E+00 -0.45593999997E+02  0.45594000000E+02  0.51100000000E-03 0. -1.
    9900012    2    1    2    0    0 -0.16857942165E+02  0.25570741287E+02  0.88694731914E+01  0.59301943820E+02  0.49999999622E+02 0.  0.
         12    1    1    2    0    0  0.16857942165E+02 -0.25570741287E+02 -0.88694731914E+01  0.31886056180E+02  0.00000000000E+00 0. -1.
         11    1    3    3    0    0  0.81100086480E+00 -0.52017361402E+00  0.20403884490E+02  0.20426620022E+02  0.51100000000E-03 0. -1.
        -11    1    3    3    0    0 -0.77120830869E+01  0.19496477514E+02  0.17168588694E+01  0.21036550706E+02  0.51100000000E-03 0.  1.
         12    1    3    3    0    0 -0.99568599432E+01  0.65944373870E+01 -0.13251270168E+02  0.17838773092E+02  0.00000000000E+00 0. -1.
</event>
<event>
 7    1  0.7749294E-012  0.5930195E+02  0.7816164E-02  0.1266605E+00
        -11   -1    0    0    0    0  0.00000000000E+00  0.00000000000E+00  0.45593999997E+02  0.45594000000E+02  0.51100000000E-03 0. -1.
         11   -1    0    0    0    0 -0.00000000000E+00 -0.00000000000E+00 -0.45593999997E+02  0.45594000000E+02  0.51100000000E-03 0.  1.
    9900012    2    1    2    0    0  0.72733531587E+01  0.22211029353E+01 -0.30965870956E+02  0.59301950880E+02  0.50000012496E+02 0.  0.
         12    1    1    2    0    0 -0.72733531587E+01 -0.22211029353E+01  0.30965870956E+02  0.31886049120E+02  0.00000000000E+00 0. -1.
         11    1    3    3    0    0 -0.48711528451E+01  0.74274462796E+01 -0.55833821198E+01  0.10491389061E+02  0.51100000000E-03 0. -1.
        -11    1    3    3    0    0  0.18979831517E+02 -0.61280141007E+01  0.24881371402E+01  0.20099188738E+02  0.51100000000E-03 0.  1.
        -12    1    3    3    0    0 -0.68353255131E+01  0.92167075636E+00 -0.27870625977E+02  0.28711373081E+02  0.00000000000E+00 0.  1.
</event>
<event>
 7    1  0.7749294E-012  0.5930197E+02  0.7816164E-02  0.1266605E+00
        -11   -1    0    0    0    0  0.00000000000E+00  0.00000000000E+00  0.45593999997E+02  0.45594000000E+02  0.51100000000E-03 0.  1.
         11   -1    0    0    0    0 -0.00000000000E+00 -0.00000000000E+00 -0.45593999997E+02  0.45594000000E+02  0.51100000000E-03 0. -1.
    9900012    2    1    2    0    0 -0.21795393938E+02 -0.47816516890E+01  0.22777524927E+02  0.59301968081E+02  0.50000043867E+02 0.  0.
         12    1    1    2    0    0  0.21795393938E+02  0.47816516890E+01 -0.22777524927E+02  0.31886031919E+02  0.00000000000E+00 0. -1.
         11    1    3    3    0    0  0.11772570314E+02  0.19734215759E+01  0.65756208519E+00  0.11954923365E+02  0.51100000000E-03 0. -1.
        -11    1    3    3    0    0 -0.32615829960E+02 -0.98037817284E+01  0.11018777735E+02  0.35795529933E+02  0.51100000000E-03 0.  1.
         12    1    3    3    0    0 -0.95213429148E+00  0.30487084635E+01  0.11101185106E+02  0.11551514782E+02  0.00000000000E+00 0. -1.
</event>
<event>
 7    1  0.7749294E-012  0.5930192E+02  0.7816164E-02  0.1266605E+00
        -11   -1    0    0    0    0  0.00000000000E+00  0.00000000000E+00  0.45593999997E+02  0.45594000000E+02  0.51100000000E-03 0.  1.
         11   -1    0    0    0    0 -0.00000000000E+00 -0.00000000000E+00 -0.45593999997E+02  0.45594000000E+02  0.51100000000E-03 0. -1.
    9900012    2    1    2    0    0  0.22545186761E+02 -0.20298067988E+02  0.98196146717E+01  0.59301924004E+02  0.49999963481E+02 0.  0.
         12    1    1    2    0    0 -0.22545186761E+02  0.20298067988E+02 -0.98196146717E+01  0.31886075996E+02  0.00000000000E+00 0. -1.
         11    1    3    3    0    0 -0.10924805390E+02 -0.51416734459E+01  0.11890364654E+02  0.16946060029E+02  0.51100000000E-03 0. -1.
        -11    1    3    3    0    0  0.10446486302E+02  0.19078399311E+01  0.64915930194E+01  0.12446272914E+02  0.51100000000E-03 0.  1.
         12    1    3    3    0    0  0.23023505850E+02 -0.17064234473E+02 -0.85623430018E+01  0.29909591061E+02  0.00000000000E+00 0. -1.
</event>
<event>
 7    1  0.7749294E-012  0.5930195E+02  0.7816164E-02  0.1266605E+00
        -11   -1    0    0    0    0  0.00000000000E+00  0.00000000000E+00  0.45593999997E+02  0.45594000000E+02  0.51100000000E-03 0.  1.
         11   -1    0    0    0    0 -0.00000000000E+00 -0.00000000000E+00 -0.45593999997E+02  0.45594000000E+02  0.51100000000E-03 0. -1.
    9900012    2    1    2    0    0  0.78387183653E+01 -0.80327573478E+01  0.29845427571E+02  0.59301949082E+02  0.50000009218E+02 0.  0.
         12    1    1    2    0    0 -0.78387183653E+01  0.80327573478E+01 -0.29845427571E+02  0.31886050918E+02  0.00000000000E+00 0. -1.
         11    1    3    3    0    0  0.18060706521E+02 -0.11102998414E+02  0.54113525164E+00  0.21207510968E+02  0.51100000000E-03 0. -1.
        -11    1    3    3    0    0 -0.64185062060E+01  0.82123992556E+01  0.29905917242E+02  0.31670248022E+02  0.51100000000E-03 0.  1.
         12    1    3    3    0    0 -0.38034819501E+01 -0.51421581890E+01 -0.60162492253E+00  0.64241900916E+01  0.00000000000E+00 0. -1.
</event>
<event>
 7    1  0.7749294E-012  0.5930198E+02  0.7816164E-02  0.1266605E+00
        -11   -1    0    0    0    0  0.00000000000E+00  0.00000000000E+00  0.45593999997E+02  0.45594000000E+02  0.51100000000E-03 0.  1.
         11   -1    0    0    0    0 -0.00000000000E+00 -0.00000000000E+00 -0.45593999997E+02  0.45594000000E+02  0.51100000000E-03 0. -1.
    9900012    2    1    2    0    0  0.11838190562E+02  0.14975125546E+02  0.25540573658E+02  0.59301983571E+02  0.50000072118E+02 0.  0.
         12    1    1    2    0    0 -0.11838190562E+02 -0.14975125546E+02 -0.25540573658E+02  0.31886016429E+02  0.00000000000E+00 0. -1.
         11    1    3    3    0    0  0.91819167733E+00 -0.14144049277E+02  0.18653650344E+02  0.23427673323E+02  0.51100000000E-03 0. -1.
        -11    1    3    3    0    0  0.78116882172E+01  0.29785955040E+01 -0.93415905766E+00  0.84123217595E+01  0.51100000000E-03 0.  1.
         12    1    3    3    0    0  0.31083106676E+01  0.26140579319E+02  0.78210823722E+01  0.27461988489E+02  0.00000000000E+00 0. -1.
</event>
<event>
 7    1  0.7749294E-012  0.5930194E+02  0.7816164E-02  0.1266605E+00
        -11   -1    0    0    0    0  0.00000000000E+00  0.00000000000E+00  0.45593999997E+02  0.45594000000E+02  0.51100000000E-03 0. -1.
         11   -1    0    0    0    0 -0.00000000000E+00 -0.00000000000E+00 -0.45593999997E+02  0.45594000000E+02  0.51100000000E-03 0.  1.
    9900012    2    1    2    0    0  0.22818948771E+02 -0.17579215871E+02 -0.13674349300E+02  0.59301935921E+02  0.49999985216E+02 0.  0.
         12    1    1    2    0    0 -0.22818948771E+02  0.17579215871E+02  0.13674349300E+02  0.31886064079E+02  0.00000000000E+00 0. -1.
         11    1    3    3    0    0 -0.99535500052E+01 -0.14655993658E+02  0.82616636027E+01  0.19548053447E+02  0.51100000000E-03 0. -1.
        -11    1    3    3    0    0  0.19487902760E+02 -0.62362097628E+00 -0.10948359559E+02  0.22361436322E+02  0.51100000000E-03 0.  1.
         12    1    3    3    0    0  0.13284596016E+02 -0.22996012369E+01 -0.10987653344E+02  0.17392446152E+02  0.00000000000E+00 0. -1.
</event>
<event>
 7    1  0.7749294E-012  0.5930193E+02  0.7816164E-02  0.1266605E+00
        -11   -1    0    0    0    0  0.00000000000E+00  0.00000000000E+00  0.45593999997E+02  0.45594000000E+02  0.51100000000E-03 0.  1.
         11   -1    0    0    0    0 -0.00000000000E+00 -0.00000000000E+00 -0.45593999997E+02  0.45594000000E+02  0.51100000000E-03 0. -1.
    9900012    2    1    2    0    0 -0.18057352162E+02 -0.28086086687E+01  0.26129778455E+02  0.59301928246E+02  0.49999971219E+02 0.  0.
         12    1    1    2    0    0  0.18057352162E+02  0.28086086687E+01 -0.26129778455E+02  0.31886071754E+02  0.00000000000E+00 0. -1.
         11    1    3    3    0    0  0.91174561532E+01  0.11659459982E+02  0.11239459789E+02  0.18584845181E+02  0.51100000000E-03 0. -1.
        -11    1    3    3    0    0 -0.17414560897E+02 -0.11351895318E+02  0.20364606315E+02  0.29100681249E+02  0.51100000000E-03 0.  1.
         12    1    3    3    0    0 -0.97602474183E+01 -0.31161733331E+01 -0.54742876486E+01  0.11616401817E+02  0.00000000000E+00 0. -1.
</event>
<event>
 7    1  0.7749294E-012  0.5930193E+02  0.7816164E-02  0.1266605E+00
        -11   -1    0    0    0    0  0.00000000000E+00  0.00000000000E+00  0.45593999997E+02  0.45594000000E+02  0.51100000000E-03 0.  1.
         11   -1    0    0    0    0 -0.00000000000E+00 -0.00000000000E+00 -0.45593999997E+02  0.45594000000E+02  0.51100000000E-03 0. -1.
    9900012    2    1    2    0    0  0.46899426596E+00 -0.25149936977E+02  0.19595459513E+02  0.59301932210E+02  0.49999978447E+02 0.  0.
         12    1    1    2    0    0 -0.46899426596E+00  0.25149936977E+02 -0.19595459513E+02  0.31886067790E+02  0.00000000000E+00 0. -1.
         11    1    3    3    0    0 -0.19705661952E+01  0.11299316995E+02 -0.57785148547E+01  0.12843244523E+02  0.51100000000E-03 0. -1.
        -11    1    3    3    0    0  0.51474252288E+01 -0.11602893828E+02  0.14302209400E+02  0.19122665234E+02  0.51100000000E-03 0.  1.
         12    1    3    3    0    0 -0.27078647676E+01 -0.24846360145E+02  0.11071764968E+02  0.27336022453E+02  0.00000000000E+00 0. -1.
</event>
<event>
 7    1  0.7749294E-012  0.5930194E+02  0.7816164E-02  0.1266605E+00
        -11   -1    0    0    0    0  0.00000000000E+00  0.00000000000E+00  0.45593999997E+02  0.45594000000E+02  0.51100000000E-03 0.  1.
         11   -1    0    0    0    0 -0.00000000000E+00 -0.00000000000E+00 -0.45593999997E+02  0.45594000000E+02  0.51100000000E-03 0. -1.
    9900012    2    1    2    0    0  0.19184604527E+02 -0.21592797021E+02  0.13506406561E+02  0.59301937963E+02  0.49999988939E+02 0.  0.
         12    1    1    2    0    0 -0.19184604527E+02  0.21592797021E+02 -0.13506406561E+02  0.31886062037E+02  0.00000000000E+00 0. -1.
         11    1    3    3    0    0 -0.29839363438E+01 -0.10774646115E+02 -0.12363960429E+02  0.16669264913E+02  0.51100000000E-03 0. -1.
        -11    1    3    3    0    0  0.97565828692E+01  0.67196558214E+01  0.56364215358E+01  0.13119219932E+02  0.51100000000E-03 0.  1.
         12    1    3    3    0    0  0.12411958001E+02 -0.17537806728E+02  0.20233945454E+02  0.29513453117E+02  0.00000000000E+00 0. -1.
</event>
<event>
 7    1  0.7749294E-012  0.5930194E+02  0.7816164E-02  0.1266605E+00
        -11   -1    0    0    0    0  0.00000000000E+00  0.00000000000E+00  0.45593999997E+02  0.45594000000E+02  0.51100000000E-03 0. -1.
         11   -1    0    0    0    0 -0.00000000000E+00 -0.00000000000E+00 -0.45593999997E+02  0.45594000000E+02  0.51100000000E-03 0.  1.
    9900012    2    1    2    0    0 -0.34890458621E+01 -0.12035752252E+02 -0.29320437717E+02  0.59301939704E+02  0.49999992114E+02 0.  0.
         12    1    1    2    0    0  0.34890458621E+01  0.12035752252E+02  0.29320437717E+02  0.31886060296E+02  0.00000000000E+00 0. -1.
         11    1    3    3    0    0 -0.17882020819E+02  0.65729971128E+01 -0.21250707756E+01  0.19169947462E+02  0.51100000000E-03 0. -1.
        -11    1    3    3    0    0  0.14337561374E+02 -0.16782072828E+02 -0.29717089869E+02  0.37017685842E+02  0.51100000000E-03 0.  1.
        -12    1    3    3    0    0  0.55413583660E-01 -0.18266765363E+01  0.25217229272E+01  0.31143064003E+01  0.00000000000E+00 0.  1.
</event>
<event>
 7    1  0.7749294E-012  0.5930194E+02  0.7816164E-02  0.1266605E+00
        -11   -1    0    0    0    0  0.00000000000E+00  0.00000000000E+00  0.45593999997E+02  0.45594000000E+02  0.51100000000E-03 0.  1.
         11   -1    0    0    0    0 -0.00000000000E+00 -0.00000000000E+00 -0.45593999997E+02  0.45594000000E+02  0.51100000000E-03 0. -1.
    9900012    2    1    2    0    0  0.29500772225E+02 -0.11928639228E+02 -0.20329248886E+01  0.59301940675E+02  0.49999993885E+02 0.  0.
         12    1    1    2    0    0 -0.29500772225E+02  0.11928639228E+02  0.20329248886E+01  0.31886059325E+02  0.00000000000E+00 0. -1.
         11    1    3    3    0    0 -0.88343524586E+01  0.27040698144E+00  0.77571250233E+01  0.11759757318E+02  0.51100000000E-03 0. -1.
        -11    1    3    3    0    0  0.40957199812E+02 -0.99561325443E+01 -0.62712534374E+01  0.42613911010E+02  0.51100000000E-03 0.  1.
        -12    1    3    3    0    0 -0.26220751283E+01 -0.22429136656E+01 -0.35187964745E+01  0.49282723462E+01  0.00000000000E+00 0.  1.
</event>
<event>
 7    1  0.7749294E-012  0.5930195E+02  0.7816164E-02  0.1266605E+00
        -11   -1    0    0    0    0  0.00000000000E+00  0.00000000000E+00  0.45593999997E+02  0.45594000000E+02  0.51100000000E-03 0.  1.
         11   -1    0    0    0    0 -0.00000000000E+00 -0.00000000000E+00 -0.45593999997E+02  0.45594000000E+02  0.51100000000E-03 0. -1.
    9900012    2    1    2    0    0  0.96560770669E+01 -0.24959371878E+01  0.30286151251E+02  0.59301945300E+02  0.50000002319E+02 0.  0.
         12    1    1    2    0    0 -0.96560770669E+01  0.24959371878E+01 -0.30286151251E+02  0.31886054700E+02  0.00000000000E+00 0. -1.
         11    1    3    3    0    0  0.10980720791E+02 -0.79521697357E+01  0.20907974123E+02  0.24919001079E+02  0.51100000000E-03 0. -1.
        -11    1    3    3    0    0 -0.10160899876E+02  0.15892778641E+02  0.23540833823E+01  0.19009629351E+02  0.51100000000E-03 0.  1.
        -12    1    3    3    0    0  0.88362561523E+01 -0.10436546093E+02  0.70240937459E+01  0.15373314870E+02  0.00000000000E+00 0.  1.
</event>
<event>
 7    1  0.7749294E-012  0.5930200E+02  0.7816164E-02  0.1266605E+00
        -11   -1    0    0    0    0  0.00000000000E+00  0.00000000000E+00  0.45593999997E+02  0.45594000000E+02  0.51100000000E-03 0.  1.
         11   -1    0    0    0    0 -0.00000000000E+00 -0.00000000000E+00 -0.45593999997E+02  0.45594000000E+02  0.51100000000E-03 0. -1.
    9900012    2    1    2    0    0  0.28703513462E+02 -0.62311359455E+01  0.12409613865E+02  0.59301995915E+02  0.50000094631E+02 0.  0.
         12    1    1    2    0    0 -0.28703513462E+02  0.62311359455E+01 -0.12409613865E+02  0.31886004085E+02  0.00000000000E+00 0. -1.
         11    1    3    3    0    0  0.31604723542E+01 -0.18369753668E+02  0.77961561325E+01  0.20204367993E+02  0.51100000000E-03 0. -1.
        -11    1    3    3    0    0  0.24407475891E+02  0.24985766872E+01 -0.54315077716E+01  0.25129047769E+02  0.51100000000E-03 0.  1.
         12    1    3    3    0    0  0.11355652161E+01  0.96400410349E+01  0.10044965504E+02  0.13968580153E+02  0.00000000000E+00 0. -1.
</event>
<event>
 7    1  0.7749294E-012  0.5930193E+02  0.7816164E-02  0.1266605E+00
        -11   -1    0    0    0    0  0.00000000000E+00  0.00000000000E+00  0.45593999997E+02  0.45594000000E+02  0.51100000000E-03 0. -1.
         11   -1    0    0    0    0 -0.00000000000E+00 -0.00000000000E+00 -0.45593999997E+02  0.45594000000E+02  0.51100000000E-03 0.  1.
    9900012    2    1    2    0    0  0.19298794511E+02 -0.66465283379E+01 -0.24496973171E+02  0.59301929325E+02  0.49999973186E+02 0.  0.
         12    1    1    2    0    0 -0.19298794511E+02  0.66465283379E+01  0.24496973171E+02  0.31886070675E+02  0.00000000000E+00 0. -1.
         11    1    3    3    0    0  0.15111071021E+02  0.20485777979E+01 -0.36392698716E+02  0.39458454842E+02  0.51100000000E-03 0. -1.
        -11    1    3    3    0    0  0.66513273667E+01 -0.54059684500E+00  0.24122711808E+01  0.70958757880E+01  0.51100000000E-03 0.  1.
         12    1    3    3    0    0 -0.24636038772E+01 -0.81545092908E+01  0.94834543636E+01  0.12747598696E+02  0.00000000000E+00 0. -1.
</event>
<event>
 7    1  0.7749294E-012  0.5930194E+02  0.7816164E-02  0.1266605E+00
        -11   -1    0    0    0    0  0.00000000000E+00  0.00000000000E+00  0.45593999997E+02  0.45594000000E+02  0.51100000000E-03 0. -1.
         11   -1    0    0    0    0 -0.00000000000E+00 -0.00000000000E+00 -0.45593999997E+02  0.45594000000E+02  0.51100000000E-03 0.  1.
    9900012    2    1    2    0    0  0.24687963498E+02  0.19115902410E+02 -0.64658562274E+01  0.59301944060E+02  0.50000000059E+02 0.  0.
         12    1    1    2    0    0 -0.24687963498E+02 -0.19115902410E+02  0.64658562274E+01  0.31886055940E+02  0.00000000000E+00 0. -1.
         11    1    3    3    0    0  0.52662824377E+01 -0.23341885743E+01 -0.30147576996E+01  0.65016098978E+01  0.51100000000E-03 0. -1.
        -11    1    3    3    0    0 -0.72364286155E+01  0.20789299708E+02 -0.11645503222E+02  0.24903385854E+02  0.51100000000E-03 0.  1.
        -12    1    3    3    0    0  0.26658109676E+02  0.66079127676E+00  0.81944046944E+01  0.27896948308E+02  0.00000000000E+00 0.  1.
</event>
<event>
 7    1  0.7749294E-012  0.5930196E+02  0.7816164E-02  0.1266605E+00
        -11   -1    0    0    0    0  0.00000000000E+00  0.00000000000E+00  0.45593999997E+02  0.45594000000E+02  0.51100000000E-03 0.  1.
         11   -1    0    0    0    0 -0.00000000000E+00 -0.00000000000E+00 -0.45593999997E+02  0.45594000000E+02  0.51100000000E-03 0. -1.
    9900012    2    1    2    0    0 -0.23665033208E+02  0.21065154243E+02 -0.35979595716E+01  0.59301955512E+02  0.50000020945E+02 0.  0.
         12    1    1    2    0    0  0.23665033208E+02 -0.21065154243E+02  0.35979595716E+01  0.31886044488E+02  0.00000000000E+00 0. -1.
         11    1    3    3    0    0 -0.49053689295E-01 -0.12872565139E+02 -0.40044731635E+01  0.13481140348E+02  0.51100000000E-03 0. -1.
        -11    1    3    3    0    0 -0.17717302956E+02  0.19587277858E+02 -0.87278797060E+01  0.27816185259E+02  0.51100000000E-03 0.  1.
        -12    1    3    3    0    0 -0.58986765625E+01  0.14350441523E+02  0.91343932978E+01  0.18004629905E+02  0.00000000000E+00 0.  1.
</event>
<event>
 7    1  0.7749294E-012  0.5930195E+02  0.7816164E-02  0.1266605E+00
        -11   -1    0    0    0    0  0.00000000000E+00  0.00000000000E+00  0.45593999997E+02  0.45594000000E+02  0.51100000000E-03 0. -1.
         11   -1    0    0    0    0 -0.00000000000E+00 -0.00000000000E+00 -0.45593999997E+02  0.45594000000E+02  0.51100000000E-03 0.  1.
    9900012    2    1    2    0    0  0.30034455008E+02 -0.97752180556E+01 -0.43700156413E+01  0.59301946428E+02  0.50000004378E+02 0.  0.
         12    1    1    2    0    0 -0.30034455008E+02  0.97752180556E+01  0.43700156413E+01  0.31886053572E+02  0.00000000000E+00 0. -1.
         11    1    3    3    0    0  0.83999571512E+01  0.74721847652E+01 -0.20707652937E+02  0.23562676327E+02  0.51100000000E-03 0. -1.
        -11    1    3    3    0    0  0.21839772085E+02 -0.97336640254E+01  0.10039216043E+02  0.25932715228E+02  0.51100000000E-03 0.  1.
         12    1    3    3    0    0 -0.20527422816E+00 -0.75137387954E+01  0.62984212522E+01  0.98065548724E+01  0.00000000000E+00 0. -1.
</event>
<event>
 7    1  0.7749294E-012  0.5930197E+02  0.7816164E-02  0.1266605E+00
        -11   -1    0    0    0    0  0.00000000000E+00  0.00000000000E+00  0.45593999997E+02  0.45594000000E+02  0.51100000000E-03 0. -1.
         11   -1    0    0    0    0 -0.00000000000E+00 -0.00000000000E+00 -0.45593999997E+02  0.45594000000E+02  0.51100000000E-03 0.  1.
    9900012    2    1    2    0    0  0.53118668417E+00  0.21744896704E+02 -0.23315153218E+02  0.59301967610E+02  0.50000043009E+02 0.  0.
         12    1    1    2    0    0 -0.53118668417E+00 -0.21744896704E+02  0.23315153218E+02  0.31886032390E+02  0.00000000000E+00 0. -1.
         11    1    3    3    0    0  0.22196072545E+01 -0.46666111519E+01 -0.23216529954E+01  0.56651556819E+01  0.51100000000E-03 0. -1.
        -11    1    3    3    0    0  0.89675857740E+01  0.25064539324E+02  0.35403330055E+01  0.26854844706E+02  0.51100000000E-03 0.  1.
        -12    1    3    3    0    0 -0.10656006344E+02  0.13469685328E+01 -0.24533833228E+02  0.26781967223E+02  0.00000000000E+00 0.  1.
</event>
<event>
 7    1  0.7749294E-012  0.5930195E+02  0.7816164E-02  0.1266605E+00
        -11   -1    0    0    0    0  0.00000000000E+00  0.00000000000E+00  0.45593999997E+02  0.45594000000E+02  0.51100000000E-03 0. -1.
         11   -1    0    0    0    0 -0.00000000000E+00 -0.00000000000E+00 -0.45593999997E+02  0.45594000000E+02  0.51100000000E-03 0.  1.
    9900012    2    1    2    0    0  0.27083984862E+02 -0.61391414399E+01  0.15668082854E+02  0.59301951108E+02  0.50000012914E+02 0.  0.
         12    1    1    2    0    0 -0.27083984862E+02  0.61391414399E+01 -0.15668082854E+02  0.31886048892E+02  0.00000000000E+00 0. -1.
         11    1    3    3    0    0 -0.85093335824E+01  0.86408697361E+01  0.79266631721E+01  0.14488111579E+02  0.51100000000E-03 0. -1.
        -11    1    3    3    0    0  0.20046092600E+02 -0.14122900722E+02  0.13773000879E+02  0.28124681452E+02  0.51100000000E-03 0.  1.
         12    1    3    3    0    0  0.15547225844E+02 -0.65711045398E+00 -0.60315811972E+01  0.16689158077E+02  0.00000000000E+00 0. -1.
</event>
<event>
 7    1  0.7749294E-012  0.5930195E+02  0.7816164E-02  0.1266605E+00
        -11   -1    0    0    0    0  0.00000000000E+00  0.00000000000E+00  0.45593999997E+02  0.45594000000E+02  0.51100000000E-03 0.  1.
         11   -1    0    0    0    0 -0.00000000000E+00 -0.00000000000E+00 -0.45593999997E+02  0.45594000000E+02  0.51100000000E-03 0. -1.
    9900012    2    1    2    0    0  0.20224552289E+02 -0.54598490432E+01  0.24039093144E+02  0.59301945587E+02  0.50000002843E+02 0.  0.
         12    1    1    2    0    0 -0.20224552289E+02  0.54598490432E+01 -0.24039093144E+02  0.31886054413E+02  0.00000000000E+00 0. -1.
         11    1    3    3    0    0  0.20256061362E+01 -0.34447117955E+01  0.30466718880E+02  0.30727676110E+02  0.51100000000E-03 0. -1.
        -11    1    3    3    0    0  0.14100346633E+02 -0.88476103981E+01  0.22453840153E+01  0.16797075179E+02  0.51100000000E-03 0.  1.
         12    1    3    3    0    0  0.40985995204E+01  0.68324731505E+01 -0.86730097512E+01  0.11777194298E+02  0.00000000000E+00 0. -1.
</event>
<event>
 7    1  0.7749294E-012  0.5930197E+02  0.7816164E-02  0.1266605E+00
        -11   -1    0    0    0    0  0.00000000000E+00  0.00000000000E+00  0.45593999997E+02  0.45594000000E+02  0.51100000000E-03 0.  1.
         11   -1    0    0    0    0 -0.00000000000E+00 -0.00000000000E+00 -0.45593999997E+02  0.45594000000E+02  0.51100000000E-03 0. -1.
    9900012    2    1    2    0    0 -0.93896012442E+01 -0.98248628213E+01  0.28844867082E+02  0.59301970176E+02  0.50000047688E+02 0.  0.
         12    1    1    2    0    0  0.93896012442E+01  0.98248628213E+01 -0.28844867082E+02  0.31886029824E+02  0.00000000000E+00 0. -1.
         11    1    3    3    0    0  0.94389223460E+01  0.16115582537E+02  0.87426671613E+01  0.20621335672E+02  0.51100000000E-03 0. -1.
        -11    1    3    3    0    0 -0.13032015013E+02 -0.11571492859E+02  0.89605392386E+01  0.19596533520E+02  0.51100000000E-03 0.  1.
         12    1    3    3    0    0 -0.57965085768E+01 -0.14368952500E+02  0.11141660682E+02  0.19084100984E+02  0.00000000000E+00 0. -1.
</event>
<event>
 7    1  0.7749294E-012  0.5930195E+02  0.7816164E-02  0.1266605E+00
        -11   -1    0    0    0    0  0.00000000000E+00  0.00000000000E+00  0.45593999997E+02  0.45594000000E+02  0.51100000000E-03 0.  1.
         11   -1    0    0    0    0 -0.00000000000E+00 -0.00000000000E+00 -0.45593999997E+02  0.45594000000E+02  0.51100000000E-03 0. -1.
    9900012    2    1    2    0    0 -0.80418759236E+01  0.16122204842E+02  0.26308228909E+02  0.59301950297E+02  0.50000011433E+02 0.  0.
         12    1    1    2    0    0  0.80418759236E+01 -0.16122204842E+02 -0.26308228909E+02  0.31886049703E+02  0.00000000000E+00 0. -1.
         11    1    3    3    0    0 -0.16299753142E+02 -0.43795546219E+01  0.15618261278E+01  0.16949977944E+02  0.51100000000E-03 0. -1.
        -11    1    3    3    0    0  0.15344137731E+02  0.12233664594E+02  0.57385605990E+01  0.20445933339E+02  0.51100000000E-03 0.  1.
        -12    1    3    3    0    0 -0.70862605130E+01  0.82680948704E+01  0.19007842182E+02  0.21906039014E+02  0.00000000000E+00 0.  1.
</event>
<event>
 7    1  0.7749294E-012  0.5930194E+02  0.7816164E-02  0.1266605E+00
        -11   -1    0    0    0    0  0.00000000000E+00  0.00000000000E+00  0.45593999997E+02  0.45594000000E+02  0.51100000000E-03 0. -1.
         11   -1    0    0    0    0 -0.00000000000E+00 -0.00000000000E+00 -0.45593999997E+02  0.45594000000E+02  0.51100000000E-03 0.  1.
    9900012    2    1    2    0    0  0.23285766505E+02  0.20112994078E+02  0.83643043821E+01  0.59301936582E+02  0.49999986420E+02 0.  0.
         12    1    1    2    0    0 -0.23285766505E+02 -0.20112994078E+02 -0.83643043821E+01  0.31886063418E+02  0.00000000000E+00 0. -1.
         11    1    3    3    0    0  0.38438350232E+01  0.29213095667E+02  0.16960536734E+02  0.33997644517E+02  0.51100000000E-03 0. -1.
        -11    1    3    3    0    0  0.15593845995E+02 -0.73562024099E+01 -0.18452378482E+01  0.17340318618E+02  0.51100000000E-03 0.  1.
         12    1    3    3    0    0  0.38480854874E+01 -0.17438991792E+01 -0.67509945035E+01  0.79639734462E+01  0.00000000000E+00 0. -1.
</event>
<event>
 7    1  0.7749294E-012  0.5930194E+02  0.7816164E-02  0.1266605E+00
        -11   -1    0    0    0    0  0.00000000000E+00  0.00000000000E+00  0.45593999997E+02  0.45594000000E+02  0.51100000000E-03 0.  1.
         11   -1    0    0    0    0 -0.00000000000E+00 -0.00000000000E+00 -0.45593999997E+02  0.45594000000E+02  0.51100000000E-03 0. -1.
    9900012    2    1    2    0    0  0.14736237923E+02  0.19234742148E+02  0.20726525859E+02  0.59301938973E+02  0.49999990781E+02 0.  0.
         12    1    1    2    0    0 -0.14736237923E+02 -0.19234742148E+02 -0.20726525859E+02  0.31886061027E+02  0.00000000000E+00 0. -1.
         11    1    3    3    0    0  0.11241255338E+02 -0.66696974585E+01  0.66400319555E+01  0.14660856400E+02  0.51100000000E-03 0. -1.
        -11    1    3    3    0    0  0.12685097924E+02  0.26162004175E+02  0.18480506155E+02  0.34451288507E+02  0.51100000000E-03 0.  1.
        -12    1    3    3    0    0 -0.91901153387E+01 -0.25756456821E+00 -0.43940122509E+01  0.10189794066E+02  0.00000000000E+00 0.  1.
</event>
<event>
 7    1  0.7749294E-012  0.5930198E+02  0.7816164E-02  0.1266605E+00
        -11   -1    0    0    0    0  0.00000000000E+00  0.00000000000E+00  0.45593999997E+02  0.45594000000E+02  0.51100000000E-03 0. -1.
         11   -1    0    0    0    0 -0.00000000000E+00 -0.00000000000E+00 -0.45593999997E+02  0.45594000000E+02  0.51100000000E-03 0.  1.
    9900012    2    1    2    0    0 -0.22176576560E+02  0.15215852810E+02 -0.17128801843E+02  0.59301975205E+02  0.50000056859E+02 0.  0.
         12    1    1    2    0    0  0.22176576560E+02 -0.15215852810E+02  0.17128801843E+02  0.31886024795E+02  0.00000000000E+00 0. -1.
         11    1    3    3    0    0  0.86014066021E+01  0.15059330342E+02 -0.47593787189E+01  0.17983862543E+02  0.51100000000E-03 0. -1.
        -11    1    3    3    0    0 -0.11506159312E+02 -0.18968646279E+01 -0.17719329303E+02  0.21212364996E+02  0.51100000000E-03 0.  1.
         12    1    3    3    0    0 -0.19271823850E+02  0.20533870958E+01  0.53499061786E+01  0.20105747666E+02  0.00000000000E+00 0. -1.
</event>
<event>
 7    1  0.7749294E-012  0.5930191E+02  0.7816164E-02  0.1266605E+00
        -11   -1    0    0    0    0  0.00000000000E+00  0.00000000000E+00  0.45593999997E+02  0.45594000000E+02  0.51100000000E-03 0. -1.
         11   -1    0    0    0    0 -0.00000000000E+00 -0.00000000000E+00 -0.45593999997E+02  0.45594000000E+02  0.51100000000E-03 0.  1.
    9900012    2    1    2    0    0  0.28091808215E+02  0.47736711634E+00 -0.15077962924E+02  0.59301913158E+02  0.49999943702E+02 0.  0.
         12    1    1    2    0    0 -0.28091808215E+02 -0.47736711634E+00  0.15077962924E+02  0.31886086842E+02  0.00000000000E+00 0. -1.
         11    1    3    3    0    0  0.22804739153E+02 -0.13020619730E+02 -0.16411556197E+02  0.30966624664E+02  0.51100000000E-03 0. -1.
        -11    1    3    3    0    0 -0.23807537547E+01 -0.80698411818E+00  0.97384923648E+01  0.10057705783E+02  0.51100000000E-03 0.  1.
        -12    1    3    3    0    0  0.76678228162E+01  0.14304970965E+02 -0.84048990925E+01  0.18277582712E+02  0.00000000000E+00 0.  1.
</event>
<event>
 7    1  0.7749294E-012  0.5930197E+02  0.7816164E-02  0.1266605E+00
        -11   -1    0    0    0    0  0.00000000000E+00  0.00000000000E+00  0.45593999997E+02  0.45594000000E+02  0.51100000000E-03 0. -1.
         11   -1    0    0    0    0 -0.00000000000E+00 -0.00000000000E+00 -0.45593999997E+02  0.45594000000E+02  0.51100000000E-03 0.  1.
    9900012    2    1    2    0    0 -0.13503736014E+02  0.46992772608E+01 -0.28500605934E+02  0.59301974351E+02  0.50000055302E+02 0.  0.
         12    1    1    2    0    0  0.13503736014E+02 -0.46992772608E+01  0.28500605934E+02  0.31886025649E+02  0.00000000000E+00 0. -1.
         11    1    3    3    0    0 -0.23143568546E+02  0.16813710047E+02 -0.12994025947E+02  0.31419266719E+02  0.51100000000E-03 0. -1.
        -11    1    3    3    0    0  0.97924054213E+01 -0.61339965719E+01 -0.31899696042E+00  0.11559363183E+02  0.51100000000E-03 0.  1.
         12    1    3    3    0    0 -0.15257288982E+00 -0.59804362146E+01 -0.15187583027E+02  0.16323344449E+02  0.00000000000E+00 0. -1.
</event>
<event>
 7    1  0.7749294E-012  0.5930193E+02  0.7816164E-02  0.1266605E+00
        -11   -1    0    0    0    0  0.00000000000E+00  0.00000000000E+00  0.45593999997E+02  0.45594000000E+02  0.51100000000E-03 0. -1.
         11   -1    0    0    0    0 -0.00000000000E+00 -0.00000000000E+00 -0.45593999997E+02  0.45594000000E+02  0.51100000000E-03 0.  1.
    9900012    2    1    2    0    0  0.14195652343E+02  0.27784112151E+02  0.65763054918E+01  0.59301933649E+02  0.49999981071E+02 0.  0.
         12    1    1    2    0    0 -0.14195652343E+02 -0.27784112151E+02 -0.65763054918E+01  0.31886066351E+02  0.00000000000E+00 0. -1.
         11    1    3    3    0    0  0.75630926657E+01  0.38257772859E+02  0.47091394592E+01  0.39281465725E+02  0.51100000000E-03 0. -1.
        -11    1    3    3    0    0 -0.51317207955E+01 -0.26112952106E+01  0.10008163666E+01  0.58442325981E+01  0.51100000000E-03 0.  1.
         12    1    3    3    0    0  0.11764280473E+02 -0.78623654975E+01  0.86634966591E+00  0.14176235326E+02  0.00000000000E+00 0. -1.
</event>
<event>
 7    1  0.7749294E-012  0.5930231E+02  0.7816164E-02  0.1266603E+00
        -11   -1    0    0    0    0  0.00000000000E+00  0.00000000000E+00  0.45593999997E+02  0.45594000000E+02  0.51100000000E-03 0.  1.
         11   -1    0    0    0    0 -0.00000000000E+00 -0.00000000000E+00 -0.45593999997E+02  0.45594000000E+02  0.51100000000E-03 0. -1.
    9900012    2    1    2    0    0 -0.11302067027E+01 -0.31074699198E+02  0.70557007971E+01  0.59302310244E+02  0.50000667887E+02 0.  0.
         12    1    1    2    0    0  0.11302067027E+01  0.31074699198E+02 -0.70557007971E+01  0.31885689756E+02  0.00000000000E+00 0. -1.
         11    1    3    3    0    0 -0.77395201993E+01 -0.16398744730E+02 -0.19857679686E+02  0.26891382345E+02  0.51100000000E-03 0. -1.
        -11    1    3    3    0    0 -0.15902687685E+01 -0.55030684989E+01  0.77305398242E+01  0.96215364623E+01  0.51100000000E-03 0.  1.
         12    1    3    3    0    0  0.81995822650E+01 -0.91728859698E+01  0.19182840659E+02  0.22789391437E+02  0.00000000000E+00 0. -1.
</event>
<event>
 7    1  0.7749294E-012  0.5930195E+02  0.7816164E-02  0.1266605E+00
        -11   -1    0    0    0    0  0.00000000000E+00  0.00000000000E+00  0.45593999997E+02  0.45594000000E+02  0.51100000000E-03 0.  1.
         11   -1    0    0    0    0 -0.00000000000E+00 -0.00000000000E+00 -0.45593999997E+02  0.45594000000E+02  0.51100000000E-03 0. -1.
    9900012    2    1    2    0    0  0.47788332285E+01 -0.14738887335E+02  0.27868412297E+02  0.59301945825E+02  0.50000003278E+02 0.  0.
         12    1    1    2    0    0 -0.47788332285E+01  0.14738887335E+02 -0.27868412297E+02  0.31886054175E+02  0.00000000000E+00 0. -1.
         11    1    3    3    0    0  0.20671809124E+01 -0.43809601623E+01 -0.13063316154E+02  0.13932561791E+02  0.51100000000E-03 0. -1.
        -11    1    3    3    0    0  0.56146675196E+01  0.19343989881E+01  0.20554893553E+02  0.21395561223E+02  0.51100000000E-03 0.  1.
         12    1    3    3    0    0 -0.29030152035E+01 -0.12292326161E+02  0.20376834898E+02  0.23973822811E+02  0.00000000000E+00 0. -1.
</event>
<event>
 7    1  0.7749294E-012  0.5930195E+02  0.7816164E-02  0.1266605E+00
        -11   -1    0    0    0    0  0.00000000000E+00  0.00000000000E+00  0.45593999997E+02  0.45594000000E+02  0.51100000000E-03 0.  1.
         11   -1    0    0    0    0 -0.00000000000E+00 -0.00000000000E+00 -0.45593999997E+02  0.45594000000E+02  0.51100000000E-03 0. -1.
    9900012    2    1    2    0    0  0.15300870944E+01 -0.24369779992E+02  0.20505918771E+02  0.59301952142E+02  0.50000014798E+02 0.  0.
         12    1    1    2    0    0 -0.15300870944E+01  0.24369779992E+02 -0.20505918771E+02  0.31886047858E+02  0.00000000000E+00 0. -1.
         11    1    3    3    0    0 -0.37899110464E+01 -0.24864504620E+02  0.33170436252E+02  0.41627933616E+02  0.51100000000E-03 0.  1.
        -11    1    3    3    0    0  0.26737073463E+01  0.53154374892E+01 -0.98217146248E+01  0.11483408253E+02  0.51100000000E-03 0. -1.
        -12    1    3    3    0    0  0.26462907945E+01 -0.48207128618E+01 -0.28428028567E+01  0.61906102726E+01  0.00000000000E+00 0.  1.
</event>
<event>
 7    1  0.7749294E-012  0.5930185E+02  0.7816164E-02  0.1266605E+00
        -11   -1    0    0    0    0  0.00000000000E+00  0.00000000000E+00  0.45593999997E+02  0.45594000000E+02  0.51100000000E-03 0. -1.
         11   -1    0    0    0    0 -0.00000000000E+00 -0.00000000000E+00 -0.45593999997E+02  0.45594000000E+02  0.51100000000E-03 0.  1.
    9900012    2    1    2    0    0  0.13795998754E+02  0.25757427746E+02 -0.12765259471E+02  0.59301850733E+02  0.49999829852E+02 0.  0.
         12    1    1    2    0    0 -0.13795998754E+02 -0.25757427746E+02  0.12765259471E+02  0.31886149267E+02  0.00000000000E+00 0. -1.
         11    1    3    3    0    0  0.10405639399E+02 -0.28242953096E+01  0.24856066860E+01  0.11064909225E+02  0.51100000000E-03 0. -1.
        -11    1    3    3    0    0 -0.15359612726E+02  0.16491407177E+02 -0.12464473095E+02  0.25753588168E+02  0.51100000000E-03 0.  1.
        -12    1    3    3    0    0  0.18749972080E+02  0.12090315879E+02 -0.27863930625E+01  0.22483353339E+02  0.00000000000E+00 0.  1.
</event>
<event>
 7    1  0.7749294E-012  0.5930196E+02  0.7816164E-02  0.1266605E+00
        -11   -1    0    0    0    0  0.00000000000E+00  0.00000000000E+00  0.45593999997E+02  0.45594000000E+02  0.51100000000E-03 0. -1.
         11   -1    0    0    0    0 -0.00000000000E+00 -0.00000000000E+00 -0.45593999997E+02  0.45594000000E+02  0.51100000000E-03 0.  1.
    9900012    2    1    2    0    0 -0.24304832938E+02 -0.18116542183E+02 -0.98886641888E+01  0.59301957846E+02  0.50000025202E+02 0.  0.
         12    1    1    2    0    0  0.24304832938E+02  0.18116542183E+02  0.98886641888E+01  0.31886042154E+02  0.00000000000E+00 0. -1.
         11    1    3    3    0    0 -0.42321964119E+01  0.87252546224E+01 -0.82708901067E+01  0.12745555230E+02  0.51100000000E-03 0. -1.
        -11    1    3    3    0    0 -0.24897819058E+02 -0.71382959734E+01 -0.37010574515E+01  0.26163992237E+02  0.51100000000E-03 0.  1.
         12    1    3    3    0    0  0.48251825324E+01 -0.19703500832E+02  0.20832833694E+01  0.20392410380E+02  0.00000000000E+00 0. -1.
</event>
<event>
 7    1  0.7749294E-012  0.5930200E+02  0.7816164E-02  0.1266605E+00
        -11   -1    0    0    0    0  0.00000000000E+00  0.00000000000E+00  0.45593999997E+02  0.45594000000E+02  0.51100000000E-03 0.  1.
         11   -1    0    0    0    0 -0.00000000000E+00 -0.00000000000E+00 -0.45593999997E+02  0.45594000000E+02  0.51100000000E-03 0. -1.
    9900012    2    1    2    0    0 -0.55328557022E+01  0.15660734084E+01  0.31363222861E+02  0.59302002660E+02  0.50000106931E+02 0.  0.
         12    1    1    2    0    0  0.55328557022E+01 -0.15660734084E+01 -0.31363222861E+02  0.31885997340E+02  0.00000000000E+00 0. -1.
         11    1    3    3    0    0 -0.84087086200E+01  0.22100683510E+02  0.13598248653E+02  0.27277444143E+02  0.51100000000E-03 0. -1.
        -11    1    3    3    0    0 -0.58586941532E+01 -0.10208277683E+02  0.13349038276E+02  0.17796911349E+02  0.51100000000E-03 0.  1.
         12    1    3    3    0    0  0.87345470709E+01 -0.10326332419E+02  0.44159359318E+01  0.14227647168E+02  0.00000000000E+00 0. -1.
</event>
<event>
 7    1  0.7749294E-012  0.5930194E+02  0.7816164E-02  0.1266605E+00
        -11   -1    0    0    0    0  0.00000000000E+00  0.00000000000E+00  0.45593999997E+02  0.45594000000E+02  0.51100000000E-03 0.  1.
         11   -1    0    0    0    0 -0.00000000000E+00 -0.00000000000E+00 -0.45593999997E+02  0.45594000000E+02  0.51100000000E-03 0. -1.
    9900012    2    1    2    0    0 -0.71075826528E+01  0.10951082668E+02  0.29090838086E+02  0.59301940298E+02  0.49999993199E+02 0.  0.
         12    1    1    2    0    0  0.71075826528E+01 -0.10951082668E+02 -0.29090838086E+02  0.31886059702E+02  0.00000000000E+00 0. -1.
         11    1    3    3    0    0  0.17583330181E+02 -0.62437253473E+01  0.91863066898E+01  0.20797736351E+02  0.51100000000E-03 0. -1.
        -11    1    3    3    0    0 -0.16174628619E+02  0.69588083126E+01  0.45622992375E+01  0.18189507929E+02  0.51100000000E-03 0.  1.
         12    1    3    3    0    0 -0.85162842147E+01  0.10235999703E+02  0.15342232158E+02  0.20314696019E+02  0.00000000000E+00 0. -1.
</event>
<event>
 7    1  0.7749294E-012  0.5930195E+02  0.7816164E-02  0.1266605E+00
        -11   -1    0    0    0    0  0.00000000000E+00  0.00000000000E+00  0.45593999997E+02  0.45594000000E+02  0.51100000000E-03 0.  1.
         11   -1    0    0    0    0 -0.00000000000E+00 -0.00000000000E+00 -0.45593999997E+02  0.45594000000E+02  0.51100000000E-03 0. -1.
    9900012    2    1    2    0    0  0.10647811262E+02 -0.29949400840E+02  0.25253852127E+01  0.59301951863E+02  0.50000014289E+02 0.  0.
         12    1    1    2    0    0 -0.10647811262E+02  0.29949400840E+02 -0.25253852127E+01  0.31886048137E+02  0.00000000000E+00 0. -1.
         11    1    3    3    0    0 -0.79908753376E+01  0.43407145639E+01 -0.10662397997E+02  0.14013658441E+02  0.51100000000E-03 0. -1.
        -11    1    3    3    0    0  0.12978621366E+02 -0.14526744075E+02 -0.22076485637E+01  0.19604709088E+02  0.51100000000E-03 0.  1.
        -12    1    3    3    0    0  0.56600652335E+01 -0.19763371329E+02  0.15395431774E+02  0.25683584334E+02  0.00000000000E+00 0.  1.
</event>
<event>
 7    1  0.7749294E-012  0.5930193E+02  0.7816164E-02  0.1266605E+00
        -11   -1    0    0    0    0  0.00000000000E+00  0.00000000000E+00  0.45593999997E+02  0.45594000000E+02  0.51100000000E-03 0.  1.
         11   -1    0    0    0    0 -0.00000000000E+00 -0.00000000000E+00 -0.45593999997E+02  0.45594000000E+02  0.51100000000E-03 0. -1.
    9900012    2    1    2    0    0 -0.26227685827E+02  0.16433822547E+02  0.76654632214E+01  0.59301931667E+02  0.49999977457E+02 0.  0.
         12    1    1    2    0    0  0.26227685827E+02 -0.16433822547E+02 -0.76654632214E+01  0.31886068333E+02  0.00000000000E+00 0. -1.
         11    1    3    3    0    0 -0.10414519808E+01  0.93424158561E+01 -0.12627553415E+02  0.15742314372E+02  0.51100000000E-03 0. -1.
        -11    1    3    3    0    0 -0.98237333663E+01 -0.94014609843E+01  0.15309030714E+02  0.20475830326E+02  0.51100000000E-03 0.  1.
         12    1    3    3    0    0 -0.15362500480E+02  0.16492867675E+02  0.49839859228E+01  0.23083786969E+02  0.00000000000E+00 0. -1.
</event>
<event>
 7    1  0.7749294E-012  0.5930194E+02  0.7816164E-02  0.1266605E+00
        -11   -1    0    0    0    0  0.00000000000E+00  0.00000000000E+00  0.45593999997E+02  0.45594000000E+02  0.51100000000E-03 0. -1.
         11   -1    0    0    0    0 -0.00000000000E+00 -0.00000000000E+00 -0.45593999997E+02  0.45594000000E+02  0.51100000000E-03 0.  1.
    9900012    2    1    2    0    0  0.24145206067E+02  0.66387373952E+01 -0.19739728857E+02  0.59301941831E+02  0.49999995993E+02 0.  0.
         12    1    1    2    0    0 -0.24145206067E+02 -0.66387373952E+01  0.19739728857E+02  0.31886058169E+02  0.00000000000E+00 0. -1.
         11    1    3    3    0    0  0.74618050021E+01  0.22537647351E+02 -0.15982774391E+02  0.28619454213E+02  0.51100000000E-03 0. -1.
        -11    1    3    3    0    0  0.13513847066E+02 -0.14013809024E+02 -0.11139671202E+02  0.22429961672E+02  0.51100000000E-03 0.  1.
         12    1    3    3    0    0  0.31695539994E+01 -0.18851009314E+01  0.73827167354E+01  0.82525259449E+01  0.00000000000E+00 0. -1.
</event>
<event>
 7    1  0.7749294E-012  0.5930194E+02  0.7816164E-02  0.1266605E+00
        -11   -1    0    0    0    0  0.00000000000E+00  0.00000000000E+00  0.45593999997E+02  0.45594000000E+02  0.51100000000E-03 0. -1.
         11   -1    0    0    0    0 -0.00000000000E+00 -0.00000000000E+00 -0.45593999997E+02  0.45594000000E+02  0.51100000000E-03 0.  1.
    9900012    2    1    2    0    0 -0.23459675436E+02 -0.88763411356E+01 -0.19686929875E+02  0.59301937035E+02  0.49999987246E+02 0.  0.
         12    1    1    2    0    0  0.23459675436E+02  0.88763411356E+01  0.19686929875E+02  0.31886062965E+02  0.00000000000E+00 0. -1.
         11    1    3    3    0    0 -0.33235066082E+02 -0.50867535686E+01 -0.20082442098E+01  0.33682008913E+02  0.51100000000E-03 0. -1.
        -11    1    3    3    0    0  0.88453951331E+01 -0.51687925931E+01 -0.20170935443E+02  0.22623529097E+02  0.51100000000E-03 0.  1.
         12    1    3    3    0    0  0.92999551258E+00  0.13792050261E+01  0.24922497779E+01  0.29963990243E+01  0.00000000000E+00 0. -1.
</event>
<event>
 7    1  0.7749294E-012  0.5930194E+02  0.7816164E-02  0.1266605E+00
        -11   -1    0    0    0    0  0.00000000000E+00  0.00000000000E+00  0.45593999997E+02  0.45594000000E+02  0.51100000000E-03 0.  1.
         11   -1    0    0    0    0 -0.00000000000E+00 -0.00000000000E+00 -0.45593999997E+02  0.45594000000E+02  0.51100000000E-03 0. -1.
    9900012    2    1    2    0    0 -0.44769747888E+01 -0.23815702639E+02 -0.20724139957E+02  0.59301937646E+02  0.49999988362E+02 0.  0.
         12    1    1    2    0    0  0.44769747888E+01  0.23815702639E+02  0.20724139957E+02  0.31886062354E+02  0.00000000000E+00 0. -1.
         11    1    3    3    0    0 -0.18930081380E+02 -0.69362948931E+01  0.11988114072E+01  0.20196467933E+02  0.51100000000E-03 0. -1.
        -11    1    3    3    0    0  0.15617734664E+02 -0.12662003747E+02 -0.37997607987E+01  0.20461626459E+02  0.51100000000E-03 0.  1.
         12    1    3    3    0    0 -0.11646280728E+01 -0.42174039987E+01 -0.18123190566E+02  0.18643843255E+02  0.00000000000E+00 0. -1.
</event>
<event>
 7    1  0.7749294E-012  0.5930171E+02  0.7816164E-02  0.1266606E+00
        -11   -1    0    0    0    0  0.00000000000E+00  0.00000000000E+00  0.45593999997E+02  0.45594000000E+02  0.51100000000E-03 0.  1.
         11   -1    0    0    0    0 -0.00000000000E+00 -0.00000000000E+00 -0.45593999997E+02  0.45594000000E+02  0.51100000000E-03 0. -1.
    9900012    2    1    2    0    0  0.20268222902E+02 -0.19453276697E+02 -0.15083266023E+02  0.59301705957E+02  0.49999565815E+02 0.  0.
         12    1    1    2    0    0 -0.20268222902E+02  0.19453276697E+02  0.15083266023E+02  0.31886294043E+02  0.00000000000E+00 0. -1.
         11    1    3    3    0    0  0.24176106558E+02  0.26533330893E+01 -0.10309326686E+02  0.26416027744E+02  0.51100000000E-03 0.  1.
        -11    1    3    3    0    0  0.61125863678E+01 -0.21398690389E+02 -0.51133850288E+01  0.22834499539E+02  0.51100000000E-03 0. -1.
         12    1    3    3    0    0 -0.10020470024E+02 -0.70791939666E+00  0.33944569161E+00  0.10051178674E+02  0.00000000000E+00 0. -1.
</event>
<event>
 7    1  0.7749294E-012  0.5930192E+02  0.7816164E-02  0.1266605E+00
        -11   -1    0    0    0    0  0.00000000000E+00  0.00000000000E+00  0.45593999997E+02  0.45594000000E+02  0.51100000000E-03 0.  1.
         11   -1    0    0    0    0 -0.00000000000E+00 -0.00000000000E+00 -0.45593999997E+02  0.45594000000E+02  0.51100000000E-03 0. -1.
    9900012    2    1    2    0    0 -0.11220311094E+02  0.25800360111E+02  0.15005595646E+02  0.59301923671E+02  0.49999962875E+02 0.  0.
         12    1    1    2    0    0  0.11220311094E+02 -0.25800360111E+02 -0.15005595646E+02  0.31886076329E+02  0.00000000000E+00 0. -1.
         11    1    3    3    0    0 -0.77042009665E+01  0.35956217074E+01 -0.29565665207E+01  0.90013606665E+01  0.51100000000E-03 0. -1.
        -11    1    3    3    0    0  0.12177202507E+02 -0.67993962003E+01  0.65063105909E+01  0.15389870933E+02  0.51100000000E-03 0.  1.
        -12    1    3    3    0    0 -0.15693312635E+02  0.29004134604E+02  0.11455851576E+02  0.34910692072E+02  0.00000000000E+00 0.  1.
</event>
<event>
 7    1  0.7749294E-012  0.5930196E+02  0.7816164E-02  0.1266605E+00
        -11   -1    0    0    0    0  0.00000000000E+00  0.00000000000E+00  0.45593999997E+02  0.45594000000E+02  0.51100000000E-03 0.  1.
         11   -1    0    0    0    0 -0.00000000000E+00 -0.00000000000E+00 -0.45593999997E+02  0.45594000000E+02  0.51100000000E-03 0. -1.
    9900012    2    1    2    0    0 -0.28945396231E+02  0.11110652001E+02  0.74456183491E+01  0.59301956290E+02  0.50000022363E+02 0.  0.
         12    1    1    2    0    0  0.28945396231E+02 -0.11110652001E+02 -0.74456183491E+01  0.31886043710E+02  0.00000000000E+00 0. -1.
         11    1    3    3    0    0  0.24193604868E+01 -0.26653402575E+01 -0.42352759574E+01  0.55583186802E+01  0.51100000000E-03 0. -1.
        -11    1    3    3    0    0 -0.26989604486E+02  0.27171040027E+02  0.73019084200E+01  0.38987459949E+02  0.51100000000E-03 0.  1.
         12    1    3    3    0    0 -0.43751522323E+01 -0.13395047768E+02  0.43789858865E+01  0.14756177661E+02  0.00000000000E+00 0. -1.
</event>
<event>
 7    1  0.7749294E-012  0.5930196E+02  0.7816164E-02  0.1266605E+00
        -11   -1    0    0    0    0  0.00000000000E+00  0.00000000000E+00  0.45593999997E+02  0.45594000000E+02  0.51100000000E-03 0.  1.
         11   -1    0    0    0    0 -0.00000000000E+00 -0.00000000000E+00 -0.45593999997E+02  0.45594000000E+02  0.51100000000E-03 0. -1.
    9900012    2    1    2    0    0  0.11633497456E+02 -0.29000471727E+02  0.63524503015E+01  0.59301964682E+02  0.50000037669E+02 0.  0.
         12    1    1    2    0    0 -0.11633497456E+02  0.29000471727E+02 -0.63524503015E+01  0.31886035318E+02  0.00000000000E+00 0. -1.
         11    1    3    3    0    0 -0.21470137113E+01  0.95794729800E+01  0.54046334667E+01  0.11206517462E+02  0.51100000000E-03 0. -1.
        -11    1    3    3    0    0  0.16762069211E+02 -0.26519152230E+02  0.97692232639E+01  0.32858334143E+02  0.51100000000E-03 0.  1.
        -12    1    3    3    0    0 -0.29815580434E+01 -0.12060792477E+02 -0.88214064291E+01  0.15237113077E+02  0.00000000000E+00 0.  1.
</event>
<event>
 7    1  0.7749294E-012  0.5930194E+02  0.7816164E-02  0.1266605E+00
        -11   -1    0    0    0    0  0.00000000000E+00  0.00000000000E+00  0.45593999997E+02  0.45594000000E+02  0.51100000000E-03 0.  1.
         11   -1    0    0    0    0 -0.00000000000E+00 -0.00000000000E+00 -0.45593999997E+02  0.45594000000E+02  0.51100000000E-03 0. -1.
    9900012    2    1    2    0    0 -0.19264501031E+00  0.26947858065E+02  0.17043955785E+02  0.59301943562E+02  0.49999999151E+02 0.  0.
         12    1    1    2    0    0  0.19264501031E+00 -0.26947858065E+02 -0.17043955785E+02  0.31886056438E+02  0.00000000000E+00 0. -1.
         11    1    3    3    0    0  0.16489915720E+02  0.62137742319E+01 -0.74774880052E+01  0.19142652318E+02  0.51100000000E-03 0. -1.
        -11    1    3    3    0    0 -0.10581679731E+02  0.13947513629E+02  0.43798926174E+01  0.18046842991E+02  0.51100000000E-03 0.  1.
         12    1    3    3    0    0 -0.61008809993E+01  0.67865702042E+01  0.20141551172E+02  0.22112448253E+02  0.00000000000E+00 0. -1.
</event>
<event>
 7    1  0.7749294E-012  0.5930171E+02  0.7816164E-02  0.1266606E+00
        -11   -1    0    0    0    0  0.00000000000E+00  0.00000000000E+00  0.45593999997E+02  0.45594000000E+02  0.51100000000E-03 0.  1.
         11   -1    0    0    0    0 -0.00000000000E+00 -0.00000000000E+00 -0.45593999997E+02  0.45594000000E+02  0.51100000000E-03 0. -1.
    9900012    2    1    2    0    0 -0.44615679043E+00 -0.18066451279E+02  0.26270506031E+02  0.59301714471E+02  0.49999581343E+02 0.  0.
         12    1    1    2    0    0  0.44615679043E+00  0.18066451279E+02 -0.26270506031E+02  0.31886285529E+02  0.00000000000E+00 0. -1.
         11    1    3    3    0    0  0.16698992232E+02 -0.74494481911E+01  0.25879075981E+02  0.31687177120E+02  0.51100000000E-03 0. -1.
        -11    1    3    3    0    0 -0.13156160648E+02 -0.14182905235E+02  0.56081820862E+01  0.20141774263E+02  0.51100000000E-03 0.  1.
         12    1    3    3    0    0 -0.39889883743E+01  0.35659021467E+01 -0.52167520366E+01  0.74727630888E+01  0.00000000000E+00 0. -1.
</event>
<event>
 7    1  0.7749294E-012  0.5930196E+02  0.7816164E-02  0.1266605E+00
        -11   -1    0    0    0    0  0.00000000000E+00  0.00000000000E+00  0.45593999997E+02  0.45594000000E+02  0.51100000000E-03 0.  1.
         11   -1    0    0    0    0 -0.00000000000E+00 -0.00000000000E+00 -0.45593999997E+02  0.45594000000E+02  0.51100000000E-03 0. -1.
    9900012    2    1    2    0    0  0.47182280992E+01  0.62971332523E+00  0.31528735077E+02  0.59301963075E+02  0.50000034737E+02 0.  0.
         12    1    1    2    0    0 -0.47182280992E+01 -0.62971332523E+00 -0.31528735077E+02  0.31886036925E+02  0.00000000000E+00 0. -1.
         11    1    3    3    0    0 -0.13798970473E+02  0.44389260468E+00  0.14405753834E+02  0.19953304752E+02  0.51100000000E-03 0. -1.
        -11    1    3    3    0    0  0.21335442517E+02 -0.63865662334E+01  0.21507299137E+02  0.30960511172E+02  0.51100000000E-03 0.  1.
        -12    1    3    3    0    0 -0.28182439447E+01  0.65723869539E+01 -0.43843178945E+01  0.83881471497E+01  0.00000000000E+00 0.  1.
</event>
<event>
 7    1  0.7749294E-012  0.5930197E+02  0.7816164E-02  0.1266605E+00
        -11   -1    0    0    0    0  0.00000000000E+00  0.00000000000E+00  0.45593999997E+02  0.45594000000E+02  0.51100000000E-03 0.  1.
         11   -1    0    0    0    0 -0.00000000000E+00 -0.00000000000E+00 -0.45593999997E+02  0.45594000000E+02  0.51100000000E-03 0. -1.
    9900012    2    1    2    0    0 -0.81198805628E+01 -0.10211503103E+02  0.29094875158E+02  0.59301968317E+02  0.50000044299E+02 0.  0.
         12    1    1    2    0    0  0.81198805628E+01  0.10211503103E+02 -0.29094875158E+02  0.31886031683E+02  0.00000000000E+00 0. -1.
         11    1    3    3    0    0  0.10682197601E+02  0.37502698721E+01  0.86160965064E+01  0.14227121598E+02  0.51100000000E-03 0. -1.
        -11    1    3    3    0    0 -0.27947576093E+02 -0.98339514012E+01  0.18247814961E+02  0.34795924485E+02  0.51100000000E-03 0.  1.
        -12    1    3    3    0    0  0.91454979293E+01 -0.41278215740E+01  0.22309636906E+01  0.10278922235E+02  0.00000000000E+00 0.  1.
</event>
<event>
 7    1  0.7749294E-012  0.5930195E+02  0.7816164E-02  0.1266605E+00
        -11   -1    0    0    0    0  0.00000000000E+00  0.00000000000E+00  0.45593999997E+02  0.45594000000E+02  0.51100000000E-03 0.  1.
         11   -1    0    0    0    0 -0.00000000000E+00 -0.00000000000E+00 -0.45593999997E+02  0.45594000000E+02  0.51100000000E-03 0. -1.
    9900012    2    1    2    0    0 -0.64369608680E+01 -0.14049446558E+02  0.27890839266E+02  0.59301947739E+02  0.50000006769E+02 0.  0.
         12    1    1    2    0    0  0.64369608680E+01  0.14049446558E+02 -0.27890839266E+02  0.31886052261E+02  0.00000000000E+00 0. -1.
         11    1    3    3    0    0 -0.18178857901E+02 -0.74916624385E+01  0.26801194770E+02  0.33240034929E+02  0.51100000000E-03 0.  1.
        -11    1    3    3    0    0  0.10700568717E+02 -0.10617391793E+02 -0.72510295885E+01  0.16727480674E+02  0.51100000000E-03 0. -1.
         12    1    3    3    0    0  0.10413283163E+01  0.40596076742E+01  0.83406740844E+01  0.93344321366E+01  0.00000000000E+00 0. -1.
</event>
<event>
 7    1  0.7749294E-012  0.5930195E+02  0.7816164E-02  0.1266605E+00
        -11   -1    0    0    0    0  0.00000000000E+00  0.00000000000E+00  0.45593999997E+02  0.45594000000E+02  0.51100000000E-03 0.  1.
         11   -1    0    0    0    0 -0.00000000000E+00 -0.00000000000E+00 -0.45593999997E+02  0.45594000000E+02  0.51100000000E-03 0. -1.
    9900012    2    1    2    0    0 -0.45690830040E+01 -0.31117568593E+02 -0.52479018496E+01  0.59301951821E+02  0.50000014214E+02 0.  0.
         12    1    1    2    0    0  0.45690830040E+01  0.31117568593E+02  0.52479018496E+01  0.31886048179E+02  0.00000000000E+00 0. -1.
         11    1    3    3    0    0  0.15537319585E+02 -0.44541814841E+01  0.24650724760E+01  0.16350064683E+02  0.51100000000E-03 0.  1.
        -11    1    3    3    0    0 -0.14454414652E+02 -0.31271610442E+02 -0.37553044776E+01  0.34654668294E+02  0.51100000000E-03 0. -1.
         12    1    3    3    0    0 -0.56519879366E+01  0.46082233333E+01 -0.39576698480E+01  0.82972188444E+01  0.00000000000E+00 0. -1.
</event>
<event>
 7    1  0.7749294E-012  0.5930196E+02  0.7816164E-02  0.1266605E+00
        -11   -1    0    0    0    0  0.00000000000E+00  0.00000000000E+00  0.45593999997E+02  0.45594000000E+02  0.51100000000E-03 0.  1.
         11   -1    0    0    0    0 -0.00000000000E+00 -0.00000000000E+00 -0.45593999997E+02  0.45594000000E+02  0.51100000000E-03 0. -1.
    9900012    2    1    2    0    0 -0.23709630444E+02 -0.19445315355E+02 -0.87437135270E+01  0.59301962440E+02  0.50000033579E+02 0.  0.
         12    1    1    2    0    0  0.23709630444E+02  0.19445315355E+02  0.87437135270E+01  0.31886037560E+02  0.00000000000E+00 0. -1.
         11    1    3    3    0    0 -0.17715657031E+02 -0.26526878615E+02 -0.27034731246E+01  0.32012943637E+02  0.51100000000E-03 0. -1.
        -11    1    3    3    0    0 -0.64997142835E+01  0.12610198428E+02 -0.12403477982E+02  0.18844353437E+02  0.51100000000E-03 0.  1.
        -12    1    3    3    0    0  0.50574087056E+00 -0.55286351676E+01  0.63632375792E+01  0.84446653654E+01  0.00000000000E+00 0.  1.
</event>
<event>
 7    1  0.7749294E-012  0.5930195E+02  0.7816164E-02  0.1266605E+00
        -11   -1    0    0    0    0  0.00000000000E+00  0.00000000000E+00  0.45593999997E+02  0.45594000000E+02  0.51100000000E-03 0.  1.
         11   -1    0    0    0    0 -0.00000000000E+00 -0.00000000000E+00 -0.45593999997E+02  0.45594000000E+02  0.51100000000E-03 0. -1.
    9900012    2    1    2    0    0  0.31725617251E+02  0.18570297939E+01 -0.25994182941E+01  0.59301947797E+02  0.50000006874E+02 0.  0.
         12    1    1    2    0    0 -0.31725617251E+02 -0.18570297939E+01  0.25994182941E+01  0.31886052203E+02  0.00000000000E+00 0. -1.
         11    1    3    3    0    0 -0.43299784011E+01 -0.10374421666E+02 -0.24650836038E+01  0.11508865074E+02  0.51100000000E-03 0. -1.
        -11    1    3    3    0    0  0.39050065919E+02  0.10342408126E+02 -0.61014737009E+01  0.40854632978E+02  0.51100000000E-03 0.  1.
        -12    1    3    3    0    0 -0.29944702670E+01  0.18890433332E+01  0.59671390106E+01  0.69384497452E+01  0.00000000000E+00 0.  1.
</event>
<event>
 7    1  0.7749294E-012  0.5930195E+02  0.7816164E-02  0.1266605E+00
        -11   -1    0    0    0    0  0.00000000000E+00  0.00000000000E+00  0.45593999997E+02  0.45594000000E+02  0.51100000000E-03 0.  1.
         11   -1    0    0    0    0 -0.00000000000E+00 -0.00000000000E+00 -0.45593999997E+02  0.45594000000E+02  0.51100000000E-03 0. -1.
    9900012    2    1    2    0    0 -0.23538875394E+02 -0.20145697991E+02  0.75360528941E+01  0.59301954532E+02  0.50000019157E+02 0.  0.
         12    1    1    2    0    0  0.23538875394E+02  0.20145697991E+02 -0.75360528941E+01  0.31886045468E+02  0.00000000000E+00 0. -1.
         11    1    3    3    0    0 -0.94972266997E+01  0.79741236951E+01 -0.11765887469E+02  0.17094445644E+02  0.51100000000E-03 0. -1.
        -11    1    3    3    0    0 -0.98480861143E+01 -0.30601281598E+02  0.18962610171E+02  0.37322966392E+02  0.51100000000E-03 0.  1.
        -12    1    3    3    0    0 -0.41935625800E+01  0.24814599122E+01  0.33933019234E+00  0.48845424953E+01  0.00000000000E+00 0.  1.
</event>
<event>
 7    1  0.7749294E-012  0.5930194E+02  0.7816164E-02  0.1266605E+00
        -11   -1    0    0    0    0  0.00000000000E+00  0.00000000000E+00  0.45593999997E+02  0.45594000000E+02  0.51100000000E-03 0.  1.
         11   -1    0    0    0    0 -0.00000000000E+00 -0.00000000000E+00 -0.45593999997E+02  0.45594000000E+02  0.51100000000E-03 0. -1.
    9900012    2    1    2    0    0  0.13011337222E+02 -0.63733820201E+01  0.28404327630E+02  0.59301941561E+02  0.49999995501E+02 0.  0.
         12    1    1    2    0    0 -0.13011337222E+02  0.63733820201E+01 -0.28404327630E+02  0.31886058439E+02  0.00000000000E+00 0. -1.
         11    1    3    3    0    0 -0.94201129737E+01 -0.89614704940E+01  0.75950069780E+01  0.15057576601E+02  0.51100000000E-03 0. -1.
        -11    1    3    3    0    0  0.28649176312E+02  0.58738837778E+01  0.91765313764E+01  0.30651044719E+02  0.51100000000E-03 0.  1.
         12    1    3    3    0    0 -0.62177261158E+01 -0.32857953039E+01  0.11632789276E+02  0.13593320240E+02  0.00000000000E+00 0. -1.
</event>
<event>
 7    1  0.7749294E-012  0.5930195E+02  0.7816164E-02  0.1266605E+00
        -11   -1    0    0    0    0  0.00000000000E+00  0.00000000000E+00  0.45593999997E+02  0.45594000000E+02  0.51100000000E-03 0. -1.
         11   -1    0    0    0    0 -0.00000000000E+00 -0.00000000000E+00 -0.45593999997E+02  0.45594000000E+02  0.51100000000E-03 0.  1.
    9900012    2    1    2    0    0  0.17125250949E+02  0.24771287458E+02 -0.10479951918E+02  0.59301948275E+02  0.50000007746E+02 0.  0.
         12    1    1    2    0    0 -0.17125250949E+02 -0.24771287458E+02  0.10479951918E+02  0.31886051725E+02  0.00000000000E+00 0. -1.
         11    1    3    3    0    0  0.12452697791E+02 -0.74632165843E+01 -0.85255940771E+00  0.14542906926E+02  0.51100000000E-03 0. -1.
        -11    1    3    3    0    0  0.20667668001E+00  0.33926369168E+02  0.94943101820E-01  0.33927131542E+02  0.51100000000E-03 0.  1.
        -12    1    3    3    0    0  0.44658764788E+01 -0.16918651261E+01 -0.97223356117E+01  0.10831909807E+02  0.00000000000E+00 0.  1.
</event>
<event>
 7    1  0.7749294E-012  0.5930196E+02  0.7816164E-02  0.1266605E+00
        -11   -1    0    0    0    0  0.00000000000E+00  0.00000000000E+00  0.45593999997E+02  0.45594000000E+02  0.51100000000E-03 0.  1.
         11   -1    0    0    0    0 -0.00000000000E+00 -0.00000000000E+00 -0.45593999997E+02  0.45594000000E+02  0.51100000000E-03 0. -1.
    9900012    2    1    2    0    0  0.26979472982E+02 -0.15490821926E+01  0.16924186927E+02  0.59301957267E+02  0.50000024146E+02 0.  0.
         12    1    1    2    0    0 -0.26979472982E+02  0.15490821926E+01 -0.16924186927E+02  0.31886042733E+02  0.00000000000E+00 0. -1.
         11    1    3    3    0    0  0.28002971128E+02  0.14569788003E+02 -0.19359683408E+01  0.31625829445E+02  0.51100000000E-03 0. -1.
        -11    1    3    3    0    0  0.46965912379E-01 -0.37916569701E+01  0.13793750580E+02  0.14305468314E+02  0.51100000000E-03 0.  1.
         12    1    3    3    0    0 -0.10704640583E+01 -0.12327213225E+02  0.50664046883E+01  0.13370659508E+02  0.00000000000E+00 0. -1.
</event>
<event>
 7    1  0.7749294E-012  0.5930189E+02  0.7816164E-02  0.1266605E+00
        -11   -1    0    0    0    0  0.00000000000E+00  0.00000000000E+00  0.45593999997E+02  0.45594000000E+02  0.51100000000E-03 0.  1.
         11   -1    0    0    0    0 -0.00000000000E+00 -0.00000000000E+00 -0.45593999997E+02  0.45594000000E+02  0.51100000000E-03 0. -1.
    9900012    2    1    2    0    0 -0.38799496155E+01 -0.22292798409E+02  0.22465550422E+02  0.59301892904E+02  0.49999906763E+02 0.  0.
         12    1    1    2    0    0  0.38799496155E+01  0.22292798409E+02 -0.22465550422E+02  0.31886107096E+02  0.00000000000E+00 0. -1.
         11    1    3    3    0    0 -0.25643021758E+02 -0.13519412654E+02  0.62729586067E+01  0.29659553155E+02  0.51100000000E-03 0. -1.
        -11    1    3    3    0    0  0.16876626441E+02 -0.90138378719E+01  0.95260417945E+01  0.21373237138E+02  0.51100000000E-03 0.  1.
         12    1    3    3    0    0  0.48864457014E+01  0.24045211649E+00  0.66665500212E+01  0.82691026114E+01  0.00000000000E+00 0. -1.
</event>
<event>
 7    1  0.7749294E-012  0.5930197E+02  0.7816164E-02  0.1266605E+00
        -11   -1    0    0    0    0  0.00000000000E+00  0.00000000000E+00  0.45593999997E+02  0.45594000000E+02  0.51100000000E-03 0.  1.
         11   -1    0    0    0    0 -0.00000000000E+00 -0.00000000000E+00 -0.45593999997E+02  0.45594000000E+02  0.51100000000E-03 0. -1.
    9900012    2    1    2    0    0 -0.46490214264E+01 -0.29812131901E+02  0.10312253718E+02  0.59301965668E+02  0.50000039466E+02 0.  0.
         12    1    1    2    0    0  0.46490214264E+01  0.29812131901E+02 -0.10312253718E+02  0.31886034332E+02  0.00000000000E+00 0. -1.
         11    1    3    3    0    0 -0.36542880131E+01 -0.19632158343E+02 -0.15231317017E+02  0.25115104627E+02  0.51100000000E-03 0. -1.
        -11    1    3    3    0    0  0.85993688378E+01 -0.92795391620E+01  0.17729115835E+02  0.21780278695E+02  0.51100000000E-03 0.  1.
         12    1    3    3    0    0 -0.95941022510E+01 -0.90043439521E+00  0.78144549007E+01  0.12406582346E+02  0.00000000000E+00 0. -1.
</event>
<event>
 7    1  0.7749294E-012  0.5930192E+02  0.7816164E-02  0.1266605E+00
        -11   -1    0    0    0    0  0.00000000000E+00  0.00000000000E+00  0.45593999997E+02  0.45594000000E+02  0.51100000000E-03 0.  1.
         11   -1    0    0    0    0 -0.00000000000E+00 -0.00000000000E+00 -0.45593999997E+02  0.45594000000E+02  0.51100000000E-03 0. -1.
    9900012    2    1    2    0    0 -0.68086406919E+01 -0.24347543737E+02  0.19430949111E+02  0.59301917496E+02  0.49999951613E+02 0.  0.
         12    1    1    2    0    0  0.68086406919E+01  0.24347543737E+02 -0.19430949111E+02  0.31886082504E+02  0.00000000000E+00 0. -1.
         11    1    3    3    0    0  0.16858888830E+02 -0.17443529474E+02  0.41630802247E+01  0.24613615954E+02  0.51100000000E-03 0. -1.
        -11    1    3    3    0    0 -0.22024589690E+02 -0.92914051103E+01  0.18588328836E+02  0.30280996172E+02  0.51100000000E-03 0.  1.
         12    1    3    3    0    0 -0.16429398318E+01  0.23873908480E+01 -0.33204599497E+01  0.44073053706E+01  0.00000000000E+00 0. -1.
</event>
<event>
 7    1  0.7749294E-012  0.5930190E+02  0.7816164E-02  0.1266605E+00
        -11   -1    0    0    0    0  0.00000000000E+00  0.00000000000E+00  0.45593999997E+02  0.45594000000E+02  0.51100000000E-03 0.  1.
         11   -1    0    0    0    0 -0.00000000000E+00 -0.00000000000E+00 -0.45593999997E+02  0.45594000000E+02  0.51100000000E-03 0. -1.
    9900012    2    1    2    0    0 -0.28274498188E+01  0.19474034971E+02  0.25089651696E+02  0.59301903771E+02  0.49999926581E+02 0.  0.
         12    1    1    2    0    0  0.28274498188E+01 -0.19474034971E+02 -0.25089651696E+02  0.31886096229E+02  0.00000000000E+00 0. -1.
         11    1    3    3    0    0 -0.18144740906E+02  0.43804737963E+01  0.57407230359E+01  0.19528852359E+02  0.51100000000E-03 0. -1.
        -11    1    3    3    0    0  0.15349495369E+02 -0.25732346020E+01  0.14918898174E+02  0.21559268712E+02  0.51100000000E-03 0.  1.
         12    1    3    3    0    0 -0.32204282271E-01  0.17666795777E+02  0.44300304857E+01  0.18213782700E+02  0.00000000000E+00 0. -1.
</event>
<event>
 7    1  0.7749294E-012  0.5930176E+02  0.7816164E-02  0.1266605E+00
        -11   -1    0    0    0    0  0.00000000000E+00  0.00000000000E+00  0.45593999997E+02  0.45594000000E+02  0.51100000000E-03 0.  1.
         11   -1    0    0    0    0 -0.00000000000E+00 -0.00000000000E+00 -0.45593999997E+02  0.45594000000E+02  0.51100000000E-03 0. -1.
    9900012    2    1    2    0    0  0.30236217277E+01  0.25690989957E+02 -0.18643045186E+02  0.59301758655E+02  0.49999661923E+02 0.  0.
         12    1    1    2    0    0 -0.30236217277E+01 -0.25690989957E+02  0.18643045186E+02  0.31886241345E+02  0.00000000000E+00 0. -1.
         11    1    3    3    0    0 -0.18853093575E+02  0.17657230612E+02 -0.20513739422E+02  0.32985306358E+02  0.51100000000E-03 0. -1.
        -11    1    3    3    0    0  0.73295044724E+01 -0.26358531320E+01  0.27347874680E+01  0.82552056487E+01  0.51100000000E-03 0.  1.
         12    1    3    3    0    0  0.14547210830E+02  0.10669612477E+02 -0.86409323232E+00  0.18061246648E+02  0.00000000000E+00 0. -1.
</event>
<event>
 7    1  0.7749294E-012  0.5930193E+02  0.7816164E-02  0.1266605E+00
        -11   -1    0    0    0    0  0.00000000000E+00  0.00000000000E+00  0.45593999997E+02  0.45594000000E+02  0.51100000000E-03 0.  1.
         11   -1    0    0    0    0 -0.00000000000E+00 -0.00000000000E+00 -0.45593999997E+02  0.45594000000E+02  0.51100000000E-03 0. -1.
    9900012    2    1    2    0    0  0.21425030675E+02  0.23277955747E+02  0.39782504734E+01  0.59301927178E+02  0.49999969269E+02 0.  0.
         12    1    1    2    0    0 -0.21425030675E+02 -0.23277955747E+02 -0.39782504734E+01  0.31886072822E+02  0.00000000000E+00 0. -1.
         11    1    3    3    0    0 -0.10348204448E+02  0.18851741923E+02 -0.15062238097E+01  0.21557880676E+02  0.51100000000E-03 0. -1.
        -11    1    3    3    0    0  0.68802880923E+01 -0.22395739489E+01 -0.61247830097E+01  0.94798218803E+01  0.51100000000E-03 0.  1.
         12    1    3    3    0    0  0.24892947031E+02  0.66657877733E+01  0.11609257293E+02  0.28264224621E+02  0.00000000000E+00 0. -1.
</event>
<event>
 7    1  0.7749294E-012  0.5930190E+02  0.7816164E-02  0.1266605E+00
        -11   -1    0    0    0    0  0.00000000000E+00  0.00000000000E+00  0.45593999997E+02  0.45594000000E+02  0.51100000000E-03 0. -1.
         11   -1    0    0    0    0 -0.00000000000E+00 -0.00000000000E+00 -0.45593999997E+02  0.45594000000E+02  0.51100000000E-03 0.  1.
    9900012    2    1    2    0    0 -0.23639378205E+02  0.21365685348E+02 -0.11876477074E+01  0.59301902412E+02  0.49999924103E+02 0.  0.
         12    1    1    2    0    0  0.23639378205E+02 -0.21365685348E+02  0.11876477074E+01  0.31886097588E+02  0.00000000000E+00 0. -1.
         11    1    3    3    0    0 -0.68365524833E+01  0.10421842613E+02 -0.11659005677E+02  0.17067093102E+02  0.51100000000E-03 0.  1.
        -11    1    3    3    0    0 -0.11867928967E+02  0.13800471267E+02  0.22489663525E+02  0.28932433546E+02  0.51100000000E-03 0. -1.
         12    1    3    3    0    0 -0.49348967544E+01 -0.28566285318E+01 -0.12018305555E+02  0.13302375764E+02  0.00000000000E+00 0. -1.
</event>
<event>
 7    1  0.7749294E-012  0.5930188E+02  0.7816164E-02  0.1266605E+00
        -11   -1    0    0    0    0  0.00000000000E+00  0.00000000000E+00  0.45593999997E+02  0.45594000000E+02  0.51100000000E-03 0. -1.
         11   -1    0    0    0    0 -0.00000000000E+00 -0.00000000000E+00 -0.45593999997E+02  0.45594000000E+02  0.51100000000E-03 0.  1.
    9900012    2    1    2    0    0 -0.18163380408E+02  0.24953575134E+02 -0.80084410471E+01  0.59301883463E+02  0.49999889544E+02 0.  0.
         12    1    1    2    0    0  0.18163380408E+02 -0.24953575134E+02  0.80084410471E+01  0.31886116537E+02  0.00000000000E+00 0. -1.
         11    1    3    3    0    0  0.95386371234E+01 -0.60824499438E+01 -0.42203690004E+01  0.12074490062E+02  0.51100000000E-03 0. -1.
        -11    1    3    3    0    0 -0.31376707797E+02  0.25739294871E+02 -0.39790703666E+01  0.40777960884E+02  0.51100000000E-03 0.  1.
         12    1    3    3    0    0  0.36746902657E+01  0.52967302069E+01  0.19099832000E+00  0.64494325170E+01  0.00000000000E+00 0. -1.
</event>
<event>
 7    1  0.7749294E-012  0.5930193E+02  0.7816164E-02  0.1266605E+00
        -11   -1    0    0    0    0  0.00000000000E+00  0.00000000000E+00  0.45593999997E+02  0.45594000000E+02  0.51100000000E-03 0.  1.
         11   -1    0    0    0    0 -0.00000000000E+00 -0.00000000000E+00 -0.45593999997E+02  0.45594000000E+02  0.51100000000E-03 0. -1.
    9900012    2    1    2    0    0 -0.19328289995E+02 -0.16711875880E+02  0.19074896328E+02  0.59301933144E+02  0.49999980152E+02 0.  0.
         12    1    1    2    0    0  0.19328289995E+02  0.16711875880E+02 -0.19074896328E+02  0.31886066856E+02  0.00000000000E+00 0. -1.
         11    1    3    3    0    0 -0.16391181923E+00 -0.15158019587E+02  0.98258114309E+01  0.18064855256E+02  0.51100000000E-03 0. -1.
        -11    1    3    3    0    0 -0.65067339682E+01  0.16548400817E+02  0.66992284303E+01  0.19001758296E+02  0.51100000000E-03 0.  1.
        -12    1    3    3    0    0 -0.12657644208E+02 -0.18102257110E+02  0.25498564671E+01  0.22235319592E+02  0.00000000000E+00 0.  1.
</event>
<event>
 7    1  0.7749294E-012  0.5930193E+02  0.7816164E-02  0.1266605E+00
        -11   -1    0    0    0    0  0.00000000000E+00  0.00000000000E+00  0.45593999997E+02  0.45594000000E+02  0.51100000000E-03 0.  1.
         11   -1    0    0    0    0 -0.00000000000E+00 -0.00000000000E+00 -0.45593999997E+02  0.45594000000E+02  0.51100000000E-03 0. -1.
    9900012    2    1    2    0    0  0.19020962941E+02  0.11972903666E+02  0.22617996779E+02  0.59301933581E+02  0.49999980947E+02 0.  0.
         12    1    1    2    0    0 -0.19020962941E+02 -0.11972903666E+02 -0.22617996779E+02  0.31886066419E+02  0.00000000000E+00 0. -1.
         11    1    3    3    0    0 -0.16166738615E+01  0.75324865671E+01 -0.38538824916E+01  0.86141975121E+01  0.51100000000E-03 0. -1.
        -11    1    3    3    0    0  0.31200605823E+02  0.18907034847E+00  0.15356839340E+02  0.34775653352E+02  0.51100000000E-03 0.  1.
        -12    1    3    3    0    0 -0.10562969020E+02  0.42513467508E+01  0.11115039930E+02  0.15912082716E+02  0.00000000000E+00 0.  1.
</event>
<event>
 7    1  0.7749294E-012  0.5930191E+02  0.7816164E-02  0.1266605E+00
        -11   -1    0    0    0    0  0.00000000000E+00  0.00000000000E+00  0.45593999997E+02  0.45594000000E+02  0.51100000000E-03 0.  1.
         11   -1    0    0    0    0 -0.00000000000E+00 -0.00000000000E+00 -0.45593999997E+02  0.45594000000E+02  0.51100000000E-03 0. -1.
    9900012    2    1    2    0    0 -0.18543078494E+02  0.54229951098E+01  0.25366674159E+02  0.59301909084E+02  0.49999936271E+02 0.  0.
         12    1    1    2    0    0  0.18543078494E+02 -0.54229951098E+01 -0.25366674159E+02  0.31886090916E+02  0.00000000000E+00 0. -1.
         11    1    3    3    0    0  0.69559081573E+01 -0.82787877445E+01  0.17936154712E+02  0.20943462725E+02  0.51100000000E-03 0. -1.
        -11    1    3    3    0    0 -0.94896937560E+01  0.17600285753E+02 -0.65089088078E+00  0.20006199174E+02  0.51100000000E-03 0.  1.
         12    1    3    3    0    0 -0.16009292896E+02 -0.38985028987E+01  0.80814103282E+01  0.18352247186E+02  0.00000000000E+00 0. -1.
</event>
<event>
 7    1  0.7749294E-012  0.5930194E+02  0.7816164E-02  0.1266605E+00
        -11   -1    0    0    0    0  0.00000000000E+00  0.00000000000E+00  0.45593999997E+02  0.45594000000E+02  0.51100000000E-03 0. -1.
         11   -1    0    0    0    0 -0.00000000000E+00 -0.00000000000E+00 -0.45593999997E+02  0.45594000000E+02  0.51100000000E-03 0.  1.
    9900012    2    1    2    0    0 -0.26682723418E+01  0.31643514662E+02 -0.28790938716E+01  0.59301939112E+02  0.49999991035E+02 0.  0.
         12    1    1    2    0    0  0.26682723418E+01 -0.31643514662E+02  0.28790938716E+01  0.31886060888E+02  0.00000000000E+00 0. -1.
         11    1    3    3    0    0  0.17133448403E+02  0.27457252490E+02  0.15867389036E+01  0.32403294726E+02  0.51100000000E-03 0. -1.
        -11    1    3    3    0    0 -0.12204645854E+02 -0.55313578404E+01  0.93728034066E+00  0.13432341370E+02  0.51100000000E-03 0.  1.
        -12    1    3    3    0    0 -0.75970748900E+01  0.97176200117E+01 -0.54031131159E+01  0.13466303016E+02  0.00000000000E+00 0.  1.
</event>
<event>
 7    1  0.7749294E-012  0.5930192E+02  0.7816164E-02  0.1266605E+00
        -11   -1    0    0    0    0  0.00000000000E+00  0.00000000000E+00  0.45593999997E+02  0.45594000000E+02  0.51100000000E-03 0.  1.
         11   -1    0    0    0    0 -0.00000000000E+00 -0.00000000000E+00 -0.45593999997E+02  0.45594000000E+02  0.51100000000E-03 0. -1.
    9900012    2    1    2    0    0 -0.96146721448E+01  0.30308835964E+02 -0.23779192052E+01  0.59301922196E+02  0.49999960184E+02 0.  0.
         12    1    1    2    0    0  0.96146721448E+01 -0.30308835964E+02  0.23779192052E+01  0.31886077804E+02  0.00000000000E+00 0. -1.
         11    1    3    3    0    0  0.71294722340E+01  0.11561744470E+01 -0.11711536441E+02  0.13759585741E+02  0.51100000000E-03 0. -1.
        -11    1    3    3    0    0 -0.29464992506E+01  0.20227607249E+02  0.17756850195E+02  0.27076626118E+02  0.51100000000E-03 0.  1.
        -12    1    3    3    0    0 -0.13797645128E+02  0.89250542687E+01 -0.84232329585E+01  0.18465710337E+02  0.00000000000E+00 0.  1.
</event>
<event>
 7    1  0.7749294E-012  0.5930196E+02  0.7816164E-02  0.1266605E+00
        -11   -1    0    0    0    0  0.00000000000E+00  0.00000000000E+00  0.45593999997E+02  0.45594000000E+02  0.51100000000E-03 0.  1.
         11   -1    0    0    0    0 -0.00000000000E+00 -0.00000000000E+00 -0.45593999997E+02  0.45594000000E+02  0.51100000000E-03 0. -1.
    9900012    2    1    2    0    0 -0.26294466208E+02 -0.14399008093E+02  0.10862284945E+02  0.59301958831E+02  0.50000026998E+02 0.  0.
         12    1    1    2    0    0  0.26294466208E+02  0.14399008093E+02 -0.10862284945E+02  0.31886041169E+02  0.00000000000E+00 0. -1.
         11    1    3    3    0    0  0.34631585531E+01  0.10074454574E+02  0.91995013014E+00  0.10692726997E+02  0.51100000000E-03 0. -1.
        -11    1    3    3    0    0 -0.30551978429E+02 -0.10781808594E+02  0.12372937524E+02  0.34680835712E+02  0.51100000000E-03 0.  1.
        -12    1    3    3    0    0  0.79435366769E+00 -0.13691654073E+02 -0.24306027094E+01  0.13928396122E+02  0.00000000000E+00 0.  1.
</event>
<event>
 7    1  0.7749294E-012  0.5930196E+02  0.7816164E-02  0.1266605E+00
        -11   -1    0    0    0    0  0.00000000000E+00  0.00000000000E+00  0.45593999997E+02  0.45594000000E+02  0.51100000000E-03 0.  1.
         11   -1    0    0    0    0 -0.00000000000E+00 -0.00000000000E+00 -0.45593999997E+02  0.45594000000E+02  0.51100000000E-03 0. -1.
    9900012    2    1    2    0    0  0.11511050644E+02  0.17995409254E+02  0.23672358050E+02  0.59301959530E+02  0.50000028273E+02 0.  0.
         12    1    1    2    0    0 -0.11511050644E+02 -0.17995409254E+02 -0.23672358050E+02  0.31886040470E+02  0.00000000000E+00 0. -1.
         11    1    3    3    0    0 -0.53910825042E+01  0.92485181898E+01 -0.12248072348E+02  0.16266964553E+02  0.51100000000E-03 0. -1.
        -11    1    3    3    0    0  0.77573835498E+01  0.10164132567E+02  0.12624752579E+02  0.17968610640E+02  0.51100000000E-03 0.  1.
         12    1    3    3    0    0  0.91447495984E+01 -0.14172415026E+01  0.23295677820E+02  0.25066384338E+02  0.00000000000E+00 0. -1.
</event>
<event>
 7    1  0.7749294E-012  0.5930195E+02  0.7816164E-02  0.1266605E+00
        -11   -1    0    0    0    0  0.00000000000E+00  0.00000000000E+00  0.45593999997E+02  0.45594000000E+02  0.51100000000E-03 0. -1.
         11   -1    0    0    0    0 -0.00000000000E+00 -0.00000000000E+00 -0.45593999997E+02  0.45594000000E+02  0.51100000000E-03 0.  1.
    9900012    2    1    2    0    0 -0.85750755328E+01 -0.27475970427E+02 -0.13720766351E+02  0.59301948181E+02  0.50000007575E+02 0.  0.
         12    1    1    2    0    0  0.85750755328E+01  0.27475970427E+02  0.13720766351E+02  0.31886051819E+02  0.00000000000E+00 0. -1.
         11    1    3    3    0    0 -0.96300553691E+01  0.10071617969E+02 -0.23773913540E+01  0.14136033561E+02  0.51100000000E-03 0. -1.
        -11    1    3    3    0    0  0.11129499087E+01 -0.20316156710E+02  0.54925762622E+01  0.21074944252E+02  0.51100000000E-03 0.  1.
         12    1    3    3    0    0 -0.57970072509E-01 -0.17231431686E+02 -0.16835951260E+02  0.24090970369E+02  0.00000000000E+00 0. -1.
</event>
<event>
 7    1  0.7749294E-012  0.5930194E+02  0.7816164E-02  0.1266605E+00
        -11   -1    0    0    0    0  0.00000000000E+00  0.00000000000E+00  0.45593999997E+02  0.45594000000E+02  0.51100000000E-03 0.  1.
         11   -1    0    0    0    0 -0.00000000000E+00 -0.00000000000E+00 -0.45593999997E+02  0.45594000000E+02  0.51100000000E-03 0. -1.
    9900012    2    1    2    0    0 -0.14763755396E+02 -0.25855930270E+02 -0.11411548889E+02  0.59301936405E+02  0.49999986098E+02 0.  0.
         12    1    1    2    0    0  0.14763755396E+02  0.25855930270E+02  0.11411548889E+02  0.31886063595E+02  0.00000000000E+00 0. -1.
         11    1    3    3    0    0  0.48633453096E+01  0.18860618403E+01 -0.20459552382E+02  0.21114038950E+02  0.51100000000E-03 0. -1.
        -11    1    3    3    0    0 -0.94017823091E+01 -0.73906914537E+01  0.97070190453E+01  0.15402663723E+02  0.51100000000E-03 0.  1.
         12    1    3    3    0    0 -0.10225318397E+02 -0.20351300657E+02 -0.65901555215E+00  0.22785233732E+02  0.00000000000E+00 0. -1.
</event>
<event>
 7    1  0.7749294E-012  0.5930193E+02  0.7816164E-02  0.1266605E+00
        -11   -1    0    0    0    0  0.00000000000E+00  0.00000000000E+00  0.45593999997E+02  0.45594000000E+02  0.51100000000E-03 0.  1.
         11   -1    0    0    0    0 -0.00000000000E+00 -0.00000000000E+00 -0.45593999997E+02  0.45594000000E+02  0.51100000000E-03 0. -1.
    9900012    2    1    2    0    0 -0.74978130843E+01 -0.12486524470E+02  0.28365307973E+02  0.59301934222E+02  0.49999982117E+02 0.  0.
         12    1    1    2    0    0  0.74978130843E+01  0.12486524470E+02 -0.28365307973E+02  0.31886065778E+02  0.00000000000E+00 0. -1.
         11    1    3    3    0    0 -0.11659550797E+02 -0.15244665458E+02 -0.76251338746E+01  0.20651576613E+02  0.51100000000E-03 0. -1.
        -11    1    3    3    0    0 -0.95479604647E+00 -0.15803609416E+01  0.28638048363E+02  0.28697508437E+02  0.51100000000E-03 0.  1.
         12    1    3    3    0    0  0.51165337594E+01  0.43385019294E+01  0.73523934843E+01  0.99528491725E+01  0.00000000000E+00 0. -1.
</event>
<event>
 7    1  0.7749294E-012  0.5930196E+02  0.7816164E-02  0.1266605E+00
        -11   -1    0    0    0    0  0.00000000000E+00  0.00000000000E+00  0.45593999997E+02  0.45594000000E+02  0.51100000000E-03 0. -1.
         11   -1    0    0    0    0 -0.00000000000E+00 -0.00000000000E+00 -0.45593999997E+02  0.45594000000E+02  0.51100000000E-03 0.  1.
    9900012    2    1    2    0    0  0.20025535162E+02 -0.18305399729E+02  0.16751415005E+02  0.59301958815E+02  0.50000026969E+02 0.  0.
         12    1    1    2    0    0 -0.20025535162E+02  0.18305399729E+02 -0.16751415005E+02  0.31886041185E+02  0.00000000000E+00 0. -1.
         11    1    3    3    0    0  0.41227745647E+01  0.13546602329E+01  0.10937216338E+01  0.44753325833E+01  0.51100000000E-03 0. -1.
        -11    1    3    3    0    0 -0.15487027080E+02 -0.10182747672E+02  0.11405259335E+02  0.21762727280E+02  0.51100000000E-03 0.  1.
        -12    1    3    3    0    0  0.31389787677E+02 -0.94773122895E+01  0.42524340370E+01  0.33063898952E+02  0.00000000000E+00 0.  1.
</event>
<event>
 7    1  0.7749294E-012  0.5930194E+02  0.7816164E-02  0.1266605E+00
        -11   -1    0    0    0    0  0.00000000000E+00  0.00000000000E+00  0.45593999997E+02  0.45594000000E+02  0.51100000000E-03 0. -1.
         11   -1    0    0    0    0 -0.00000000000E+00 -0.00000000000E+00 -0.45593999997E+02  0.45594000000E+02  0.51100000000E-03 0.  1.
    9900012    2    1    2    0    0  0.23437628137E+02  0.16122364878E+02 -0.14403732637E+02  0.59301943865E+02  0.49999999704E+02 0.  0.
         12    1    1    2    0    0 -0.23437628137E+02 -0.16122364878E+02  0.14403732637E+02  0.31886056135E+02  0.00000000000E+00 0. -1.
         11    1    3    3    0    0  0.23535821601E+02  0.16771782344E+02  0.10442294542E+02  0.30728961860E+02  0.51100000000E-03 0. -1.
        -11    1    3    3    0    0 -0.31044830976E+00  0.54935509622E+01 -0.20007809539E+02  0.20750612597E+02  0.51100000000E-03 0.  1.
         12    1    3    3    0    0  0.21225484608E+00 -0.61429684288E+01 -0.48382176400E+01  0.78223694089E+01  0.00000000000E+00 0. -1.
</event>
<event>
 7    1  0.7749294E-012  0.5930199E+02  0.7816164E-02  0.1266605E+00
        -11   -1    0    0    0    0  0.00000000000E+00  0.00000000000E+00  0.45593999997E+02  0.45594000000E+02  0.51100000000E-03 0. -1.
         11   -1    0    0    0    0 -0.00000000000E+00 -0.00000000000E+00 -0.45593999997E+02  0.45594000000E+02  0.51100000000E-03 0.  1.
    9900012    2    1    2    0    0 -0.34387404130E+01  0.31655328031E+02  0.16831492032E+01  0.59301988653E+02  0.50000081385E+02 0.  0.
         12    1    1    2    0    0  0.34387404130E+01 -0.31655328031E+02 -0.16831492032E+01  0.31886011347E+02  0.00000000000E+00 0. -1.
         11    1    3    3    0    0 -0.63254698608E+01 -0.78184936197E+01 -0.12582200091E+02  0.16107519078E+02  0.51100000000E-03 0.  1.
        -11    1    3    3    0    0 -0.25688637427E+01  0.24388817980E+02  0.10729466408E+02  0.26768170522E+02  0.51100000000E-03 0. -1.
        -12    1    3    3    0    0  0.54555931905E+01  0.15085003671E+02  0.35358828863E+01  0.16426299053E+02  0.00000000000E+00 0.  1.
</event>
<event>
 7    1  0.7749294E-012  0.5930194E+02  0.7816164E-02  0.1266605E+00
        -11   -1    0    0    0    0  0.00000000000E+00  0.00000000000E+00  0.45593999997E+02  0.45594000000E+02  0.51100000000E-03 0.  1.
         11   -1    0    0    0    0 -0.00000000000E+00 -0.00000000000E+00 -0.45593999997E+02  0.45594000000E+02  0.51100000000E-03 0. -1.
    9900012    2    1    2    0    0  0.66979506978E+01 -0.18861109502E+02  0.24821694904E+02  0.59301944535E+02  0.50000000925E+02 0.  0.
         12    1    1    2    0    0 -0.66979506978E+01  0.18861109502E+02 -0.24821694904E+02  0.31886055465E+02  0.00000000000E+00 0. -1.
         11    1    3    3    0    0  0.90996030513E+01  0.11875841044E+02  0.14906396460E+02  0.21119636168E+02  0.51100000000E-03 0. -1.
        -11    1    3    3    0    0 -0.69447947640E+01 -0.16120168889E+02  0.13872312272E+02  0.22372551650E+02  0.51100000000E-03 0.  1.
        -12    1    3    3    0    0  0.45431424105E+01 -0.14616781658E+02 -0.39570138279E+01  0.15809756717E+02  0.00000000000E+00 0.  1.
</event>
<event>
 7    1  0.7749294E-012  0.5930193E+02  0.7816164E-02  0.1266605E+00
        -11   -1    0    0    0    0  0.00000000000E+00  0.00000000000E+00  0.45593999997E+02  0.45594000000E+02  0.51100000000E-03 0.  1.
         11   -1    0    0    0    0 -0.00000000000E+00 -0.00000000000E+00 -0.45593999997E+02  0.45594000000E+02  0.51100000000E-03 0. -1.
    9900012    2    1    2    0    0 -0.15808142643E+02  0.57642728558E+01  0.27085000320E+02  0.59301930036E+02  0.49999974483E+02 0.  0.
         12    1    1    2    0    0  0.15808142643E+02 -0.57642728558E+01 -0.27085000320E+02  0.31886069964E+02  0.00000000000E+00 0. -1.
         11    1    3    3    0    0  0.80462503009E+01 -0.25211317984E+00  0.13678931893E+01  0.81655885886E+01  0.51100000000E-03 0. -1.
        -11    1    3    3    0    0 -0.24789229368E+02  0.96779577186E+01  0.15295621435E+01  0.26655361916E+02  0.51100000000E-03 0.  1.
        -12    1    3    3    0    0  0.93483642416E+00 -0.36615716830E+01  0.24187544988E+02  0.24480979532E+02  0.00000000000E+00 0.  1.
</event>
<event>
 7    1  0.7749294E-012  0.5930193E+02  0.7816164E-02  0.1266605E+00
        -11   -1    0    0    0    0  0.00000000000E+00  0.00000000000E+00  0.45593999997E+02  0.45594000000E+02  0.51100000000E-03 0.  1.
         11   -1    0    0    0    0 -0.00000000000E+00 -0.00000000000E+00 -0.45593999997E+02  0.45594000000E+02  0.51100000000E-03 0. -1.
    9900012    2    1    2    0    0 -0.15978998475E+02 -0.14824607650E+02  0.23272814159E+02  0.59301933088E+02  0.49999980048E+02 0.  0.
         12    1    1    2    0    0  0.15978998475E+02  0.14824607650E+02 -0.23272814159E+02  0.31886066912E+02  0.00000000000E+00 0. -1.
         11    1    3    3    0    0 -0.27730585978E+02  0.43028385463E+01  0.23448050250E+02  0.36569261396E+02  0.51100000000E-03 0. -1.
        -11    1    3    3    0    0  0.42292243082E+01 -0.40454601110E+01  0.42682572855E+00  0.58680717635E+01  0.51100000000E-03 0.  1.
         12    1    3    3    0    0  0.75223631949E+01 -0.15081986085E+02 -0.60206181932E+00  0.16864599928E+02  0.00000000000E+00 0. -1.
</event>
<event>
 7    1  0.7749294E-012  0.5930194E+02  0.7816164E-02  0.1266605E+00
        -11   -1    0    0    0    0  0.00000000000E+00  0.00000000000E+00  0.45593999997E+02  0.45594000000E+02  0.51100000000E-03 0. -1.
         11   -1    0    0    0    0 -0.00000000000E+00 -0.00000000000E+00 -0.45593999997E+02  0.45594000000E+02  0.51100000000E-03 0.  1.
    9900012    2    1    2    0    0  0.25834083502E+02 -0.14273776310E+02 -0.12065658547E+02  0.59301942284E+02  0.49999996820E+02 0.  0.
         12    1    1    2    0    0 -0.25834083502E+02  0.14273776310E+02  0.12065658547E+02  0.31886057716E+02  0.00000000000E+00 0. -1.
         11    1    3    3    0    0 -0.67762905611E+01  0.76127775458E+01 -0.62741895402E+01  0.11968205813E+02  0.51100000000E-03 0. -1.
        -11    1    3    3    0    0  0.28880726390E+02 -0.18727499872E+02  0.56594425208E+01  0.34883304003E+02  0.51100000000E-03 0.  1.
         12    1    3    3    0    0  0.37296476730E+01 -0.31590539832E+01 -0.11450911527E+02  0.12450432468E+02  0.00000000000E+00 0. -1.
</event>
<event>
 7    1  0.7749294E-012  0.5930190E+02  0.7816164E-02  0.1266605E+00
        -11   -1    0    0    0    0  0.00000000000E+00  0.00000000000E+00  0.45593999997E+02  0.45594000000E+02  0.51100000000E-03 0.  1.
         11   -1    0    0    0    0 -0.00000000000E+00 -0.00000000000E+00 -0.45593999997E+02  0.45594000000E+02  0.51100000000E-03 0. -1.
    9900012    2    1    2    0    0 -0.30068340236E+02  0.17541285841E+01  0.10466201568E+02  0.59301899158E+02  0.49999918168E+02 0.  0.
         12    1    1    2    0    0  0.30068340236E+02 -0.17541285841E+01 -0.10466201568E+02  0.31886100842E+02  0.00000000000E+00 0. -1.
         11    1    3    3    0    0 -0.88821808874E+01 -0.59938121423E+01 -0.18572666268E+02  0.21442081379E+02  0.51100000000E-03 0. -1.
        -11    1    3    3    0    0 -0.14168397050E+02  0.80532461004E+01  0.14944012717E+02  0.22111575341E+02  0.51100000000E-03 0.  1.
         12    1    3    3    0    0 -0.70177622992E+01 -0.30530537390E+00  0.14094855119E+02  0.15748242438E+02  0.00000000000E+00 0. -1.
</event>
<event>
 7    1  0.7749294E-012  0.5930197E+02  0.7816164E-02  0.1266605E+00
        -11   -1    0    0    0    0  0.00000000000E+00  0.00000000000E+00  0.45593999997E+02  0.45594000000E+02  0.51100000000E-03 0. -1.
         11   -1    0    0    0    0 -0.00000000000E+00 -0.00000000000E+00 -0.45593999997E+02  0.45594000000E+02  0.51100000000E-03 0.  1.
    9900012    2    1    2    0    0 -0.10090752246E+02  0.13884501053E+02 -0.26872218322E+02  0.59301972214E+02  0.50000051406E+02 0.  0.
         12    1    1    2    0    0  0.10090752246E+02 -0.13884501053E+02  0.26872218322E+02  0.31886027786E+02  0.00000000000E+00 0. -1.
         11    1    3    3    0    0  0.96912894325E+01 -0.95061790626E+01  0.52546189444E+01  0.14556769963E+02  0.51100000000E-03 0. -1.
        -11    1    3    3    0    0 -0.61572540440E+01  0.10704931871E+02 -0.15197476159E+02  0.19582406022E+02  0.51100000000E-03 0.  1.
         12    1    3    3    0    0 -0.13624787634E+02  0.12685748245E+02 -0.16929361107E+02  0.25162796230E+02  0.00000000000E+00 0. -1.
</event>
<event>
 7    1  0.7749294E-012  0.5930194E+02  0.7816164E-02  0.1266605E+00
        -11   -1    0    0    0    0  0.00000000000E+00  0.00000000000E+00  0.45593999997E+02  0.45594000000E+02  0.51100000000E-03 0.  1.
         11   -1    0    0    0    0 -0.00000000000E+00 -0.00000000000E+00 -0.45593999997E+02  0.45594000000E+02  0.51100000000E-03 0. -1.
    9900012    2    1    2    0    0  0.12568001552E+02 -0.17646767131E+02  0.23395674285E+02  0.59301943040E+02  0.49999998199E+02 0.  0.
         12    1    1    2    0    0 -0.12568001552E+02  0.17646767131E+02 -0.23395674285E+02  0.31886056960E+02  0.00000000000E+00 0. -1.
         11    1    3    3    0    0 -0.38432234365E+01  0.11412167591E+02 -0.71968898506E+01  0.14028654935E+02  0.51100000000E-03 0. -1.
        -11    1    3    3    0    0  0.13541529797E+02 -0.23963265826E+02  0.25295268975E+02  0.37382639969E+02  0.51100000000E-03 0.  1.
         12    1    3    3    0    0  0.28696951918E+01 -0.50956688955E+01  0.52972951610E+01  0.78906481362E+01  0.00000000000E+00 0. -1.
</event>
<event>
 7    1  0.7749294E-012  0.5930197E+02  0.7816164E-02  0.1266605E+00
        -11   -1    0    0    0    0  0.00000000000E+00  0.00000000000E+00  0.45593999997E+02  0.45594000000E+02  0.51100000000E-03 0.  1.
         11   -1    0    0    0    0 -0.00000000000E+00 -0.00000000000E+00 -0.45593999997E+02  0.45594000000E+02  0.51100000000E-03 0. -1.
    9900012    2    1    2    0    0  0.27372213730E+01 -0.18612182315E+02  0.25745160752E+02  0.59301968363E+02  0.50000044382E+02 0.  0.
         12    1    1    2    0    0 -0.27372213730E+01  0.18612182315E+02 -0.25745160752E+02  0.31886031637E+02  0.00000000000E+00 0. -1.
         11    1    3    3    0    0 -0.61402911325E+01 -0.48970360215E+01 -0.70246725542E+01  0.10537085069E+02  0.51100000000E-03 0. -1.
        -11    1    3    3    0    0  0.75346170187E+01 -0.21814488233E+02  0.33324820639E+02  0.40536230971E+02  0.51100000000E-03 0.  1.
         12    1    3    3    0    0  0.13428954868E+01  0.80993419387E+01 -0.55498733240E+00  0.82286523239E+01  0.00000000000E+00 0. -1.
</event>
<event>
 7    1  0.7749294E-012  0.5930206E+02  0.7816164E-02  0.1266604E+00
        -11   -1    0    0    0    0  0.00000000000E+00  0.00000000000E+00  0.45593999997E+02  0.45594000000E+02  0.51100000000E-03 0. -1.
         11   -1    0    0    0    0 -0.00000000000E+00 -0.00000000000E+00 -0.45593999997E+02  0.45594000000E+02  0.51100000000E-03 0.  1.
    9900012    2    1    2    0    0  0.21435415431E+02 -0.23553986065E+02 -0.15638471070E+01  0.59302064040E+02  0.50000218874E+02 0.  0.
         12    1    1    2    0    0 -0.21435415431E+02  0.23553986065E+02  0.15638471070E+01  0.31885935960E+02  0.00000000000E+00 0. -1.
         11    1    3    3    0    0  0.74754175432E+01 -0.93181766557E+01 -0.14070566772E+01  0.12028719482E+02  0.51100000000E-03 0. -1.
        -11    1    3    3    0    0 -0.74072956342E+01  0.11565884508E+02 -0.90596509456E+00  0.13764391961E+02  0.51100000000E-03 0.  1.
        -12    1    3    3    0    0  0.21367293522E+02 -0.25801693917E+02  0.74917466477E+00  0.33508952597E+02  0.00000000000E+00 0.  1.
</event>
<event>
 7    1  0.7749294E-012  0.5930195E+02  0.7816164E-02  0.1266605E+00
        -11   -1    0    0    0    0  0.00000000000E+00  0.00000000000E+00  0.45593999997E+02  0.45594000000E+02  0.51100000000E-03 0. -1.
         11   -1    0    0    0    0 -0.00000000000E+00 -0.00000000000E+00 -0.45593999997E+02  0.45594000000E+02  0.51100000000E-03 0.  1.
    9900012    2    1    2    0    0 -0.17278700961E+02 -0.89923224938E+01 -0.25244898443E+02  0.59301948690E+02  0.50000008504E+02 0.  0.
         12    1    1    2    0    0  0.17278700961E+02  0.89923224938E+01  0.25244898443E+02  0.31886051310E+02  0.00000000000E+00 0. -1.
         11    1    3    3    0    0 -0.74407225312E+01 -0.11631775776E+02  0.52618920015E+01  0.14776673076E+02  0.51100000000E-03 0. -1.
        -11    1    3    3    0    0  0.92504379268E+01  0.71034892123E+01 -0.59188657246E+01  0.13079110541E+02  0.51100000000E-03 0.  1.
        -12    1    3    3    0    0 -0.19088416357E+02 -0.44640359300E+01 -0.24587924719E+02  0.31446165073E+02  0.00000000000E+00 0.  1.
</event>
<event>
 7    1  0.7749294E-012  0.5930191E+02  0.7816164E-02  0.1266605E+00
        -11   -1    0    0    0    0  0.00000000000E+00  0.00000000000E+00  0.45593999997E+02  0.45594000000E+02  0.51100000000E-03 0.  1.
         11   -1    0    0    0    0 -0.00000000000E+00 -0.00000000000E+00 -0.45593999997E+02  0.45594000000E+02  0.51100000000E-03 0. -1.
    9900012    2    1    2    0    0 -0.30009558983E+02 -0.10737561231E+02 -0.92419904979E+00  0.59301905924E+02  0.49999930508E+02 0.  0.
         12    1    1    2    0    0  0.30009558983E+02  0.10737561231E+02  0.92419904979E+00  0.31886094076E+02  0.00000000000E+00 0. -1.
         11    1    3    3    0    0 -0.11002013238E+02  0.71591860711E+01 -0.22397307130E+01  0.13315954131E+02  0.51100000000E-03 0. -1.
        -11    1    3    3    0    0 -0.71766390255E+01 -0.28821379753E+02 -0.99257285865E+00  0.29718029539E+02  0.51100000000E-03 0.  1.
        -12    1    3    3    0    0 -0.11830906719E+02  0.10924632450E+02  0.23081045219E+01  0.16267922254E+02  0.00000000000E+00 0.  1.
</event>
<event>
 7    1  0.7749294E-012  0.5930194E+02  0.7816164E-02  0.1266605E+00
        -11   -1    0    0    0    0  0.00000000000E+00  0.00000000000E+00  0.45593999997E+02  0.45594000000E+02  0.51100000000E-03 0. -1.
         11   -1    0    0    0    0 -0.00000000000E+00 -0.00000000000E+00 -0.45593999997E+02  0.45594000000E+02  0.51100000000E-03 0.  1.
    9900012    2    1    2    0    0 -0.63248976324E+01  0.31018821253E+02 -0.38143623744E+01  0.59301937805E+02  0.49999988650E+02 0.  0.
         12    1    1    2    0    0  0.63248976324E+01 -0.31018821253E+02  0.38143623744E+01  0.31886062195E+02  0.00000000000E+00 0. -1.
         11    1    3    3    0    0 -0.26338061668E+01  0.33512842412E+01  0.50636033557E+01  0.66187702932E+01  0.51100000000E-03 0. -1.
        -11    1    3    3    0    0  0.81329268488E+01  0.12628968656E+02 -0.23989589959E+02  0.28304341983E+02  0.51100000000E-03 0.  1.
        -12    1    3    3    0    0 -0.11824018314E+02  0.15038568356E+02  0.15111624229E+02  0.24378825528E+02  0.00000000000E+00 0.  1.
</event>
<event>
 7    1  0.7749294E-012  0.5930192E+02  0.7816164E-02  0.1266605E+00
        -11   -1    0    0    0    0  0.00000000000E+00  0.00000000000E+00  0.45593999997E+02  0.45594000000E+02  0.51100000000E-03 0.  1.
         11   -1    0    0    0    0 -0.00000000000E+00 -0.00000000000E+00 -0.45593999997E+02  0.45594000000E+02  0.51100000000E-03 0. -1.
    9900012    2    1    2    0    0 -0.59617856324E+01  0.68589279345E+01  0.30563610882E+02  0.59301920114E+02  0.49999956387E+02 0.  0.
         12    1    1    2    0    0  0.59617856324E+01 -0.68589279345E+01 -0.30563610882E+02  0.31886079886E+02  0.00000000000E+00 0. -1.
         11    1    3    3    0    0  0.79543265277E+01  0.17020604014E+02  0.13665714135E+02  0.23231961058E+02  0.51100000000E-03 0. -1.
        -11    1    3    3    0    0 -0.18480766833E+02  0.15757379536E+01  0.62329181779E+01  0.19567088749E+02  0.51100000000E-03 0.  1.
        -12    1    3    3    0    0  0.45646546731E+01 -0.11737414034E+02  0.10664978569E+02  0.16502870307E+02  0.00000000000E+00 0.  1.
</event>
<event>
 7    1  0.7749294E-012  0.5930194E+02  0.7816164E-02  0.1266605E+00
        -11   -1    0    0    0    0  0.00000000000E+00  0.00000000000E+00  0.45593999997E+02  0.45594000000E+02  0.51100000000E-03 0.  1.
         11   -1    0    0    0    0 -0.00000000000E+00 -0.00000000000E+00 -0.45593999997E+02  0.45594000000E+02  0.51100000000E-03 0. -1.
    9900012    2    1    2    0    0 -0.22341100078E+01 -0.74204868787E-01  0.31807607834E+02  0.59301942388E+02  0.49999997009E+02 0.  0.
         12    1    1    2    0    0  0.22341100078E+01  0.74204868787E-01 -0.31807607834E+02  0.31886057612E+02  0.00000000000E+00 0. -1.
         11    1    3    3    0    0 -0.13404644933E+02 -0.32938479532E+00 -0.82723514130E+01  0.15755151484E+02  0.51100000000E-03 0. -1.
        -11    1    3    3    0    0  0.25134776478E+01  0.59651470400E+01  0.12399591392E+02  0.13987509287E+02  0.51100000000E-03 0.  1.
         12    1    3    3    0    0  0.86570572769E+01 -0.57099671135E+01  0.27680367855E+02  0.29559281617E+02  0.00000000000E+00 0. -1.
</event>
<event>
 7    1  0.7749294E-012  0.5930196E+02  0.7816164E-02  0.1266605E+00
        -11   -1    0    0    0    0  0.00000000000E+00  0.00000000000E+00  0.45593999997E+02  0.45594000000E+02  0.51100000000E-03 0.  1.
         11   -1    0    0    0    0 -0.00000000000E+00 -0.00000000000E+00 -0.45593999997E+02  0.45594000000E+02  0.51100000000E-03 0. -1.
    9900012    2    1    2    0    0  0.64960805367E+01 -0.31047111034E+02 -0.32553292803E+01  0.59301963328E+02  0.50000035200E+02 0.  0.
         12    1    1    2    0    0 -0.64960805367E+01  0.31047111034E+02  0.32553292803E+01  0.31886036672E+02  0.00000000000E+00 0. -1.
         11    1    3    3    0    0 -0.94440319536E+01  0.93275444322E+01  0.27884841337E+01  0.13563497657E+02  0.51100000000E-03 0. -1.
        -11    1    3    3    0    0  0.16016130938E+02 -0.26588309296E+02 -0.73260588751E+01  0.31892409448E+02  0.51100000000E-03 0.  1.
         12    1    3    3    0    0 -0.76018447815E-01 -0.13786346170E+02  0.12822454610E+01  0.13846056224E+02  0.00000000000E+00 0. -1.
</event>
<event>
 7    1  0.7749294E-012  0.5930194E+02  0.7816164E-02  0.1266605E+00
        -11   -1    0    0    0    0  0.00000000000E+00  0.00000000000E+00  0.45593999997E+02  0.45594000000E+02  0.51100000000E-03 0.  1.
         11   -1    0    0    0    0 -0.00000000000E+00 -0.00000000000E+00 -0.45593999997E+02  0.45594000000E+02  0.51100000000E-03 0. -1.
    9900012    2    1    2    0    0  0.28804858304E+02 -0.11902542880E+02  0.67328068121E+01  0.59301936015E+02  0.49999985386E+02 0.  0.
         12    1    1    2    0    0 -0.28804858304E+02  0.11902542880E+02 -0.67328068121E+01  0.31886063985E+02  0.00000000000E+00 0. -1.
         11    1    3    3    0    0 -0.92714778309E+01  0.48554918247E+01 -0.50716187553E+01  0.11630022317E+02  0.51100000000E-03 0. -1.
        -11    1    3    3    0    0  0.38001678605E+02 -0.18580166719E+02  0.14236424559E+02  0.44632117994E+02  0.51100000000E-03 0.  1.
        -12    1    3    3    0    0  0.74657529394E-01  0.18221320146E+01 -0.24319989919E+01  0.30397957039E+01  0.00000000000E+00 0.  1.
</event>
<event>
 7    1  0.7749294E-012  0.5930195E+02  0.7816164E-02  0.1266605E+00
        -11   -1    0    0    0    0  0.00000000000E+00  0.00000000000E+00  0.45593999997E+02  0.45594000000E+02  0.51100000000E-03 0. -1.
         11   -1    0    0    0    0 -0.00000000000E+00 -0.00000000000E+00 -0.45593999997E+02  0.45594000000E+02  0.51100000000E-03 0.  1.
    9900012    2    1    2    0    0 -0.29909274967E+02  0.90738333873E+01  0.63103858322E+01  0.59301950531E+02  0.50000011860E+02 0.  0.
         12    1    1    2    0    0  0.29909274967E+02 -0.90738333873E+01 -0.63103858322E+01  0.31886049469E+02  0.00000000000E+00 0. -1.
         11    1    3    3    0    0 -0.31389977497E+01  0.11075912681E+02 -0.14926773966E+02  0.18850403972E+02  0.51100000000E-03 0. -1.
        -11    1    3    3    0    0 -0.12701022857E+02  0.94263647608E+01  0.13293366765E+02  0.20661218126E+02  0.51100000000E-03 0.  1.
         12    1    3    3    0    0 -0.14069254360E+02 -0.11428444055E+02  0.79437930338E+01  0.19790328434E+02  0.00000000000E+00 0. -1.
</event>
<event>
 7    1  0.7749294E-012  0.5930196E+02  0.7816164E-02  0.1266605E+00
        -11   -1    0    0    0    0  0.00000000000E+00  0.00000000000E+00  0.45593999997E+02  0.45594000000E+02  0.51100000000E-03 0.  1.
         11   -1    0    0    0    0 -0.00000000000E+00 -0.00000000000E+00 -0.45593999997E+02  0.45594000000E+02  0.51100000000E-03 0. -1.
    9900012    2    1    2    0    0  0.19821238153E+02  0.21000453667E+02  0.13521059886E+02  0.59301959221E+02  0.50000027709E+02 0.  0.
         12    1    1    2    0    0 -0.19821238153E+02 -0.21000453667E+02 -0.13521059886E+02  0.31886040779E+02  0.00000000000E+00 0. -1.
         11    1    3    3    0    0  0.10168752257E+02  0.15832848536E+02  0.24409177723E+02  0.30820294817E+02  0.51100000000E-03 0. -1.
        -11    1    3    3    0    0  0.17499518344E+02  0.48347846729E+01 -0.55472363694E+01  0.18983680273E+02  0.51100000000E-03 0.  1.
         12    1    3    3    0    0 -0.78470324486E+01  0.33282045812E+00 -0.53408814672E+01  0.94979841311E+01  0.00000000000E+00 0. -1.
</event>
<event>
 7    1  0.7749294E-012  0.5930196E+02  0.7816164E-02  0.1266605E+00
        -11   -1    0    0    0    0  0.00000000000E+00  0.00000000000E+00  0.45593999997E+02  0.45594000000E+02  0.51100000000E-03 0. -1.
         11   -1    0    0    0    0 -0.00000000000E+00 -0.00000000000E+00 -0.45593999997E+02  0.45594000000E+02  0.51100000000E-03 0.  1.
    9900012    2    1    2    0    0  0.23033750875E+02 -0.22012617574E+02 -0.12690681149E+01  0.59301960018E+02  0.50000029163E+02 0.  0.
         12    1    1    2    0    0 -0.23033750875E+02  0.22012617574E+02  0.12690681149E+01  0.31886039982E+02  0.00000000000E+00 0. -1.
         11    1    3    3    0    0  0.76962350587E+01 -0.16909501426E+02 -0.19177854404E+02  0.26701186722E+02  0.51100000000E-03 0. -1.
        -11    1    3    3    0    0  0.13001723441E+02  0.60650698528E+01  0.15143995737E+02  0.20860740445E+02  0.51100000000E-03 0.  1.
        -12    1    3    3    0    0  0.23357923752E+01 -0.11168186001E+02  0.27647905524E+01  0.11740032852E+02  0.00000000000E+00 0.  1.
</event>
<event>
 7    1  0.7749294E-012  0.5930186E+02  0.7816164E-02  0.1266605E+00
        -11   -1    0    0    0    0  0.00000000000E+00  0.00000000000E+00  0.45593999997E+02  0.45594000000E+02  0.51100000000E-03 0.  1.
         11   -1    0    0    0    0 -0.00000000000E+00 -0.00000000000E+00 -0.45593999997E+02  0.45594000000E+02  0.51100000000E-03 0. -1.
    9900012    2    1    2    0    0  0.40859704239E+00 -0.30688453455E+02  0.86474180378E+01  0.59301859348E+02  0.49999845563E+02 0.  0.
         12    1    1    2    0    0 -0.40859704239E+00  0.30688453455E+02 -0.86474180378E+01  0.31886140652E+02  0.00000000000E+00 0. -1.
         11    1    3    3    0    0  0.14971702767E+02 -0.11376336836E+02 -0.21500942467E+01  0.18926062165E+02  0.51100000000E-03 0. -1.
        -11    1    3    3    0    0 -0.19880206685E+02 -0.17581673703E+02 -0.17926066504E+01  0.26599836595E+02  0.51100000000E-03 0.  1.
        -12    1    3    3    0    0  0.53171009596E+01 -0.17304429156E+01  0.12590118935E+02  0.13775960587E+02  0.00000000000E+00 0.  1.
</event>
<event>
 7    1  0.7749294E-012  0.5930194E+02  0.7816164E-02  0.1266605E+00
        -11   -1    0    0    0    0  0.00000000000E+00  0.00000000000E+00  0.45593999997E+02  0.45594000000E+02  0.51100000000E-03 0.  1.
         11   -1    0    0    0    0 -0.00000000000E+00 -0.00000000000E+00 -0.45593999997E+02  0.45594000000E+02  0.51100000000E-03 0. -1.
    9900012    2    1    2    0    0  0.14179083700E+01  0.32083235150E+01  0.31692540105E+02  0.59301938747E+02  0.49999990370E+02 0.  0.
         12    1    1    2    0    0 -0.14179083700E+01 -0.32083235150E+01 -0.31692540105E+02  0.31886061253E+02  0.00000000000E+00 0. -1.
         11    1    3    3    0    0 -0.17303343013E+02  0.73650163389E+01  0.32038983909E+02  0.37150311375E+02  0.51100000000E-03 0. -1.
        -11    1    3    3    0    0  0.17615893553E+01 -0.19625402978E+01  0.37332034725E+01  0.45707296907E+01  0.51100000000E-03 0.  1.
         12    1    3    3    0    0  0.16959662027E+02 -0.21941525260E+01 -0.40796472767E+01  0.17580897682E+02  0.00000000000E+00 0. -1.
</event>
<event>
 7    1  0.7749294E-012  0.5930196E+02  0.7816164E-02  0.1266605E+00
        -11   -1    0    0    0    0  0.00000000000E+00  0.00000000000E+00  0.45593999997E+02  0.45594000000E+02  0.51100000000E-03 0. -1.
         11   -1    0    0    0    0 -0.00000000000E+00 -0.00000000000E+00 -0.45593999997E+02  0.45594000000E+02  0.51100000000E-03 0.  1.
    9900012    2    1    2    0    0 -0.30818172527E+02  0.79024513362E+01  0.21238846582E+01  0.59301962600E+02  0.50000033871E+02 0.  0.
         12    1    1    2    0    0  0.30818172527E+02 -0.79024513362E+01 -0.21238846582E+01  0.31886037400E+02  0.00000000000E+00 0. -1.
         11    1    3    3    0    0 -0.24609492940E+02  0.46447157426E+01  0.13843444801E+02  0.28615406538E+02  0.51100000000E-03 0. -1.
        -11    1    3    3    0    0 -0.14289059005E+01 -0.58168252805E+00 -0.20179665972E+02  0.20238553447E+02  0.51100000000E-03 0.  1.
        -12    1    3    3    0    0 -0.47797736868E+01  0.38394181216E+01  0.84601058288E+01  0.10448002615E+02  0.00000000000E+00 0.  1.
</event>
<event>
 7    1  0.7749294E-012  0.5930193E+02  0.7816164E-02  0.1266605E+00
        -11   -1    0    0    0    0  0.00000000000E+00  0.00000000000E+00  0.45593999997E+02  0.45594000000E+02  0.51100000000E-03 0.  1.
         11   -1    0    0    0    0 -0.00000000000E+00 -0.00000000000E+00 -0.45593999997E+02  0.45594000000E+02  0.51100000000E-03 0. -1.
    9900012    2    1    2    0    0 -0.67702463502E-01  0.29507330531E+02  0.12084461162E+02  0.59301931878E+02  0.49999977842E+02 0.  0.
         12    1    1    2    0    0  0.67702463502E-01 -0.29507330531E+02 -0.12084461162E+02  0.31886068122E+02  0.00000000000E+00 0. -1.
         11    1    3    3    0    0 -0.15166606895E+02  0.84087375868E+01 -0.83816905849E+01  0.19260985692E+02  0.51100000000E-03 0. -1.
        -11    1    3    3    0    0  0.15976580679E+02  0.24746340990E+02  0.14111540564E+02  0.32661416074E+02  0.51100000000E-03 0.  1.
         12    1    3    3    0    0 -0.87767624843E+00 -0.36477480452E+01  0.63546111824E+01  0.73795301123E+01  0.00000000000E+00 0. -1.
</event>
<event>
 7    1  0.7749294E-012  0.5930194E+02  0.7816164E-02  0.1266605E+00
        -11   -1    0    0    0    0  0.00000000000E+00  0.00000000000E+00  0.45593999997E+02  0.45594000000E+02  0.51100000000E-03 0. -1.
         11   -1    0    0    0    0 -0.00000000000E+00 -0.00000000000E+00 -0.45593999997E+02  0.45594000000E+02  0.51100000000E-03 0.  1.
    9900012    2    1    2    0    0  0.24303803200E+02 -0.98880038297E+01 -0.18118315714E+02  0.59301939816E+02  0.49999992320E+02 0.  0.
         12    1    1    2    0    0 -0.24303803200E+02  0.98880038297E+01  0.18118315714E+02  0.31886060184E+02  0.00000000000E+00 0. -1.
         11    1    3    3    0    0  0.21601624195E+02  0.16780771656E+02 -0.87748927352E+01  0.28726698523E+02  0.51100000000E-03 0. -1.
        -11    1    3    3    0    0 -0.30265564508E+01 -0.27583346320E+01 -0.32926192293E+01  0.52545024067E+01  0.51100000000E-03 0.  1.
         12    1    3    3    0    0  0.57287354559E+01 -0.23910440854E+02 -0.60508037492E+01  0.25320738887E+02  0.00000000000E+00 0. -1.
</event>
<event>
 7    1  0.7749294E-012  0.5930194E+02  0.7816164E-02  0.1266605E+00
        -11   -1    0    0    0    0  0.00000000000E+00  0.00000000000E+00  0.45593999997E+02  0.45594000000E+02  0.51100000000E-03 0. -1.
         11   -1    0    0    0    0 -0.00000000000E+00 -0.00000000000E+00 -0.45593999997E+02  0.45594000000E+02  0.51100000000E-03 0.  1.
    9900012    2    1    2    0    0 -0.17081279322E+02 -0.12629861925E+02 -0.23778920291E+02  0.59301944023E+02  0.49999999992E+02 0.  0.
         12    1    1    2    0    0  0.17081279322E+02  0.12629861925E+02  0.23778920291E+02  0.31886055977E+02  0.00000000000E+00 0. -1.
         11    1    3    3    0    0 -0.10474086781E+02 -0.12352845046E+02  0.77969300297E+01  0.17974743190E+02  0.51100000000E-03 0. -1.
        -11    1    3    3    0    0  0.69955684232E+00  0.12112843682E+02 -0.12311950903E+02  0.17285673176E+02  0.51100000000E-03 0.  1.
         12    1    3    3    0    0 -0.73067493842E+01 -0.12389860562E+02 -0.19263899418E+02  0.24041527657E+02  0.00000000000E+00 0. -1.
</event>
<event>
 7    1  0.7749294E-012  0.5930195E+02  0.7816164E-02  0.1266605E+00
        -11   -1    0    0    0    0  0.00000000000E+00  0.00000000000E+00  0.45593999997E+02  0.45594000000E+02  0.51100000000E-03 0.  1.
         11   -1    0    0    0    0 -0.00000000000E+00 -0.00000000000E+00 -0.45593999997E+02  0.45594000000E+02  0.51100000000E-03 0. -1.
    9900012    2    1    2    0    0 -0.65667118934E+01 -0.27674134319E+02  0.14413213179E+02  0.59301950863E+02  0.50000012466E+02 0.  0.
         12    1    1    2    0    0  0.65667118934E+01  0.27674134319E+02 -0.14413213179E+02  0.31886049137E+02  0.00000000000E+00 0. -1.
         11    1    3    3    0    0  0.16491467192E+02 -0.44749887885E+01 -0.69897310291E+01  0.18462133001E+02  0.51100000000E-03 0. -1.
        -11    1    3    3    0    0 -0.89040698354E+01 -0.17239533078E+02  0.12657664308E+02  0.23166795772E+02  0.51100000000E-03 0.  1.
         12    1    3    3    0    0 -0.14154109251E+02 -0.59596124529E+01  0.87452799001E+01  0.17673022090E+02  0.00000000000E+00 0. -1.
</event>
<event>
 7    1  0.7749294E-012  0.5930194E+02  0.7816164E-02  0.1266605E+00
        -11   -1    0    0    0    0  0.00000000000E+00  0.00000000000E+00  0.45593999997E+02  0.45594000000E+02  0.51100000000E-03 0.  1.
         11   -1    0    0    0    0 -0.00000000000E+00 -0.00000000000E+00 -0.45593999997E+02  0.45594000000E+02  0.51100000000E-03 0. -1.
    9900012    2    1    2    0    0  0.29786671987E+02  0.57501087447E+01  0.98189263469E+01  0.59301938888E+02  0.49999990626E+02 0.  0.
         12    1    1    2    0    0 -0.29786671987E+02 -0.57501087447E+01 -0.98189263469E+01  0.31886061112E+02  0.00000000000E+00 0. -1.
         11    1    3    3    0    0  0.12400817306E+02 -0.90788551827E+01 -0.10679354391E+02  0.18715087277E+02  0.51100000000E-03 0. -1.
        -11    1    3    3    0    0  0.23297047224E+02  0.60079832573E+01  0.16793723302E+02  0.29340712582E+02  0.51100000000E-03 0.  1.
         12    1    3    3    0    0 -0.59111925437E+01  0.88209806700E+01  0.37045574357E+01  0.11246139029E+02  0.00000000000E+00 0. -1.
</event>
<event>
 7    1  0.7749294E-012  0.5930177E+02  0.7816164E-02  0.1266605E+00
        -11   -1    0    0    0    0  0.00000000000E+00  0.00000000000E+00  0.45593999997E+02  0.45594000000E+02  0.51100000000E-03 0. -1.
         11   -1    0    0    0    0 -0.00000000000E+00 -0.00000000000E+00 -0.45593999997E+02  0.45594000000E+02  0.51100000000E-03 0.  1.
    9900012    2    1    2    0    0  0.19423630150E+01 -0.28970847130E+02 -0.13177599408E+02  0.59301766549E+02  0.49999676321E+02 0.  0.
         12    1    1    2    0    0 -0.19423630150E+01  0.28970847130E+02  0.13177599408E+02  0.31886233451E+02  0.00000000000E+00 0. -1.
         11    1    3    3    0    0 -0.91304771655E+01  0.64414385094E+01 -0.16524912423E+02  0.19948194760E+02  0.51100000000E-03 0. -1.
        -11    1    3    3    0    0  0.11536965814E+02 -0.16228969990E+02  0.23052690495E+00  0.19913166248E+02  0.51100000000E-03 0.  1.
         12    1    3    3    0    0 -0.46412563348E+00 -0.19183315650E+02  0.31167861109E+01  0.19440405541E+02  0.00000000000E+00 0. -1.
</event>
<event>
 7    1  0.7749294E-012  0.5930194E+02  0.7816164E-02  0.1266605E+00
        -11   -1    0    0    0    0  0.00000000000E+00  0.00000000000E+00  0.45593999997E+02  0.45594000000E+02  0.51100000000E-03 0.  1.
         11   -1    0    0    0    0 -0.00000000000E+00 -0.00000000000E+00 -0.45593999997E+02  0.45594000000E+02  0.51100000000E-03 0. -1.
    9900012    2    1    2    0    0 -0.29126496818E+02 -0.10115143005E+02 -0.81272250735E+01  0.59301941569E+02  0.49999995515E+02 0.  0.
         12    1    1    2    0    0  0.29126496818E+02  0.10115143005E+02  0.81272250735E+01  0.31886058431E+02  0.00000000000E+00 0. -1.
         11    1    3    3    0    0 -0.16830865738E+02  0.67182182895E+01  0.16974502777E+02  0.24830349237E+02  0.51100000000E-03 0.  1.
        -11    1    3    3    0    0 -0.29176924246E+01 -0.12045283658E+02 -0.93515389934E+01  0.15525883849E+02  0.51100000000E-03 0. -1.
        -12    1    3    3    0    0 -0.93779386553E+01 -0.47880776356E+01 -0.15750188857E+02  0.18945708482E+02  0.00000000000E+00 0.  1.
</event>
<event>
 7    1  0.7749294E-012  0.5930195E+02  0.7816164E-02  0.1266605E+00
        -11   -1    0    0    0    0  0.00000000000E+00  0.00000000000E+00  0.45593999997E+02  0.45594000000E+02  0.51100000000E-03 0.  1.
         11   -1    0    0    0    0 -0.00000000000E+00 -0.00000000000E+00 -0.45593999997E+02  0.45594000000E+02  0.51100000000E-03 0. -1.
    9900012    2    1    2    0    0  0.69656260377E+01  0.30931540334E+02  0.33822915150E+01  0.59301952433E+02  0.50000015329E+02 0.  0.
         12    1    1    2    0    0 -0.69656260377E+01 -0.30931540334E+02 -0.33822915150E+01  0.31886047567E+02  0.00000000000E+00 0. -1.
         11    1    3    3    0    0  0.11538434271E+02  0.15017304182E+00 -0.10501265779E+02  0.15602390861E+02  0.51100000000E-03 0. -1.
        -11    1    3    3    0    0 -0.10155844982E+02  0.81403535282E+01  0.15600718231E+02  0.20317208284E+02  0.51100000000E-03 0.  1.
        -12    1    3    3    0    0  0.55830367494E+01  0.22641013764E+02 -0.17171609370E+01  0.23382353288E+02  0.00000000000E+00 0.  1.
</event>
<event>
 7    1  0.7749294E-012  0.5930194E+02  0.7816164E-02  0.1266605E+00
        -11   -1    0    0    0    0  0.00000000000E+00  0.00000000000E+00  0.45593999997E+02  0.45594000000E+02  0.51100000000E-03 0.  1.
         11   -1    0    0    0    0 -0.00000000000E+00 -0.00000000000E+00 -0.45593999997E+02  0.45594000000E+02  0.51100000000E-03 0. -1.
    9900012    2    1    2    0    0  0.51434566229E+01 -0.92362152516E+01  0.30082515964E+02  0.59301943723E+02  0.49999999444E+02 0.  0.
         12    1    1    2    0    0 -0.51434566229E+01  0.92362152516E+01 -0.30082515964E+02  0.31886056277E+02  0.00000000000E+00 0. -1.
         11    1    3    3    0    0  0.75445140849E+01 -0.27568148431E+01 -0.62364129894E+01  0.10169197023E+02  0.51100000000E-03 0. -1.
        -11    1    3    3    0    0 -0.68020022424E+01  0.67127073542E+01  0.33638893498E+02  0.34970027603E+02  0.51100000000E-03 0.  1.
        -12    1    3    3    0    0  0.44009447805E+01 -0.13192107763E+02  0.26800354554E+01  0.14162719097E+02  0.00000000000E+00 0.  1.
</event>
<event>
 7    1  0.7749294E-012  0.5930194E+02  0.7816164E-02  0.1266605E+00
        -11   -1    0    0    0    0  0.00000000000E+00  0.00000000000E+00  0.45593999997E+02  0.45594000000E+02  0.51100000000E-03 0. -1.
         11   -1    0    0    0    0 -0.00000000000E+00 -0.00000000000E+00 -0.45593999997E+02  0.45594000000E+02  0.51100000000E-03 0.  1.
    9900012    2    1    2    0    0  0.31045624097E+02 -0.18128444966E+01 -0.70429773244E+01  0.59301941756E+02  0.49999995856E+02 0.  0.
         12    1    1    2    0    0 -0.31045624097E+02  0.18128444966E+01  0.70429773244E+01  0.31886058244E+02  0.00000000000E+00 0. -1.
         11    1    3    3    0    0  0.40934585999E+01  0.84298542903E+00 -0.11911454157E+02  0.12623381803E+02  0.51100000000E-03 0. -1.
        -11    1    3    3    0    0  0.34106318504E+02 -0.97127537265E+01  0.75943851161E+01  0.36266420176E+02  0.51100000000E-03 0.  1.
        -12    1    3    3    0    0 -0.71541530060E+01  0.70569238008E+01 -0.27259082833E+01  0.10412139777E+02  0.00000000000E+00 0.  1.
</event>
<event>
 7    1  0.7749294E-012  0.5930193E+02  0.7816164E-02  0.1266605E+00
        -11   -1    0    0    0    0  0.00000000000E+00  0.00000000000E+00  0.45593999997E+02  0.45594000000E+02  0.51100000000E-03 0.  1.
         11   -1    0    0    0    0 -0.00000000000E+00 -0.00000000000E+00 -0.45593999997E+02  0.45594000000E+02  0.51100000000E-03 0. -1.
    9900012    2    1    2    0    0 -0.28701651558E+02  0.57709489291E+01 -0.12634585429E+02  0.59301930899E+02  0.49999976057E+02 0.  0.
         12    1    1    2    0    0  0.28701651558E+02 -0.57709489291E+01  0.12634585429E+02  0.31886069101E+02  0.00000000000E+00 0. -1.
         11    1    3    3    0    0  0.43886018558E-01 -0.14953768402E+02  0.58051247961E+00  0.14965096404E+02  0.51100000000E-03 0. -1.
        -11    1    3    3    0    0 -0.22129716897E+02  0.25204299559E+02 -0.13923201338E+02  0.36315790256E+02  0.51100000000E-03 0.  1.
         12    1    3    3    0    0 -0.66158206801E+01 -0.44795822279E+01  0.70810342931E+00  0.80210442384E+01  0.00000000000E+00 0. -1.
</event>
<event>
 7    1  0.7749294E-012  0.5930219E+02  0.7816164E-02  0.1266604E+00
        -11   -1    0    0    0    0  0.00000000000E+00  0.00000000000E+00  0.45593999997E+02  0.45594000000E+02  0.51100000000E-03 0. -1.
         11   -1    0    0    0    0 -0.00000000000E+00 -0.00000000000E+00 -0.45593999997E+02  0.45594000000E+02  0.51100000000E-03 0.  1.
    9900012    2    1    2    0    0 -0.13157225678E+02 -0.27195952995E+02 -0.10196698327E+02  0.59302186483E+02  0.50000442179E+02 0.  0.
         12    1    1    2    0    0  0.13157225678E+02  0.27195952995E+02  0.10196698327E+02  0.31885813517E+02  0.00000000000E+00 0. -1.
         11    1    3    3    0    0 -0.36612058660E+01 -0.10239671684E+02 -0.24590382649E+02  0.26887584936E+02  0.51100000000E-03 0.  1.
        -11    1    3    3    0    0  0.23197470209E+01 -0.50197018946E+00  0.11747937269E+02  0.11985292264E+02  0.51100000000E-03 0. -1.
        -12    1    3    3    0    0 -0.11815766833E+02 -0.16454311121E+02  0.26457470537E+01  0.20429309283E+02  0.00000000000E+00 0.  1.
</event>
<event>
 7    1  0.7749294E-012  0.5930193E+02  0.7816164E-02  0.1266605E+00
        -11   -1    0    0    0    0  0.00000000000E+00  0.00000000000E+00  0.45593999997E+02  0.45594000000E+02  0.51100000000E-03 0.  1.
         11   -1    0    0    0    0 -0.00000000000E+00 -0.00000000000E+00 -0.45593999997E+02  0.45594000000E+02  0.51100000000E-03 0. -1.
    9900012    2    1    2    0    0 -0.29480863212E+02  0.12035997339E+02  0.16536723085E+01  0.59301934708E+02  0.49999983004E+02 0.  0.
         12    1    1    2    0    0  0.29480863212E+02 -0.12035997339E+02 -0.16536723085E+01  0.31886065292E+02  0.00000000000E+00 0. -1.
         11    1    3    3    0    0  0.93116363062E+01 -0.18298378474E+00  0.87758969069E+00  0.93546896096E+01  0.51100000000E-03 0.  1.
        -11    1    3    3    0    0 -0.31645330570E+02  0.46559011173E+01 -0.11375899436E+02  0.33948717948E+02  0.51100000000E-03 0. -1.
        -12    1    3    3    0    0 -0.71471689481E+01  0.75630800066E+01  0.12151982054E+02  0.15998527151E+02  0.00000000000E+00 0.  1.
</event>
<event>
 7    1  0.7749294E-012  0.5930193E+02  0.7816164E-02  0.1266605E+00
        -11   -1    0    0    0    0  0.00000000000E+00  0.00000000000E+00  0.45593999997E+02  0.45594000000E+02  0.51100000000E-03 0.  1.
         11   -1    0    0    0    0 -0.00000000000E+00 -0.00000000000E+00 -0.45593999997E+02  0.45594000000E+02  0.51100000000E-03 0. -1.
    9900012    2    1    2    0    0 -0.19801672656E+02 -0.24912419863E+02 -0.19965759055E+01  0.59301933783E+02  0.49999981317E+02 0.  0.
         12    1    1    2    0    0  0.19801672656E+02  0.24912419863E+02  0.19965759055E+01  0.31886066217E+02  0.00000000000E+00 0. -1.
         11    1    3    3    0    0  0.76587951064E+01  0.57682303652E+01  0.59406175603E+01  0.11279209249E+02  0.51100000000E-03 0. -1.
        -11    1    3    3    0    0 -0.25570192304E+02 -0.13117117140E+02 -0.20363368959E+00  0.28739084249E+02  0.51100000000E-03 0.  1.
         12    1    3    3    0    0 -0.18902754591E+01 -0.17563533088E+02 -0.77335597762E+01  0.19283640285E+02  0.00000000000E+00 0. -1.
</event>
<event>
 7    1  0.7749294E-012  0.5930194E+02  0.7816164E-02  0.1266605E+00
        -11   -1    0    0    0    0  0.00000000000E+00  0.00000000000E+00  0.45593999997E+02  0.45594000000E+02  0.51100000000E-03 0. -1.
         11   -1    0    0    0    0 -0.00000000000E+00 -0.00000000000E+00 -0.45593999997E+02  0.45594000000E+02  0.51100000000E-03 0.  1.
    9900012    2    1    2    0    0  0.12596648177E+02 -0.19669291429E+02 -0.21706315230E+02  0.59301942052E+02  0.49999996397E+02 0.  0.
         12    1    1    2    0    0 -0.12596648177E+02  0.19669291429E+02  0.21706315230E+02  0.31886057948E+02  0.00000000000E+00 0. -1.
         11    1    3    3    0    0  0.86562955847E+01  0.98132686112E+01 -0.10754384919E+02  0.16937782893E+02  0.51100000000E-03 0. -1.
        -11    1    3    3    0    0  0.69937267223E+01 -0.31890757279E+02 -0.21239717023E+01  0.32717638505E+02  0.51100000000E-03 0.  1.
        -12    1    3    3    0    0 -0.30533741303E+01  0.24081972391E+01 -0.88279586090E+01  0.96465206538E+01  0.00000000000E+00 0.  1.
</event>
<event>
 7    1  0.7749294E-012  0.5930187E+02  0.7816164E-02  0.1266605E+00
        -11   -1    0    0    0    0  0.00000000000E+00  0.00000000000E+00  0.45593999997E+02  0.45594000000E+02  0.51100000000E-03 0.  1.
         11   -1    0    0    0    0 -0.00000000000E+00 -0.00000000000E+00 -0.45593999997E+02  0.45594000000E+02  0.51100000000E-03 0. -1.
    9900012    2    1    2    0    0  0.74798321485E+01 -0.35347738921E+01  0.30794203853E+02  0.59301866550E+02  0.49999858699E+02 0.  0.
         12    1    1    2    0    0 -0.74798321485E+01  0.35347738921E+01 -0.30794203853E+02  0.31886133450E+02  0.00000000000E+00 0. -1.
         11    1    3    3    0    0  0.18984603215E+02  0.55756602543E+01  0.12392543717E+02  0.23346911713E+02  0.51100000000E-03 0. -1.
        -11    1    3    3    0    0 -0.19039359361E+02 -0.65672069438E+01  0.19370961371E+02  0.27943864383E+02  0.51100000000E-03 0.  1.
        -12    1    3    3    0    0  0.75345882947E+01 -0.25432272027E+01 -0.96930123540E+00  0.80110904539E+01  0.00000000000E+00 0.  1.
</event>
<event>
 7    1  0.7749294E-012  0.5930191E+02  0.7816164E-02  0.1266605E+00
        -11   -1    0    0    0    0  0.00000000000E+00  0.00000000000E+00  0.45593999997E+02  0.45594000000E+02  0.51100000000E-03 0. -1.
         11   -1    0    0    0    0 -0.00000000000E+00 -0.00000000000E+00 -0.45593999997E+02  0.45594000000E+02  0.51100000000E-03 0.  1.
    9900012    2    1    2    0    0  0.16094935339E+02  0.20994965705E+02 -0.17801329289E+02  0.59301908158E+02  0.49999934583E+02 0.  0.
         12    1    1    2    0    0 -0.16094935339E+02 -0.20994965705E+02  0.17801329289E+02  0.31886091842E+02  0.00000000000E+00 0. -1.
         11    1    3    3    0    0  0.17700140812E+02 -0.41133432397E+01  0.26400411913E+01  0.18362581385E+02  0.51100000000E-03 0. -1.
        -11    1    3    3    0    0  0.66389727899E+01  0.26282945327E+02 -0.16397187081E+02  0.31681807385E+02  0.51100000000E-03 0.  1.
         12    1    3    3    0    0 -0.82441782629E+01 -0.11746363827E+01 -0.40441833988E+01  0.92575193883E+01  0.00000000000E+00 0. -1.
</event>
<event>
 7    1  0.7749294E-012  0.5930190E+02  0.7816164E-02  0.1266605E+00
        -11   -1    0    0    0    0  0.00000000000E+00  0.00000000000E+00  0.45593999997E+02  0.45594000000E+02  0.51100000000E-03 0. -1.
         11   -1    0    0    0    0 -0.00000000000E+00 -0.00000000000E+00 -0.45593999997E+02  0.45594000000E+02  0.51100000000E-03 0.  1.
    9900012    2    1    2    0    0 -0.28862757347E+02 -0.13234968097E+02  0.29154629833E+01  0.59301904808E+02  0.49999928472E+02 0.  0.
         12    1    1    2    0    0  0.28862757347E+02  0.13234968097E+02 -0.29154629833E+01  0.31886095192E+02  0.00000000000E+00 0. -1.
         11    1    3    3    0    0 -0.14470996308E+02 -0.36723215393E+01  0.18204856247E+02  0.23543841464E+02  0.51100000000E-03 0. -1.
        -11    1    3    3    0    0  0.16288623619E+01  0.20782463082E+01 -0.15729777838E+02  0.15949865561E+02  0.51100000000E-03 0.  1.
        -12    1    3    3    0    0 -0.16020623401E+02 -0.11640892866E+02  0.44038457434E+00  0.19808197784E+02  0.00000000000E+00 0.  1.
</event>
<event>
 7    1  0.7749294E-012  0.5930193E+02  0.7816164E-02  0.1266605E+00
        -11   -1    0    0    0    0  0.00000000000E+00  0.00000000000E+00  0.45593999997E+02  0.45594000000E+02  0.51100000000E-03 0.  1.
         11   -1    0    0    0    0 -0.00000000000E+00 -0.00000000000E+00 -0.45593999997E+02  0.45594000000E+02  0.51100000000E-03 0. -1.
    9900012    2    1    2    0    0 -0.72030560126E+00 -0.31877412252E+02 -0.18280363021E+00  0.59301926720E+02  0.49999968434E+02 0.  0.
         12    1    1    2    0    0  0.72030560126E+00  0.31877412252E+02  0.18280363021E+00  0.31886073280E+02  0.00000000000E+00 0. -1.
         11    1    3    3    0    0 -0.10801270008E+02 -0.48617000632E+01  0.85298045446E+01  0.14596613550E+02  0.51100000000E-03 0. -1.
        -11    1    3    3    0    0  0.45944092959E+00 -0.30922693871E+02 -0.12899488465E+02  0.33508519591E+02  0.51100000000E-03 0.  1.
        -12    1    3    3    0    0  0.96215234773E+01  0.39069816821E+01  0.41868802904E+01  0.11196793579E+02  0.00000000000E+00 0.  1.
</event>
<event>
 7    1  0.7749294E-012  0.5930194E+02  0.7816164E-02  0.1266605E+00
        -11   -1    0    0    0    0  0.00000000000E+00  0.00000000000E+00  0.45593999997E+02  0.45594000000E+02  0.51100000000E-03 0.  1.
         11   -1    0    0    0    0 -0.00000000000E+00 -0.00000000000E+00 -0.45593999997E+02  0.45594000000E+02  0.51100000000E-03 0. -1.
    9900012    2    1    2    0    0 -0.56338019628E+01  0.21145237290E+02  0.23191809365E+02  0.59301940253E+02  0.49999993115E+02 0.  0.
         12    1    1    2    0    0  0.56338019628E+01 -0.21145237290E+02 -0.23191809365E+02  0.31886059747E+02  0.00000000000E+00 0. -1.
         11    1    3    3    0    0 -0.62964637601E+01  0.80748504470E+01 -0.13961165202E+02  0.17313659338E+02  0.51100000000E-03 0. -1.
        -11    1    3    3    0    0 -0.52427366279E+01  0.12427079410E+02  0.23431780660E+02  0.27036400189E+02  0.51100000000E-03 0.  1.
         12    1    3    3    0    0  0.59053984252E+01  0.64330743242E+00  0.13721193906E+02  0.14951880725E+02  0.00000000000E+00 0. -1.
</event>
<event>
 7    1  0.7749294E-012  0.5930191E+02  0.7816164E-02  0.1266605E+00
        -11   -1    0    0    0    0  0.00000000000E+00  0.00000000000E+00  0.45593999997E+02  0.45594000000E+02  0.51100000000E-03 0.  1.
         11   -1    0    0    0    0 -0.00000000000E+00 -0.00000000000E+00 -0.45593999997E+02  0.45594000000E+02  0.51100000000E-03 0. -1.
    9900012    2    1    2    0    0  0.29894816393E+02 -0.10609719054E+02 -0.32336671332E+01  0.59301909165E+02  0.49999936419E+02 0.  0.
         12    1    1    2    0    0 -0.29894816393E+02  0.10609719054E+02  0.32336671332E+01  0.31886090835E+02  0.00000000000E+00 0. -1.
         11    1    3    3    0    0 -0.63122417941E+01  0.23519690714E+01  0.80272463002E+00  0.67838427217E+01  0.51100000000E-03 0. -1.
        -11    1    3    3    0    0  0.32113754735E+02  0.31644323302E+01  0.63729041838E+01  0.32892564253E+02  0.51100000000E-03 0.  1.
        -12    1    3    3    0    0  0.40933034523E+01 -0.16126120456E+02 -0.10409295947E+02  0.19625502190E+02  0.00000000000E+00 0.  1.
</event>
<event>
 7    1  0.7749294E-012  0.5930192E+02  0.7816164E-02  0.1266605E+00
        -11   -1    0    0    0    0  0.00000000000E+00  0.00000000000E+00  0.45593999997E+02  0.45594000000E+02  0.51100000000E-03 0.  1.
         11   -1    0    0    0    0 -0.00000000000E+00 -0.00000000000E+00 -0.45593999997E+02  0.45594000000E+02  0.51100000000E-03 0. -1.
    9900012    2    1    2    0    0 -0.26299292999E+02 -0.48904170227E+00  0.18023038941E+02  0.59301922996E+02  0.49999961644E+02 0.  0.
         12    1    1    2    0    0  0.26299292999E+02  0.48904170227E+00 -0.18023038941E+02  0.31886077004E+02  0.00000000000E+00 0. -1.
         11    1    3    3    0    0 -0.49968604591E+01 -0.12560202493E+02 -0.11521740441E+01  0.13566680007E+02  0.51100000000E-03 0. -1.
        -11    1    3    3    0    0  0.20332231546E+01  0.82595246270E+01  0.20355109033E+02  0.22060920367E+02  0.51100000000E-03 0.  1.
         12    1    3    3    0    0 -0.23335655694E+02  0.38116361641E+01 -0.11798960479E+01  0.23674322622E+02  0.00000000000E+00 0. -1.
</event>
<event>
 7    1  0.7749294E-012  0.5930201E+02  0.7816164E-02  0.1266605E+00
        -11   -1    0    0    0    0  0.00000000000E+00  0.00000000000E+00  0.45593999997E+02  0.45594000000E+02  0.51100000000E-03 0. -1.
         11   -1    0    0    0    0 -0.00000000000E+00 -0.00000000000E+00 -0.45593999997E+02  0.45594000000E+02  0.51100000000E-03 0.  1.
    9900012    2    1    2    0    0  0.69016098491E+01  0.17154221580E+02 -0.25977240455E+02  0.59302006865E+02  0.50000114601E+02 0.  0.
         12    1    1    2    0    0 -0.69016098491E+01 -0.17154221580E+02  0.25977240455E+02  0.31885993135E+02  0.00000000000E+00 0. -1.
         11    1    3    3    0    0  0.51421425382E+01  0.12049041070E+02  0.14592980029E+01  0.13181448005E+02  0.51100000000E-03 0. -1.
        -11    1    3    3    0    0  0.17320596052E+02  0.22664732067E+01 -0.24408757754E+02  0.30015452749E+02  0.51100000000E-03 0.  1.
        -12    1    3    3    0    0 -0.15561128741E+02  0.28387073038E+01 -0.30277807037E+01  0.16105106111E+02  0.00000000000E+00 0.  1.
</event>
<event>
 7    1  0.7749294E-012  0.5930195E+02  0.7816164E-02  0.1266605E+00
        -11   -1    0    0    0    0  0.00000000000E+00  0.00000000000E+00  0.45593999997E+02  0.45594000000E+02  0.51100000000E-03 0. -1.
         11   -1    0    0    0    0 -0.00000000000E+00 -0.00000000000E+00 -0.45593999997E+02  0.45594000000E+02  0.51100000000E-03 0.  1.
    9900012    2    1    2    0    0 -0.13234569752E+02  0.65711896426E+01 -0.28255719818E+02  0.59301951762E+02  0.50000014105E+02 0.  0.
         12    1    1    2    0    0  0.13234569752E+02 -0.65711896426E+01  0.28255719818E+02  0.31886048238E+02  0.00000000000E+00 0. -1.
         11    1    3    3    0    0  0.82325375561E+01 -0.70612519156E+01  0.26367384424E+01  0.11161914849E+02  0.51100000000E-03 0.  1.
        -11    1    3    3    0    0 -0.10497759396E+01  0.15286663572E+02 -0.19161263157E+02  0.24534427214E+02  0.51100000000E-03 0. -1.
        -12    1    3    3    0    0 -0.20417331368E+02 -0.16542220139E+01 -0.11731195103E+02  0.23605609698E+02  0.00000000000E+00 0.  1.
</event>
<event>
 7    1  0.7749294E-012  0.5930193E+02  0.7816164E-02  0.1266605E+00
        -11   -1    0    0    0    0  0.00000000000E+00  0.00000000000E+00  0.45593999997E+02  0.45594000000E+02  0.51100000000E-03 0.  1.
         11   -1    0    0    0    0 -0.00000000000E+00 -0.00000000000E+00 -0.45593999997E+02  0.45594000000E+02  0.51100000000E-03 0. -1.
    9900012    2    1    2    0    0 -0.69401471498E+01  0.17620448097E+02  0.25652984261E+02  0.59301930391E+02  0.49999975130E+02 0.  0.
         12    1    1    2    0    0  0.69401471498E+01 -0.17620448097E+02 -0.25652984261E+02  0.31886069609E+02  0.00000000000E+00 0. -1.
         11    1    3    3    0    0  0.16784045084E+02  0.54279630752E+01  0.58848092477E+00  0.17649738315E+02  0.51100000000E-03 0. -1.
        -11    1    3    3    0    0 -0.20298264251E+02  0.16465713349E+02  0.25009715817E+02  0.36174924094E+02  0.51100000000E-03 0.  1.
         12    1    3    3    0    0 -0.34259279824E+01 -0.42732283270E+01  0.54787519877E-01  0.54772679821E+01  0.00000000000E+00 0. -1.
</event>
<event>
 7    1  0.7749294E-012  0.5930201E+02  0.7816164E-02  0.1266605E+00
        -11   -1    0    0    0    0  0.00000000000E+00  0.00000000000E+00  0.45593999997E+02  0.45594000000E+02  0.51100000000E-03 0. -1.
         11   -1    0    0    0    0 -0.00000000000E+00 -0.00000000000E+00 -0.45593999997E+02  0.45594000000E+02  0.51100000000E-03 0.  1.
    9900012    2    1    2    0    0 -0.19390246163E+02 -0.34226443284E+01 -0.25080281035E+02  0.59302005625E+02  0.50000112339E+02 0.  0.
         12    1    1    2    0    0  0.19390246163E+02  0.34226443284E+01  0.25080281035E+02  0.31885994375E+02  0.00000000000E+00 0. -1.
         11    1    3    3    0    0  0.21649741331E+01 -0.47468839515E+01  0.12007231772E+02  0.13091739202E+02  0.51100000000E-03 0. -1.
        -11    1    3    3    0    0 -0.13340770940E+02 -0.53809075573E+01 -0.11186316430E+02  0.18222623602E+02  0.51100000000E-03 0.  1.
         12    1    3    3    0    0 -0.82144493564E+01  0.67051471804E+01 -0.25901196377E+02  0.27987642821E+02  0.00000000000E+00 0. -1.
</event>
<event>
 7    1  0.7749294E-012  0.5930197E+02  0.7816164E-02  0.1266605E+00
        -11   -1    0    0    0    0  0.00000000000E+00  0.00000000000E+00  0.45593999997E+02  0.45594000000E+02  0.51100000000E-03 0.  1.
         11   -1    0    0    0    0 -0.00000000000E+00 -0.00000000000E+00 -0.45593999997E+02  0.45594000000E+02  0.51100000000E-03 0. -1.
    9900012    2    1    2    0    0  0.13738512144E+02 -0.15765250026E+02  0.24071338742E+02  0.59301965861E+02  0.50000039818E+02 0.  0.
         12    1    1    2    0    0 -0.13738512144E+02  0.15765250026E+02 -0.24071338742E+02  0.31886034139E+02  0.00000000000E+00 0. -1.
         11    1    3    3    0    0  0.14230716293E+02 -0.10815240804E+01 -0.10840321899E+02  0.17921929575E+02  0.51100000000E-03 0. -1.
        -11    1    3    3    0    0  0.52809367708E+01 -0.12913323608E+02  0.31483649000E+02  0.34436352513E+02  0.51100000000E-03 0.  1.
        -12    1    3    3    0    0 -0.57731409202E+01 -0.17704023375E+01  0.34280116410E+01  0.69436837725E+01  0.00000000000E+00 0.  1.
</event>
<event>
 7    1  0.7749294E-012  0.5930209E+02  0.7816164E-02  0.1266604E+00
        -11   -1    0    0    0    0  0.00000000000E+00  0.00000000000E+00  0.45593999997E+02  0.45594000000E+02  0.51100000000E-03 0. -1.
         11   -1    0    0    0    0 -0.00000000000E+00 -0.00000000000E+00 -0.45593999997E+02  0.45594000000E+02  0.51100000000E-03 0.  1.
    9900012    2    1    2    0    0  0.89184962083E+01 -0.25970213498E+02 -0.16208631908E+02  0.59302089129E+02  0.50000264629E+02 0.  0.
         12    1    1    2    0    0 -0.89184962083E+01  0.25970213498E+02  0.16208631908E+02  0.31885910871E+02  0.00000000000E+00 0. -1.
         11    1    3    3    0    0  0.15766088170E+02 -0.26823207909E+02  0.60729265081E+01  0.31700701181E+02  0.51100000000E-03 0. -1.
        -11    1    3    3    0    0 -0.60809730390E+01  0.74632023458E+01 -0.12728906765E+02  0.15959407572E+02  0.51100000000E-03 0.  1.
         12    1    3    3    0    0 -0.76661892296E+00 -0.66102079347E+01 -0.95526516517E+01  0.11641980377E+02  0.00000000000E+00 0. -1.
</event>
<event>
 7    1  0.7749294E-012  0.5930195E+02  0.7816164E-02  0.1266605E+00
        -11   -1    0    0    0    0  0.00000000000E+00  0.00000000000E+00  0.45593999997E+02  0.45594000000E+02  0.51100000000E-03 0.  1.
         11   -1    0    0    0    0 -0.00000000000E+00 -0.00000000000E+00 -0.45593999997E+02  0.45594000000E+02  0.51100000000E-03 0. -1.
    9900012    2    1    2    0    0  0.10970206939E+01  0.56399861436E+00  0.31862177544E+02  0.59301954358E+02  0.50000018840E+02 0.  0.
         12    1    1    2    0    0 -0.10970206939E+01 -0.56399861436E+00 -0.31862177544E+02  0.31886045642E+02  0.00000000000E+00 0. -1.
         11    1    3    3    0    0 -0.50005436670E+01 -0.12708469800E+01  0.84226186014E+00  0.52278001410E+01  0.51100000000E-03 0. -1.
        -11    1    3    3    0    0  0.19564297567E+02 -0.11511380127E+02  0.25891129786E+02  0.34432894354E+02  0.51100000000E-03 0.  1.
        -12    1    3    3    0    0 -0.13466733206E+02  0.13346225722E+02  0.51287858974E+01  0.19641259864E+02  0.00000000000E+00 0.  1.
</event>
<event>
 7    1  0.7749294E-012  0.5930194E+02  0.7816164E-02  0.1266605E+00
        -11   -1    0    0    0    0  0.00000000000E+00  0.00000000000E+00  0.45593999997E+02  0.45594000000E+02  0.51100000000E-03 0.  1.
         11   -1    0    0    0    0 -0.00000000000E+00 -0.00000000000E+00 -0.45593999997E+02  0.45594000000E+02  0.51100000000E-03 0. -1.
    9900012    2    1    2    0    0  0.85340462249E+00 -0.18037680815E+02  0.26279922426E+02  0.59301944249E+02  0.50000000404E+02 0.  0.
         12    1    1    2    0    0 -0.85340462249E+00  0.18037680815E+02 -0.26279922426E+02  0.31886055751E+02  0.00000000000E+00 0. -1.
         11    1    3    3    0    0 -0.78231671731E+01  0.81253651620E+01  0.17901170702E+02  0.21158341533E+02  0.51100000000E-03 0.  1.
        -11    1    3    3    0    0  0.80432094326E+01 -0.30905403781E+02  0.50903792325E+01  0.32338045115E+02  0.51100000000E-03 0. -1.
         12    1    3    3    0    0  0.63336236299E+00  0.47423578042E+01  0.32883724914E+01  0.58055576018E+01  0.00000000000E+00 0. -1.
</event>
<event>
 7    1  0.7749294E-012  0.5930195E+02  0.7816164E-02  0.1266605E+00
        -11   -1    0    0    0    0  0.00000000000E+00  0.00000000000E+00  0.45593999997E+02  0.45594000000E+02  0.51100000000E-03 0.  1.
         11   -1    0    0    0    0 -0.00000000000E+00 -0.00000000000E+00 -0.45593999997E+02  0.45594000000E+02  0.51100000000E-03 0. -1.
    9900012    2    1    2    0    0  0.19861523535E+01  0.19372478271E+01  0.31765114689E+02  0.59301949108E+02  0.50000009264E+02 0.  0.
         12    1    1    2    0    0 -0.19861523535E+01 -0.19372478271E+01 -0.31765114689E+02  0.31886050892E+02  0.00000000000E+00 0. -1.
         11    1    3    3    0    0 -0.16922811972E+02  0.60977165010E+01 -0.27638554254E+01  0.18198972735E+02  0.51100000000E-03 0. -1.
        -11    1    3    3    0    0  0.51375469971E+01 -0.13738749731E+00  0.19358158680E+01  0.54918710662E+01  0.51100000000E-03 0.  1.
         12    1    3    3    0    0  0.13771417328E+02 -0.40230811766E+01  0.32593154246E+02  0.35611105306E+02  0.00000000000E+00 0. -1.
</event>
<event>
 7    1  0.7749294E-012  0.5930197E+02  0.7816164E-02  0.1266605E+00
        -11   -1    0    0    0    0  0.00000000000E+00  0.00000000000E+00  0.45593999997E+02  0.45594000000E+02  0.51100000000E-03 0.  1.
         11   -1    0    0    0    0 -0.00000000000E+00 -0.00000000000E+00 -0.45593999997E+02  0.45594000000E+02  0.51100000000E-03 0. -1.
    9900012    2    1    2    0    0  0.28986171651E+02 -0.11762646308E+01  0.13233937006E+02  0.59301971177E+02  0.50000049513E+02 0.  0.
         12    1    1    2    0    0 -0.28986171651E+02  0.11762646308E+01 -0.13233937006E+02  0.31886028823E+02  0.00000000000E+00 0. -1.
         11    1    3    3    0    0 -0.10599486795E+02 -0.61600271606E+01  0.77009453688E+01  0.14477555552E+02  0.51100000000E-03 0.  1.
        -11    1    3    3    0    0  0.25875888947E+02 -0.27835631167E+01  0.10847179479E+02  0.28195232848E+02  0.51100000000E-03 0. -1.
        -12    1    3    3    0    0  0.13709769499E+02  0.77673256464E+01 -0.53141878415E+01  0.16629182777E+02  0.00000000000E+00 0.  1.
</event>
<event>
 7    1  0.7749294E-012  0.5930196E+02  0.7816164E-02  0.1266605E+00
        -11   -1    0    0    0    0  0.00000000000E+00  0.00000000000E+00  0.45593999997E+02  0.45594000000E+02  0.51100000000E-03 0.  1.
         11   -1    0    0    0    0 -0.00000000000E+00 -0.00000000000E+00 -0.45593999997E+02  0.45594000000E+02  0.51100000000E-03 0. -1.
    9900012    2    1    2    0    0 -0.16762653163E+02  0.27050455252E+02  0.20013993878E+01  0.59301964343E+02  0.50000037051E+02 0.  0.
         12    1    1    2    0    0  0.16762653163E+02 -0.27050455252E+02 -0.20013993878E+01  0.31886035657E+02  0.00000000000E+00 0. -1.
         11    1    3    3    0    0  0.14333114449E+02  0.96316479349E+01  0.10978161812E+02  0.20462816247E+02  0.51100000000E-03 0. -1.
        -11    1    3    3    0    0 -0.23984329753E+02  0.17172831100E+02 -0.31955247640E+01  0.29670955166E+02  0.51100000000E-03 0.  1.
        -12    1    3    3    0    0 -0.71114378586E+01  0.24597621696E+00 -0.57812376602E+01  0.91681929299E+01  0.00000000000E+00 0.  1.
</event>
<event>
 7    1  0.7749294E-012  0.5930193E+02  0.7816164E-02  0.1266605E+00
        -11   -1    0    0    0    0  0.00000000000E+00  0.00000000000E+00  0.45593999997E+02  0.45594000000E+02  0.51100000000E-03 0.  1.
         11   -1    0    0    0    0 -0.00000000000E+00 -0.00000000000E+00 -0.45593999997E+02  0.45594000000E+02  0.51100000000E-03 0. -1.
    9900012    2    1    2    0    0  0.14116317908E+02 -0.13086345471E+01  0.28561140660E+02  0.59301926058E+02  0.49999967227E+02 0.  0.
         12    1    1    2    0    0 -0.14116317908E+02  0.13086345471E+01 -0.28561140660E+02  0.31886073942E+02  0.00000000000E+00 0. -1.
         11    1    3    3    0    0  0.18782466974E+01  0.76513003212E+01  0.18578425627E+00  0.78806550053E+01  0.51100000000E-03 0. -1.
        -11    1    3    3    0    0 -0.38581646534E+01 -0.98613958288E+01 -0.68983854694E+01  0.12638049079E+02  0.51100000000E-03 0.  1.
        -12    1    3    3    0    0  0.16096235864E+02  0.90146096052E+00  0.35273741873E+02  0.38783221973E+02  0.00000000000E+00 0.  1.
</event>
<event>
 7    1  0.7749294E-012  0.5930159E+02  0.7816164E-02  0.1266606E+00
        -11   -1    0    0    0    0  0.00000000000E+00  0.00000000000E+00  0.45593999997E+02  0.45594000000E+02  0.51100000000E-03 0. -1.
         11   -1    0    0    0    0 -0.00000000000E+00 -0.00000000000E+00 -0.45593999997E+02  0.45594000000E+02  0.51100000000E-03 0.  1.
    9900012    2    1    2    0    0  0.22268360630E+02  0.12869141628E+02 -0.18848037850E+02  0.59301588753E+02  0.49999352061E+02 0.  0.
         12    1    1    2    0    0 -0.22268360630E+02 -0.12869141628E+02  0.18848037850E+02  0.31886411247E+02  0.00000000000E+00 0. -1.
         11    1    3    3    0    0  0.33756766031E+02  0.73421503257E+01 -0.19697570147E+02  0.39767080535E+02  0.51100000000E-03 0. -1.
        -11    1    3    3    0    0 -0.26055532451E+01  0.43271807469E+01 -0.62957442635E+01  0.80715424190E+01  0.51100000000E-03 0.  1.
         12    1    3    3    0    0 -0.88828521565E+01  0.11998105557E+01  0.71452765603E+01  0.11462965800E+02  0.00000000000E+00 0. -1.
</event>
<event>
 7    1  0.7749294E-012  0.5930196E+02  0.7816164E-02  0.1266605E+00
        -11   -1    0    0    0    0  0.00000000000E+00  0.00000000000E+00  0.45593999997E+02  0.45594000000E+02  0.51100000000E-03 0.  1.
         11   -1    0    0    0    0 -0.00000000000E+00 -0.00000000000E+00 -0.45593999997E+02  0.45594000000E+02  0.51100000000E-03 0. -1.
    9900012    2    1    2    0    0 -0.11471118929E+02 -0.94220017311E+01  0.28219830405E+02  0.59301960513E+02  0.50000030065E+02 0.  0.
         12    1    1    2    0    0  0.11471118929E+02  0.94220017311E+01 -0.28219830405E+02  0.31886039487E+02  0.00000000000E+00 0. -1.
         11    1    3    3    0    0 -0.21452741420E+01  0.54119068434E+01 -0.10694822113E+02  0.12176623387E+02  0.51100000000E-03 0. -1.
        -11    1    3    3    0    0 -0.15106705434E+02 -0.65242525715E+01  0.24295870783E+02  0.29343956074E+02  0.51100000000E-03 0.  1.
        -12    1    3    3    0    0  0.57808606474E+01 -0.83096560031E+01  0.14618781735E+02  0.17781381052E+02  0.00000000000E+00 0.  1.
</event>
<event>
 7    1  0.7749294E-012  0.5930207E+02  0.7816164E-02  0.1266604E+00
        -11   -1    0    0    0    0  0.00000000000E+00  0.00000000000E+00  0.45593999997E+02  0.45594000000E+02  0.51100000000E-03 0. -1.
         11   -1    0    0    0    0 -0.00000000000E+00 -0.00000000000E+00 -0.45593999997E+02  0.45594000000E+02  0.51100000000E-03 0.  1.
    9900012    2    1    2    0    0  0.28806041993E+02  0.87229525700E+01 -0.10527802859E+02  0.59302069091E+02  0.50000228086E+02 0.  0.
         12    1    1    2    0    0 -0.28806041993E+02 -0.87229525700E+01  0.10527802859E+02  0.31885930909E+02  0.00000000000E+00 0. -1.
         11    1    3    3    0    0  0.10805794568E+01  0.22586833299E+02 -0.13762649857E+02  0.26471554956E+02  0.51100000000E-03 0. -1.
        -11    1    3    3    0    0  0.12312142345E+02 -0.23962445706E+01  0.50755563090E+01  0.13531153287E+02  0.51100000000E-03 0.  1.
         12    1    3    3    0    0  0.15413320192E+02 -0.11467636158E+02 -0.18407093109E+01  0.19299360849E+02  0.00000000000E+00 0. -1.
</event>
<event>
 7    1  0.7749294E-012  0.5930194E+02  0.7816164E-02  0.1266605E+00
        -11   -1    0    0    0    0  0.00000000000E+00  0.00000000000E+00  0.45593999997E+02  0.45594000000E+02  0.51100000000E-03 0. -1.
         11   -1    0    0    0    0 -0.00000000000E+00 -0.00000000000E+00 -0.45593999997E+02  0.45594000000E+02  0.51100000000E-03 0.  1.
    9900012    2    1    2    0    0 -0.31857440815E+02 -0.53674907296E+00 -0.12393265393E+01  0.59301944034E+02  0.50000000011E+02 0.  0.
         12    1    1    2    0    0  0.31857440815E+02  0.53674907296E+00  0.12393265393E+01  0.31886055966E+02  0.00000000000E+00 0. -1.
         11    1    3    3    0    0 -0.82387309053E+00 -0.30775175066E+01  0.11453048361E+02  0.11887901324E+02  0.51100000000E-03 0. -1.
        -11    1    3    3    0    0 -0.29480170533E+02  0.32939992326E+01 -0.22640943171E+02  0.37316795059E+02  0.51100000000E-03 0.  1.
        -12    1    3    3    0    0 -0.15533971915E+01 -0.75323079896E+00  0.99485682705E+01  0.10097247650E+02  0.00000000000E+00 0.  1.
</event>
<event>
 7    1  0.7749294E-012  0.5930195E+02  0.7816164E-02  0.1266605E+00
        -11   -1    0    0    0    0  0.00000000000E+00  0.00000000000E+00  0.45593999997E+02  0.45594000000E+02  0.51100000000E-03 0.  1.
         11   -1    0    0    0    0 -0.00000000000E+00 -0.00000000000E+00 -0.45593999997E+02  0.45594000000E+02  0.51100000000E-03 0. -1.
    9900012    2    1    2    0    0 -0.13286120888E+02  0.22089566960E+02  0.18768324692E+02  0.59301953075E+02  0.50000016500E+02 0.  0.
         12    1    1    2    0    0  0.13286120888E+02 -0.22089566960E+02 -0.18768324692E+02  0.31886046925E+02  0.00000000000E+00 0. -1.
         11    1    3    3    0    0  0.11498439252E+01  0.32498522037E+02  0.23765500693E+01  0.32605583358E+02  0.51100000000E-03 0. -1.
        -11    1    3    3    0    0 -0.56577268113E+01 -0.24020064357E+01  0.12936908399E+02  0.14322817696E+02  0.51100000000E-03 0.  1.
         12    1    3    3    0    0 -0.87782380021E+01 -0.80069486413E+01  0.34548662245E+01  0.12373552020E+02  0.00000000000E+00 0. -1.
</event>
<event>
 7    1  0.7749294E-012  0.5930190E+02  0.7816164E-02  0.1266605E+00
        -11   -1    0    0    0    0  0.00000000000E+00  0.00000000000E+00  0.45593999997E+02  0.45594000000E+02  0.51100000000E-03 0. -1.
         11   -1    0    0    0    0 -0.00000000000E+00 -0.00000000000E+00 -0.45593999997E+02  0.45594000000E+02  0.51100000000E-03 0.  1.
    9900012    2    1    2    0    0 -0.21816041606E+02 -0.15848104657E+02 -0.17018258830E+02  0.59301902306E+02  0.49999923909E+02 0.  0.
         12    1    1    2    0    0  0.21816041606E+02  0.15848104657E+02  0.17018258830E+02  0.31886097694E+02  0.00000000000E+00 0. -1.
         11    1    3    3    0    0 -0.22595789139E+02  0.45262723764E+01  0.99069430400E+01  0.25083946043E+02  0.51100000000E-03 0. -1.
        -11    1    3    3    0    0  0.67237170571E+00 -0.39025913014E+01 -0.92239083653E+01  0.10038066964E+02  0.51100000000E-03 0.  1.
         12    1    3    3    0    0  0.10737582716E+00 -0.16471785732E+02 -0.17701293504E+02  0.24179889299E+02  0.00000000000E+00 0. -1.
</event>
<event>
 7    1  0.7749294E-012  0.5930195E+02  0.7816164E-02  0.1266605E+00
        -11   -1    0    0    0    0  0.00000000000E+00  0.00000000000E+00  0.45593999997E+02  0.45594000000E+02  0.51100000000E-03 0. -1.
         11   -1    0    0    0    0 -0.00000000000E+00 -0.00000000000E+00 -0.45593999997E+02  0.45594000000E+02  0.51100000000E-03 0.  1.
    9900012    2    1    2    0    0  0.22411843187E+02  0.22443397145E+02 -0.32746850896E+01  0.59301947361E+02  0.50000006080E+02 0.  0.
         12    1    1    2    0    0 -0.22411843187E+02 -0.22443397145E+02  0.32746850896E+01  0.31886052639E+02  0.00000000000E+00 0. -1.
         11    1    3    3    0    0 -0.63267019756E+00 -0.49266413247E+01  0.38615626373E+01  0.62915604252E+01  0.51100000000E-03 0. -1.
        -11    1    3    3    0    0 -0.15200826387E+01  0.27479272440E+02 -0.71919775910E+01  0.28445484826E+02  0.51100000000E-03 0.  1.
        -12    1    3    3    0    0  0.24564596023E+02 -0.10923397059E+00  0.55729864138E-01  0.24564902110E+02  0.00000000000E+00 0.  1.
</event>
<event>
 7    1  0.7749294E-012  0.5930196E+02  0.7816164E-02  0.1266605E+00
        -11   -1    0    0    0    0  0.00000000000E+00  0.00000000000E+00  0.45593999997E+02  0.45594000000E+02  0.51100000000E-03 0.  1.
         11   -1    0    0    0    0 -0.00000000000E+00 -0.00000000000E+00 -0.45593999997E+02  0.45594000000E+02  0.51100000000E-03 0. -1.
    9900012    2    1    2    0    0  0.17694510298E+02 -0.94189734127E+01  0.24797309574E+02  0.59301963606E+02  0.50000035706E+02 0.  0.
         12    1    1    2    0    0 -0.17694510298E+02  0.94189734127E+01 -0.24797309574E+02  0.31886036394E+02  0.00000000000E+00 0. -1.
         11    1    3    3    0    0  0.12839184031E+02  0.17551128540E+02  0.92658679192E+00  0.21765691419E+02  0.51100000000E-03 0. -1.
        -11    1    3    3    0    0  0.45920699858E+01 -0.69346834250E+01  0.36942991586E+01  0.91008124634E+01  0.51100000000E-03 0.  1.
         12    1    3    3    0    0  0.26325628067E+00 -0.20035418528E+02  0.20176423623E+02  0.28435459723E+02  0.00000000000E+00 0. -1.
</event>
<event>
 7    1  0.7749294E-012  0.5930193E+02  0.7816164E-02  0.1266605E+00
        -11   -1    0    0    0    0  0.00000000000E+00  0.00000000000E+00  0.45593999997E+02  0.45594000000E+02  0.51100000000E-03 0. -1.
         11   -1    0    0    0    0 -0.00000000000E+00 -0.00000000000E+00 -0.45593999997E+02  0.45594000000E+02  0.51100000000E-03 0.  1.
    9900012    2    1    2    0    0  0.24663125639E+02 -0.15282901205E+02 -0.13224396123E+02  0.59301929556E+02  0.49999973608E+02 0.  0.
         12    1    1    2    0    0 -0.24663125639E+02  0.15282901205E+02  0.13224396123E+02  0.31886070444E+02  0.00000000000E+00 0. -1.
         11    1    3    3    0    0  0.15712208644E+01 -0.11779553431E+02  0.16952573147E+02  0.20703051722E+02  0.51100000000E-03 0. -1.
        -11    1    3    3    0    0  0.67302424785E+01 -0.17818922458E+00 -0.13026991916E+02  0.14663916047E+02  0.51100000000E-03 0.  1.
         12    1    3    3    0    0  0.16361662296E+02 -0.33251585489E+01 -0.17149977355E+02  0.23934961787E+02  0.00000000000E+00 0. -1.
</event>
<event>
 7    1  0.7749294E-012  0.5930195E+02  0.7816164E-02  0.1266605E+00
        -11   -1    0    0    0    0  0.00000000000E+00  0.00000000000E+00  0.45593999997E+02  0.45594000000E+02  0.51100000000E-03 0.  1.
         11   -1    0    0    0    0 -0.00000000000E+00 -0.00000000000E+00 -0.45593999997E+02  0.45594000000E+02  0.51100000000E-03 0. -1.
    9900012    2    1    2    0    0 -0.22498580265E+02  0.21338880768E+02  0.74287422335E+01  0.59301950424E+02  0.50000011665E+02 0.  0.
         12    1    1    2    0    0  0.22498580265E+02 -0.21338880768E+02 -0.74287422335E+01  0.31886049576E+02  0.00000000000E+00 0. -1.
         11    1    3    3    0    0  0.94064769255E+01 -0.62357805216E+00 -0.10996947724E+02  0.14484595860E+02  0.51100000000E-03 0. -1.
        -11    1    3    3    0    0 -0.60891982031E+01 -0.11380555773E+01  0.23297646718E+01  0.66182557325E+01  0.51100000000E-03 0.  1.
         12    1    3    3    0    0 -0.25815858988E+02  0.23100514398E+02  0.16095925285E+02  0.38199098831E+02  0.00000000000E+00 0. -1.
</event>
<event>
 7    1  0.7749294E-012  0.5930194E+02  0.7816164E-02  0.1266605E+00
        -11   -1    0    0    0    0  0.00000000000E+00  0.00000000000E+00  0.45593999997E+02  0.45594000000E+02  0.51100000000E-03 0.  1.
         11   -1    0    0    0    0 -0.00000000000E+00 -0.00000000000E+00 -0.45593999997E+02  0.45594000000E+02  0.51100000000E-03 0. -1.
    9900012    2    1    2    0    0 -0.28774314489E+02 -0.13549618108E+02  0.22732443881E+01  0.59301937759E+02  0.49999988567E+02 0.  0.
         12    1    1    2    0    0  0.28774314489E+02  0.13549618108E+02 -0.22732443881E+01  0.31886062241E+02  0.00000000000E+00 0. -1.
         11    1    3    3    0    0 -0.67274859555E+01  0.17782947302E+02 -0.36207572742E+01  0.19354641963E+02  0.51100000000E-03 0. -1.
        -11    1    3    3    0    0 -0.14546822864E+02 -0.17902917321E+02  0.80132493339E+01  0.24420005512E+02  0.51100000000E-03 0.  1.
         12    1    3    3    0    0 -0.75000056697E+01 -0.13429648089E+02 -0.21192476716E+01  0.15527290283E+02  0.00000000000E+00 0. -1.
</event>
<event>
 7    1  0.7749294E-012  0.5930195E+02  0.7816164E-02  0.1266605E+00
        -11   -1    0    0    0    0  0.00000000000E+00  0.00000000000E+00  0.45593999997E+02  0.45594000000E+02  0.51100000000E-03 0. -1.
         11   -1    0    0    0    0 -0.00000000000E+00 -0.00000000000E+00 -0.45593999997E+02  0.45594000000E+02  0.51100000000E-03 0.  1.
    9900012    2    1    2    0    0 -0.99806410823E+01  0.25425445662E+01 -0.30176856283E+02  0.59301946867E+02  0.50000005179E+02 0.  0.
         12    1    1    2    0    0  0.99806410823E+01 -0.25425445662E+01  0.30176856283E+02  0.31886053133E+02  0.00000000000E+00 0. -1.
         11    1    3    3    0    0 -0.20293250758E+02 -0.11074952228E+01 -0.30381166434E+02  0.36552125056E+02  0.51100000000E-03 0. -1.
        -11    1    3    3    0    0  0.90416679209E+01 -0.68334881173E+01  0.31931151863E+01  0.11774731568E+02  0.51100000000E-03 0.  1.
         12    1    3    3    0    0  0.12709417550E+01  0.10483527906E+02 -0.29888050351E+01  0.10975090243E+02  0.00000000000E+00 0. -1.
</event>
<event>
 7    1  0.7749294E-012  0.5930196E+02  0.7816164E-02  0.1266605E+00
        -11   -1    0    0    0    0  0.00000000000E+00  0.00000000000E+00  0.45593999997E+02  0.45594000000E+02  0.51100000000E-03 0. -1.
         11   -1    0    0    0    0 -0.00000000000E+00 -0.00000000000E+00 -0.45593999997E+02  0.45594000000E+02  0.51100000000E-03 0.  1.
    9900012    2    1    2    0    0 -0.68299202876E+01  0.30156405500E+02  0.77886564755E+01  0.59301956446E+02  0.50000022648E+02 0.  0.
         12    1    1    2    0    0  0.68299202876E+01 -0.30156405500E+02 -0.77886564755E+01  0.31886043554E+02  0.00000000000E+00 0. -1.
         11    1    3    3    0    0 -0.32348595280E+01  0.32604019005E+02  0.13568341033E+02  0.35462462549E+02  0.51100000000E-03 0. -1.
        -11    1    3    3    0    0  0.47948040752E+01 -0.32849601693E+01 -0.12018926071E+02  0.13350494133E+02  0.51100000000E-03 0.  1.
        -12    1    3    3    0    0 -0.83898648349E+01  0.83734666501E+00  0.62392415137E+01  0.10488999764E+02  0.00000000000E+00 0.  1.
</event>
<event>
 7    1  0.7749294E-012  0.5930194E+02  0.7816164E-02  0.1266605E+00
        -11   -1    0    0    0    0  0.00000000000E+00  0.00000000000E+00  0.45593999997E+02  0.45594000000E+02  0.51100000000E-03 0.  1.
         11   -1    0    0    0    0 -0.00000000000E+00 -0.00000000000E+00 -0.45593999997E+02  0.45594000000E+02  0.51100000000E-03 0. -1.
    9900012    2    1    2    0    0  0.14253489666E+02 -0.25329578392E+02  0.13113793643E+02  0.59301935757E+02  0.49999984917E+02 0.  0.
         12    1    1    2    0    0 -0.14253489666E+02  0.25329578392E+02 -0.13113793643E+02  0.31886064243E+02  0.00000000000E+00 0. -1.
         11    1    3    3    0    0 -0.22117409227E+01 -0.28348258177E+01  0.13813219216E+02  0.14273509054E+02  0.51100000000E-03 0. -1.
        -11    1    3    3    0    0  0.24182196712E+02 -0.17909253673E+02 -0.10374946226E+02  0.31830166735E+02  0.51100000000E-03 0.  1.
        -12    1    3    3    0    0 -0.77169661226E+01 -0.45854989010E+01  0.96755206525E+01  0.13198259969E+02  0.00000000000E+00 0.  1.
</event>
<event>
 7    1  0.7749294E-012  0.5930195E+02  0.7816164E-02  0.1266605E+00
        -11   -1    0    0    0    0  0.00000000000E+00  0.00000000000E+00  0.45593999997E+02  0.45594000000E+02  0.51100000000E-03 0. -1.
         11   -1    0    0    0    0 -0.00000000000E+00 -0.00000000000E+00 -0.45593999997E+02  0.45594000000E+02  0.51100000000E-03 0.  1.
    9900012    2    1    2    0    0 -0.87431085986E+01 -0.25707111785E+02 -0.16715930810E+02  0.59301954664E+02  0.50000019398E+02 0.  0.
         12    1    1    2    0    0  0.87431085986E+01  0.25707111785E+02  0.16715930810E+02  0.31886045336E+02  0.00000000000E+00 0. -1.
         11    1    3    3    0    0  0.24331299155E+01 -0.22561181581E+00 -0.28838995138E+01  0.37799336693E+01  0.51100000000E-03 0. -1.
        -11    1    3    3    0    0 -0.14324853514E+02 -0.31989268878E+01  0.13621036365E+02  0.20024165235E+02  0.51100000000E-03 0.  1.
        -12    1    3    3    0    0  0.31486149999E+01 -0.22282573082E+02 -0.27453067661E+02  0.35497855760E+02  0.00000000000E+00 0.  1.
</event>
<event>
 7    1  0.7749294E-012  0.5930197E+02  0.7816164E-02  0.1266605E+00
        -11   -1    0    0    0    0  0.00000000000E+00  0.00000000000E+00  0.45593999997E+02  0.45594000000E+02  0.51100000000E-03 0.  1.
         11   -1    0    0    0    0 -0.00000000000E+00 -0.00000000000E+00 -0.45593999997E+02  0.45594000000E+02  0.51100000000E-03 0. -1.
    9900012    2    1    2    0    0  0.14186810782E+02 -0.15152246411E+02  0.24204608122E+02  0.59301965034E+02  0.50000038311E+02 0.  0.
         12    1    1    2    0    0 -0.14186810782E+02  0.15152246411E+02 -0.24204608122E+02  0.31886034966E+02  0.00000000000E+00 0. -1.
         11    1    3    3    0    0  0.87260256853E+01  0.85813517695E+01  0.14734214193E+02  0.19154116806E+02  0.51100000000E-03 0. -1.
        -11    1    3    3    0    0  0.16653113390E+02 -0.13012678006E+02 -0.14569211220E+01  0.21184395056E+02  0.51100000000E-03 0.  1.
        -12    1    3    3    0    0 -0.11192328293E+02 -0.10720920174E+02  0.10927315051E+02  0.18963453173E+02  0.00000000000E+00 0.  1.
</event>
<event>
 7    1  0.7749294E-012  0.5930195E+02  0.7816164E-02  0.1266605E+00
        -11   -1    0    0    0    0  0.00000000000E+00  0.00000000000E+00  0.45593999997E+02  0.45594000000E+02  0.51100000000E-03 0. -1.
         11   -1    0    0    0    0 -0.00000000000E+00 -0.00000000000E+00 -0.45593999997E+02  0.45594000000E+02  0.51100000000E-03 0.  1.
    9900012    2    1    2    0    0  0.21645700012E+02 -0.11479702716E+02 -0.20405887462E+02  0.59301950596E+02  0.50000011980E+02 0.  0.
         12    1    1    2    0    0 -0.21645700012E+02  0.11479702716E+02  0.20405887462E+02  0.31886049404E+02  0.00000000000E+00 0. -1.
         11    1    3    3    0    0 -0.17360791671E+01  0.83747864183E+01  0.11464551219E+02  0.14303389575E+02  0.51100000000E-03 0. -1.
        -11    1    3    3    0    0  0.19353472962E+02 -0.11603925121E+02 -0.23368155068E+02  0.32485052954E+02  0.51100000000E-03 0.  1.
         12    1    3    3    0    0  0.40283062177E+01 -0.82505640129E+01 -0.85022836126E+01  0.12513508067E+02  0.00000000000E+00 0. -1.
</event>
<event>
 7    1  0.7749294E-012  0.5930197E+02  0.7816164E-02  0.1266605E+00
        -11   -1    0    0    0    0  0.00000000000E+00  0.00000000000E+00  0.45593999997E+02  0.45594000000E+02  0.51100000000E-03 0. -1.
         11   -1    0    0    0    0 -0.00000000000E+00 -0.00000000000E+00 -0.45593999997E+02  0.45594000000E+02  0.51100000000E-03 0.  1.
    9900012    2    1    2    0    0  0.91583040193E+01  0.17028004866E+01 -0.30495001012E+02  0.59301966244E+02  0.50000040517E+02 0.  0.
         12    1    1    2    0    0 -0.91583040193E+01 -0.17028004866E+01  0.30495001012E+02  0.31886033756E+02  0.00000000000E+00 0. -1.
         11    1    3    3    0    0 -0.20144333280E+01 -0.29322463846E+01 -0.13037480696E+02  0.13514137548E+02  0.51100000000E-03 0. -1.
        -11    1    3    3    0    0 -0.42552230096E+01 -0.86906516442E+01  0.84323825473E+01  0.12835085685E+02  0.51100000000E-03 0.  1.
        -12    1    3    3    0    0  0.15427960357E+02  0.13325698515E+02 -0.25889902862E+02  0.32952743011E+02  0.00000000000E+00 0.  1.
</event>
<event>
 7    1  0.7749294E-012  0.5930194E+02  0.7816164E-02  0.1266605E+00
        -11   -1    0    0    0    0  0.00000000000E+00  0.00000000000E+00  0.45593999997E+02  0.45594000000E+02  0.51100000000E-03 0. -1.
         11   -1    0    0    0    0 -0.00000000000E+00 -0.00000000000E+00 -0.45593999997E+02  0.45594000000E+02  0.51100000000E-03 0.  1.
    9900012    2    1    2    0    0  0.25139480538E+02 -0.28186023930E+01 -0.19410887656E+02  0.59301944101E+02  0.50000000134E+02 0.  0.
         12    1    1    2    0    0 -0.25139480538E+02  0.28186023930E+01  0.19410887656E+02  0.31886055899E+02  0.00000000000E+00 0. -1.
         11    1    3    3    0    0  0.58423555926E+01  0.10834203846E+02  0.63876636299E+01  0.13867780600E+02  0.51100000000E-03 0. -1.
        -11    1    3    3    0    0  0.38826944379E+00 -0.68498619653E+01 -0.24337114845E+02  0.25285697961E+02  0.51100000000E-03 0.  1.
         12    1    3    3    0    0  0.18908855502E+02 -0.68029442738E+01 -0.14614364401E+01  0.20148465541E+02  0.00000000000E+00 0. -1.
</event>
<event>
 7    1  0.7749294E-012  0.5930197E+02  0.7816164E-02  0.1266605E+00
        -11   -1    0    0    0    0  0.00000000000E+00  0.00000000000E+00  0.45593999997E+02  0.45594000000E+02  0.51100000000E-03 0.  1.
         11   -1    0    0    0    0 -0.00000000000E+00 -0.00000000000E+00 -0.45593999997E+02  0.45594000000E+02  0.51100000000E-03 0. -1.
    9900012    2    1    2    0    0  0.15556377357E+02  0.15227338759E+02  0.23299056137E+02  0.59301972668E+02  0.50000052233E+02 0.  0.
         12    1    1    2    0    0 -0.15556377357E+02 -0.15227338759E+02 -0.23299056137E+02  0.31886027332E+02  0.00000000000E+00 0. -1.
         11    1    3    3    0    0  0.30995871535E+02  0.55106361764E+01  0.94631546012E+01  0.32873430891E+02  0.51100000000E-03 0. -1.
        -11    1    3    3    0    0 -0.51274670299E+01 -0.30604884367E+01  0.24859756861E+01  0.64681978160E+01  0.51100000000E-03 0.  1.
         12    1    3    3    0    0 -0.10312027148E+02  0.12777191020E+02  0.11349925849E+02  0.19960343961E+02  0.00000000000E+00 0. -1.
</event>
<event>
 7    1  0.7749294E-012  0.5930193E+02  0.7816164E-02  0.1266605E+00
        -11   -1    0    0    0    0  0.00000000000E+00  0.00000000000E+00  0.45593999997E+02  0.45594000000E+02  0.51100000000E-03 0.  1.
         11   -1    0    0    0    0 -0.00000000000E+00 -0.00000000000E+00 -0.45593999997E+02  0.45594000000E+02  0.51100000000E-03 0. -1.
    9900012    2    1    2    0    0 -0.18970722737E+02  0.22172089218E+02  0.12854236785E+02  0.59301933062E+02  0.49999980001E+02 0.  0.
         12    1    1    2    0    0  0.18970722737E+02 -0.22172089218E+02 -0.12854236785E+02  0.31886066938E+02  0.00000000000E+00 0. -1.
         11    1    3    3    0    0  0.45274982714E+01 -0.86936520217E+01  0.97646052696E+01  0.13835654752E+02  0.51100000000E-03 0. -1.
        -11    1    3    3    0    0 -0.86562345248E+01  0.15982467480E+02  0.12882060542E+02  0.22278176473E+02  0.51100000000E-03 0.  1.
         12    1    3    3    0    0 -0.14841986484E+02  0.14883273760E+02 -0.97924290268E+01  0.23188101838E+02  0.00000000000E+00 0. -1.
</event>
<event>
 7    1  0.7749294E-012  0.5930193E+02  0.7816164E-02  0.1266605E+00
        -11   -1    0    0    0    0  0.00000000000E+00  0.00000000000E+00  0.45593999997E+02  0.45594000000E+02  0.51100000000E-03 0.  1.
         11   -1    0    0    0    0 -0.00000000000E+00 -0.00000000000E+00 -0.45593999997E+02  0.45594000000E+02  0.51100000000E-03 0. -1.
    9900012    2    1    2    0    0 -0.65784413088E+01 -0.26092191916E+02  0.17106808572E+02  0.59301933003E+02  0.49999979894E+02 0.  0.
         12    1    1    2    0    0  0.65784413088E+01  0.26092191916E+02 -0.17106808572E+02  0.31886066997E+02  0.00000000000E+00 0. -1.
         11    1    3    3    0    0  0.84471228280E+01  0.10265992615E+02  0.91456460865E+00  0.13325949014E+02  0.51100000000E-03 0. -1.
        -11    1    3    3    0    0 -0.13320277009E+02 -0.26618972945E+02  0.19460126159E+02  0.35562564737E+02  0.51100000000E-03 0.  1.
         12    1    3    3    0    0 -0.17052871280E+01 -0.97392115849E+01 -0.32678821962E+01  0.10413419253E+02  0.00000000000E+00 0. -1.
</event>
<event>
 7    1  0.7749294E-012  0.5930201E+02  0.7816164E-02  0.1266605E+00
        -11   -1    0    0    0    0  0.00000000000E+00  0.00000000000E+00  0.45593999997E+02  0.45594000000E+02  0.51100000000E-03 0. -1.
         11   -1    0    0    0    0 -0.00000000000E+00 -0.00000000000E+00 -0.45593999997E+02  0.45594000000E+02  0.51100000000E-03 0.  1.
    9900012    2    1    2    0    0 -0.15883652064E+02  0.23572122384E+02 -0.14449250214E+02  0.59302012665E+02  0.50000125178E+02 0.  0.
         12    1    1    2    0    0  0.15883652064E+02 -0.23572122384E+02  0.14449250214E+02  0.31885987335E+02  0.00000000000E+00 0. -1.
         11    1    3    3    0    0 -0.50364900385E+01  0.15623028917E+02  0.15349875566E+02  0.22473627758E+02  0.51100000000E-03 0. -1.
        -11    1    3    3    0    0 -0.80502249841E+01 -0.32000225316E+01 -0.19726837258E+02  0.21545170571E+02  0.51100000000E-03 0.  1.
         12    1    3    3    0    0 -0.27969370417E+01  0.11149115999E+02 -0.10072288522E+02  0.15283214336E+02  0.00000000000E+00 0. -1.
</event>
<event>
 7    1  0.7749294E-012  0.5930197E+02  0.7816164E-02  0.1266605E+00
        -11   -1    0    0    0    0  0.00000000000E+00  0.00000000000E+00  0.45593999997E+02  0.45594000000E+02  0.51100000000E-03 0.  1.
         11   -1    0    0    0    0 -0.00000000000E+00 -0.00000000000E+00 -0.45593999997E+02  0.45594000000E+02  0.51100000000E-03 0. -1.
    9900012    2    1    2    0    0  0.40173905694E+00 -0.17483309507E+02  0.26662546748E+02  0.59301970070E+02  0.50000047495E+02 0.  0.
         12    1    1    2    0    0 -0.40173905694E+00  0.17483309507E+02 -0.26662546748E+02  0.31886029930E+02  0.00000000000E+00 0. -1.
         11    1    3    3    0    0 -0.61692447939E+01  0.13483393921E+02  0.12223037117E+02  0.19216246500E+02  0.51100000000E-03 0. -1.
        -11    1    3    3    0    0  0.10932267974E+02 -0.30346548395E+02  0.98544342792E+01  0.33727397732E+02  0.51100000000E-03 0.  1.
         12    1    3    3    0    0 -0.43612841236E+01 -0.62015503312E+00  0.45850753526E+01  0.63583258379E+01  0.00000000000E+00 0. -1.
</event>
<event>
 7    1  0.7749294E-012  0.5930192E+02  0.7816164E-02  0.1266605E+00
        -11   -1    0    0    0    0  0.00000000000E+00  0.00000000000E+00  0.45593999997E+02  0.45594000000E+02  0.51100000000E-03 0.  1.
         11   -1    0    0    0    0 -0.00000000000E+00 -0.00000000000E+00 -0.45593999997E+02  0.45594000000E+02  0.51100000000E-03 0. -1.
    9900012    2    1    2    0    0  0.15540512859E+02 -0.25510848801E+02  0.11153963632E+02  0.59301923867E+02  0.49999963232E+02 0.  0.
         12    1    1    2    0    0 -0.15540512859E+02  0.25510848801E+02 -0.11153963632E+02  0.31886076133E+02  0.00000000000E+00 0. -1.
         11    1    3    3    0    0  0.11996884784E+02 -0.14019334077E+02 -0.67350667422E+01  0.19642507395E+02  0.51100000000E-03 0. -1.
        -11    1    3    3    0    0 -0.67052144434E+01 -0.16562103595E+02  0.21228376829E+02  0.27747200927E+02  0.51100000000E-03 0.  1.
        -12    1    3    3    0    0  0.10248842518E+02  0.50705888708E+01 -0.33393464552E+01  0.11912215545E+02  0.00000000000E+00 0.  1.
</event>
<event>
 7    1  0.7749294E-012  0.5930195E+02  0.7816164E-02  0.1266605E+00
        -11   -1    0    0    0    0  0.00000000000E+00  0.00000000000E+00  0.45593999997E+02  0.45594000000E+02  0.51100000000E-03 0. -1.
         11   -1    0    0    0    0 -0.00000000000E+00 -0.00000000000E+00 -0.45593999997E+02  0.45594000000E+02  0.51100000000E-03 0.  1.
    9900012    2    1    2    0    0 -0.15796756910E+02 -0.24704862728E+02 -0.12524080985E+02  0.59301947001E+02  0.50000005423E+02 0.  0.
         12    1    1    2    0    0  0.15796756910E+02  0.24704862728E+02  0.12524080985E+02  0.31886052999E+02  0.00000000000E+00 0. -1.
         11    1    3    3    0    0 -0.47135405771E+01  0.14229311130E+01  0.10231333126E+02  0.11354398950E+02  0.51100000000E-03 0. -1.
        -11    1    3    3    0    0 -0.68389939743E+01 -0.17227242881E+02 -0.30308283983E+02  0.35526635277E+02  0.51100000000E-03 0.  1.
        -12    1    3    3    0    0 -0.42442223588E+01 -0.89005509606E+01  0.75528698720E+01  0.12420912774E+02  0.00000000000E+00 0.  1.
</event>
<event>
 7    1  0.9232556E-012  0.5930195E+02  0.7816164E-02  0.1266605E+00
        -11   -1    0    0    0    0  0.00000000000E+00  0.00000000000E+00  0.45593999997E+02  0.45594000000E+02  0.51100000000E-03 0. -1.
         11   -1    0    0    0    0 -0.00000000000E+00 -0.00000000000E+00 -0.45593999997E+02  0.45594000000E+02  0.51100000000E-03 0.  1.
    9900012    2    1    2    0    0 -0.42216874206E+01 -0.24419468357E+02 -0.20064576306E+02  0.59301948161E+02  0.50000007538E+02 0.  0.
         12    1    1    2    0    0  0.42216874206E+01  0.24419468357E+02  0.20064576306E+02  0.31886051839E+02  0.00000000000E+00 0. -1.
         11    1    3    3    0    0  0.54283795313E+01  0.13417075849E+01  0.91865201677E+01  0.10754517034E+02  0.51100000000E-03 0. -1.
        -11    1    3    3    0    0  0.55639670559E+00 -0.10388083579E+02 -0.28208088097E+02  0.30065230617E+02  0.51100000000E-03 0.  1.
        -12    1    3    3    0    0 -0.10206463658E+02 -0.15373092364E+02 -0.10430083767E+01  0.18482200510E+02  0.00000000000E+00 0.  1.
</event>
<event>
 7    1  0.7749294E-012  0.5930196E+02  0.7816164E-02  0.1266605E+00
        -11   -1    0    0    0    0  0.00000000000E+00  0.00000000000E+00  0.45593999997E+02  0.45594000000E+02  0.51100000000E-03 0. -1.
         11   -1    0    0    0    0 -0.00000000000E+00 -0.00000000000E+00 -0.45593999997E+02  0.45594000000E+02  0.51100000000E-03 0.  1.
    9900012    2    1    2    0    0  0.29698452117E+02 -0.11564615259E+02  0.99057773726E+00  0.59301958721E+02  0.50000026796E+02 0.  0.
         12    1    1    2    0    0 -0.29698452117E+02  0.11564615259E+02 -0.99057773726E+00  0.31886041279E+02  0.00000000000E+00 0. -1.
         11    1    3    3    0    0  0.68181662596E+01  0.27815741587E+00  0.19345368516E+02  0.20513606362E+02  0.51100000000E-03 0. -1.
        -11    1    3    3    0    0  0.18193721274E+02 -0.18336828534E+02 -0.11620217968E+02  0.28324551900E+02  0.51100000000E-03 0.  1.
        -12    1    3    3    0    0  0.46865645837E+01  0.64940558595E+01 -0.67345728104E+01  0.10463800459E+02  0.00000000000E+00 0.  1.
</event>
<event>
 7    1  0.7749294E-012  0.5930196E+02  0.7816164E-02  0.1266605E+00
        -11   -1    0    0    0    0  0.00000000000E+00  0.00000000000E+00  0.45593999997E+02  0.45594000000E+02  0.51100000000E-03 0.  1.
         11   -1    0    0    0    0 -0.00000000000E+00 -0.00000000000E+00 -0.45593999997E+02  0.45594000000E+02  0.51100000000E-03 0. -1.
    9900012    2    1    2    0    0  0.10502058005E+02 -0.10637408135E+02  0.28165085264E+02  0.59301957566E+02  0.50000024691E+02 0.  0.
         12    1    1    2    0    0 -0.10502058005E+02  0.10637408135E+02 -0.28165085264E+02  0.31886042434E+02  0.00000000000E+00 0. -1.
         11    1    3    3    0    0  0.17055591179E+02  0.46759451094E+00  0.20768646768E+02  0.26878402555E+02  0.51100000000E-03 0. -1.
        -11    1    3    3    0    0 -0.93844297344E+01 -0.19192548233E+02  0.98285166030E+01  0.23516402106E+02  0.51100000000E-03 0.  1.
         12    1    3    3    0    0  0.28308965603E+01  0.80875455872E+01 -0.24320781068E+01  0.89071529052E+01  0.00000000000E+00 0. -1.
</event>
<event>
 7    1  0.7749294E-012  0.5930198E+02  0.7816164E-02  0.1266605E+00
        -11   -1    0    0    0    0  0.00000000000E+00  0.00000000000E+00  0.45593999997E+02  0.45594000000E+02  0.51100000000E-03 0.  1.
         11   -1    0    0    0    0 -0.00000000000E+00 -0.00000000000E+00 -0.45593999997E+02  0.45594000000E+02  0.51100000000E-03 0. -1.
    9900012    2    1    2    0    0 -0.25252202353E+02 -0.13659125030E+02  0.13873459171E+02  0.59301979715E+02  0.50000065085E+02 0.  0.
         12    1    1    2    0    0  0.25252202353E+02  0.13659125030E+02 -0.13873459171E+02  0.31886020285E+02  0.00000000000E+00 0. -1.
         11    1    3    3    0    0  0.10447779382E+02  0.51595451832E+01  0.98884141590E+01  0.15282595832E+02  0.51100000000E-03 0. -1.
        -11    1    3    3    0    0 -0.31796053416E+02 -0.13319097475E+02 -0.26290541803E+01  0.34573100766E+02  0.51100000000E-03 0.  1.
        -12    1    3    3    0    0 -0.39039283190E+01 -0.54995727372E+01  0.66140991921E+01  0.94462831175E+01  0.00000000000E+00 0.  1.
</event>
<event>
 7    1  0.7749294E-012  0.5930179E+02  0.7816164E-02  0.1266605E+00
        -11   -1    0    0    0    0  0.00000000000E+00  0.00000000000E+00  0.45593999997E+02  0.45594000000E+02  0.51100000000E-03 0. -1.
         11   -1    0    0    0    0 -0.00000000000E+00 -0.00000000000E+00 -0.45593999997E+02  0.45594000000E+02  0.51100000000E-03 0.  1.
    9900012    2    1    2    0    0  0.30001074289E+02  0.33120640107E+01  0.10280853202E+02  0.59301793436E+02  0.49999725356E+02 0.  0.
         12    1    1    2    0    0 -0.30001074289E+02 -0.33120640107E+01 -0.10280853202E+02  0.31886206564E+02  0.00000000000E+00 0. -1.
         11    1    3    3    0    0  0.15374768957E+02 -0.78320964598E+01  0.14408977137E+02  0.22479854934E+02  0.51100000000E-03 0. -1.
        -11    1    3    3    0    0 -0.44070978782E+01  0.15485097597E+02  0.23115151319E+01  0.16265111797E+02  0.51100000000E-03 0.  1.
        -12    1    3    3    0    0  0.19033403209E+02 -0.43409371267E+01 -0.64396390675E+01  0.20556826705E+02  0.00000000000E+00 0.  1.
</event>
<event>
 7    1  0.7749294E-012  0.5930206E+02  0.7816164E-02  0.1266604E+00
        -11   -1    0    0    0    0  0.00000000000E+00  0.00000000000E+00  0.45593999997E+02  0.45594000000E+02  0.51100000000E-03 0.  1.
         11   -1    0    0    0    0 -0.00000000000E+00 -0.00000000000E+00 -0.45593999997E+02  0.45594000000E+02  0.51100000000E-03 0. -1.
    9900012    2    1    2    0    0 -0.19705716753E+02 -0.12501894182E+02  0.21727875574E+02  0.59302059402E+02  0.50000210414E+02 0.  0.
         12    1    1    2    0    0  0.19705716753E+02  0.12501894182E+02 -0.21727875574E+02  0.31885940598E+02  0.00000000000E+00 0. -1.
         11    1    3    3    0    0  0.99081943503E+01 -0.12959408253E+02  0.20807062081E+02  0.26439599283E+02  0.51100000000E-03 0.  1.
        -11    1    3    3    0    0 -0.13066936569E+02 -0.37634026460E+00 -0.66270472852E+01  0.14656200711E+02  0.51100000000E-03 0. -1.
         12    1    3    3    0    0 -0.16546974535E+02  0.83385433511E+00  0.75478607781E+01  0.18206259408E+02  0.00000000000E+00 0. -1.
</event>
<event>
 7    1  0.7749294E-012  0.5930196E+02  0.7816164E-02  0.1266605E+00
        -11   -1    0    0    0    0  0.00000000000E+00  0.00000000000E+00  0.45593999997E+02  0.45594000000E+02  0.51100000000E-03 0.  1.
         11   -1    0    0    0    0 -0.00000000000E+00 -0.00000000000E+00 -0.45593999997E+02  0.45594000000E+02  0.51100000000E-03 0. -1.
    9900012    2    1    2    0    0 -0.79242759851E+01 -0.65477722585E+01  0.30183637106E+02  0.59301961983E+02  0.50000032747E+02 0.  0.
         12    1    1    2    0    0  0.79242759851E+01  0.65477722585E+01 -0.30183637106E+02  0.31886038017E+02  0.00000000000E+00 0. -1.
         11    1    3    3    0    0  0.97607702911E+01  0.17258685756E+01  0.10266088176E+02  0.14270382816E+02  0.51100000000E-03 0.  1.
        -11    1    3    3    0    0 -0.13553333566E+02 -0.21638690730E+02  0.17186762065E+02  0.30778410904E+02  0.51100000000E-03 0. -1.
         12    1    3    3    0    0 -0.41317127107E+01  0.13365049896E+02  0.27307868649E+01  0.14253168263E+02  0.00000000000E+00 0. -1.
</event>
<event>
 7    1  0.7749294E-012  0.5930199E+02  0.7816164E-02  0.1266605E+00
        -11   -1    0    0    0    0  0.00000000000E+00  0.00000000000E+00  0.45593999997E+02  0.45594000000E+02  0.51100000000E-03 0. -1.
         11   -1    0    0    0    0 -0.00000000000E+00 -0.00000000000E+00 -0.45593999997E+02  0.45594000000E+02  0.51100000000E-03 0.  1.
    9900012    2    1    2    0    0  0.31180826532E+02 -0.33278316490E+01 -0.57792317919E+01  0.59301985404E+02  0.50000075460E+02 0.  0.
         12    1    1    2    0    0 -0.31180826532E+02  0.33278316490E+01  0.57792317919E+01  0.31886014596E+02  0.00000000000E+00 0. -1.
         11    1    3    3    0    0  0.16032080365E+02 -0.46887602570E+01  0.17346144584E+02  0.24081129661E+02  0.51100000000E-03 0. -1.
        -11    1    3    3    0    0  0.93525253702E+01  0.95301174402E+01 -0.21148541862E+02  0.25011071396E+02  0.51100000000E-03 0.  1.
         12    1    3    3    0    0  0.57962207977E+01 -0.81691888322E+01 -0.19768345134E+01  0.10209784347E+02  0.00000000000E+00 0. -1.
</event>
<event>
 7    1  0.7749294E-012  0.5930200E+02  0.7816164E-02  0.1266605E+00
        -11   -1    0    0    0    0  0.00000000000E+00  0.00000000000E+00  0.45593999997E+02  0.45594000000E+02  0.51100000000E-03 0. -1.
         11   -1    0    0    0    0 -0.00000000000E+00 -0.00000000000E+00 -0.45593999997E+02  0.45594000000E+02  0.51100000000E-03 0.  1.
    9900012    2    1    2    0    0  0.57619870444E+00  0.23321833676E+02 -0.21736536307E+02  0.59302000854E+02  0.50000103637E+02 0.  0.
         12    1    1    2    0    0 -0.57619870444E+00 -0.23321833676E+02  0.21736536307E+02  0.31885999146E+02  0.00000000000E+00 0. -1.
         11    1    3    3    0    0  0.54374023655E+00  0.16524927320E+02  0.10706149608E+02  0.19697474865E+02  0.51100000000E-03 0. -1.
        -11    1    3    3    0    0  0.91852090705E+01  0.94111377065E+01 -0.17565129457E+02  0.21942455462E+02  0.51100000000E-03 0.  1.
         12    1    3    3    0    0 -0.91527506026E+01 -0.26142313505E+01 -0.14877556458E+02  0.17662070527E+02  0.00000000000E+00 0. -1.
</event>
<event>
 7    1  0.7749294E-012  0.5930199E+02  0.7816164E-02  0.1266605E+00
        -11   -1    0    0    0    0  0.00000000000E+00  0.00000000000E+00  0.45593999997E+02  0.45594000000E+02  0.51100000000E-03 0.  1.
         11   -1    0    0    0    0 -0.00000000000E+00 -0.00000000000E+00 -0.45593999997E+02  0.45594000000E+02  0.51100000000E-03 0. -1.
    9900012    2    1    2    0    0 -0.14609502596E+01  0.17785467584E+02  0.26424618326E+02  0.59301989172E+02  0.50000082332E+02 0.  0.
         12    1    1    2    0    0  0.14609502596E+01 -0.17785467584E+02 -0.26424618326E+02  0.31886010828E+02  0.00000000000E+00 0. -1.
         11    1    3    3    0    0  0.55851750851E+01  0.71276804342E+01  0.28293969377E+01  0.94870172549E+01  0.51100000000E-03 0. -1.
        -11    1    3    3    0    0 -0.12102445757E+02 -0.10611771210E+02  0.22837213482E+02  0.27939527580E+02  0.51100000000E-03 0.  1.
        -12    1    3    3    0    0  0.50563204128E+01  0.21269558360E+02  0.75800790654E+00  0.21875444337E+02  0.00000000000E+00 0.  1.
</event>
<event>
 7    1  0.7749294E-012  0.5930193E+02  0.7816164E-02  0.1266605E+00
        -11   -1    0    0    0    0  0.00000000000E+00  0.00000000000E+00  0.45593999997E+02  0.45594000000E+02  0.51100000000E-03 0.  1.
         11   -1    0    0    0    0 -0.00000000000E+00 -0.00000000000E+00 -0.45593999997E+02  0.45594000000E+02  0.51100000000E-03 0. -1.
    9900012    2    1    2    0    0  0.19973947349E+02  0.51847682184E+01  0.24308040526E+02  0.59301933632E+02  0.49999981041E+02 0.  0.
         12    1    1    2    0    0 -0.19973947349E+02 -0.51847682184E+01 -0.24308040526E+02  0.31886066368E+02  0.00000000000E+00 0. -1.
         11    1    3    3    0    0  0.10228100677E+02  0.25021610261E+02  0.58240387073E+01  0.27651662710E+02  0.51100000000E-03 0. -1.
        -11    1    3    3    0    0  0.21185687830E+01 -0.84848138523E+01  0.15276768178E+02  0.17602841987E+02  0.51100000000E-03 0.  1.
         12    1    3    3    0    0  0.76272778890E+01 -0.11352028190E+02  0.32072336407E+01  0.14047428934E+02  0.00000000000E+00 0. -1.
</event>
<event>
 7    1  0.7749294E-012  0.5930184E+02  0.7816164E-02  0.1266605E+00
        -11   -1    0    0    0    0  0.00000000000E+00  0.00000000000E+00  0.45593999997E+02  0.45594000000E+02  0.51100000000E-03 0. -1.
         11   -1    0    0    0    0 -0.00000000000E+00 -0.00000000000E+00 -0.45593999997E+02  0.45594000000E+02  0.51100000000E-03 0.  1.
    9900012    2    1    2    0    0  0.46028526505E+01  0.29181719385E+02 -0.11998684544E+02  0.59301836393E+02  0.49999803699E+02 0.  0.
         12    1    1    2    0    0 -0.46028526505E+01 -0.29181719385E+02  0.11998684544E+02  0.31886163607E+02  0.00000000000E+00 0. -1.
         11    1    3    3    0    0 -0.44434123001E+01 -0.73744987943E+01 -0.12342163537E+02  0.15048459934E+02  0.51100000000E-03 0. -1.
        -11    1    3    3    0    0  0.49014791126E+00  0.34401563202E+02 -0.35923505958E+01  0.34592091275E+02  0.51100000000E-03 0.  1.
        -12    1    3    3    0    0  0.85561170393E+01  0.21546549778E+01  0.39358295887E+01  0.96612851844E+01  0.00000000000E+00 0.  1.
</event>
<event>
 7    1  0.7749294E-012  0.5930193E+02  0.7816164E-02  0.1266605E+00
        -11   -1    0    0    0    0  0.00000000000E+00  0.00000000000E+00  0.45593999997E+02  0.45594000000E+02  0.51100000000E-03 0. -1.
         11   -1    0    0    0    0 -0.00000000000E+00 -0.00000000000E+00 -0.45593999997E+02  0.45594000000E+02  0.51100000000E-03 0.  1.
    9900012    2    1    2    0    0 -0.27638288222E+02 -0.10915424961E+01 -0.15863646431E+02  0.59301925941E+02  0.49999967014E+02 0.  0.
         12    1    1    2    0    0  0.27638288222E+02  0.10915424961E+01  0.15863646431E+02  0.31886074059E+02  0.00000000000E+00 0. -1.
         11    1    3    3    0    0 -0.17356998857E+02 -0.16711202816E+02  0.10212240919E+02  0.26169057563E+02  0.51100000000E-03 0. -1.
        -11    1    3    3    0    0 -0.83332825148E+01  0.87968880997E+01 -0.10565782728E+02  0.16076834347E+02  0.51100000000E-03 0.  1.
         12    1    3    3    0    0 -0.19480068497E+01  0.68227722206E+01 -0.15510104622E+02  0.17056034030E+02  0.00000000000E+00 0. -1.
</event>
<event>
 7    1  0.7749294E-012  0.5930196E+02  0.7816164E-02  0.1266605E+00
        -11   -1    0    0    0    0  0.00000000000E+00  0.00000000000E+00  0.45593999997E+02  0.45594000000E+02  0.51100000000E-03 0. -1.
         11   -1    0    0    0    0 -0.00000000000E+00 -0.00000000000E+00 -0.45593999997E+02  0.45594000000E+02  0.51100000000E-03 0.  1.
    9900012    2    1    2    0    0  0.21252010086E+02 -0.23270030540E+02  0.48556566679E+01  0.59301958294E+02  0.50000026018E+02 0.  0.
         12    1    1    2    0    0 -0.21252010086E+02  0.23270030540E+02 -0.48556566679E+01  0.31886041706E+02  0.00000000000E+00 0. -1.
         11    1    3    3    0    0 -0.38531090962E+01 -0.12071909172E+01  0.17979048239E+01  0.44199798228E+01  0.51100000000E-03 0. -1.
        -11    1    3    3    0    0  0.18090997867E+02  0.98630204783E+01 -0.50278744395E+01  0.21209500192E+02  0.51100000000E-03 0.  1.
        -12    1    3    3    0    0  0.70141213157E+01 -0.31925860101E+02  0.80856262834E+01  0.33672478279E+02  0.00000000000E+00 0.  1.
</event>
<event>
 7    1  0.7749294E-012  0.5930194E+02  0.7816164E-02  0.1266605E+00
        -11   -1    0    0    0    0  0.00000000000E+00  0.00000000000E+00  0.45593999997E+02  0.45594000000E+02  0.51100000000E-03 0. -1.
         11   -1    0    0    0    0 -0.00000000000E+00 -0.00000000000E+00 -0.45593999997E+02  0.45594000000E+02  0.51100000000E-03 0.  1.
    9900012    2    1    2    0    0  0.15462961076E+02 -0.16553161757E+02 -0.22441272973E+02  0.59301936241E+02  0.49999985798E+02 0.  0.
         12    1    1    2    0    0 -0.15462961076E+02  0.16553161757E+02  0.22441272973E+02  0.31886063759E+02  0.00000000000E+00 0. -1.
         11    1    3    3    0    0  0.13244070161E+02 -0.29916436896E+02 -0.12478333005E+02  0.35015816224E+02  0.51100000000E-03 0. -1.
        -11    1    3    3    0    0 -0.38859988385E+01 -0.89101589933E+00 -0.76248361222E+01  0.86042444443E+01  0.51100000000E-03 0.  1.
         12    1    3    3    0    0  0.61048897529E+01  0.14254291037E+02 -0.23381038459E+01  0.15681875572E+02  0.00000000000E+00 0. -1.
</event>
<event>
 7    1  0.7749294E-012  0.5930194E+02  0.7816164E-02  0.1266605E+00
        -11   -1    0    0    0    0  0.00000000000E+00  0.00000000000E+00  0.45593999997E+02  0.45594000000E+02  0.51100000000E-03 0. -1.
         11   -1    0    0    0    0 -0.00000000000E+00 -0.00000000000E+00 -0.45593999997E+02  0.45594000000E+02  0.51100000000E-03 0.  1.
    9900012    2    1    2    0    0  0.14419906211E+02  0.11414187566E+02 -0.26048093329E+02  0.59301944443E+02  0.50000000757E+02 0.  0.
         12    1    1    2    0    0 -0.14419906211E+02 -0.11414187566E+02  0.26048093329E+02  0.31886055557E+02  0.00000000000E+00 0. -1.
         11    1    3    3    0    0  0.90454483425E+01 -0.44977974966E+01 -0.18294807011E+02  0.20898571288E+02  0.51100000000E-03 0.  1.
        -11    1    3    3    0    0 -0.80870201850E+01  0.18549271904E+02 -0.12619983032E+02  0.23848256867E+02  0.51100000000E-03 0. -1.
        -12    1    3    3    0    0  0.13461478053E+02 -0.26372868410E+01  0.48666967138E+01  0.14555116288E+02  0.00000000000E+00 0.  1.
</event>
<event>
 7    1  0.7749294E-012  0.5930191E+02  0.7816164E-02  0.1266605E+00
        -11   -1    0    0    0    0  0.00000000000E+00  0.00000000000E+00  0.45593999997E+02  0.45594000000E+02  0.51100000000E-03 0. -1.
         11   -1    0    0    0    0 -0.00000000000E+00 -0.00000000000E+00 -0.45593999997E+02  0.45594000000E+02  0.51100000000E-03 0.  1.
    9900012    2    1    2    0    0 -0.41770988004E+01  0.63970956905E+01 -0.30957256755E+02  0.59301910032E+02  0.49999938000E+02 0.  0.
         12    1    1    2    0    0  0.41770988004E+01 -0.63970956905E+01  0.30957256755E+02  0.31886089968E+02  0.00000000000E+00 0. -1.
         11    1    3    3    0    0  0.84844223412E+01  0.12901827764E+02 -0.34950927302E+02  0.38210075918E+02  0.51100000000E-03 0. -1.
        -11    1    3    3    0    0 -0.62292633361E+01 -0.13926503160E+01 -0.55783689336E+01  0.84771101700E+01  0.51100000000E-03 0.  1.
         12    1    3    3    0    0 -0.64322578054E+01 -0.51120817580E+01  0.95720394804E+01  0.12614723944E+02  0.00000000000E+00 0. -1.
</event>
<event>
 7    1  0.7749294E-012  0.5930193E+02  0.7816164E-02  0.1266605E+00
        -11   -1    0    0    0    0  0.00000000000E+00  0.00000000000E+00  0.45593999997E+02  0.45594000000E+02  0.51100000000E-03 0.  1.
         11   -1    0    0    0    0 -0.00000000000E+00 -0.00000000000E+00 -0.45593999997E+02  0.45594000000E+02  0.51100000000E-03 0. -1.
    9900012    2    1    2    0    0 -0.15710189324E+02 -0.27124797072E+02 -0.58443948981E+01  0.59301927547E+02  0.49999969943E+02 0.  0.
         12    1    1    2    0    0  0.15710189324E+02  0.27124797072E+02  0.58443948981E+01  0.31886072453E+02  0.00000000000E+00 0. -1.
         11    1    3    3    0    0 -0.16370281218E+02 -0.28541797945E+02 -0.20360913263E+02  0.38693502378E+02  0.51100000000E-03 0. -1.
        -11    1    3    3    0    0 -0.42373585090E+01  0.40132409900E+01  0.89780457893E+00  0.59048593294E+01  0.51100000000E-03 0.  1.
         12    1    3    3    0    0  0.48974504035E+01 -0.25962401165E+01  0.13618713786E+02  0.14703565839E+02  0.00000000000E+00 0. -1.
</event>
<event>
 7    1  0.7749294E-012  0.5930212E+02  0.7816164E-02  0.1266604E+00
        -11   -1    0    0    0    0  0.00000000000E+00  0.00000000000E+00  0.45593999997E+02  0.45594000000E+02  0.51100000000E-03 0. -1.
         11   -1    0    0    0    0 -0.00000000000E+00 -0.00000000000E+00 -0.45593999997E+02  0.45594000000E+02  0.51100000000E-03 0.  1.
    9900012    2    1    2    0    0  0.23506421210E+02  0.21158954811E+02 -0.40566231830E+01  0.59302119136E+02  0.50000319355E+02 0.  0.
         12    1    1    2    0    0 -0.23506421210E+02 -0.21158954811E+02  0.40566231830E+01  0.31885880864E+02  0.00000000000E+00 0. -1.
         11    1    3    3    0    0 -0.58355992018E+01 -0.66907464693E+01  0.43527562724E+01  0.98877092285E+01  0.51100000000E-03 0. -1.
        -11    1    3    3    0    0  0.17781881127E+02  0.26016032362E+02  0.46767063285E+01  0.31857508042E+02  0.51100000000E-03 0.  1.
        -12    1    3    3    0    0  0.11560139285E+02  0.18336689180E+01 -0.13086085784E+02  0.17556901866E+02  0.00000000000E+00 0.  1.
</event>
<event>
 7    1  0.7749294E-012  0.5930194E+02  0.7816164E-02  0.1266605E+00
        -11   -1    0    0    0    0  0.00000000000E+00  0.00000000000E+00  0.45593999997E+02  0.45594000000E+02  0.51100000000E-03 0. -1.
         11   -1    0    0    0    0 -0.00000000000E+00 -0.00000000000E+00 -0.45593999997E+02  0.45594000000E+02  0.51100000000E-03 0.  1.
    9900012    2    1    2    0    0  0.31761961343E+02 -0.19032414345E+01 -0.20678756691E+01  0.59301943077E+02  0.49999998266E+02 0.  0.
         12    1    1    2    0    0 -0.31761961343E+02  0.19032414345E+01  0.20678756691E+01  0.31886056923E+02  0.00000000000E+00 0. -1.
         11    1    3    3    0    0  0.23968801280E+02 -0.13901956414E+02 -0.61927326617E+01  0.28392213106E+02  0.51100000000E-03 0. -1.
        -11    1    3    3    0    0  0.22792963946E+01  0.13388187699E+02  0.14006082719E+02  0.19509205911E+02  0.51100000000E-03 0.  1.
        -12    1    3    3    0    0  0.55138636683E+01 -0.13894727192E+01 -0.98812257261E+01  0.11400524060E+02  0.00000000000E+00 0.  1.
</event>
<event>
 7    1  0.7749294E-012  0.5930155E+02  0.7816164E-02  0.1266606E+00
        -11   -1    0    0    0    0  0.00000000000E+00  0.00000000000E+00  0.45593999997E+02  0.45594000000E+02  0.51100000000E-03 0. -1.
         11   -1    0    0    0    0 -0.00000000000E+00 -0.00000000000E+00 -0.45593999997E+02  0.45594000000E+02  0.51100000000E-03 0.  1.
    9900012    2    1    2    0    0  0.13447972716E+02  0.21003966314E+02  0.19867849065E+02  0.59301545234E+02  0.49999272691E+02 0.  0.
         12    1    1    2    0    0 -0.13447972716E+02 -0.21003966314E+02 -0.19867849065E+02  0.31886454766E+02  0.00000000000E+00 0. -1.
         11    1    3    3    0    0 -0.10220841119E+02  0.10303548103E+00  0.17723275477E+02  0.20459489323E+02  0.51100000000E-03 0. -1.
        -11    1    3    3    0    0  0.21653054767E+02  0.25580445419E+02  0.31021451540E+01  0.33657648067E+02  0.51100000000E-03 0.  1.
        -12    1    3    3    0    0  0.20157590683E+01 -0.46795145868E+01 -0.95757156593E+00  0.51844078441E+01  0.00000000000E+00 0.  1.
</event>
<event>
 7    1  0.7749294E-012  0.5930195E+02  0.7816164E-02  0.1266605E+00
        -11   -1    0    0    0    0  0.00000000000E+00  0.00000000000E+00  0.45593999997E+02  0.45594000000E+02  0.51100000000E-03 0.  1.
         11   -1    0    0    0    0 -0.00000000000E+00 -0.00000000000E+00 -0.45593999997E+02  0.45594000000E+02  0.51100000000E-03 0. -1.
    9900012    2    1    2    0    0 -0.15828682347E+02 -0.22462332313E+02  0.16174573006E+02  0.59301947098E+02  0.50000005599E+02 0.  0.
         12    1    1    2    0    0  0.15828682347E+02  0.22462332313E+02 -0.16174573006E+02  0.31886052902E+02  0.00000000000E+00 0. -1.
         11    1    3    3    0    0  0.81297440259E+01 -0.15992523010E+02  0.63494521662E+01  0.19030740217E+02  0.51100000000E-03 0. -1.
        -11    1    3    3    0    0 -0.28591903319E+02 -0.92885837191E+01  0.14252320595E+02  0.33270157281E+02  0.51100000000E-03 0.  1.
        -12    1    3    3    0    0  0.46334769463E+01  0.28187744160E+01 -0.44271997551E+01  0.70010495993E+01  0.00000000000E+00 0.  1.
</event>
<event>
 7    1  0.7749294E-012  0.5930190E+02  0.7816164E-02  0.1266605E+00
        -11   -1    0    0    0    0  0.00000000000E+00  0.00000000000E+00  0.45593999997E+02  0.45594000000E+02  0.51100000000E-03 0.  1.
         11   -1    0    0    0    0 -0.00000000000E+00 -0.00000000000E+00 -0.45593999997E+02  0.45594000000E+02  0.51100000000E-03 0. -1.
    9900012    2    1    2    0    0  0.50957959472E+01  0.18618833290E+02 -0.25379038168E+02  0.59301895381E+02  0.49999911280E+02 0.  0.
         12    1    1    2    0    0 -0.50957959472E+01 -0.18618833290E+02  0.25379038168E+02  0.31886104619E+02  0.00000000000E+00 0. -1.
         11    1    3    3    0    0 -0.10382818675E+02 -0.94524192215E+01 -0.19521142760E+02  0.24046333768E+02  0.51100000000E-03 0. -1.
        -11    1    3    3    0    0  0.83597586622E+01  0.12874862125E+02  0.39068028236E+01  0.15840162505E+02  0.51100000000E-03 0.  1.
         12    1    3    3    0    0  0.71188559598E+01  0.15196390387E+02 -0.97646982324E+01  0.19415399108E+02  0.00000000000E+00 0. -1.
</event>
<event>
 7    1  0.7749294E-012  0.5930194E+02  0.7816164E-02  0.1266605E+00
        -11   -1    0    0    0    0  0.00000000000E+00  0.00000000000E+00  0.45593999997E+02  0.45594000000E+02  0.51100000000E-03 0. -1.
         11   -1    0    0    0    0 -0.00000000000E+00 -0.00000000000E+00 -0.45593999997E+02  0.45594000000E+02  0.51100000000E-03 0.  1.
    9900012    2    1    2    0    0 -0.10797082625E+02 -0.18202111302E+02 -0.23850095800E+02  0.59301938488E+02  0.49999989897E+02 0.  0.
         12    1    1    2    0    0  0.10797082625E+02  0.18202111302E+02  0.23850095800E+02  0.31886061512E+02  0.00000000000E+00 0. -1.
         11    1    3    3    0    0 -0.15997273645E+02 -0.28592112890E+02 -0.21197171700E+02  0.39022324020E+02  0.51100000000E-03 0.  1.
        -11    1    3    3    0    0  0.10547187301E+02  0.42668380782E+01  0.88917406607E+00  0.11412260860E+02  0.51100000000E-03 0. -1.
        -12    1    3    3    0    0 -0.53469962814E+01  0.61231635099E+01 -0.35420981665E+01  0.88673536088E+01  0.00000000000E+00 0.  1.
</event>
<event>
 7    1  0.7749294E-012  0.5930197E+02  0.7816164E-02  0.1266605E+00
        -11   -1    0    0    0    0  0.00000000000E+00  0.00000000000E+00  0.45593999997E+02  0.45594000000E+02  0.51100000000E-03 0. -1.
         11   -1    0    0    0    0 -0.00000000000E+00 -0.00000000000E+00 -0.45593999997E+02  0.45594000000E+02  0.51100000000E-03 0.  1.
    9900012    2    1    2    0    0 -0.71652421009E+01 -0.12861510266E+02 -0.28283564716E+02  0.59301965852E+02  0.50000039801E+02 0.  0.
         12    1    1    2    0    0  0.71652421009E+01  0.12861510266E+02  0.28283564716E+02  0.31886034148E+02  0.00000000000E+00 0. -1.
         11    1    3    3    0    0 -0.16021357938E+02 -0.26591853590E+02 -0.59755556208E+01  0.31615152266E+02  0.51100000000E-03 0.  1.
        -11    1    3    3    0    0  0.49546681733E+01  0.89022943050E+01 -0.14117111541E+02  0.17409549653E+02  0.51100000000E-03 0. -1.
        -12    1    3    3    0    0  0.39014476637E+01  0.48280490195E+01 -0.81908975538E+01  0.10277263933E+02  0.00000000000E+00 0.  1.
</event>
<event>
 7    1  0.7749294E-012  0.5930198E+02  0.7816164E-02  0.1266605E+00
        -11   -1    0    0    0    0  0.00000000000E+00  0.00000000000E+00  0.45593999997E+02  0.45594000000E+02  0.51100000000E-03 0. -1.
         11   -1    0    0    0    0 -0.00000000000E+00 -0.00000000000E+00 -0.45593999997E+02  0.45594000000E+02  0.51100000000E-03 0.  1.
    9900012    2    1    2    0    0  0.14480940306E+02  0.30177957156E+01 -0.28247365535E+02  0.59301978254E+02  0.50000062421E+02 0.  0.
         12    1    1    2    0    0 -0.14480940306E+02 -0.30177957156E+01  0.28247365535E+02  0.31886021746E+02  0.00000000000E+00 0. -1.
         11    1    3    3    0    0 -0.10315412161E+02 -0.70787836623E+01 -0.35700260476E+01  0.13010072730E+02  0.51100000000E-03 0. -1.
        -11    1    3    3    0    0  0.28077340846E+02  0.25355214022E+01 -0.25493957990E+02  0.38009312438E+02  0.51100000000E-03 0.  1.
         12    1    3    3    0    0 -0.32809883792E+01  0.75610579757E+01  0.81661850277E+00  0.82825930864E+01  0.00000000000E+00 0. -1.
</event>
<event>
 7    1  0.7749294E-012  0.5930196E+02  0.7816164E-02  0.1266605E+00
        -11   -1    0    0    0    0  0.00000000000E+00  0.00000000000E+00  0.45593999997E+02  0.45594000000E+02  0.51100000000E-03 0. -1.
         11   -1    0    0    0    0 -0.00000000000E+00 -0.00000000000E+00 -0.45593999997E+02  0.45594000000E+02  0.51100000000E-03 0.  1.
    9900012    2    1    2    0    0 -0.21062354660E+01  0.97415401418E+01 -0.30288375642E+02  0.59301960246E+02  0.50000029578E+02 0.  0.
         12    1    1    2    0    0  0.21062354660E+01 -0.97415401418E+01  0.30288375642E+02  0.31886039754E+02  0.00000000000E+00 0. -1.
         11    1    3    3    0    0  0.65981029965E+00  0.10361059062E+01  0.41943909650E+00  0.12979963394E+01  0.51100000000E-03 0.  1.
        -11    1    3    3    0    0  0.20375432003E+02  0.12102802072E+02 -0.23867529204E+02  0.33634729045E+02  0.51100000000E-03 0. -1.
        -12    1    3    3    0    0 -0.23141477769E+02 -0.33973678366E+01 -0.68402855340E+01  0.24369234862E+02  0.00000000000E+00 0.  1.
</event>
<event>
 7    1  0.7749294E-012  0.5930187E+02  0.7816164E-02  0.1266605E+00
        -11   -1    0    0    0    0  0.00000000000E+00  0.00000000000E+00  0.45593999997E+02  0.45594000000E+02  0.51100000000E-03 0. -1.
         11   -1    0    0    0    0 -0.00000000000E+00 -0.00000000000E+00 -0.45593999997E+02  0.45594000000E+02  0.51100000000E-03 0.  1.
    9900012    2    1    2    0    0  0.30569712926E+02  0.89107143599E+01  0.16784571156E+01  0.59301868264E+02  0.49999861826E+02 0.  0.
         12    1    1    2    0    0 -0.30569712926E+02 -0.89107143599E+01 -0.16784571156E+01  0.31886131736E+02  0.00000000000E+00 0. -1.
         11    1    3    3    0    0 -0.71436010884E+01 -0.10537340439E+02  0.23875757283E+01  0.12952493898E+02  0.51100000000E-03 0. -1.
        -11    1    3    3    0    0  0.34189393541E+02  0.17542652546E+02  0.56430676154E+01  0.38839458047E+02  0.51100000000E-03 0.  1.
        -12    1    3    3    0    0  0.35239204737E+01  0.19054022535E+01 -0.63521862281E+01  0.75099163197E+01  0.00000000000E+00 0.  1.
</event>
<event>
 7    1  0.7749294E-012  0.5930198E+02  0.7816164E-02  0.1266605E+00
        -11   -1    0    0    0    0  0.00000000000E+00  0.00000000000E+00  0.45593999997E+02  0.45594000000E+02  0.51100000000E-03 0.  1.
         11   -1    0    0    0    0 -0.00000000000E+00 -0.00000000000E+00 -0.45593999997E+02  0.45594000000E+02  0.51100000000E-03 0. -1.
    9900012    2    1    2    0    0 -0.29686917386E+02  0.83766866013E+01  0.80768829558E+01  0.59301984561E+02  0.50000073923E+02 0.  0.
         12    1    1    2    0    0  0.29686917386E+02 -0.83766866013E+01 -0.80768829558E+01  0.31886015439E+02  0.00000000000E+00 0. -1.
         11    1    3    3    0    0 -0.71385043898E+01 -0.29683335025E+01  0.99545067057E+01  0.12604025259E+02  0.51100000000E-03 0. -1.
        -11    1    3    3    0    0 -0.12684256263E+02  0.25590640787E+02 -0.52639851803E+01  0.29042740798E+02  0.51100000000E-03 0.  1.
        -12    1    3    3    0    0 -0.98641567332E+01 -0.14245620683E+02  0.33863614304E+01  0.17655218504E+02  0.00000000000E+00 0.  1.
</event>
<event>
 7    1  0.7749294E-012  0.5930198E+02  0.7816164E-02  0.1266605E+00
        -11   -1    0    0    0    0  0.00000000000E+00  0.00000000000E+00  0.45593999997E+02  0.45594000000E+02  0.51100000000E-03 0.  1.
         11   -1    0    0    0    0 -0.00000000000E+00 -0.00000000000E+00 -0.45593999997E+02  0.45594000000E+02  0.51100000000E-03 0. -1.
    9900012    2    1    2    0    0  0.16539950312E+02  0.95672920538E+01  0.25526756081E+02  0.59301979402E+02  0.50000064514E+02 0.  0.
         12    1    1    2    0    0 -0.16539950312E+02 -0.95672920538E+01 -0.25526756081E+02  0.31886020598E+02  0.00000000000E+00 0. -1.
         11    1    3    3    0    0 -0.15294317015E+02  0.28290745785E+01  0.27937014245E+01  0.15802675845E+02  0.51100000000E-03 0. -1.
        -11    1    3    3    0    0  0.33278153443E+02  0.39130083158E+01  0.22408620184E+02  0.40309966379E+02  0.51100000000E-03 0.  1.
        -12    1    3    3    0    0 -0.14438861159E+01  0.28252091594E+01  0.32443447299E+00  0.31893371784E+01  0.00000000000E+00 0.  1.
</event>
<event>
 7    1  0.7749294E-012  0.5930196E+02  0.7816164E-02  0.1266605E+00
        -11   -1    0    0    0    0  0.00000000000E+00  0.00000000000E+00  0.45593999997E+02  0.45594000000E+02  0.51100000000E-03 0.  1.
         11   -1    0    0    0    0 -0.00000000000E+00 -0.00000000000E+00 -0.45593999997E+02  0.45594000000E+02  0.51100000000E-03 0. -1.
    9900012    2    1    2    0    0  0.15101600707E+01  0.16101505167E+02  0.27480549325E+02  0.59301958488E+02  0.50000026372E+02 0.  0.
         12    1    1    2    0    0 -0.15101600707E+01 -0.16101505167E+02 -0.27480549325E+02  0.31886041512E+02  0.00000000000E+00 0. -1.
         11    1    3    3    0    0 -0.96553906845E+01 -0.52262512243E+01 -0.76399693436E+01  0.13375701961E+02  0.51100000000E-03 0. -1.
        -11    1    3    3    0    0  0.13694709320E+02  0.19865432464E+02  0.22566400275E+02  0.33036690088E+02  0.51100000000E-03 0.  1.
         12    1    3    3    0    0 -0.25291585654E+01  0.14623239276E+01  0.12554118394E+02  0.12889566438E+02  0.00000000000E+00 0. -1.
</event>
<event>
 7    1  0.7749294E-012  0.5930194E+02  0.7816164E-02  0.1266605E+00
        -11   -1    0    0    0    0  0.00000000000E+00  0.00000000000E+00  0.45593999997E+02  0.45594000000E+02  0.51100000000E-03 0.  1.
         11   -1    0    0    0    0 -0.00000000000E+00 -0.00000000000E+00 -0.45593999997E+02  0.45594000000E+02  0.51100000000E-03 0. -1.
    9900012    2    1    2    0    0  0.39622188503E+01  0.29300981372E+02  0.11936244016E+02  0.59301943349E+02  0.49999998761E+02 0.  0.
         12    1    1    2    0    0 -0.39622188503E+01 -0.29300981372E+02 -0.11936244016E+02  0.31886056651E+02  0.00000000000E+00 0. -1.
         11    1    3    3    0    0 -0.89714201756E+01  0.27126776110E+01  0.15512348190E+02  0.18123960561E+02  0.51100000000E-03 0.  1.
        -11    1    3    3    0    0  0.54564610694E+01  0.30503949724E+02 -0.74805451050E+01  0.31878244485E+02  0.51100000000E-03 0. -1.
         12    1    3    3    0    0  0.74771779564E+01 -0.39156459630E+01  0.39044409316E+01  0.92997383021E+01  0.00000000000E+00 0. -1.
</event>
<event>
 7    1  0.7749294E-012  0.5930191E+02  0.7816164E-02  0.1266605E+00
        -11   -1    0    0    0    0  0.00000000000E+00  0.00000000000E+00  0.45593999997E+02  0.45594000000E+02  0.51100000000E-03 0. -1.
         11   -1    0    0    0    0 -0.00000000000E+00 -0.00000000000E+00 -0.45593999997E+02  0.45594000000E+02  0.51100000000E-03 0.  1.
    9900012    2    1    2    0    0 -0.22757852505E+02 -0.11276895170E+02 -0.19277816839E+02  0.59301914674E+02  0.49999946466E+02 0.  0.
         12    1    1    2    0    0  0.22757852505E+02  0.11276895170E+02  0.19277816839E+02  0.31886085326E+02  0.00000000000E+00 0. -1.
         11    1    3    3    0    0  0.36397068736E+01 -0.16397928154E+02  0.64641985923E+01  0.17997927035E+02  0.51100000000E-03 0. -1.
        -11    1    3    3    0    0 -0.18461926181E+02 -0.52114949289E+01 -0.16825538327E+02  0.25516683522E+02  0.51100000000E-03 0.  1.
         12    1    3    3    0    0 -0.79356331978E+01  0.10332527913E+02 -0.89164771046E+01  0.15787304117E+02  0.00000000000E+00 0. -1.
</event>
<event>
 7    1  0.7749294E-012  0.5930192E+02  0.7816164E-02  0.1266605E+00
        -11   -1    0    0    0    0  0.00000000000E+00  0.00000000000E+00  0.45593999997E+02  0.45594000000E+02  0.51100000000E-03 0.  1.
         11   -1    0    0    0    0 -0.00000000000E+00 -0.00000000000E+00 -0.45593999997E+02  0.45594000000E+02  0.51100000000E-03 0. -1.
    9900012    2    1    2    0    0  0.19328818682E+02 -0.24993121162E+02  0.42968263356E+01  0.59301920692E+02  0.49999957442E+02 0.  0.
         12    1    1    2    0    0 -0.19328818682E+02  0.24993121162E+02 -0.42968263356E+01  0.31886079308E+02  0.00000000000E+00 0. -1.
         11    1    3    3    0    0  0.91985438600E+01  0.10223336749E+02 -0.86908068862E+01  0.16268372630E+02  0.51100000000E-03 0. -1.
        -11    1    3    3    0    0  0.79290413639E+01 -0.81246102215E+01  0.10955397146E+02  0.15776555869E+02  0.51100000000E-03 0.  1.
         12    1    3    3    0    0  0.22012334583E+01 -0.27091847689E+02  0.20322360759E+01  0.27256992193E+02  0.00000000000E+00 0. -1.
</event>
<event>
 7    1  0.7749294E-012  0.5930192E+02  0.7816164E-02  0.1266605E+00
        -11   -1    0    0    0    0  0.00000000000E+00  0.00000000000E+00  0.45593999997E+02  0.45594000000E+02  0.51100000000E-03 0.  1.
         11   -1    0    0    0    0 -0.00000000000E+00 -0.00000000000E+00 -0.45593999997E+02  0.45594000000E+02  0.51100000000E-03 0. -1.
    9900012    2    1    2    0    0  0.12556915523E+02  0.28023495687E+02 -0.85866076261E+01  0.59301917323E+02  0.49999951297E+02 0.  0.
         12    1    1    2    0    0 -0.12556915523E+02 -0.28023495687E+02  0.85866076261E+01  0.31886082677E+02  0.00000000000E+00 0. -1.
         11    1    3    3    0    0  0.13931670156E+02 -0.11880164138E+02 -0.25894540920E+00  0.18311111006E+02  0.51100000000E-03 0. -1.
        -11    1    3    3    0    0  0.26953063279E+00  0.33660925423E+02 -0.65298177584E+01  0.34289489167E+02  0.51100000000E-03 0.  1.
         12    1    3    3    0    0 -0.16442852660E+01  0.62427344020E+01 -0.17978444584E+01  0.67013171502E+01  0.00000000000E+00 0. -1.
</event>
<event>
 7    1  0.7749294E-012  0.5930197E+02  0.7816164E-02  0.1266605E+00
        -11   -1    0    0    0    0  0.00000000000E+00  0.00000000000E+00  0.45593999997E+02  0.45594000000E+02  0.51100000000E-03 0.  1.
         11   -1    0    0    0    0 -0.00000000000E+00 -0.00000000000E+00 -0.45593999997E+02  0.45594000000E+02  0.51100000000E-03 0. -1.
    9900012    2    1    2    0    0  0.92330558789E+01  0.14903927847E+01  0.30483578029E+02  0.59301966678E+02  0.50000041309E+02 0.  0.
         12    1    1    2    0    0 -0.92330558789E+01 -0.14903927847E+01 -0.30483578029E+02  0.31886033322E+02  0.00000000000E+00 0. -1.
         11    1    3    3    0    0  0.65844297698E+01 -0.13338407710E+02  0.98120898714E+01  0.17819790783E+02  0.51100000000E-03 0. -1.
        -11    1    3    3    0    0  0.10917196210E+02  0.21929147779E+02  0.10778006050E+02  0.26762625247E+02  0.51100000000E-03 0.  1.
        -12    1    3    3    0    0 -0.82685701013E+01 -0.71003472843E+01  0.98934821083E+01  0.14719550649E+02  0.00000000000E+00 0.  1.
</event>
<event>
 7    1  0.7749294E-012  0.5930195E+02  0.7816164E-02  0.1266605E+00
        -11   -1    0    0    0    0  0.00000000000E+00  0.00000000000E+00  0.45593999997E+02  0.45594000000E+02  0.51100000000E-03 0.  1.
         11   -1    0    0    0    0 -0.00000000000E+00 -0.00000000000E+00 -0.45593999997E+02  0.45594000000E+02  0.51100000000E-03 0. -1.
    9900012    2    1    2    0    0 -0.11451242942E+02 -0.27786753091E+02 -0.10652946710E+02  0.59301954684E+02  0.50000019435E+02 0.  0.
         12    1    1    2    0    0  0.11451242942E+02  0.27786753091E+02  0.10652946710E+02  0.31886045316E+02  0.00000000000E+00 0. -1.
         11    1    3    3    0    0 -0.19595670449E+02 -0.33328664156E+02  0.49066423553E+01  0.38972622368E+02  0.51100000000E-03 0.  1.
        -11    1    3    3    0    0 -0.11676170237E+01  0.33070161347E+01 -0.41943867928E+01  0.54674094467E+01  0.51100000000E-03 0. -1.
         12    1    3    3    0    0  0.93120445305E+01  0.22348949303E+01 -0.11365202273E+02  0.14861922870E+02  0.00000000000E+00 0. -1.
</event>
<event>
 7    1  0.7749294E-012  0.5930194E+02  0.7816164E-02  0.1266605E+00
        -11   -1    0    0    0    0  0.00000000000E+00  0.00000000000E+00  0.45593999997E+02  0.45594000000E+02  0.51100000000E-03 0. -1.
         11   -1    0    0    0    0 -0.00000000000E+00 -0.00000000000E+00 -0.45593999997E+02  0.45594000000E+02  0.51100000000E-03 0.  1.
    9900012    2    1    2    0    0  0.44888829651E+01 -0.12799804807E+02 -0.28857164186E+02  0.59301937241E+02  0.49999987623E+02 0.  0.
         12    1    1    2    0    0 -0.44888829651E+01  0.12799804807E+02  0.28857164186E+02  0.31886062759E+02  0.00000000000E+00 0. -1.
         11    1    3    3    0    0 -0.30498060096E+01 -0.99254580862E+01  0.42445561669E+01  0.11217499375E+02  0.51100000000E-03 0. -1.
        -11    1    3    3    0    0  0.86452975870E+01  0.80717114894E+01 -0.34978101052E+02  0.36923722052E+02  0.51100000000E-03 0.  1.
        -12    1    3    3    0    0 -0.11066086123E+01 -0.10946058210E+02  0.18763806985E+01  0.11160715814E+02  0.00000000000E+00 0.  1.
</event>
<event>
 7    1  0.7749294E-012  0.5930195E+02  0.7816164E-02  0.1266605E+00
        -11   -1    0    0    0    0  0.00000000000E+00  0.00000000000E+00  0.45593999997E+02  0.45594000000E+02  0.51100000000E-03 0. -1.
         11   -1    0    0    0    0 -0.00000000000E+00 -0.00000000000E+00 -0.45593999997E+02  0.45594000000E+02  0.51100000000E-03 0.  1.
    9900012    2    1    2    0    0 -0.17174539531E+02  0.15281834813E+01 -0.26822001796E+02  0.59301953943E+02  0.50000018082E+02 0.  0.
         12    1    1    2    0    0  0.17174539531E+02 -0.15281834813E+01  0.26822001796E+02  0.31886046057E+02  0.00000000000E+00 0. -1.
         11    1    3    3    0    0  0.72378996313E+01  0.22923467807E+01  0.28215480518E+01  0.80995789092E+01  0.51100000000E-03 0. -1.
        -11    1    3    3    0    0 -0.27045181566E+02  0.88647198441E+01 -0.11910291393E+02  0.30852554921E+02  0.51100000000E-03 0.  1.
        -12    1    3    3    0    0  0.26327424041E+01 -0.96288831435E+01 -0.17733258455E+02  0.20349820112E+02  0.00000000000E+00 0.  1.
</event>
<event>
 7    1  0.7749294E-012  0.5930196E+02  0.7816164E-02  0.1266605E+00
        -11   -1    0    0    0    0  0.00000000000E+00  0.00000000000E+00  0.45593999997E+02  0.45594000000E+02  0.51100000000E-03 0. -1.
         11   -1    0    0    0    0 -0.00000000000E+00 -0.00000000000E+00 -0.45593999997E+02  0.45594000000E+02  0.51100000000E-03 0.  1.
    9900012    2    1    2    0    0  0.31596540011E+02 -0.32495275342E+01 -0.27962223986E+01  0.59301958703E+02  0.50000026765E+02 0.  0.
         12    1    1    2    0    0 -0.31596540011E+02  0.32495275342E+01  0.27962223986E+01  0.31886041297E+02  0.00000000000E+00 0. -1.
         11    1    3    3    0    0  0.39644089963E+02  0.31596097272E+01 -0.15177422833E+02  0.42567489552E+02  0.51100000000E-03 0. -1.
        -11    1    3    3    0    0 -0.54752181022E+01 -0.65708659964E+01  0.83735916677E+01  0.11969600281E+02  0.51100000000E-03 0.  1.
         12    1    3    3    0    0 -0.25723318497E+01  0.16172873502E+00  0.40076087666E+01  0.47648688707E+01  0.00000000000E+00 0. -1.
</event>
<event>
 7    1  0.7749294E-012  0.5930195E+02  0.7816164E-02  0.1266605E+00
        -11   -1    0    0    0    0  0.00000000000E+00  0.00000000000E+00  0.45593999997E+02  0.45594000000E+02  0.51100000000E-03 0.  1.
         11   -1    0    0    0    0 -0.00000000000E+00 -0.00000000000E+00 -0.45593999997E+02  0.45594000000E+02  0.51100000000E-03 0. -1.
    9900012    2    1    2    0    0  0.27861063671E+02  0.25950599535E+01  0.15288794194E+02  0.59301946106E+02  0.50000003790E+02 0.  0.
         12    1    1    2    0    0 -0.27861063671E+02 -0.25950599535E+01 -0.15288794194E+02  0.31886053894E+02  0.00000000000E+00 0. -1.
         11    1    3    3    0    0  0.77934129776E+01  0.25908048470E+01  0.25340038790E+02  0.26637701134E+02  0.51100000000E-03 0. -1.
        -11    1    3    3    0    0  0.24185311266E+02 -0.48075380121E+01 -0.89708608379E+01  0.26239627421E+02  0.51100000000E-03 0.  1.
        -12    1    3    3    0    0 -0.41176605723E+01  0.48117931187E+01 -0.10803837576E+01  0.64246175504E+01  0.00000000000E+00 0.  1.
</event>
<event>
 7    1  0.7749294E-012  0.5930195E+02  0.7816164E-02  0.1266605E+00
        -11   -1    0    0    0    0  0.00000000000E+00  0.00000000000E+00  0.45593999997E+02  0.45594000000E+02  0.51100000000E-03 0. -1.
         11   -1    0    0    0    0 -0.00000000000E+00 -0.00000000000E+00 -0.45593999997E+02  0.45594000000E+02  0.51100000000E-03 0.  1.
    9900012    2    1    2    0    0 -0.28737301586E+02  0.75746763138E+01  0.11554729241E+02  0.59301953028E+02  0.50000016414E+02 0.  0.
         12    1    1    2    0    0  0.28737301586E+02 -0.75746763138E+01 -0.11554729241E+02  0.31886046972E+02  0.00000000000E+00 0. -1.
         11    1    3    3    0    0 -0.84730033203E+01  0.14901681856E+02  0.11210328495E+02  0.20482269714E+02  0.51100000000E-03 0. -1.
        -11    1    3    3    0    0 -0.20369022726E+02 -0.15389112434E+02  0.89262709676E+01  0.27044411289E+02  0.51100000000E-03 0.  1.
        -12    1    3    3    0    0  0.10472446058E+00  0.80621068923E+01 -0.85818702217E+01  0.11775272025E+02  0.00000000000E+00 0.  1.
</event>
<event>
 7    1  0.7749294E-012  0.5930192E+02  0.7816164E-02  0.1266605E+00
        -11   -1    0    0    0    0  0.00000000000E+00  0.00000000000E+00  0.45593999997E+02  0.45594000000E+02  0.51100000000E-03 0.  1.
         11   -1    0    0    0    0 -0.00000000000E+00 -0.00000000000E+00 -0.45593999997E+02  0.45594000000E+02  0.51100000000E-03 0. -1.
    9900012    2    1    2    0    0  0.23559469830E+02  0.18274276020E+02  0.11301512514E+02  0.59301922037E+02  0.49999959894E+02 0.  0.
         12    1    1    2    0    0 -0.23559469830E+02 -0.18274276020E+02 -0.11301512514E+02  0.31886077963E+02  0.00000000000E+00 0. -1.
         11    1    3    3    0    0  0.22705819119E+02  0.67319226015E+01  0.57021995853E+01  0.24359558373E+02  0.51100000000E-03 0. -1.
        -11    1    3    3    0    0 -0.79107039580E+01  0.15353352929E+02  0.13988403303E+02  0.22225663331E+02  0.51100000000E-03 0.  1.
        -12    1    3    3    0    0  0.87643546697E+01 -0.38109995109E+01 -0.83890903740E+01  0.12716700333E+02  0.00000000000E+00 0.  1.
</event>
<event>
 7    1  0.7749294E-012  0.5930193E+02  0.7816164E-02  0.1266605E+00
        -11   -1    0    0    0    0  0.00000000000E+00  0.00000000000E+00  0.45593999997E+02  0.45594000000E+02  0.51100000000E-03 0. -1.
         11   -1    0    0    0    0 -0.00000000000E+00 -0.00000000000E+00 -0.45593999997E+02  0.45594000000E+02  0.51100000000E-03 0.  1.
    9900012    2    1    2    0    0  0.12208994116E+02 -0.21553013337E+02  0.20078079022E+02  0.59301934415E+02  0.49999982469E+02 0.  0.
         12    1    1    2    0    0 -0.12208994116E+02  0.21553013337E+02 -0.20078079022E+02  0.31886065585E+02  0.00000000000E+00 0. -1.
         11    1    3    3    0    0  0.23842878225E+02  0.19722515684E+00  0.18892353243E+02  0.30421090565E+02  0.51100000000E-03 0. -1.
        -11    1    3    3    0    0 -0.54912431992E+01 -0.21454519412E+02 -0.14424479930E+01  0.22193035204E+02  0.51100000000E-03 0.  1.
        -12    1    3    3    0    0 -0.61426409097E+01 -0.29571908218E+00  0.26281737727E+01  0.66878086471E+01  0.00000000000E+00 0.  1.
</event>
<event>
 7    1  0.7749294E-012  0.5930196E+02  0.7816164E-02  0.1266605E+00
        -11   -1    0    0    0    0  0.00000000000E+00  0.00000000000E+00  0.45593999997E+02  0.45594000000E+02  0.51100000000E-03 0.  1.
         11   -1    0    0    0    0 -0.00000000000E+00 -0.00000000000E+00 -0.45593999997E+02  0.45594000000E+02  0.51100000000E-03 0. -1.
    9900012    2    1    2    0    0 -0.22198314797E+01 -0.26598385415E+02  0.17444706287E+02  0.59301960172E+02  0.50000029443E+02 0.  0.
         12    1    1    2    0    0  0.22198314797E+01  0.26598385415E+02 -0.17444706287E+02  0.31886039828E+02  0.00000000000E+00 0. -1.
         11    1    3    3    0    0  0.45488192115E+01 -0.58686070073E+01 -0.11159716967E+02  0.13404163064E+02  0.51100000000E-03 0. -1.
        -11    1    3    3    0    0 -0.17487337005E+02 -0.11481461385E+02  0.12152568035E+02  0.24193301163E+02  0.51100000000E-03 0.  1.
        -12    1    3    3    0    0  0.10718686314E+02 -0.92483170235E+01  0.16451855218E+02  0.21704495944E+02  0.00000000000E+00 0.  1.
</event>
<event>
 7    1  0.7749294E-012  0.5930196E+02  0.7816164E-02  0.1266605E+00
        -11   -1    0    0    0    0  0.00000000000E+00  0.00000000000E+00  0.45593999997E+02  0.45594000000E+02  0.51100000000E-03 0. -1.
         11   -1    0    0    0    0 -0.00000000000E+00 -0.00000000000E+00 -0.45593999997E+02  0.45594000000E+02  0.51100000000E-03 0.  1.
    9900012    2    1    2    0    0 -0.82259214924E+01 -0.18879492729E+02 -0.24343762131E+02  0.59301956269E+02  0.50000022325E+02 0.  0.
         12    1    1    2    0    0  0.82259214924E+01  0.18879492729E+02  0.24343762131E+02  0.31886043731E+02  0.00000000000E+00 0. -1.
         11    1    3    3    0    0  0.12389238065E+02 -0.94683394353E+01 -0.12764906110E+02  0.20151563209E+02  0.51100000000E-03 0. -1.
        -11    1    3    3    0    0 -0.10373971005E+02  0.76146036695E+00  0.91750877766E+01  0.13870159778E+02  0.51100000000E-03 0.  1.
        -12    1    3    3    0    0 -0.10241188553E+02 -0.10172613660E+02 -0.20753943798E+02  0.25280233282E+02  0.00000000000E+00 0.  1.
</event>
<event>
 7    1  0.7749294E-012  0.5930193E+02  0.7816164E-02  0.1266605E+00
        -11   -1    0    0    0    0  0.00000000000E+00  0.00000000000E+00  0.45593999997E+02  0.45594000000E+02  0.51100000000E-03 0.  1.
         11   -1    0    0    0    0 -0.00000000000E+00 -0.00000000000E+00 -0.45593999997E+02  0.45594000000E+02  0.51100000000E-03 0. -1.
    9900012    2    1    2    0    0 -0.72875991703E+01 -0.91816633369E+01  0.29653147946E+02  0.59301933664E+02  0.49999981099E+02 0.  0.
         12    1    1    2    0    0  0.72875991703E+01  0.91816633369E+01 -0.29653147946E+02  0.31886066336E+02  0.00000000000E+00 0. -1.
         11    1    3    3    0    0 -0.17927549719E+02 -0.10412882110E+02  0.36850053835E+02  0.42281811937E+02  0.51100000000E-03 0. -1.
        -11    1    3    3    0    0  0.56976863786E+01 -0.72978815696E+00  0.22584791858E+01  0.61722726218E+01  0.51100000000E-03 0.  1.
         12    1    3    3    0    0  0.49422641699E+01  0.19610069298E+01 -0.94553850750E+01  0.10847849106E+02  0.00000000000E+00 0. -1.
</event>
<event>
 7    1  0.7749294E-012  0.5930195E+02  0.7816164E-02  0.1266605E+00
        -11   -1    0    0    0    0  0.00000000000E+00  0.00000000000E+00  0.45593999997E+02  0.45594000000E+02  0.51100000000E-03 0.  1.
         11   -1    0    0    0    0 -0.00000000000E+00 -0.00000000000E+00 -0.45593999997E+02  0.45594000000E+02  0.51100000000E-03 0. -1.
    9900012    2    1    2    0    0  0.47700429528E+01 -0.13797100142E+02  0.28347959383E+02  0.59301951589E+02  0.50000013789E+02 0.  0.
         12    1    1    2    0    0 -0.47700429528E+01  0.13797100142E+02 -0.28347959383E+02  0.31886048411E+02  0.00000000000E+00 0. -1.
         11    1    3    3    0    0  0.18988453789E+02  0.21677903191E+01 -0.15041716629E+01  0.19170895254E+02  0.51100000000E-03 0. -1.
        -11    1    3    3    0    0 -0.65507016978E+01 -0.22793273588E+01  0.21006185824E+02  0.22121638029E+02  0.51100000000E-03 0.  1.
         12    1    3    3    0    0 -0.76677091385E+01 -0.13685563102E+02  0.88459452219E+01  0.18009418306E+02  0.00000000000E+00 0. -1.
</event>
<event>
 7    1  0.7749294E-012  0.5930194E+02  0.7816164E-02  0.1266605E+00
        -11   -1    0    0    0    0  0.00000000000E+00  0.00000000000E+00  0.45593999997E+02  0.45594000000E+02  0.51100000000E-03 0.  1.
         11   -1    0    0    0    0 -0.00000000000E+00 -0.00000000000E+00 -0.45593999997E+02  0.45594000000E+02  0.51100000000E-03 0. -1.
    9900012    2    1    2    0    0 -0.23297345010E+02 -0.15471406419E+02  0.15316337325E+02  0.59301938936E+02  0.49999990714E+02 0.  0.
         12    1    1    2    0    0  0.23297345010E+02  0.15471406419E+02 -0.15316337325E+02  0.31886061064E+02  0.00000000000E+00 0. -1.
         11    1    3    3    0    0 -0.13331063325E+01 -0.19693308801E+02  0.20624201857E+02  0.28547526803E+02  0.51100000000E-03 0. -1.
        -11    1    3    3    0    0 -0.19377973723E+02  0.11515997510E+02 -0.43321105861E+01  0.22954111760E+02  0.51100000000E-03 0.  1.
         12    1    3    3    0    0 -0.25862649546E+01 -0.72940951284E+01 -0.97575394587E+00  0.78003003737E+01  0.00000000000E+00 0. -1.
</event>
<event>
 7    1  0.7749294E-012  0.5930195E+02  0.7816164E-02  0.1266605E+00
        -11   -1    0    0    0    0  0.00000000000E+00  0.00000000000E+00  0.45593999997E+02  0.45594000000E+02  0.51100000000E-03 0.  1.
         11   -1    0    0    0    0 -0.00000000000E+00 -0.00000000000E+00 -0.45593999997E+02  0.45594000000E+02  0.51100000000E-03 0. -1.
    9900012    2    1    2    0    0  0.19020043533E+02  0.34373600633E+01  0.25360254837E+02  0.59301952494E+02  0.50000015440E+02 0.  0.
         12    1    1    2    0    0 -0.19020043533E+02 -0.34373600633E+01 -0.25360254837E+02  0.31886047506E+02  0.00000000000E+00 0. -1.
         11    1    3    3    0    0 -0.90410703221E+01  0.10686409911E+02 -0.10937299854E+01  0.14040532572E+02  0.51100000000E-03 0. -1.
        -11    1    3    3    0    0  0.24911389371E+02  0.11295595950E+01  0.10686431434E+02  0.27130297498E+02  0.51100000000E-03 0.  1.
        -12    1    3    3    0    0  0.31497244839E+01 -0.83786094427E+01  0.15767553388E+02  0.18131122424E+02  0.00000000000E+00 0.  1.
</event>
<event>
 7    1  0.7749294E-012  0.5930193E+02  0.7816164E-02  0.1266605E+00
        -11   -1    0    0    0    0  0.00000000000E+00  0.00000000000E+00  0.45593999997E+02  0.45594000000E+02  0.51100000000E-03 0.  1.
         11   -1    0    0    0    0 -0.00000000000E+00 -0.00000000000E+00 -0.45593999997E+02  0.45594000000E+02  0.51100000000E-03 0. -1.
    9900012    2    1    2    0    0 -0.29429050230E-01  0.31492509733E+02 -0.49942537406E+01  0.59301927715E+02  0.49999970250E+02 0.  0.
         12    1    1    2    0    0  0.29429050230E-01 -0.31492509733E+02  0.49942537406E+01  0.31886072285E+02  0.00000000000E+00 0. -1.
         11    1    3    3    0    0 -0.86628805903E+01 -0.61198760625E+01 -0.16357529683E+01  0.10731918336E+02  0.51100000000E-03 0. -1.
        -11    1    3    3    0    0  0.17773280229E+02  0.26733670715E+02  0.43648880818E+01  0.32398007473E+02  0.51100000000E-03 0.  1.
        -12    1    3    3    0    0 -0.91398286890E+01  0.10878715080E+02 -0.77233888541E+01  0.16172001906E+02  0.00000000000E+00 0.  1.
</event>
<event>
 7    1  0.7749294E-012  0.5930194E+02  0.7816164E-02  0.1266605E+00
        -11   -1    0    0    0    0  0.00000000000E+00  0.00000000000E+00  0.45593999997E+02  0.45594000000E+02  0.51100000000E-03 0.  1.
         11   -1    0    0    0    0 -0.00000000000E+00 -0.00000000000E+00 -0.45593999997E+02  0.45594000000E+02  0.51100000000E-03 0. -1.
    9900012    2    1    2    0    0  0.76677692810E+01 -0.27976789923E+02  0.13237278096E+02  0.59301937347E+02  0.49999987815E+02 0.  0.
         12    1    1    2    0    0 -0.76677692810E+01  0.27976789923E+02 -0.13237278096E+02  0.31886062653E+02  0.00000000000E+00 0. -1.
         11    1    3    3    0    0  0.62639307182E+01  0.64783402684E+01 -0.53741457847E+01  0.10492243032E+02  0.51100000000E-03 0. -1.
        -11    1    3    3    0    0 -0.12745687104E+02 -0.17462185996E+02  0.15218422631E+02  0.26438246295E+02  0.51100000000E-03 0.  1.
         12    1    3    3    0    0  0.14149525667E+02 -0.16992944195E+02  0.33930012497E+01  0.22371448020E+02  0.00000000000E+00 0. -1.
</event>
<event>
 7    1  0.7749294E-012  0.5930195E+02  0.7816164E-02  0.1266605E+00
        -11   -1    0    0    0    0  0.00000000000E+00  0.00000000000E+00  0.45593999997E+02  0.45594000000E+02  0.51100000000E-03 0.  1.
         11   -1    0    0    0    0 -0.00000000000E+00 -0.00000000000E+00 -0.45593999997E+02  0.45594000000E+02  0.51100000000E-03 0. -1.
    9900012    2    1    2    0    0 -0.25964478849E+02  0.15298716526E+02  0.10417061393E+02  0.59301951996E+02  0.50000014532E+02 0.  0.
         12    1    1    2    0    0  0.25964478849E+02 -0.15298716526E+02 -0.10417061393E+02  0.31886048004E+02  0.00000000000E+00 0. -1.
         11    1    3    3    0    0 -0.14780933813E+02  0.82235649049E+01 -0.91072036665E+01  0.19210522716E+02  0.51100000000E-03 0. -1.
        -11    1    3    3    0    0  0.82174791340E+01 -0.12416767087E+01  0.16883836369E+02  0.18818412663E+02  0.51100000000E-03 0.  1.
        -12    1    3    3    0    0 -0.19401024170E+02  0.83168283296E+01  0.26404286911E+01  0.21273016617E+02  0.00000000000E+00 0.  1.
</event>
<event>
 7    1  0.7749294E-012  0.5930195E+02  0.7816164E-02  0.1266605E+00
        -11   -1    0    0    0    0  0.00000000000E+00  0.00000000000E+00  0.45593999997E+02  0.45594000000E+02  0.51100000000E-03 0.  1.
         11   -1    0    0    0    0 -0.00000000000E+00 -0.00000000000E+00 -0.45593999997E+02  0.45594000000E+02  0.51100000000E-03 0. -1.
    9900012    2    1    2    0    0  0.20529280933E+02  0.46725408445E+01  0.23946530284E+02  0.59301947779E+02  0.50000006842E+02 0.  0.
         12    1    1    2    0    0 -0.20529280933E+02 -0.46725408445E+01 -0.23946530284E+02  0.31886052221E+02  0.00000000000E+00 0. -1.
         11    1    3    3    0    0 -0.12580909755E+02  0.56032716744E+01 -0.18048867560E+00  0.13773471608E+02  0.51100000000E-03 0. -1.
        -11    1    3    3    0    0  0.34991426803E+02  0.16156392060E+01  0.20031104851E+02  0.40351646826E+02  0.51100000000E-03 0.  1.
         12    1    3    3    0    0 -0.18812361149E+01 -0.25463700358E+01  0.40959141090E+01  0.51768293450E+01  0.00000000000E+00 0. -1.
</event>
<event>
 7    1  0.7749294E-012  0.5930194E+02  0.7816164E-02  0.1266605E+00
        -11   -1    0    0    0    0  0.00000000000E+00  0.00000000000E+00  0.45593999997E+02  0.45594000000E+02  0.51100000000E-03 0.  1.
         11   -1    0    0    0    0 -0.00000000000E+00 -0.00000000000E+00 -0.45593999997E+02  0.45594000000E+02  0.51100000000E-03 0. -1.
    9900012    2    1    2    0    0  0.68921515172E+01  0.22535087258E+02  0.21479970179E+02  0.59301936757E+02  0.49999986739E+02 0.  0.
         12    1    1    2    0    0 -0.68921515172E+01 -0.22535087258E+02 -0.21479970179E+02  0.31886063243E+02  0.00000000000E+00 0. -1.
         11    1    3    3    0    0  0.24913982663E+01 -0.10903538619E+02  0.17091960432E+01  0.11314396631E+02  0.51100000000E-03 0. -1.
        -11    1    3    3    0    0 -0.85315906091E+01  0.19707993976E+02  0.19674567577E+02  0.29125275526E+02  0.51100000000E-03 0.  1.
        -12    1    3    3    0    0  0.12932343860E+02  0.13730631902E+02  0.96206559642E-01  0.18862264600E+02  0.00000000000E+00 0.  1.
</event>
<event>
 7    1  0.7749294E-012  0.5930194E+02  0.7816164E-02  0.1266605E+00
        -11   -1    0    0    0    0  0.00000000000E+00  0.00000000000E+00  0.45593999997E+02  0.45594000000E+02  0.51100000000E-03 0.  1.
         11   -1    0    0    0    0 -0.00000000000E+00 -0.00000000000E+00 -0.45593999997E+02  0.45594000000E+02  0.51100000000E-03 0. -1.
    9900012    2    1    2    0    0  0.13720230098E+02 -0.28783204909E+02 -0.56450299054E-01  0.59301940579E+02  0.49999993711E+02 0.  0.
         12    1    1    2    0    0 -0.13720230098E+02  0.28783204909E+02  0.56450299054E-01  0.31886059421E+02  0.00000000000E+00 0. -1.
         11    1    3    3    0    0  0.13613347601E+02 -0.10184793124E+02 -0.22136746095E+02  0.27912161719E+02  0.51100000000E-03 0. -1.
        -11    1    3    3    0    0  0.37146607160E+01 -0.16311025768E+02  0.21238945848E+02  0.27035922157E+02  0.51100000000E-03 0.  1.
        -12    1    3    3    0    0 -0.36077782189E+01 -0.22873860160E+01  0.84134994765E+00  0.43538567038E+01  0.00000000000E+00 0.  1.
</event>
<event>
 7    1  0.7749294E-012  0.5930194E+02  0.7816164E-02  0.1266605E+00
        -11   -1    0    0    0    0  0.00000000000E+00  0.00000000000E+00  0.45593999997E+02  0.45594000000E+02  0.51100000000E-03 0. -1.
         11   -1    0    0    0    0 -0.00000000000E+00 -0.00000000000E+00 -0.45593999997E+02  0.45594000000E+02  0.51100000000E-03 0.  1.
    9900012    2    1    2    0    0  0.15640203550E+02 -0.89468598142E+00 -0.27772370312E+02  0.59301937483E+02  0.49999988064E+02 0.  0.
         12    1    1    2    0    0 -0.15640203550E+02  0.89468598142E+00  0.27772370312E+02  0.31886062517E+02  0.00000000000E+00 0. -1.
         11    1    3    3    0    0  0.10383765182E+02  0.75488820725E+01  0.18451735355E+01  0.12969690264E+02  0.51100000000E-03 0. -1.
        -11    1    3    3    0    0 -0.47995769417E+01 -0.18797063436E+02 -0.95770282886E+01  0.21635272213E+02  0.51100000000E-03 0.  1.
        -12    1    3    3    0    0  0.10056015310E+02  0.10353495382E+02 -0.20040515559E+02  0.24696975005E+02  0.00000000000E+00 0.  1.
</event>
<event>
 7    1  0.7749294E-012  0.5930187E+02  0.7816164E-02  0.1266605E+00
        -11   -1    0    0    0    0  0.00000000000E+00  0.00000000000E+00  0.45593999997E+02  0.45594000000E+02  0.51100000000E-03 0.  1.
         11   -1    0    0    0    0 -0.00000000000E+00 -0.00000000000E+00 -0.45593999997E+02  0.45594000000E+02  0.51100000000E-03 0. -1.
    9900012    2    1    2    0    0  0.25436483621E+02  0.12133390696E+02  0.14916136021E+02  0.59301874763E+02  0.49999873678E+02 0.  0.
         12    1    1    2    0    0 -0.25436483621E+02 -0.12133390696E+02 -0.14916136021E+02  0.31886125237E+02  0.00000000000E+00 0. -1.
         11    1    3    3    0    0 -0.29728138367E+01  0.45170536159E+01 -0.11007900739E+02  0.12264390504E+02  0.51100000000E-03 0. -1.
        -11    1    3    3    0    0  0.12085156343E+02  0.42040239630E+01  0.27455092893E+02  0.30290377141E+02  0.51100000000E-03 0.  1.
         12    1    3    3    0    0  0.16324141115E+02  0.34123131171E+01 -0.15310561330E+01  0.16747107119E+02  0.00000000000E+00 0. -1.
</event>
<event>
 7    1  0.7749294E-012  0.5930202E+02  0.7816164E-02  0.1266604E+00
        -11   -1    0    0    0    0  0.00000000000E+00  0.00000000000E+00  0.45593999997E+02  0.45594000000E+02  0.51100000000E-03 0.  1.
         11   -1    0    0    0    0 -0.00000000000E+00 -0.00000000000E+00 -0.45593999997E+02  0.45594000000E+02  0.51100000000E-03 0. -1.
    9900012    2    1    2    0    0 -0.27786668087E+00  0.19905799231E+02  0.24907780771E+02  0.59302021955E+02  0.50000142121E+02 0.  0.
         12    1    1    2    0    0  0.27786668087E+00 -0.19905799231E+02 -0.24907780771E+02  0.31885978045E+02  0.00000000000E+00 0. -1.
         11    1    3    3    0    0 -0.18563361490E+02 -0.56342021629E+01  0.39011074012E+01  0.19787906989E+02  0.51100000000E-03 0. -1.
        -11    1    3    3    0    0  0.26252934625E+01  0.62362592099E+01 -0.30289933632E+00  0.67730969996E+01  0.51100000000E-03 0.  1.
         12    1    3    3    0    0  0.15660201346E+02  0.19303742185E+02  0.21309572706E+02  0.32741017966E+02  0.00000000000E+00 0. -1.
</event>
<event>
 7    1  0.7749294E-012  0.5930213E+02  0.7816164E-02  0.1266604E+00
        -11   -1    0    0    0    0  0.00000000000E+00  0.00000000000E+00  0.45593999997E+02  0.45594000000E+02  0.51100000000E-03 0.  1.
         11   -1    0    0    0    0 -0.00000000000E+00 -0.00000000000E+00 -0.45593999997E+02  0.45594000000E+02  0.51100000000E-03 0. -1.
    9900012    2    1    2    0    0  0.17700696305E+02  0.10664546130E+02  0.24282942822E+02  0.59302133132E+02  0.50000344880E+02 0.  0.
         12    1    1    2    0    0 -0.17700696305E+02 -0.10664546130E+02 -0.24282942822E+02  0.31885866868E+02  0.00000000000E+00 0. -1.
         11    1    3    3    0    0 -0.86818617099E+01  0.77179459613E+01 -0.78841277124E+01  0.14039262184E+02  0.51100000000E-03 0. -1.
        -11    1    3    3    0    0  0.23666779964E+02  0.55127016761E+01  0.17035522543E+02  0.29676849263E+02  0.51100000000E-03 0.  1.
         12    1    3    3    0    0  0.27157780512E+01 -0.25661015073E+01  0.15131547991E+02  0.15586021685E+02  0.00000000000E+00 0. -1.
</event>
<event>
 7    1  0.7749294E-012  0.5930195E+02  0.7816164E-02  0.1266605E+00
        -11   -1    0    0    0    0  0.00000000000E+00  0.00000000000E+00  0.45593999997E+02  0.45594000000E+02  0.51100000000E-03 0. -1.
         11   -1    0    0    0    0 -0.00000000000E+00 -0.00000000000E+00 -0.45593999997E+02  0.45594000000E+02  0.51100000000E-03 0.  1.
    9900012    2    1    2    0    0 -0.27763806684E+02  0.15337752427E+01 -0.15605737947E+02  0.59301945290E+02  0.50000002303E+02 0.  0.
         12    1    1    2    0    0  0.27763806684E+02 -0.15337752427E+01  0.15605737947E+02  0.31886054710E+02  0.00000000000E+00 0. -1.
         11    1    3    3    0    0 -0.17253176583E+00  0.55357351849E+01  0.69332832322E+01  0.88738124776E+01  0.51100000000E-03 0. -1.
        -11    1    3    3    0    0 -0.11188317516E+02 -0.19147411786E+02 -0.71055504793E+01  0.23287135393E+02  0.51100000000E-03 0.  1.
        -12    1    3    3    0    0 -0.16402957402E+02  0.15145451844E+02 -0.15433470699E+02  0.27140997420E+02  0.00000000000E+00 0.  1.
</event>
<event>
 7    1  0.7749294E-012  0.5930198E+02  0.7816164E-02  0.1266605E+00
        -11   -1    0    0    0    0  0.00000000000E+00  0.00000000000E+00  0.45593999997E+02  0.45594000000E+02  0.51100000000E-03 0.  1.
         11   -1    0    0    0    0 -0.00000000000E+00 -0.00000000000E+00 -0.45593999997E+02  0.45594000000E+02  0.51100000000E-03 0. -1.
    9900012    2    1    2    0    0 -0.80767586160E+01 -0.30620806089E+02 -0.37216189017E+01  0.59301980453E+02  0.50000066431E+02 0.  0.
         12    1    1    2    0    0  0.80767586160E+01  0.30620806089E+02  0.37216189017E+01  0.31886019547E+02  0.00000000000E+00 0. -1.
         11    1    3    3    0    0  0.12380014549E+02  0.51689300652E+01 -0.68387566828E+01  0.15058259909E+02  0.51100000000E-03 0. -1.
        -11    1    3    3    0    0 -0.44622318564E+01 -0.23392456158E+02  0.33323830326E+00  0.23816581750E+02  0.51100000000E-03 0.  1.
         12    1    3    3    0    0 -0.15994541309E+02 -0.12397279997E+02  0.27838994778E+01  0.20427138794E+02  0.00000000000E+00 0. -1.
</event>
<event>
 7    1  0.7749294E-012  0.5930195E+02  0.7816164E-02  0.1266605E+00
        -11   -1    0    0    0    0  0.00000000000E+00  0.00000000000E+00  0.45593999997E+02  0.45594000000E+02  0.51100000000E-03 0. -1.
         11   -1    0    0    0    0 -0.00000000000E+00 -0.00000000000E+00 -0.45593999997E+02  0.45594000000E+02  0.51100000000E-03 0.  1.
    9900012    2    1    2    0    0  0.14186840504E+02  0.21020491209E+02 -0.19328541398E+02  0.59301952789E+02  0.50000015979E+02 0.  0.
         12    1    1    2    0    0 -0.14186840504E+02 -0.21020491209E+02  0.19328541398E+02  0.31886047211E+02  0.00000000000E+00 0. -1.
         11    1    3    3    0    0  0.22012190573E+02  0.94629039933E+01  0.13373244841E+01  0.23997323243E+02  0.51100000000E-03 0. -1.
        -11    1    3    3    0    0  0.33995542881E+01  0.49763472783E+01 -0.21438749391E+02  0.22269732313E+02  0.51100000000E-03 0.  1.
         12    1    3    3    0    0 -0.11224904357E+02  0.65812399378E+01  0.77288350932E+00  0.13034897232E+02  0.00000000000E+00 0. -1.
</event>
<event>
 7    1  0.7749294E-012  0.5930193E+02  0.7816164E-02  0.1266605E+00
        -11   -1    0    0    0    0  0.00000000000E+00  0.00000000000E+00  0.45593999997E+02  0.45594000000E+02  0.51100000000E-03 0. -1.
         11   -1    0    0    0    0 -0.00000000000E+00 -0.00000000000E+00 -0.45593999997E+02  0.45594000000E+02  0.51100000000E-03 0.  1.
    9900012    2    1    2    0    0 -0.22351181777E+02 -0.21945718950E+02 -0.59608259641E+01  0.59301931675E+02  0.49999977471E+02 0.  0.
         12    1    1    2    0    0  0.22351181777E+02  0.21945718950E+02  0.59608259641E+01  0.31886068325E+02  0.00000000000E+00 0. -1.
         11    1    3    3    0    0  0.12662546373E+02 -0.52409849635E+01 -0.54323668035E+01  0.14741730339E+02  0.51100000000E-03 0. -1.
        -11    1    3    3    0    0 -0.34217888613E+02 -0.20957529351E+02 -0.13845231655E+01  0.40149705382E+02  0.51100000000E-03 0.  1.
        -12    1    3    3    0    0 -0.79583953681E+00  0.42527953646E+01  0.85606400488E+00  0.44104959542E+01  0.00000000000E+00 0.  1.
</event>
<event>
 7    1  0.7749294E-012  0.5930192E+02  0.7816164E-02  0.1266605E+00
        -11   -1    0    0    0    0  0.00000000000E+00  0.00000000000E+00  0.45593999997E+02  0.45594000000E+02  0.51100000000E-03 0. -1.
         11   -1    0    0    0    0 -0.00000000000E+00 -0.00000000000E+00 -0.45593999997E+02  0.45594000000E+02  0.51100000000E-03 0.  1.
    9900012    2    1    2    0    0  0.23136610944E+02 -0.12418973557E+02 -0.18088345237E+02  0.59301923045E+02  0.49999961732E+02 0.  0.
         12    1    1    2    0    0 -0.23136610944E+02  0.12418973557E+02  0.18088345237E+02  0.31886076955E+02  0.00000000000E+00 0. -1.
         11    1    3    3    0    0  0.48549319172E+01  0.62929292436E+01  0.57298480581E+01  0.97980855995E+01  0.51100000000E-03 0. -1.
        -11    1    3    3    0    0  0.25403237722E+02 -0.57354827587E+01 -0.22890405598E+02  0.34672624907E+02  0.51100000000E-03 0.  1.
        -12    1    3    3    0    0 -0.71215586945E+01 -0.12976420042E+02 -0.92778769680E+00  0.14831212538E+02  0.00000000000E+00 0.  1.
</event>
<event>
 7    1  0.7749294E-012  0.5930196E+02  0.7816164E-02  0.1266605E+00
        -11   -1    0    0    0    0  0.00000000000E+00  0.00000000000E+00  0.45593999997E+02  0.45594000000E+02  0.51100000000E-03 0. -1.
         11   -1    0    0    0    0 -0.00000000000E+00 -0.00000000000E+00 -0.45593999997E+02  0.45594000000E+02  0.51100000000E-03 0.  1.
    9900012    2    1    2    0    0  0.13085550251E+02 -0.17024850986E+02 -0.23572070090E+02  0.59301958151E+02  0.50000025757E+02 0.  0.
         12    1    1    2    0    0 -0.13085550251E+02  0.17024850986E+02  0.23572070090E+02  0.31886041849E+02  0.00000000000E+00 0. -1.
         11    1    3    3    0    0  0.25820478415E+02 -0.19086038319E+02 -0.18669376643E+02  0.37141884562E+02  0.51100000000E-03 0.  1.
        -11    1    3    3    0    0 -0.37862760652E+01  0.13318062751E+01  0.65046247529E+01  0.76432805674E+01  0.51100000000E-03 0. -1.
         12    1    3    3    0    0 -0.89486520987E+01  0.72938105825E+00 -0.11407318200E+02  0.14516793021E+02  0.00000000000E+00 0. -1.
</event>
<event>
 7    1  0.7749294E-012  0.5930196E+02  0.7816164E-02  0.1266605E+00
        -11   -1    0    0    0    0  0.00000000000E+00  0.00000000000E+00  0.45593999997E+02  0.45594000000E+02  0.51100000000E-03 0. -1.
         11   -1    0    0    0    0 -0.00000000000E+00 -0.00000000000E+00 -0.45593999997E+02  0.45594000000E+02  0.51100000000E-03 0.  1.
    9900012    2    1    2    0    0  0.23318225558E+02  0.21637306521E+02 -0.21924825879E+01  0.59301958280E+02  0.50000025994E+02 0.  0.
         12    1    1    2    0    0 -0.23318225558E+02 -0.21637306521E+02  0.21924825879E+01  0.31886041720E+02  0.00000000000E+00 0. -1.
         11    1    3    3    0    0  0.26303493318E+02  0.14571869660E+01 -0.10000881427E+02  0.28178267941E+02  0.51100000000E-03 0. -1.
        -11    1    3    3    0    0 -0.20241284003E+01  0.16702666460E+02 -0.52112242455E+01  0.17613432972E+02  0.51100000000E-03 0.  1.
         12    1    3    3    0    0 -0.96113935927E+00  0.34774530947E+01  0.13019623084E+02  0.13510257368E+02  0.00000000000E+00 0. -1.
</event>
<event>
 7    1  0.7749294E-012  0.5930196E+02  0.7816164E-02  0.1266605E+00
        -11   -1    0    0    0    0  0.00000000000E+00  0.00000000000E+00  0.45593999997E+02  0.45594000000E+02  0.51100000000E-03 0. -1.
         11   -1    0    0    0    0 -0.00000000000E+00 -0.00000000000E+00 -0.45593999997E+02  0.45594000000E+02  0.51100000000E-03 0.  1.
    9900012    2    1    2    0    0 -0.18740065309E+01  0.31620122855E+02 -0.36572359948E+01  0.59301961598E+02  0.50000032044E+02 0.  0.
         12    1    1    2    0    0  0.18740065309E+01 -0.31620122855E+02  0.36572359948E+01  0.31886038402E+02  0.00000000000E+00 0. -1.
         11    1    3    3    0    0 -0.20575476624E+02 -0.88479939633E+00 -0.27993050945E+01  0.20783869167E+02  0.51100000000E-03 0. -1.
        -11    1    3    3    0    0  0.84799662089E+01  0.21309210049E+02  0.22441300581E+01  0.23044053024E+02  0.51100000000E-03 0.  1.
         12    1    3    3    0    0  0.10221503884E+02  0.11195712202E+02 -0.31020609584E+01  0.15474039407E+02  0.00000000000E+00 0. -1.
</event>
<event>
 7    1  0.7749294E-012  0.5930197E+02  0.7816164E-02  0.1266605E+00
        -11   -1    0    0    0    0  0.00000000000E+00  0.00000000000E+00  0.45593999997E+02  0.45594000000E+02  0.51100000000E-03 0.  1.
         11   -1    0    0    0    0 -0.00000000000E+00 -0.00000000000E+00 -0.45593999997E+02  0.45594000000E+02  0.51100000000E-03 0. -1.
    9900012    2    1    2    0    0  0.87890106872E+01 -0.45991017789E+01  0.30303799391E+02  0.59301973224E+02  0.50000053247E+02 0.  0.
         12    1    1    2    0    0 -0.87890106872E+01  0.45991017789E+01 -0.30303799391E+02  0.31886026776E+02  0.00000000000E+00 0. -1.
         11    1    3    3    0    0 -0.19292413893E+02  0.50878816380E+01  0.79356674401E+01  0.21472274946E+02  0.51100000000E-03 0. -1.
        -11    1    3    3    0    0  0.20771916115E+02 -0.63517759669E+01  0.12346649821E+02  0.24985141966E+02  0.51100000000E-03 0.  1.
         12    1    3    3    0    0  0.73095084659E+01 -0.33352074500E+01  0.10021482130E+02  0.12844556311E+02  0.00000000000E+00 0. -1.
</event>
<event>
 7    1  0.7749294E-012  0.5930195E+02  0.7816164E-02  0.1266605E+00
        -11   -1    0    0    0    0  0.00000000000E+00  0.00000000000E+00  0.45593999997E+02  0.45594000000E+02  0.51100000000E-03 0.  1.
         11   -1    0    0    0    0 -0.00000000000E+00 -0.00000000000E+00 -0.45593999997E+02  0.45594000000E+02  0.51100000000E-03 0. -1.
    9900012    2    1    2    0    0 -0.14017618832E+01  0.98101123752E+01  0.30307047215E+02  0.59301947374E+02  0.50000006102E+02 0.  0.
         12    1    1    2    0    0  0.14017618832E+01 -0.98101123752E+01 -0.30307047215E+02  0.31886052626E+02  0.00000000000E+00 0. -1.
         11    1    3    3    0    0 -0.17110402061E+02  0.12454564655E+02  0.16351195226E+01  0.21226296322E+02  0.51100000000E-03 0. -1.
        -11    1    3    3    0    0  0.17439034329E+02  0.30506795209E+00  0.12280425803E+02  0.21331241008E+02  0.51100000000E-03 0.  1.
         12    1    3    3    0    0 -0.17303941514E+01 -0.29495202318E+01  0.16391501889E+02  0.16744410044E+02  0.00000000000E+00 0. -1.
</event>
<event>
 7    1  0.7749294E-012  0.5930194E+02  0.7816164E-02  0.1266605E+00
        -11   -1    0    0    0    0  0.00000000000E+00  0.00000000000E+00  0.45593999997E+02  0.45594000000E+02  0.51100000000E-03 0.  1.
         11   -1    0    0    0    0 -0.00000000000E+00 -0.00000000000E+00 -0.45593999997E+02  0.45594000000E+02  0.51100000000E-03 0. -1.
    9900012    2    1    2    0    0 -0.26003911238E+02 -0.50677267466E+00  0.18446156098E+02  0.59301938892E+02  0.49999990633E+02 0.  0.
         12    1    1    2    0    0  0.26003911238E+02  0.50677267466E+00 -0.18446156098E+02  0.31886061108E+02  0.00000000000E+00 0. -1.
         11    1    3    3    0    0 -0.18146791683E+01 -0.12197526122E+02 -0.10609914589E+02  0.16267851482E+02  0.51100000000E-03 0. -1.
        -11    1    3    3    0    0 -0.12131872719E+02  0.13768149930E+02  0.22876393396E+02  0.29327012518E+02  0.51100000000E-03 0.  1.
         12    1    3    3    0    0 -0.12057359351E+02 -0.20773964826E+01  0.61796772916E+01  0.13707074892E+02  0.00000000000E+00 0. -1.
</event>
<event>
 7    1  0.7749294E-012  0.5930199E+02  0.7816164E-02  0.1266605E+00
        -11   -1    0    0    0    0  0.00000000000E+00  0.00000000000E+00  0.45593999997E+02  0.45594000000E+02  0.51100000000E-03 0. -1.
         11   -1    0    0    0    0 -0.00000000000E+00 -0.00000000000E+00 -0.45593999997E+02  0.45594000000E+02  0.51100000000E-03 0.  1.
    9900012    2    1    2    0    0  0.15778910995E+02  0.26795080695E+02 -0.70545944223E+01  0.59301989209E+02  0.50000082400E+02 0.  0.
         12    1    1    2    0    0 -0.15778910995E+02 -0.26795080695E+02  0.70545944223E+01  0.31886010791E+02  0.00000000000E+00 0. -1.
         11    1    3    3    0    0  0.10789900231E+02  0.12186883033E+01  0.12565358569E+02  0.16607088378E+02  0.51100000000E-03 0. -1.
        -11    1    3    3    0    0  0.60866980599E+01  0.20747570566E+02 -0.26510256003E+02  0.34209695282E+02  0.51100000000E-03 0.  1.
        -12    1    3    3    0    0 -0.10976872950E+01  0.48288218260E+01  0.68903030116E+01  0.84852055495E+01  0.00000000000E+00 0.  1.
</event>
<event>
 7    1  0.7749294E-012  0.5930195E+02  0.7816164E-02  0.1266605E+00
        -11   -1    0    0    0    0  0.00000000000E+00  0.00000000000E+00  0.45593999997E+02  0.45594000000E+02  0.51100000000E-03 0.  1.
         11   -1    0    0    0    0 -0.00000000000E+00 -0.00000000000E+00 -0.45593999997E+02  0.45594000000E+02  0.51100000000E-03 0. -1.
    9900012    2    1    2    0    0 -0.14121529734E+02  0.81715774548E+01  0.27395766162E+02  0.59301948446E+02  0.50000008057E+02 0.  0.
         12    1    1    2    0    0  0.14121529734E+02 -0.81715774548E+01 -0.27395766162E+02  0.31886051554E+02  0.00000000000E+00 0. -1.
         11    1    3    3    0    0 -0.17211387091E+02  0.86435804947E+01  0.92610943250E+01  0.21370802459E+02  0.51100000000E-03 0. -1.
        -11    1    3    3    0    0  0.68715069770E+01 -0.15631732512E+02  0.13080523731E+02  0.21509736651E+02  0.51100000000E-03 0.  1.
        -12    1    3    3    0    0 -0.37816496196E+01  0.15159729472E+02  0.50541481061E+01  0.16421409336E+02  0.00000000000E+00 0.  1.
</event>
<event>
 7    1  0.7749294E-012  0.5930174E+02  0.7816164E-02  0.1266605E+00
        -11   -1    0    0    0    0  0.00000000000E+00  0.00000000000E+00  0.45593999997E+02  0.45594000000E+02  0.51100000000E-03 0.  1.
         11   -1    0    0    0    0 -0.00000000000E+00 -0.00000000000E+00 -0.45593999997E+02  0.45594000000E+02  0.51100000000E-03 0. -1.
    9900012    2    1    2    0    0 -0.28659654982E+01 -0.30461406515E+01  0.31610766074E+02  0.59301744922E+02  0.49999636878E+02 0.  0.
         12    1    1    2    0    0  0.28659654982E+01  0.30461406515E+01 -0.31610766074E+02  0.31886255078E+02  0.00000000000E+00 0. -1.
         11    1    3    3    0    0 -0.34879107054E+00  0.10088929711E+01  0.94654787504E+00  0.14267001713E+01  0.51100000000E-03 0. -1.
        -11    1    3    3    0    0  0.14096561466E+02  0.15843253006E+02  0.21966169172E+02  0.30532512169E+02  0.51100000000E-03 0.  1.
        -12    1    3    3    0    0 -0.16613735894E+02 -0.19898286629E+02  0.86980490268E+01  0.27342532582E+02  0.00000000000E+00 0.  1.
</event>
<event>
 7    1  0.7749294E-012  0.5930193E+02  0.7816164E-02  0.1266605E+00
        -11   -1    0    0    0    0  0.00000000000E+00  0.00000000000E+00  0.45593999997E+02  0.45594000000E+02  0.51100000000E-03 0.  1.
         11   -1    0    0    0    0 -0.00000000000E+00 -0.00000000000E+00 -0.45593999997E+02  0.45594000000E+02  0.51100000000E-03 0. -1.
    9900012    2    1    2    0    0 -0.61896521535E+01 -0.20934502708E+02  0.23241259875E+02  0.59301931600E+02  0.49999977336E+02 0.  0.
         12    1    1    2    0    0  0.61896521535E+01  0.20934502708E+02 -0.23241259875E+02  0.31886068400E+02  0.00000000000E+00 0. -1.
         11    1    3    3    0    0 -0.14167175250E+02  0.59374396002E+01  0.18722721316E+02  0.24217810333E+02  0.51100000000E-03 0. -1.
        -11    1    3    3    0    0  0.15030614507E+02 -0.18884724802E+02  0.31914629553E+01  0.24346203798E+02  0.51100000000E-03 0.  1.
        -12    1    3    3    0    0 -0.70530914104E+01 -0.79872175059E+01  0.13270756038E+01  0.10737917470E+02  0.00000000000E+00 0.  1.
</event>
<event>
 7    1  0.7749294E-012  0.5930196E+02  0.7816164E-02  0.1266605E+00
        -11   -1    0    0    0    0  0.00000000000E+00  0.00000000000E+00  0.45593999997E+02  0.45594000000E+02  0.51100000000E-03 0.  1.
         11   -1    0    0    0    0 -0.00000000000E+00 -0.00000000000E+00 -0.45593999997E+02  0.45594000000E+02  0.51100000000E-03 0. -1.
    9900012    2    1    2    0    0  0.88688620849E+01 -0.24665562926E+01  0.30528325819E+02  0.59301963997E+02  0.50000036420E+02 0.  0.
         12    1    1    2    0    0 -0.88688620849E+01  0.24665562926E+01 -0.30528325819E+02  0.31886036003E+02  0.00000000000E+00 0. -1.
         11    1    3    3    0    0 -0.11910271021E+02  0.83486154031E+01  0.49879172535E+01  0.15376386237E+02  0.51100000000E-03 0. -1.
        -11    1    3    3    0    0  0.19877159553E+02  0.36261989298E+01  0.95123205353E+01  0.22332376336E+02  0.51100000000E-03 0.  1.
         12    1    3    3    0    0  0.90197355232E+00 -0.14441370626E+02  0.16028088030E+02  0.21593201424E+02  0.00000000000E+00 0. -1.
</event>
<event>
 7    1  0.7749294E-012  0.5930194E+02  0.7816164E-02  0.1266605E+00
        -11   -1    0    0    0    0  0.00000000000E+00  0.00000000000E+00  0.45593999997E+02  0.45594000000E+02  0.51100000000E-03 0. -1.
         11   -1    0    0    0    0 -0.00000000000E+00 -0.00000000000E+00 -0.45593999997E+02  0.45594000000E+02  0.51100000000E-03 0.  1.
    9900012    2    1    2    0    0  0.25548552877E+02  0.10190235497E+02 -0.16129215010E+02  0.59301936737E+02  0.49999986704E+02 0.  0.
         12    1    1    2    0    0 -0.25548552877E+02 -0.10190235497E+02  0.16129215010E+02  0.31886063263E+02  0.00000000000E+00 0. -1.
         11    1    3    3    0    0 -0.83820479858E+00 -0.28718413163E+01  0.42827712451E+01  0.52241927251E+01  0.51100000000E-03 0. -1.
        -11    1    3    3    0    0  0.34557701416E+02  0.16075322458E+02 -0.23571269543E+02  0.44813563432E+02  0.51100000000E-03 0.  1.
        -12    1    3    3    0    0 -0.81709437406E+01 -0.30132456452E+01  0.31592832883E+01  0.92641805804E+01  0.00000000000E+00 0.  1.
</event>
<event>
 7    1  0.7749294E-012  0.5930194E+02  0.7816164E-02  0.1266605E+00
        -11   -1    0    0    0    0  0.00000000000E+00  0.00000000000E+00  0.45593999997E+02  0.45594000000E+02  0.51100000000E-03 0.  1.
         11   -1    0    0    0    0 -0.00000000000E+00 -0.00000000000E+00 -0.45593999997E+02  0.45594000000E+02  0.51100000000E-03 0. -1.
    9900012    2    1    2    0    0  0.39657173185E+01  0.10167882668E+02  0.29960109129E+02  0.59301938926E+02  0.49999990696E+02 0.  0.
         12    1    1    2    0    0 -0.39657173185E+01 -0.10167882668E+02 -0.29960109129E+02  0.31886061074E+02  0.00000000000E+00 0. -1.
         11    1    3    3    0    0  0.92990730612E+01 -0.58576432900E+01  0.19470638889E+02  0.22358231677E+02  0.51100000000E-03 0. -1.
        -11    1    3    3    0    0  0.45627885965E+01  0.21919104311E+02  0.11873702446E+02  0.25342671201E+02  0.51100000000E-03 0.  1.
         12    1    3    3    0    0 -0.98961443392E+01 -0.58935783535E+01 -0.13842322062E+01  0.11601036048E+02  0.00000000000E+00 0. -1.
</event>
<event>
 7    1  0.7749294E-012  0.5930194E+02  0.7816164E-02  0.1266605E+00
        -11   -1    0    0    0    0  0.00000000000E+00  0.00000000000E+00  0.45593999997E+02  0.45594000000E+02  0.51100000000E-03 0. -1.
         11   -1    0    0    0    0 -0.00000000000E+00 -0.00000000000E+00 -0.45593999997E+02  0.45594000000E+02  0.51100000000E-03 0.  1.
    9900012    2    1    2    0    0  0.32798821212E+01  0.16315949254E+02 -0.27198405914E+02  0.59301935473E+02  0.49999984398E+02 0.  0.
         12    1    1    2    0    0 -0.32798821212E+01 -0.16315949254E+02  0.27198405914E+02  0.31886064527E+02  0.00000000000E+00 0. -1.
         11    1    3    3    0    0 -0.14321294364E+02 -0.85124009731E+01 -0.26084383384E+01  0.16863107466E+02  0.51100000000E-03 0. -1.
        -11    1    3    3    0    0  0.15082766255E+02  0.18033826629E+02 -0.88668462076E+01  0.25126275146E+02  0.51100000000E-03 0.  1.
        -12    1    3    3    0    0  0.25184102306E+01  0.67945235980E+01 -0.15723121368E+02  0.17312552861E+02  0.00000000000E+00 0.  1.
</event>
<event>
 7    1  0.7749294E-012  0.5930195E+02  0.7816164E-02  0.1266605E+00
        -11   -1    0    0    0    0  0.00000000000E+00  0.00000000000E+00  0.45593999997E+02  0.45594000000E+02  0.51100000000E-03 0.  1.
         11   -1    0    0    0    0 -0.00000000000E+00 -0.00000000000E+00 -0.45593999997E+02  0.45594000000E+02  0.51100000000E-03 0. -1.
    9900012    2    1    2    0    0  0.27919271325E+02 -0.13076352259E+02  0.81390275649E+01  0.59301945534E+02  0.50000002748E+02 0.  0.
         12    1    1    2    0    0 -0.27919271325E+02  0.13076352259E+02 -0.81390275649E+01  0.31886054466E+02  0.00000000000E+00 0. -1.
         11    1    3    3    0    0  0.73253912016E+01  0.14861833381E+02 -0.14050221583E+01  0.16628575862E+02  0.51100000000E-03 0. -1.
        -11    1    3    3    0    0  0.23449180647E+01 -0.10914082925E+02 -0.65826881901E+01  0.12959461057E+02  0.51100000000E-03 0.  1.
         12    1    3    3    0    0  0.18248962058E+02 -0.17024102714E+02  0.16126737913E+02  0.29713908615E+02  0.00000000000E+00 0. -1.
</event>
<event>
 7    1  0.7749294E-012  0.5930199E+02  0.7816164E-02  0.1266605E+00
        -11   -1    0    0    0    0  0.00000000000E+00  0.00000000000E+00  0.45593999997E+02  0.45594000000E+02  0.51100000000E-03 0. -1.
         11   -1    0    0    0    0 -0.00000000000E+00 -0.00000000000E+00 -0.45593999997E+02  0.45594000000E+02  0.51100000000E-03 0.  1.
    9900012    2    1    2    0    0 -0.31858044984E+02 -0.33570807875E+00  0.12923683649E+01  0.59301985101E+02  0.50000074908E+02 0.  0.
         12    1    1    2    0    0  0.31858044984E+02  0.33570807875E+00 -0.12923683649E+01  0.31886014899E+02  0.00000000000E+00 0. -1.
         11    1    3    3    0    0  0.11916494874E+02  0.65495255675E+01  0.79106766875E+00  0.13620753414E+02  0.51100000000E-03 0. -1.
        -11    1    3    3    0    0 -0.33829980961E+02 -0.98241790498E+01 -0.75496873761E+00  0.35235664941E+02  0.51100000000E-03 0.  1.
        -12    1    3    3    0    0 -0.99445588975E+01  0.29389454035E+01  0.12562694337E+01  0.10445566746E+02  0.00000000000E+00 0.  1.
</event>
<event>
 7    1  0.7749294E-012  0.5930196E+02  0.7816164E-02  0.1266605E+00
        -11   -1    0    0    0    0  0.00000000000E+00  0.00000000000E+00  0.45593999997E+02  0.45594000000E+02  0.51100000000E-03 0.  1.
         11   -1    0    0    0    0 -0.00000000000E+00 -0.00000000000E+00 -0.45593999997E+02  0.45594000000E+02  0.51100000000E-03 0. -1.
    9900012    2    1    2    0    0  0.16178877356E+02  0.27365579298E+02 -0.24675201183E+01  0.59301958252E+02  0.50000025942E+02 0.  0.
         12    1    1    2    0    0 -0.16178877356E+02 -0.27365579298E+02  0.24675201183E+01  0.31886041748E+02  0.00000000000E+00 0. -1.
         11    1    3    3    0    0  0.24430778348E+01 -0.62152328845E+01  0.11324510212E+02  0.13146949491E+02  0.51100000000E-03 0. -1.
        -11    1    3    3    0    0 -0.34368153199E+01  0.24257273248E+02 -0.72863778787E+01  0.25560092094E+02  0.51100000000E-03 0.  1.
        -12    1    3    3    0    0  0.17172614841E+02  0.93235389337E+01 -0.65056524516E+01  0.20594916668E+02  0.00000000000E+00 0.  1.
</event>
<event>
 7    1  0.7749294E-012  0.5930187E+02  0.7816164E-02  0.1266605E+00
        -11   -1    0    0    0    0  0.00000000000E+00  0.00000000000E+00  0.45593999997E+02  0.45594000000E+02  0.51100000000E-03 0. -1.
         11   -1    0    0    0    0 -0.00000000000E+00 -0.00000000000E+00 -0.45593999997E+02  0.45594000000E+02  0.51100000000E-03 0.  1.
    9900012    2    1    2    0    0  0.73718419378E+01 -0.25152865184E+02 -0.18158039865E+02  0.59301873044E+02  0.49999870542E+02 0.  0.
         12    1    1    2    0    0 -0.73718419378E+01  0.25152865184E+02  0.18158039865E+02  0.31886126956E+02  0.00000000000E+00 0. -1.
         11    1    3    3    0    0  0.34116280724E+01  0.10381879718E+01  0.13845607188E+02  0.14297478066E+02  0.51100000000E-03 0. -1.
        -11    1    3    3    0    0 -0.43563883478E+01 -0.44018622354E+00 -0.28340277150E+01  0.52157067305E+01  0.51100000000E-03 0.  1.
         12    1    3    3    0    0  0.83166022131E+01 -0.25750866933E+02 -0.29169619338E+02  0.39788688248E+02  0.00000000000E+00 0. -1.
</event>
<event>
 7    1  0.7749294E-012  0.5930195E+02  0.7816164E-02  0.1266605E+00
        -11   -1    0    0    0    0  0.00000000000E+00  0.00000000000E+00  0.45593999997E+02  0.45594000000E+02  0.51100000000E-03 0.  1.
         11   -1    0    0    0    0 -0.00000000000E+00 -0.00000000000E+00 -0.45593999997E+02  0.45594000000E+02  0.51100000000E-03 0. -1.
    9900012    2    1    2    0    0  0.91963497995E+01 -0.22435564007E+02  0.20707307415E+02  0.59301953485E+02  0.50000017248E+02 0.  0.
         12    1    1    2    0    0 -0.91963497995E+01  0.22435564007E+02 -0.20707307415E+02  0.31886046515E+02  0.00000000000E+00 0. -1.
         11    1    3    3    0    0 -0.19269894034E+01 -0.51444305817E+01 -0.15344773771E+02  0.16298482644E+02  0.51100000000E-03 0. -1.
        -11    1    3    3    0    0  0.94584133437E+00 -0.10972727772E+02  0.13109872423E+02  0.17122036264E+02  0.51100000000E-03 0.  1.
         12    1    3    3    0    0  0.10177497869E+02 -0.63184056537E+01  0.22942208763E+02  0.25881434577E+02  0.00000000000E+00 0. -1.
</event>
<event>
 7    1  0.7749294E-012  0.5930194E+02  0.7816164E-02  0.1266605E+00
        -11   -1    0    0    0    0  0.00000000000E+00  0.00000000000E+00  0.45593999997E+02  0.45594000000E+02  0.51100000000E-03 0. -1.
         11   -1    0    0    0    0 -0.00000000000E+00 -0.00000000000E+00 -0.45593999997E+02  0.45594000000E+02  0.51100000000E-03 0.  1.
    9900012    2    1    2    0    0 -0.12881650574E+02  0.23534983654E+02 -0.17230450454E+02  0.59301940351E+02  0.49999993294E+02 0.  0.
         12    1    1    2    0    0  0.12881650574E+02 -0.23534983654E+02  0.17230450454E+02  0.31886059649E+02  0.00000000000E+00 0. -1.
         11    1    3    3    0    0 -0.14330015384E+02  0.45780927904E+01 -0.18975663303E+02  0.24215368520E+02  0.51100000000E-03 0. -1.
        -11    1    3    3    0    0  0.11157026923E+02  0.19911237961E+02 -0.48203596265E+01  0.23327505526E+02  0.51100000000E-03 0.  1.
         12    1    3    3    0    0 -0.97086621135E+01 -0.95434709729E+00  0.65655724756E+01  0.11759066304E+02  0.00000000000E+00 0. -1.
</event>
<event>
 7    1  0.7749294E-012  0.5930195E+02  0.7816164E-02  0.1266605E+00
        -11   -1    0    0    0    0  0.00000000000E+00  0.00000000000E+00  0.45593999997E+02  0.45594000000E+02  0.51100000000E-03 0.  1.
         11   -1    0    0    0    0 -0.00000000000E+00 -0.00000000000E+00 -0.45593999997E+02  0.45594000000E+02  0.51100000000E-03 0. -1.
    9900012    2    1    2    0    0 -0.28606560645E+02 -0.58851987759E+01 -0.12796468856E+02  0.59301945183E+02  0.50000002108E+02 0.  0.
         12    1    1    2    0    0  0.28606560645E+02  0.58851987759E+01  0.12796468856E+02  0.31886054817E+02  0.00000000000E+00 0. -1.
         11    1    3    3    0    0 -0.12756681879E+02  0.33499295773E+01 -0.23368947501E+02  0.26833983459E+02  0.51100000000E-03 0. -1.
        -11    1    3    3    0    0 -0.15821081494E+02  0.23887014985E+01  0.12972992628E+02  0.20598811919E+02  0.51100000000E-03 0.  1.
        -12    1    3    3    0    0 -0.28797272725E-01 -0.11623829852E+02 -0.24005139832E+01  0.11869149805E+02  0.00000000000E+00 0.  1.
</event>
<event>
 7    1  0.7749294E-012  0.5930181E+02  0.7816164E-02  0.1266605E+00
        -11   -1    0    0    0    0  0.00000000000E+00  0.00000000000E+00  0.45593999997E+02  0.45594000000E+02  0.51100000000E-03 0.  1.
         11   -1    0    0    0    0 -0.00000000000E+00 -0.00000000000E+00 -0.45593999997E+02  0.45594000000E+02  0.51100000000E-03 0. -1.
    9900012    2    1    2    0    0  0.25570197062E+02  0.20941540576E+01  0.18934327650E+02  0.59301808278E+02  0.49999752424E+02 0.  0.
         12    1    1    2    0    0 -0.25570197062E+02 -0.20941540576E+01 -0.18934327650E+02  0.31886191722E+02  0.00000000000E+00 0. -1.
         11    1    3    3    0    0  0.25283805421E+02 -0.18768043639E+01  0.20476116470E+01  0.25435918008E+02  0.51100000000E-03 0. -1.
        -11    1    3    3    0    0 -0.39685714593E+01 -0.17358525318E+01  0.23652034600E+02  0.24045404642E+02  0.51100000000E-03 0.  1.
         12    1    3    3    0    0  0.42549630999E+01  0.57068109533E+01 -0.67653185971E+01  0.98204856274E+01  0.00000000000E+00 0. -1.
</event>
<event>
 7    1  0.7749294E-012  0.5930194E+02  0.7816164E-02  0.1266605E+00
        -11   -1    0    0    0    0  0.00000000000E+00  0.00000000000E+00  0.45593999997E+02  0.45594000000E+02  0.51100000000E-03 0. -1.
         11   -1    0    0    0    0 -0.00000000000E+00 -0.00000000000E+00 -0.45593999997E+02  0.45594000000E+02  0.51100000000E-03 0.  1.
    9900012    2    1    2    0    0 -0.20641459350E+02  0.23870239192E+02 -0.45675486578E+01  0.59301942484E+02  0.49999997184E+02 0.  0.
         12    1    1    2    0    0  0.20641459350E+02 -0.23870239192E+02  0.45675486578E+01  0.31886057516E+02  0.00000000000E+00 0. -1.
         11    1    3    3    0    0 -0.17031474622E+02 -0.11249477667E+02  0.15542699056E+01  0.20470408662E+02  0.51100000000E-03 0. -1.
        -11    1    3    3    0    0 -0.77804248555E+01  0.24014758370E+02  0.49520498568E+00  0.25248541716E+02  0.51100000000E-03 0.  1.
         12    1    3    3    0    0  0.41704401274E+01  0.11104958489E+02 -0.66170235491E+01  0.13582992106E+02  0.00000000000E+00 0. -1.
</event>
<event>
 7    1  0.7749294E-012  0.5930194E+02  0.7816164E-02  0.1266605E+00
        -11   -1    0    0    0    0  0.00000000000E+00  0.00000000000E+00  0.45593999997E+02  0.45594000000E+02  0.51100000000E-03 0. -1.
         11   -1    0    0    0    0 -0.00000000000E+00 -0.00000000000E+00 -0.45593999997E+02  0.45594000000E+02  0.51100000000E-03 0.  1.
    9900012    2    1    2    0    0  0.20302866464E+02  0.50797631739E+01 -0.24056403747E+02  0.59301938126E+02  0.49999989237E+02 0.  0.
         12    1    1    2    0    0 -0.20302866464E+02 -0.50797631739E+01  0.24056403747E+02  0.31886061874E+02  0.00000000000E+00 0. -1.
         11    1    3    3    0    0 -0.76372892615E+01  0.10525090550E+02  0.57860374620E+01  0.14233198802E+02  0.51100000000E-03 0. -1.
        -11    1    3    3    0    0  0.51374741555E+01 -0.78638104395E+01 -0.32141890371E+01  0.99279487688E+01  0.51100000000E-03 0.  1.
         12    1    3    3    0    0  0.22802681570E+02  0.24184830632E+01 -0.26628252172E+02  0.35140790556E+02  0.00000000000E+00 0. -1.
</event>
<event>
 7    1  0.7749294E-012  0.5930192E+02  0.7816164E-02  0.1266605E+00
        -11   -1    0    0    0    0  0.00000000000E+00  0.00000000000E+00  0.45593999997E+02  0.45594000000E+02  0.51100000000E-03 0. -1.
         11   -1    0    0    0    0 -0.00000000000E+00 -0.00000000000E+00 -0.45593999997E+02  0.45594000000E+02  0.51100000000E-03 0.  1.
    9900012    2    1    2    0    0 -0.22996830035E+02  0.14736234978E+02 -0.16453297402E+02  0.59301924538E+02  0.49999964455E+02 0.  0.
         12    1    1    2    0    0  0.22996830035E+02 -0.14736234978E+02  0.16453297402E+02  0.31886075462E+02  0.00000000000E+00 0. -1.
         11    1    3    3    0    0  0.55273570648E+01  0.10076761664E+02 -0.91158512785E+01  0.14669408527E+02  0.51100000000E-03 0. -1.
        -11    1    3    3    0    0 -0.19533026920E+02 -0.12882112017E+02  0.54108916811E+00  0.23404715944E+02  0.51100000000E-03 0.  1.
        -12    1    3    3    0    0 -0.89911601792E+01  0.17541585331E+02 -0.78785352919E+01  0.21227800066E+02  0.00000000000E+00 0.  1.
</event>
<event>
 7    1  0.7749294E-012  0.5930192E+02  0.7816164E-02  0.1266605E+00
        -11   -1    0    0    0    0  0.00000000000E+00  0.00000000000E+00  0.45593999997E+02  0.45594000000E+02  0.51100000000E-03 0.  1.
         11   -1    0    0    0    0 -0.00000000000E+00 -0.00000000000E+00 -0.45593999997E+02  0.45594000000E+02  0.51100000000E-03 0. -1.
    9900012    2    1    2    0    0  0.21508026981E+02  0.18547675724E+02  0.14495183233E+02  0.59301924099E+02  0.49999963655E+02 0.  0.
         12    1    1    2    0    0 -0.21508026981E+02 -0.18547675724E+02 -0.14495183233E+02  0.31886075901E+02  0.00000000000E+00 0. -1.
         11    1    3    3    0    0 -0.50635616436E+01 -0.31627800207E+01 -0.55143183480E+01  0.81271483979E+01  0.51100000000E-03 0. -1.
        -11    1    3    3    0    0  0.74780161706E+01  0.21178207187E+02  0.22643500709E+02  0.31893029178E+02  0.51100000000E-03 0.  1.
        -12    1    3    3    0    0  0.19093572454E+02  0.53224855813E+00 -0.26339991278E+01  0.19281746523E+02  0.00000000000E+00 0.  1.
</event>
<event>
 7    1  0.7749294E-012  0.5930199E+02  0.7816164E-02  0.1266605E+00
        -11   -1    0    0    0    0  0.00000000000E+00  0.00000000000E+00  0.45593999997E+02  0.45594000000E+02  0.51100000000E-03 0.  1.
         11   -1    0    0    0    0 -0.00000000000E+00 -0.00000000000E+00 -0.45593999997E+02  0.45594000000E+02  0.51100000000E-03 0. -1.
    9900012    2    1    2    0    0 -0.24013473321E+02 -0.15221687613E+02  0.14435064292E+02  0.59301988085E+02  0.50000080350E+02 0.  0.
         12    1    1    2    0    0  0.24013473321E+02  0.15221687613E+02 -0.14435064292E+02  0.31886011915E+02  0.00000000000E+00 0. -1.
         11    1    3    3    0    0 -0.14995044448E+02  0.65729209563E+01 -0.85454432684E+01  0.18468330970E+02  0.51100000000E-03 0. -1.
        -11    1    3    3    0    0  0.21141801050E+01 -0.14030102920E+02  0.51555331541E-01  0.14188594140E+02  0.51100000000E-03 0.  1.
         12    1    3    3    0    0 -0.11132608978E+02 -0.77645056487E+01  0.22928952229E+02  0.26645062975E+02  0.00000000000E+00 0. -1.
</event>
<event>
 7    1  0.7749294E-012  0.5930207E+02  0.7816164E-02  0.1266604E+00
        -11   -1    0    0    0    0  0.00000000000E+00  0.00000000000E+00  0.45593999997E+02  0.45594000000E+02  0.51100000000E-03 0.  1.
         11   -1    0    0    0    0 -0.00000000000E+00 -0.00000000000E+00 -0.45593999997E+02  0.45594000000E+02  0.51100000000E-03 0. -1.
    9900012    2    1    2    0    0 -0.41824679963E+01 -0.11828136786E+02  0.29314072151E+02  0.59302067609E+02  0.50000225382E+02 0.  0.
         12    1    1    2    0    0  0.41824679963E+01  0.11828136786E+02 -0.29314072151E+02  0.31885932391E+02  0.00000000000E+00 0. -1.
         11    1    3    3    0    0  0.19242821082E+02 -0.79080492843E+01  0.43605720907E+01  0.21256481268E+02  0.51100000000E-03 0. -1.
        -11    1    3    3    0    0 -0.18919763059E+02 -0.54321033325E+01  0.94595331094E+01  0.21839137980E+02  0.51100000000E-03 0.  1.
        -12    1    3    3    0    0 -0.45055260197E+01  0.15120158310E+01  0.15493966951E+02  0.16206448361E+02  0.00000000000E+00 0.  1.
</event>
<event>
 7    1  0.8289234E-012  0.5930194E+02  0.7816164E-02  0.1266605E+00
        -11   -1    0    0    0    0  0.00000000000E+00  0.00000000000E+00  0.45593999997E+02  0.45594000000E+02  0.51100000000E-03 0. -1.
         11   -1    0    0    0    0 -0.00000000000E+00 -0.00000000000E+00 -0.45593999997E+02  0.45594000000E+02  0.51100000000E-03 0.  1.
    9900012    2    1    2    0    0 -0.43348753511E+01  0.16408869396E+02 -0.26994047725E+02  0.59301941107E+02  0.49999994673E+02 0.  0.
         12    1    1    2    0    0  0.43348753511E+01 -0.16408869396E+02  0.26994047725E+02  0.31886058893E+02  0.00000000000E+00 0. -1.
         11    1    3    3    0    0 -0.18160076800E+01  0.23493046068E+01  0.12953430787E+02  0.13289412532E+02  0.51100000000E-03 0.  1.
        -11    1    3    3    0    0  0.59066258667E+01  0.13035455805E+02 -0.23839987895E+02  0.27805689351E+02  0.51100000000E-03 0. -1.
        -12    1    3    3    0    0 -0.84254935379E+01  0.10241089844E+01 -0.16107490617E+02  0.18206839224E+02  0.00000000000E+00 0.  1.
</event>
<event>
 7    1  0.7749294E-012  0.5930195E+02  0.7816164E-02  0.1266605E+00
        -11   -1    0    0    0    0  0.00000000000E+00  0.00000000000E+00  0.45593999997E+02  0.45594000000E+02  0.51100000000E-03 0.  1.
         11   -1    0    0    0    0 -0.00000000000E+00 -0.00000000000E+00 -0.45593999997E+02  0.45594000000E+02  0.51100000000E-03 0. -1.
    9900012    2    1    2    0    0  0.16468346324E+02 -0.95038237367E+01  0.25596698075E+02  0.59301952132E+02  0.50000014780E+02 0.  0.
         12    1    1    2    0    0 -0.16468346324E+02  0.95038237367E+01 -0.25596698075E+02  0.31886047868E+02  0.00000000000E+00 0. -1.
         11    1    3    3    0    0  0.31866998446E+02 -0.64911768171E+01  0.14719694898E+02  0.35697484290E+02  0.51100000000E-03 0. -1.
        -11    1    3    3    0    0 -0.11941931909E+02  0.41240810497E+01  0.44418725036E+01  0.13392087732E+02  0.51100000000E-03 0.  1.
        -12    1    3    3    0    0 -0.34567202133E+01 -0.71367279693E+01  0.64351306734E+01  0.10212380111E+02  0.00000000000E+00 0.  1.
</event>
<event>
 7    1  0.7749294E-012  0.5930185E+02  0.7816164E-02  0.1266605E+00
        -11   -1    0    0    0    0  0.00000000000E+00  0.00000000000E+00  0.45593999997E+02  0.45594000000E+02  0.51100000000E-03 0. -1.
         11   -1    0    0    0    0 -0.00000000000E+00 -0.00000000000E+00 -0.45593999997E+02  0.45594000000E+02  0.51100000000E-03 0.  1.
    9900012    2    1    2    0    0  0.24110085670E+02  0.12011386152E+02  0.17063317026E+02  0.59301852283E+02  0.49999832679E+02 0.  0.
         12    1    1    2    0    0 -0.24110085670E+02 -0.12011386152E+02 -0.17063317026E+02  0.31886147717E+02  0.00000000000E+00 0. -1.
         11    1    3    3    0    0  0.14168883626E+02  0.30242065977E+02  0.12973365303E+02  0.35828034070E+02  0.51100000000E-03 0. -1.
        -11    1    3    3    0    0 -0.54372729812E+00 -0.55689764884E+00 -0.19128868044E+01  0.20651659870E+01  0.51100000000E-03 0.  1.
         12    1    3    3    0    0  0.10484929342E+02 -0.17673782176E+02  0.60028385275E+01  0.21408652225E+02  0.00000000000E+00 0. -1.
</event>
<event>
 7    1  0.7749294E-012  0.5930191E+02  0.7816164E-02  0.1266605E+00
        -11   -1    0    0    0    0  0.00000000000E+00  0.00000000000E+00  0.45593999997E+02  0.45594000000E+02  0.51100000000E-03 0.  1.
         11   -1    0    0    0    0 -0.00000000000E+00 -0.00000000000E+00 -0.45593999997E+02  0.45594000000E+02  0.51100000000E-03 0. -1.
    9900012    2    1    2    0    0 -0.12996768080E+02 -0.64108266990E+00  0.29110064615E+02  0.59301908527E+02  0.49999935256E+02 0.  0.
         12    1    1    2    0    0  0.12996768080E+02  0.64108266990E+00 -0.29110064615E+02  0.31886091473E+02  0.00000000000E+00 0. -1.
         11    1    3    3    0    0 -0.60314210429E+01  0.70062469928E+01 -0.32187301024E+01  0.97890633083E+01  0.51100000000E-03 0. -1.
        -11    1    3    3    0    0  0.12792370829E+02  0.39858531258E+00  0.22803700347E+02  0.26149806337E+02  0.51100000000E-03 0.  1.
        -12    1    3    3    0    0 -0.19757717866E+02 -0.80459149752E+01  0.95250943698E+01  0.23363038882E+02  0.00000000000E+00 0.  1.
</event>
<event>
 7    1  0.7749294E-012  0.5930200E+02  0.7816164E-02  0.1266605E+00
        -11   -1    0    0    0    0  0.00000000000E+00  0.00000000000E+00  0.45593999997E+02  0.45594000000E+02  0.51100000000E-03 0. -1.
         11   -1    0    0    0    0 -0.00000000000E+00 -0.00000000000E+00 -0.45593999997E+02  0.45594000000E+02  0.51100000000E-03 0.  1.
    9900012    2    1    2    0    0 -0.15005827524E+02  0.23840250542E+02 -0.14939372894E+02  0.59301995734E+02  0.50000094299E+02 0.  0.
         12    1    1    2    0    0  0.15005827524E+02 -0.23840250542E+02  0.14939372894E+02  0.31886004266E+02  0.00000000000E+00 0. -1.
         11    1    3    3    0    0 -0.23994084364E+02  0.14045704133E+02  0.31608295605E+01  0.27981935831E+02  0.51100000000E-03 0. -1.
        -11    1    3    3    0    0  0.15144575115E+02  0.97071960995E+01 -0.84531702330E+01  0.19875711277E+02  0.51100000000E-03 0.  1.
        -12    1    3    3    0    0 -0.61563182752E+01  0.87350309869E-01 -0.96470322215E+01  0.11444348626E+02  0.00000000000E+00 0.  1.
</event>
<event>
 7    1  0.7749294E-012  0.5930196E+02  0.7816164E-02  0.1266605E+00
        -11   -1    0    0    0    0  0.00000000000E+00  0.00000000000E+00  0.45593999997E+02  0.45594000000E+02  0.51100000000E-03 0.  1.
         11   -1    0    0    0    0 -0.00000000000E+00 -0.00000000000E+00 -0.45593999997E+02  0.45594000000E+02  0.51100000000E-03 0. -1.
    9900012    2    1    2    0    0 -0.15357235597E+02  0.15886214802E+01  0.27898950530E+02  0.59301955340E+02  0.50000020631E+02 0.  0.
         12    1    1    2    0    0  0.15357235597E+02 -0.15886214802E+01 -0.27898950530E+02  0.31886044660E+02  0.00000000000E+00 0. -1.
         11    1    3    3    0    0 -0.74241719327E+01  0.14014145795E+02 -0.70981570867E+01  0.17375225050E+02  0.51100000000E-03 0. -1.
        -11    1    3    3    0    0 -0.82508019155E+01  0.11944929056E+01  0.19986052866E+02  0.21655134610E+02  0.51100000000E-03 0.  1.
         12    1    3    3    0    0  0.31773825090E+00 -0.13620017221E+02  0.15011054750E+02  0.20271595680E+02  0.00000000000E+00 0. -1.
</event>
<event>
 7    1  0.7749294E-012  0.5930195E+02  0.7816164E-02  0.1266605E+00
        -11   -1    0    0    0    0  0.00000000000E+00  0.00000000000E+00  0.45593999997E+02  0.45594000000E+02  0.51100000000E-03 0.  1.
         11   -1    0    0    0    0 -0.00000000000E+00 -0.00000000000E+00 -0.45593999997E+02  0.45594000000E+02  0.51100000000E-03 0. -1.
    9900012    2    1    2    0    0 -0.39821254694E+01  0.28455680952E+02  0.13825235466E+02  0.59301949172E+02  0.50000009382E+02 0.  0.
         12    1    1    2    0    0  0.39821254694E+01 -0.28455680952E+02 -0.13825235466E+02  0.31886050828E+02  0.00000000000E+00 0. -1.
         11    1    3    3    0    0 -0.12965533025E+02  0.13641968165E+02 -0.35722277579E+01  0.19156438956E+02  0.51100000000E-03 0. -1.
        -11    1    3    3    0    0  0.15138647668E+02  0.15464859186E+02 -0.40941468312E-01  0.21641215292E+02  0.51100000000E-03 0.  1.
        -12    1    3    3    0    0 -0.61552401118E+01 -0.65114639894E+00  0.17438404692E+02  0.18504294925E+02  0.00000000000E+00 0.  1.
</event>
<event>
 7    1  0.7749294E-012  0.5930195E+02  0.7816164E-02  0.1266605E+00
        -11   -1    0    0    0    0  0.00000000000E+00  0.00000000000E+00  0.45593999997E+02  0.45594000000E+02  0.51100000000E-03 0.  1.
         11   -1    0    0    0    0 -0.00000000000E+00 -0.00000000000E+00 -0.45593999997E+02  0.45594000000E+02  0.51100000000E-03 0. -1.
    9900012    2    1    2    0    0 -0.82651501121E+01  0.93639847818E+01  0.29338090990E+02  0.59301945050E+02  0.50000001864E+02 0.  0.
         12    1    1    2    0    0  0.82651501121E+01 -0.93639847818E+01 -0.29338090990E+02  0.31886054950E+02  0.00000000000E+00 0. -1.
         11    1    3    3    0    0  0.27891010674E+01  0.94448378584E+01  0.23276929102E+02  0.25274482698E+02  0.51100000000E-03 0.  1.
        -11    1    3    3    0    0 -0.83986198013E+01 -0.15365195708E+01 -0.12545907443E+02  0.15175556029E+02  0.51100000000E-03 0. -1.
         12    1    3    3    0    0 -0.26556313782E+01  0.14556664942E+01  0.18607069330E+02  0.18851906323E+02  0.00000000000E+00 0. -1.
</event>
<event>
 7    1  0.7749294E-012  0.5930194E+02  0.7816164E-02  0.1266605E+00
        -11   -1    0    0    0    0  0.00000000000E+00  0.00000000000E+00  0.45593999997E+02  0.45594000000E+02  0.51100000000E-03 0. -1.
         11   -1    0    0    0    0 -0.00000000000E+00 -0.00000000000E+00 -0.45593999997E+02  0.45594000000E+02  0.51100000000E-03 0.  1.
    9900012    2    1    2    0    0  0.47472733798E+01 -0.21143922632E+02 -0.23390570139E+02  0.59301939719E+02  0.49999992141E+02 0.  0.
         12    1    1    2    0    0 -0.47472733798E+01  0.21143922632E+02  0.23390570139E+02  0.31886060281E+02  0.00000000000E+00 0. -1.
         11    1    3    3    0    0 -0.12018694333E+02 -0.18249208347E+02  0.54891107920E+00  0.21858268971E+02  0.51100000000E-03 0. -1.
        -11    1    3    3    0    0  0.86041191032E+01  0.10208267707E+02 -0.10815283555E+02  0.17181674940E+02  0.51100000000E-03 0.  1.
        -12    1    3    3    0    0  0.81618486096E+01 -0.13102981992E+02 -0.13124197664E+02  0.20261995808E+02  0.00000000000E+00 0.  1.
</event>
<event>
 7    1  0.7749294E-012  0.5930206E+02  0.7816164E-02  0.1266604E+00
        -11   -1    0    0    0    0  0.00000000000E+00  0.00000000000E+00  0.45593999997E+02  0.45594000000E+02  0.51100000000E-03 0.  1.
         11   -1    0    0    0    0 -0.00000000000E+00 -0.00000000000E+00 -0.45593999997E+02  0.45594000000E+02  0.51100000000E-03 0. -1.
    9900012    2    1    2    0    0 -0.26221578801E+02  0.17472585541E+02  0.48837397744E+01  0.59302057102E+02  0.50000206220E+02 0.  0.
         12    1    1    2    0    0  0.26221578801E+02 -0.17472585541E+02 -0.48837397744E+01  0.31885942898E+02  0.00000000000E+00 0. -1.
         11    1    3    3    0    0 -0.20256910292E+02 -0.11450024129E+02  0.86381864038E+01  0.24820631171E+02  0.51100000000E-03 0. -1.
        -11    1    3    3    0    0  0.49494024636E+00  0.25066235323E+02  0.17914279844E+01  0.25135041945E+02  0.51100000000E-03 0.  1.
        -12    1    3    3    0    0 -0.64596087549E+01  0.38563743472E+01 -0.55458746138E+01  0.93463839855E+01  0.00000000000E+00 0.  1.
</event>
<event>
 7    1  0.7749294E-012  0.5930200E+02  0.7816164E-02  0.1266605E+00
        -11   -1    0    0    0    0  0.00000000000E+00  0.00000000000E+00  0.45593999997E+02  0.45594000000E+02  0.51100000000E-03 0.  1.
         11   -1    0    0    0    0 -0.00000000000E+00 -0.00000000000E+00 -0.45593999997E+02  0.45594000000E+02  0.51100000000E-03 0. -1.
    9900012    2    1    2    0    0  0.10007487780E+02 -0.14846860371E+02  0.26384423192E+02  0.59302002105E+02  0.50000105920E+02 0.  0.
         12    1    1    2    0    0 -0.10007487780E+02  0.14846860371E+02 -0.26384423192E+02  0.31885997895E+02  0.00000000000E+00 0. -1.
         11    1    3    3    0    0  0.19377227504E+02  0.24617152450E+01  0.10311941343E+02  0.22087850104E+02  0.51100000000E-03 0. -1.
        -11    1    3    3    0    0 -0.18830788053E+02 -0.85861154393E+01  0.98455253607E+01  0.22918427671E+02  0.51100000000E-03 0.  1.
        -12    1    3    3    0    0  0.94610483287E+01 -0.87224601765E+01  0.62269564886E+01  0.14295724330E+02  0.00000000000E+00 0.  1.
</event>
<event>
 7    1  0.7749294E-012  0.5930200E+02  0.7816164E-02  0.1266605E+00
        -11   -1    0    0    0    0  0.00000000000E+00  0.00000000000E+00  0.45593999997E+02  0.45594000000E+02  0.51100000000E-03 0.  1.
         11   -1    0    0    0    0 -0.00000000000E+00 -0.00000000000E+00 -0.45593999997E+02  0.45594000000E+02  0.51100000000E-03 0. -1.
    9900012    2    1    2    0    0  0.24133744250E+02 -0.20827726628E+02 -0.69666553511E+00  0.59301997572E+02  0.50000097652E+02 0.  0.
         12    1    1    2    0    0 -0.24133744250E+02  0.20827726628E+02  0.69666553511E+00  0.31886002428E+02  0.00000000000E+00 0. -1.
         11    1    3    3    0    0  0.13639381235E+02 -0.12380114275E+02 -0.13006993382E+02  0.22549541615E+02  0.51100000000E-03 0. -1.
        -11    1    3    3    0    0  0.19068793257E+02 -0.44573191317E+01  0.17237345827E+02  0.26088554225E+02  0.51100000000E-03 0.  1.
        -12    1    3    3    0    0 -0.85744302431E+01 -0.39902932210E+01 -0.49270179802E+01  0.10663901733E+02  0.00000000000E+00 0.  1.
</event>
<event>
 7    1  0.7749294E-012  0.5930198E+02  0.7816164E-02  0.1266605E+00
        -11   -1    0    0    0    0  0.00000000000E+00  0.00000000000E+00  0.45593999997E+02  0.45594000000E+02  0.51100000000E-03 0.  1.
         11   -1    0    0    0    0 -0.00000000000E+00 -0.00000000000E+00 -0.45593999997E+02  0.45594000000E+02  0.51100000000E-03 0. -1.
    9900012    2    1    2    0    0  0.15605928140E+02 -0.13851613669E+02  0.24110283561E+02  0.59301984763E+02  0.50000074291E+02 0.  0.
         12    1    1    2    0    0 -0.15605928140E+02  0.13851613669E+02 -0.24110283561E+02  0.31886015237E+02  0.00000000000E+00 0. -1.
         11    1    3    3    0    0  0.20825085539E+02 -0.22426398262E+02  0.47112113113E+01  0.30964867818E+02  0.51100000000E-03 0. -1.
        -11    1    3    3    0    0 -0.94687982738E+01  0.96638302889E+01  0.71005378358E+01  0.15279574419E+02  0.51100000000E-03 0.  1.
         12    1    3    3    0    0  0.42496408745E+01 -0.10890456964E+01  0.12298534414E+02  0.13057542526E+02  0.00000000000E+00 0. -1.
</event>
<event>
 7    1  0.7749294E-012  0.5930168E+02  0.7816164E-02  0.1266606E+00
        -11   -1    0    0    0    0  0.00000000000E+00  0.00000000000E+00  0.45593999997E+02  0.45594000000E+02  0.51100000000E-03 0.  1.
         11   -1    0    0    0    0 -0.00000000000E+00 -0.00000000000E+00 -0.45593999997E+02  0.45594000000E+02  0.51100000000E-03 0. -1.
    9900012    2    1    2    0    0 -0.25868418848E+02 -0.99009452512E+01  0.15796636089E+02  0.59301678131E+02  0.49999515066E+02 0.  0.
         12    1    1    2    0    0  0.25868418848E+02  0.99009452512E+01 -0.15796636089E+02  0.31886321869E+02  0.00000000000E+00 0. -1.
         11    1    3    3    0    0 -0.19178322627E+02 -0.83693536722E+01 -0.15507211978E+01  0.20982346775E+02  0.51100000000E-03 0. -1.
        -11    1    3    3    0    0  0.11686925479E+02  0.71669143574E+01  0.53818683741E+01  0.14727980038E+02  0.51100000000E-03 0.  1.
        -12    1    3    3    0    0 -0.18377021700E+02 -0.86985059364E+01  0.11965488913E+02  0.23591351318E+02  0.00000000000E+00 0.  1.
</event>
<event>
 7    1  0.7749294E-012  0.5930192E+02  0.7816164E-02  0.1266605E+00
        -11   -1    0    0    0    0  0.00000000000E+00  0.00000000000E+00  0.45593999997E+02  0.45594000000E+02  0.51100000000E-03 0. -1.
         11   -1    0    0    0    0 -0.00000000000E+00 -0.00000000000E+00 -0.45593999997E+02  0.45594000000E+02  0.51100000000E-03 0.  1.
    9900012    2    1    2    0    0 -0.16786182050E+02 -0.14822373124E+01 -0.27069338567E+02  0.59301921130E+02  0.49999958240E+02 0.  0.
         12    1    1    2    0    0  0.16786182050E+02  0.14822373124E+01  0.27069338567E+02  0.31886078870E+02  0.00000000000E+00 0. -1.
         11    1    3    3    0    0 -0.19872420017E+02  0.60774037894E+01 -0.18505727410E-01  0.20780958998E+02  0.51100000000E-03 0. -1.
        -11    1    3    3    0    0 -0.19660343094E+01  0.81359819086E+01 -0.17665877117E+02  0.19548470710E+02  0.51100000000E-03 0.  1.
        -12    1    3    3    0    0  0.50522722769E+01 -0.15695623011E+02 -0.93849557227E+01  0.18972491422E+02  0.00000000000E+00 0.  1.
</event>
<event>
 7    1  0.7749294E-012  0.5930195E+02  0.7816164E-02  0.1266605E+00
        -11   -1    0    0    0    0  0.00000000000E+00  0.00000000000E+00  0.45593999997E+02  0.45594000000E+02  0.51100000000E-03 0.  1.
         11   -1    0    0    0    0 -0.00000000000E+00 -0.00000000000E+00 -0.45593999997E+02  0.45594000000E+02  0.51100000000E-03 0. -1.
    9900012    2    1    2    0    0  0.25052838214E+02 -0.29138976391E+01 -0.19508582056E+02  0.59301948569E+02  0.50000008282E+02 0.  0.
         12    1    1    2    0    0 -0.25052838214E+02  0.29138976391E+01  0.19508582056E+02  0.31886051431E+02  0.00000000000E+00 0. -1.
         11    1    3    3    0    0  0.21326785335E+02 -0.89147351142E+01 -0.18817361743E+02  0.29805995674E+02  0.51100000000E-03 0. -1.
        -11    1    3    3    0    0 -0.81741383503E+01 -0.31970426108E+01  0.82104294788E+01  0.12018684275E+02  0.51100000000E-03 0.  1.
        -12    1    3    3    0    0  0.11900191230E+02  0.91978800859E+01 -0.89016497912E+01  0.17477268619E+02  0.00000000000E+00 0.  1.
</event>
<event>
 7    1  0.7749294E-012  0.5930196E+02  0.7816164E-02  0.1266605E+00
        -11   -1    0    0    0    0  0.00000000000E+00  0.00000000000E+00  0.45593999997E+02  0.45594000000E+02  0.51100000000E-03 0.  1.
         11   -1    0    0    0    0 -0.00000000000E+00 -0.00000000000E+00 -0.45593999997E+02  0.45594000000E+02  0.51100000000E-03 0. -1.
    9900012    2    1    2    0    0 -0.23095541050E+02  0.88240857961E+01  0.20135819972E+02  0.59301956777E+02  0.50000023251E+02 0.  0.
         12    1    1    2    0    0  0.23095541050E+02 -0.88240857961E+01 -0.20135819972E+02  0.31886043223E+02  0.00000000000E+00 0. -1.
         11    1    3    3    0    0 -0.68199862824E+01 -0.13493147088E+02  0.44674437175E+01  0.15765001898E+02  0.51100000000E-03 0. -1.
        -11    1    3    3    0    0 -0.96334924332E+01  0.29147156974E+02  0.14461694164E+02  0.33933781612E+02  0.51100000000E-03 0.  1.
        -12    1    3    3    0    0 -0.66420623340E+01 -0.68299240896E+01  0.12066820900E+01  0.96031732664E+01  0.00000000000E+00 0.  1.
</event>
<event>
 7    1  0.7749294E-012  0.5930196E+02  0.7816164E-02  0.1266605E+00
        -11   -1    0    0    0    0  0.00000000000E+00  0.00000000000E+00  0.45593999997E+02  0.45594000000E+02  0.51100000000E-03 0.  1.
         11   -1    0    0    0    0 -0.00000000000E+00 -0.00000000000E+00 -0.45593999997E+02  0.45594000000E+02  0.51100000000E-03 0. -1.
    9900012    2    1    2    0    0  0.89864575392E+01 -0.25594586653E+02  0.16759473538E+02  0.59301964839E+02  0.50000037954E+02 0.  0.
         12    1    1    2    0    0 -0.89864575392E+01  0.25594586653E+02 -0.16759473538E+02  0.31886035161E+02  0.00000000000E+00 0. -1.
         11    1    3    3    0    0 -0.12417510557E+02 -0.22401163688E+02  0.68504296030E+01  0.26512923057E+02  0.51100000000E-03 0. -1.
        -11    1    3    3    0    0  0.21547263407E+02 -0.65357859611E+01  0.14740418602E+02  0.26912469216E+02  0.51100000000E-03 0.  1.
        -12    1    3    3    0    0 -0.14329531083E+00  0.33423629965E+01 -0.48313746674E+01  0.58765725660E+01  0.00000000000E+00 0.  1.
</event>
<event>
 7    1  0.7749294E-012  0.5930194E+02  0.7816164E-02  0.1266605E+00
        -11   -1    0    0    0    0  0.00000000000E+00  0.00000000000E+00  0.45593999997E+02  0.45594000000E+02  0.51100000000E-03 0.  1.
         11   -1    0    0    0    0 -0.00000000000E+00 -0.00000000000E+00 -0.45593999997E+02  0.45594000000E+02  0.51100000000E-03 0. -1.
    9900012    2    1    2    0    0  0.18774645933E+02 -0.23054817024E+02  0.11519922673E+02  0.59301944485E+02  0.50000000834E+02 0.  0.
         12    1    1    2    0    0 -0.18774645933E+02  0.23054817024E+02 -0.11519922673E+02  0.31886055515E+02  0.00000000000E+00 0. -1.
         11    1    3    3    0    0  0.23683896515E+02 -0.53340870627E+01 -0.41447332301E+00  0.24280676006E+02  0.51100000000E-03 0. -1.
        -11    1    3    3    0    0 -0.80837987060E+01 -0.13200488391E+02 -0.57360200400E+01  0.16507653421E+02  0.51100000000E-03 0.  1.
        -12    1    3    3    0    0  0.31745481239E+01 -0.45202415697E+01  0.17670416036E+02  0.18513615058E+02  0.00000000000E+00 0.  1.
</event>
<event>
 7    1  0.7749294E-012  0.5930194E+02  0.7816164E-02  0.1266605E+00
        -11   -1    0    0    0    0  0.00000000000E+00  0.00000000000E+00  0.45593999997E+02  0.45594000000E+02  0.51100000000E-03 0.  1.
         11   -1    0    0    0    0 -0.00000000000E+00 -0.00000000000E+00 -0.45593999997E+02  0.45594000000E+02  0.51100000000E-03 0. -1.
    9900012    2    1    2    0    0  0.22056624537E+02  0.10813435006E+02  0.20329671872E+02  0.59301943157E+02  0.49999998412E+02 0.  0.
         12    1    1    2    0    0 -0.22056624537E+02 -0.10813435006E+02 -0.20329671872E+02  0.31886056843E+02  0.00000000000E+00 0. -1.
         11    1    3    3    0    0  0.31310245535E+02  0.12745283664E+02  0.27368616817E+02  0.43494998769E+02  0.51100000000E-03 0.  1.
        -11    1    3    3    0    0 -0.69229595747E+01 -0.14440775599E+01 -0.98481751342E+01  0.12124326085E+02  0.51100000000E-03 0. -1.
        -12    1    3    3    0    0 -0.23306614238E+01 -0.48777109768E+00  0.28092301887E+01  0.36826183035E+01  0.00000000000E+00 0.  1.
</event>
<event>
 7    1  0.7749294E-012  0.5930193E+02  0.7816164E-02  0.1266605E+00
        -11   -1    0    0    0    0  0.00000000000E+00  0.00000000000E+00  0.45593999997E+02  0.45594000000E+02  0.51100000000E-03 0.  1.
         11   -1    0    0    0    0 -0.00000000000E+00 -0.00000000000E+00 -0.45593999997E+02  0.45594000000E+02  0.51100000000E-03 0. -1.
    9900012    2    1    2    0    0  0.80213187246E+01 -0.22083195272E+02  0.21557182029E+02  0.59301934634E+02  0.49999982868E+02 0.  0.
         12    1    1    2    0    0 -0.80213187246E+01  0.22083195272E+02 -0.21557182029E+02  0.31886065366E+02  0.00000000000E+00 0. -1.
         11    1    3    3    0    0 -0.55166419633E+01 -0.15629891860E+01 -0.73877535892E+01  0.93517472754E+01  0.51100000000E-03 0. -1.
        -11    1    3    3    0    0  0.88720742714E+01 -0.58841311587E+01  0.32485673580E+02  0.34185606468E+02  0.51100000000E-03 0.  1.
        -12    1    3    3    0    0  0.46658864165E+01 -0.14636074927E+02 -0.35407379619E+01  0.15764580890E+02  0.00000000000E+00 0.  1.
</event>
<event>
 7    1  0.7749294E-012  0.5930193E+02  0.7816164E-02  0.1266605E+00
        -11   -1    0    0    0    0  0.00000000000E+00  0.00000000000E+00  0.45593999997E+02  0.45594000000E+02  0.51100000000E-03 0.  1.
         11   -1    0    0    0    0 -0.00000000000E+00 -0.00000000000E+00 -0.45593999997E+02  0.45594000000E+02  0.51100000000E-03 0. -1.
    9900012    2    1    2    0    0  0.42411480064E+00 -0.16277608443E+02  0.27414974466E+02  0.59301933530E+02  0.49999980854E+02 0.  0.
         12    1    1    2    0    0 -0.42411480064E+00  0.16277608443E+02 -0.27414974466E+02  0.31886066470E+02  0.00000000000E+00 0. -1.
         11    1    3    3    0    0  0.10535284620E+02  0.34753410853E+01 -0.16519048550E+01  0.11216015674E+02  0.51100000000E-03 0. -1.
        -11    1    3    3    0    0 -0.20498997137E+02 -0.96009050187E+01  0.23222174720E+02  0.32429240815E+02  0.51100000000E-03 0.  1.
        -12    1    3    3    0    0  0.10387827318E+02 -0.10152044510E+02  0.58447046004E+01  0.15656677041E+02  0.00000000000E+00 0.  1.
</event>
<event>
 7    1  0.7749294E-012  0.5930195E+02  0.7816164E-02  0.1266605E+00
        -11   -1    0    0    0    0  0.00000000000E+00  0.00000000000E+00  0.45593999997E+02  0.45594000000E+02  0.51100000000E-03 0. -1.
         11   -1    0    0    0    0 -0.00000000000E+00 -0.00000000000E+00 -0.45593999997E+02  0.45594000000E+02  0.51100000000E-03 0.  1.
    9900012    2    1    2    0    0  0.21304846231E+02  0.12589174109E+02 -0.20108122814E+02  0.59301946924E+02  0.50000005281E+02 0.  0.
         12    1    1    2    0    0 -0.21304846231E+02 -0.12589174109E+02  0.20108122814E+02  0.31886053076E+02  0.00000000000E+00 0. -1.
         11    1    3    3    0    0  0.18581346310E+02  0.21097399577E+02 -0.84068266440E+01  0.29343507528E+02  0.51100000000E-03 0. -1.
        -11    1    3    3    0    0  0.12518533586E+02 -0.97630404019E+01 -0.18046631555E+01  0.15977717309E+02  0.51100000000E-03 0.  1.
         12    1    3    3    0    0 -0.97950336650E+01  0.12548149338E+01 -0.98966330149E+01  0.13980722086E+02  0.00000000000E+00 0. -1.
</event>
<event>
 7    1  0.7749294E-012  0.5930194E+02  0.7816164E-02  0.1266605E+00
        -11   -1    0    0    0    0  0.00000000000E+00  0.00000000000E+00  0.45593999997E+02  0.45594000000E+02  0.51100000000E-03 0. -1.
         11   -1    0    0    0    0 -0.00000000000E+00 -0.00000000000E+00 -0.45593999997E+02  0.45594000000E+02  0.51100000000E-03 0.  1.
    9900012    2    1    2    0    0 -0.20810917702E+02  0.22756729169E+02  0.81091101873E+01  0.59301942136E+02  0.49999996551E+02 0.  0.
         12    1    1    2    0    0  0.20810917702E+02 -0.22756729169E+02 -0.81091101873E+01  0.31886057864E+02  0.00000000000E+00 0. -1.
         11    1    3    3    0    0  0.50117213206E+01 -0.90509827896E+01  0.59390628377E+01  0.11929380022E+02  0.51100000000E-03 0. -1.
        -11    1    3    3    0    0 -0.22350241554E+02  0.90880213402E+01 -0.11279810239E+01  0.24153628523E+02  0.51100000000E-03 0.  1.
         12    1    3    3    0    0 -0.34723974686E+01  0.22719690618E+02  0.32980283735E+01  0.23218933591E+02  0.00000000000E+00 0. -1.
</event>
<event>
 7    1  0.7749294E-012  0.5930192E+02  0.7816164E-02  0.1266605E+00
        -11   -1    0    0    0    0  0.00000000000E+00  0.00000000000E+00  0.45593999997E+02  0.45594000000E+02  0.51100000000E-03 0.  1.
         11   -1    0    0    0    0 -0.00000000000E+00 -0.00000000000E+00 -0.45593999997E+02  0.45594000000E+02  0.51100000000E-03 0. -1.
    9900012    2    1    2    0    0  0.10003834553E+02  0.15201332032E+02  0.26183299470E+02  0.59301915693E+02  0.49999948325E+02 0.  0.
         12    1    1    2    0    0 -0.10003834553E+02 -0.15201332032E+02 -0.26183299470E+02  0.31886084307E+02  0.00000000000E+00 0. -1.
         11    1    3    3    0    0 -0.82890956239E+01  0.20410185915E+02  0.11474016005E+02  0.24838233410E+02  0.51100000000E-03 0. -1.
        -11    1    3    3    0    0  0.19882276933E+02 -0.53642850393E+00  0.10242039757E+01  0.19915865174E+02  0.51100000000E-03 0.  1.
        -12    1    3    3    0    0 -0.15893467565E+01 -0.46724253797E+01  0.13685079489E+02  0.14547817110E+02  0.00000000000E+00 0.  1.
</event>
<event>
 7    1  0.7749294E-012  0.5930193E+02  0.7816164E-02  0.1266605E+00
        -11   -1    0    0    0    0  0.00000000000E+00  0.00000000000E+00  0.45593999997E+02  0.45594000000E+02  0.51100000000E-03 0. -1.
         11   -1    0    0    0    0 -0.00000000000E+00 -0.00000000000E+00 -0.45593999997E+02  0.45594000000E+02  0.51100000000E-03 0.  1.
    9900012    2    1    2    0    0 -0.27837490282E+02  0.77483149809E+01 -0.13481812840E+02  0.59301928939E+02  0.49999972482E+02 0.  0.
         12    1    1    2    0    0  0.27837490282E+02 -0.77483149809E+01  0.13481812840E+02  0.31886071061E+02  0.00000000000E+00 0. -1.
         11    1    3    3    0    0  0.99653217282E+01  0.68580040970E+01 -0.12726091776E+02  0.17558282077E+02  0.51100000000E-03 0. -1.
        -11    1    3    3    0    0 -0.35067774829E+02 -0.32830366601E+01  0.32139850564E+01  0.35367454833E+02  0.51100000000E-03 0.  1.
        -12    1    3    3    0    0 -0.27350371816E+01  0.41733475440E+01 -0.39697061202E+01  0.63761920288E+01  0.00000000000E+00 0.  1.
</event>
<event>
 7    1  0.7749294E-012  0.5930194E+02  0.7816164E-02  0.1266605E+00
        -11   -1    0    0    0    0  0.00000000000E+00  0.00000000000E+00  0.45593999997E+02  0.45594000000E+02  0.51100000000E-03 0. -1.
         11   -1    0    0    0    0 -0.00000000000E+00 -0.00000000000E+00 -0.45593999997E+02  0.45594000000E+02  0.51100000000E-03 0.  1.
    9900012    2    1    2    0    0  0.26049834144E+02 -0.73473666588E+01 -0.16856552053E+02  0.59301937169E+02  0.49999987491E+02 0.  0.
         12    1    1    2    0    0 -0.26049834144E+02  0.73473666588E+01  0.16856552053E+02  0.31886062831E+02  0.00000000000E+00 0. -1.
         11    1    3    3    0    0  0.20749867990E+02 -0.34281133677E+01 -0.67681701854E+01  0.22093372553E+02  0.51100000000E-03 0. -1.
        -11    1    3    3    0    0 -0.27615993677E+01  0.11686921407E+02 -0.14764371514E+02  0.19031479961E+02  0.51100000000E-03 0.  1.
        -12    1    3    3    0    0  0.80615655221E+01 -0.15606174698E+02  0.46759896464E+01  0.18177084655E+02  0.00000000000E+00 0.  1.
</event>
<event>
 7    1  0.7749294E-012  0.5930194E+02  0.7816164E-02  0.1266605E+00
        -11   -1    0    0    0    0  0.00000000000E+00  0.00000000000E+00  0.45593999997E+02  0.45594000000E+02  0.51100000000E-03 0.  1.
         11   -1    0    0    0    0 -0.00000000000E+00 -0.00000000000E+00 -0.45593999997E+02  0.45594000000E+02  0.51100000000E-03 0. -1.
    9900012    2    1    2    0    0  0.19094419053E+02  0.21667064463E+02  0.13515258493E+02  0.59301941392E+02  0.49999995192E+02 0.  0.
         12    1    1    2    0    0 -0.19094419053E+02 -0.21667064463E+02 -0.13515258493E+02  0.31886058608E+02  0.00000000000E+00 0. -1.
         11    1    3    3    0    0  0.99385515845E+01  0.13902284103E+02 -0.83356548700E+01  0.19013980468E+02  0.51100000000E-03 0. -1.
        -11    1    3    3    0    0  0.39901613762E+01 -0.10883596340E+02  0.16583375035E+02  0.20233200066E+02  0.51100000000E-03 0.  1.
        -12    1    3    3    0    0  0.51657060926E+01  0.18648376700E+02  0.52675383285E+01  0.20054760857E+02  0.00000000000E+00 0.  1.
</event>
<event>
 7    1  0.7749294E-012  0.5930193E+02  0.7816164E-02  0.1266605E+00
        -11   -1    0    0    0    0  0.00000000000E+00  0.00000000000E+00  0.45593999997E+02  0.45594000000E+02  0.51100000000E-03 0.  1.
         11   -1    0    0    0    0 -0.00000000000E+00 -0.00000000000E+00 -0.45593999997E+02  0.45594000000E+02  0.51100000000E-03 0. -1.
    9900012    2    1    2    0    0 -0.57142089873E+01 -0.14527129447E+02  0.27803443535E+02  0.59301934914E+02  0.49999983378E+02 0.  0.
         12    1    1    2    0    0  0.57142089873E+01  0.14527129447E+02 -0.27803443535E+02  0.31886065086E+02  0.00000000000E+00 0. -1.
         11    1    3    3    0    0  0.18960647674E+02 -0.10077230553E+02  0.10599594097E+02  0.23945941851E+02  0.51100000000E-03 0. -1.
        -11    1    3    3    0    0 -0.10879813006E+02  0.57551352707E+01  0.12546537658E+02  0.17575765147E+02  0.51100000000E-03 0.  1.
        -12    1    3    3    0    0 -0.13795043655E+02 -0.10205034164E+02  0.46573117790E+01  0.17780227916E+02  0.00000000000E+00 0.  1.
</event>
<event>
 7    1  0.7749294E-012  0.5930194E+02  0.7816164E-02  0.1266605E+00
        -11   -1    0    0    0    0  0.00000000000E+00  0.00000000000E+00  0.45593999997E+02  0.45594000000E+02  0.51100000000E-03 0. -1.
         11   -1    0    0    0    0 -0.00000000000E+00 -0.00000000000E+00 -0.45593999997E+02  0.45594000000E+02  0.51100000000E-03 0.  1.
    9900012    2    1    2    0    0  0.21299265494E+02 -0.11958994955E+02 -0.20494982852E+02  0.59301943595E+02  0.49999999212E+02 0.  0.
         12    1    1    2    0    0 -0.21299265494E+02  0.11958994955E+02  0.20494982852E+02  0.31886056405E+02  0.00000000000E+00 0. -1.
         11    1    3    3    0    0 -0.93867238079E+01  0.11738953345E+02 -0.87612162142E+00  0.15055935668E+02  0.51100000000E-03 0. -1.
        -11    1    3    3    0    0  0.20813893261E+02 -0.15322121938E+02 -0.17279926747E+02  0.31089892924E+02  0.51100000000E-03 0.  1.
        -12    1    3    3    0    0  0.98720960407E+01 -0.83758263619E+01 -0.23389344840E+01  0.13156115004E+02  0.00000000000E+00 0.  1.
</event>
<event>
 7    1  0.7749294E-012  0.5930195E+02  0.7816164E-02  0.1266605E+00
        -11   -1    0    0    0    0  0.00000000000E+00  0.00000000000E+00  0.45593999997E+02  0.45594000000E+02  0.51100000000E-03 0.  1.
         11   -1    0    0    0    0 -0.00000000000E+00 -0.00000000000E+00 -0.45593999997E+02  0.45594000000E+02  0.51100000000E-03 0. -1.
    9900012    2    1    2    0    0 -0.21418014322E+02 -0.13300386039E+02  0.19521487259E+02  0.59301951780E+02  0.50000014138E+02 0.  0.
         12    1    1    2    0    0  0.21418014322E+02  0.13300386039E+02 -0.19521487259E+02  0.31886048220E+02  0.00000000000E+00 0. -1.
         11    1    3    3    0    0 -0.13339999166E+02 -0.90123984723E+01  0.26131244293E+01  0.16309730945E+02  0.51100000000E-03 0. -1.
        -11    1    3    3    0    0  0.25757939807E+01  0.41582403017E+01  0.26117232547E+02  0.26571328782E+02  0.51100000000E-03 0.  1.
        -12    1    3    3    0    0 -0.10653809137E+02 -0.84462278679E+01 -0.92088697178E+01  0.16420892053E+02  0.00000000000E+00 0.  1.
</event>
<event>
 7    1  0.7749294E-012  0.5930194E+02  0.7816164E-02  0.1266605E+00
        -11   -1    0    0    0    0  0.00000000000E+00  0.00000000000E+00  0.45593999997E+02  0.45594000000E+02  0.51100000000E-03 0.  1.
         11   -1    0    0    0    0 -0.00000000000E+00 -0.00000000000E+00 -0.45593999997E+02  0.45594000000E+02  0.51100000000E-03 0. -1.
    9900012    2    1    2    0    0 -0.18694961200E+02  0.64250587455E+00  0.25822594641E+02  0.59301940632E+02  0.49999993806E+02 0.  0.
         12    1    1    2    0    0  0.18694961200E+02 -0.64250587455E+00 -0.25822594641E+02  0.31886059368E+02  0.00000000000E+00 0. -1.
         11    1    3    3    0    0  0.85727553836E+01  0.92856826618E+01  0.86292995258E+01  0.15302968599E+02  0.51100000000E-03 0. -1.
        -11    1    3    3    0    0 -0.12461502147E+02 -0.65840739523E+01  0.23796310615E+02  0.27656888196E+02  0.51100000000E-03 0.  1.
         12    1    3    3    0    0 -0.14806214437E+02 -0.20591028350E+01 -0.66030154999E+01  0.16342083837E+02  0.00000000000E+00 0. -1.
</event>
<event>
 7    1  0.7749294E-012  0.5930199E+02  0.7816164E-02  0.1266605E+00
        -11   -1    0    0    0    0  0.00000000000E+00  0.00000000000E+00  0.45593999997E+02  0.45594000000E+02  0.51100000000E-03 0.  1.
         11   -1    0    0    0    0 -0.00000000000E+00 -0.00000000000E+00 -0.45593999997E+02  0.45594000000E+02  0.51100000000E-03 0. -1.
    9900012    2    1    2    0    0 -0.31132077524E+02 -0.40592913617E+01 -0.55707861885E+01  0.59301988081E+02  0.50000080342E+02 0.  0.
         12    1    1    2    0    0  0.31132077524E+02  0.40592913617E+01  0.55707861885E+01  0.31886011919E+02  0.00000000000E+00 0. -1.
         11    1    3    3    0    0 -0.14312375305E+02  0.15189172670E+02 -0.33248535814E+01  0.21133142333E+02  0.51100000000E-03 0. -1.
        -11    1    3    3    0    0 -0.23041308450E+02 -0.19972378087E+02 -0.56928682922E+01  0.31019454077E+02  0.51100000000E-03 0.  1.
        -12    1    3    3    0    0  0.62216062309E+01  0.72391405619E+00  0.34469356852E+01  0.71493916714E+01  0.00000000000E+00 0.  1.
</event>
<event>
 7    1  0.7749294E-012  0.5930194E+02  0.7816164E-02  0.1266605E+00
        -11   -1    0    0    0    0  0.00000000000E+00  0.00000000000E+00  0.45593999997E+02  0.45594000000E+02  0.51100000000E-03 0.  1.
         11   -1    0    0    0    0 -0.00000000000E+00 -0.00000000000E+00 -0.45593999997E+02  0.45594000000E+02  0.51100000000E-03 0. -1.
    9900012    2    1    2    0    0  0.26038054743E+01 -0.69513404156E+01  0.31009993436E+02  0.59301943024E+02  0.49999998170E+02 0.  0.
         12    1    1    2    0    0 -0.26038054743E+01  0.69513404156E+01 -0.31009993436E+02  0.31886056976E+02  0.00000000000E+00 0. -1.
         11    1    3    3    0    0  0.73976101565E+01 -0.22746279883E+02  0.14054662078E+01  0.23960242488E+02  0.51100000000E-03 0. -1.
        -11    1    3    3    0    0 -0.72076616194E+01  0.12612094513E+02  0.26723677439E+02  0.30416611418E+02  0.51100000000E-03 0.  1.
         12    1    3    3    0    0  0.24138569372E+01  0.31828449545E+01  0.28808497901E+01  0.49250891191E+01  0.00000000000E+00 0. -1.
</event>
<event>
 7    1  0.7749294E-012  0.5930194E+02  0.7816164E-02  0.1266605E+00
        -11   -1    0    0    0    0  0.00000000000E+00  0.00000000000E+00  0.45593999997E+02  0.45594000000E+02  0.51100000000E-03 0.  1.
         11   -1    0    0    0    0 -0.00000000000E+00 -0.00000000000E+00 -0.45593999997E+02  0.45594000000E+02  0.51100000000E-03 0. -1.
    9900012    2    1    2    0    0  0.23125209392E+02 -0.21022487013E+02 -0.63245920119E+01  0.59301941389E+02  0.49999995187E+02 0.  0.
         12    1    1    2    0    0 -0.23125209392E+02  0.21022487013E+02  0.63245920119E+01  0.31886058611E+02  0.00000000000E+00 0. -1.
         11    1    3    3    0    0 -0.54706336817E+01 -0.14483240258E+02 -0.20561031231E+02  0.25738066882E+02  0.51100000000E-03 0. -1.
        -11    1    3    3    0    0  0.12426253869E+02 -0.53093601239E+01  0.99782820144E+01  0.16797833264E+02  0.51100000000E-03 0.  1.
         12    1    3    3    0    0  0.16169589205E+02 -0.12298866314E+01  0.42581572050E+01  0.16766041243E+02  0.00000000000E+00 0. -1.
</event>
<event>
 7    1  0.7749294E-012  0.5930195E+02  0.7816164E-02  0.1266605E+00
        -11   -1    0    0    0    0  0.00000000000E+00  0.00000000000E+00  0.45593999997E+02  0.45594000000E+02  0.51100000000E-03 0. -1.
         11   -1    0    0    0    0 -0.00000000000E+00 -0.00000000000E+00 -0.45593999997E+02  0.45594000000E+02  0.51100000000E-03 0.  1.
    9900012    2    1    2    0    0  0.26539654841E+02 -0.91756862423E+01 -0.15105420793E+02  0.59301949219E+02  0.50000009467E+02 0.  0.
         12    1    1    2    0    0 -0.26539654841E+02  0.91756862423E+01  0.15105420793E+02  0.31886050781E+02  0.00000000000E+00 0. -1.
         11    1    3    3    0    0  0.15106985795E+01  0.23860438675E+01  0.55174581377E+01  0.61982062001E+01  0.51100000000E-03 0.  1.
        -11    1    3    3    0    0 -0.48640727533E+01 -0.11381819012E+02 -0.19614221629E+02  0.23193160590E+02  0.51100000000E-03 0. -1.
        -12    1    3    3    0    0  0.29893029015E+02 -0.17991109767E+00 -0.10086573012E+01  0.29910582429E+02  0.00000000000E+00 0.  1.
</event>
<event>
 7    1  0.7749294E-012  0.5930191E+02  0.7816164E-02  0.1266605E+00
        -11   -1    0    0    0    0  0.00000000000E+00  0.00000000000E+00  0.45593999997E+02  0.45594000000E+02  0.51100000000E-03 0. -1.
         11   -1    0    0    0    0 -0.00000000000E+00 -0.00000000000E+00 -0.45593999997E+02  0.45594000000E+02  0.51100000000E-03 0.  1.
    9900012    2    1    2    0    0  0.27296917116E+02  0.56513442723E+00 -0.16470629445E+02  0.59301910630E+02  0.49999939091E+02 0.  0.
         12    1    1    2    0    0 -0.27296917116E+02 -0.56513442723E+00  0.16470629445E+02  0.31886089370E+02  0.00000000000E+00 0. -1.
         11    1    3    3    0    0  0.22009870505E+01  0.55371627367E+01 -0.17010004214E+02  0.18023450246E+02  0.51100000000E-03 0.  1.
        -11    1    3    3    0    0  0.14684426013E+02 -0.11035645322E+02  0.14086672601E+02  0.23148481165E+02  0.51100000000E-03 0. -1.
         12    1    3    3    0    0  0.10411504052E+02  0.60636170129E+01 -0.13547297833E+02  0.18129979219E+02  0.00000000000E+00 0. -1.
</event>
<event>
 7    1  0.7749294E-012  0.5930196E+02  0.7816164E-02  0.1266605E+00
        -11   -1    0    0    0    0  0.00000000000E+00  0.00000000000E+00  0.45593999997E+02  0.45594000000E+02  0.51100000000E-03 0. -1.
         11   -1    0    0    0    0 -0.00000000000E+00 -0.00000000000E+00 -0.45593999997E+02  0.45594000000E+02  0.51100000000E-03 0.  1.
    9900012    2    1    2    0    0  0.15218481617E+02  0.21643140198E+02 -0.17795837870E+02  0.59301960016E+02  0.50000029158E+02 0.  0.
         12    1    1    2    0    0 -0.15218481617E+02 -0.21643140198E+02  0.17795837870E+02  0.31886039984E+02  0.00000000000E+00 0. -1.
         11    1    3    3    0    0 -0.81526843202E+00  0.31538466160E+01 -0.12428243385E+02  0.12848059970E+02  0.51100000000E-03 0. -1.
        -11    1    3    3    0    0  0.16371504368E+02  0.53035917182E+00  0.12888614831E+02  0.20842836387E+02  0.51100000000E-03 0.  1.
        -12    1    3    3    0    0 -0.33775431916E+00  0.17958934411E+02 -0.18256209316E+02  0.25611063659E+02  0.00000000000E+00 0.  1.
</event>
<event>
 7    1  0.7749294E-012  0.5930195E+02  0.7816164E-02  0.1266605E+00
        -11   -1    0    0    0    0  0.00000000000E+00  0.00000000000E+00  0.45593999997E+02  0.45594000000E+02  0.51100000000E-03 0.  1.
         11   -1    0    0    0    0 -0.00000000000E+00 -0.00000000000E+00 -0.45593999997E+02  0.45594000000E+02  0.51100000000E-03 0. -1.
    9900012    2    1    2    0    0 -0.19307680354E+02 -0.23258512427E+02  0.10147681516E+02  0.59301947232E+02  0.50000005843E+02 0.  0.
         12    1    1    2    0    0  0.19307680354E+02  0.23258512427E+02 -0.10147681516E+02  0.31886052768E+02  0.00000000000E+00 0. -1.
         11    1    3    3    0    0 -0.25106052368E+02  0.23438482314E+01  0.11285318542E+02  0.27625457550E+02  0.51100000000E-03 0.  1.
        -11    1    3    3    0    0  0.94983638224E+01 -0.13313874873E+02 -0.67199650141E+01  0.17681518869E+02  0.51100000000E-03 0. -1.
         12    1    3    3    0    0 -0.36999918090E+01 -0.12288485785E+02  0.55823279886E+01  0.13994970813E+02  0.00000000000E+00 0. -1.
</event>
<event>
 7    1  0.7749294E-012  0.5930195E+02  0.7816164E-02  0.1266605E+00
        -11   -1    0    0    0    0  0.00000000000E+00  0.00000000000E+00  0.45593999997E+02  0.45594000000E+02  0.51100000000E-03 0. -1.
         11   -1    0    0    0    0 -0.00000000000E+00 -0.00000000000E+00 -0.45593999997E+02  0.45594000000E+02  0.51100000000E-03 0.  1.
    9900012    2    1    2    0    0 -0.15815712682E+02 -0.23936824366E+02 -0.13914457225E+02  0.59301945866E+02  0.50000003352E+02 0.  0.
         12    1    1    2    0    0  0.15815712682E+02  0.23936824366E+02  0.13914457225E+02  0.31886054134E+02  0.00000000000E+00 0. -1.
         11    1    3    3    0    0  0.32631540526E+01 -0.39403853107E+01 -0.69413183074E+01  0.86230337395E+01  0.51100000000E-03 0. -1.
        -11    1    3    3    0    0 -0.21390210048E+02 -0.79996380175E+00  0.11187451388E+02  0.24152434593E+02  0.51100000000E-03 0.  1.
        -12    1    3    3    0    0  0.23113433126E+01 -0.19196475253E+02 -0.18160590306E+02  0.26526477533E+02  0.00000000000E+00 0.  1.
</event>
<event>
 7    1  0.7749294E-012  0.5930226E+02  0.7816164E-02  0.1266604E+00
        -11   -1    0    0    0    0  0.00000000000E+00  0.00000000000E+00  0.45593999997E+02  0.45594000000E+02  0.51100000000E-03 0.  1.
         11   -1    0    0    0    0 -0.00000000000E+00 -0.00000000000E+00 -0.45593999997E+02  0.45594000000E+02  0.51100000000E-03 0. -1.
    9900012    2    1    2    0    0 -0.74730463640E+01  0.29190361030E+02  0.10429623488E+02  0.59302256397E+02  0.50000569684E+02 0.  0.
         12    1    1    2    0    0  0.74730463640E+01 -0.29190361030E+02 -0.10429623488E+02  0.31885743603E+02  0.00000000000E+00 0. -1.
         11    1    3    3    0    0 -0.23132675500E+02  0.12608353526E+02 -0.55589154147E+01  0.26925690247E+02  0.51100000000E-03 0. -1.
        -11    1    3    3    0    0  0.88561678170E+01  0.18962958644E+02  0.11408777519E+02  0.23836646444E+02  0.51100000000E-03 0.  1.
         12    1    3    3    0    0  0.68034613193E+01 -0.23809511407E+01  0.45797613837E+01  0.85399197062E+01  0.00000000000E+00 0. -1.
</event>
<event>
 7    1  0.7749294E-012  0.5930196E+02  0.7816164E-02  0.1266605E+00
        -11   -1    0    0    0    0  0.00000000000E+00  0.00000000000E+00  0.45593999997E+02  0.45594000000E+02  0.51100000000E-03 0.  1.
         11   -1    0    0    0    0 -0.00000000000E+00 -0.00000000000E+00 -0.45593999997E+02  0.45594000000E+02  0.51100000000E-03 0. -1.
    9900012    2    1    2    0    0  0.16661152556E+02  0.11649599593E+02  0.24564456410E+02  0.59301957695E+02  0.50000024925E+02 0.  0.
         12    1    1    2    0    0 -0.16661152556E+02 -0.11649599593E+02 -0.24564456410E+02  0.31886042305E+02  0.00000000000E+00 0. -1.
         11    1    3    3    0    0 -0.82247254583E+01  0.14691731684E+02  0.99693892372E+01  0.19567365964E+02  0.51100000000E-03 0.  1.
        -11    1    3    3    0    0  0.11657195595E+02 -0.15035357110E+02  0.88009097996E+01  0.20962065407E+02  0.51100000000E-03 0. -1.
         12    1    3    3    0    0  0.13228682419E+02  0.11993225019E+02  0.57941573735E+01  0.18772526324E+02  0.00000000000E+00 0. -1.
</event>
<event>
 7    1  0.7749294E-012  0.5930195E+02  0.7816164E-02  0.1266605E+00
        -11   -1    0    0    0    0  0.00000000000E+00  0.00000000000E+00  0.45593999997E+02  0.45594000000E+02  0.51100000000E-03 0. -1.
         11   -1    0    0    0    0 -0.00000000000E+00 -0.00000000000E+00 -0.45593999997E+02  0.45594000000E+02  0.51100000000E-03 0.  1.
    9900012    2    1    2    0    0  0.26480801975E+02  0.16585464043E+02 -0.63568867457E+01  0.59301945056E+02  0.50000001876E+02 0.  0.
         12    1    1    2    0    0 -0.26480801975E+02 -0.16585464043E+02  0.63568867457E+01  0.31886054944E+02  0.00000000000E+00 0. -1.
         11    1    3    3    0    0  0.14803989855E+02  0.19294072911E+02 -0.21355414575E+02  0.32364689046E+02  0.51100000000E-03 0. -1.
        -11    1    3    3    0    0  0.15381589093E+02 -0.39517130856E+01  0.57378720110E+01  0.16885866718E+02  0.51100000000E-03 0.  1.
         12    1    3    3    0    0 -0.37047769726E+01  0.12431042180E+01  0.92606558187E+01  0.10051389292E+02  0.00000000000E+00 0. -1.
</event>
<event>
 7    1  0.7749294E-012  0.5930193E+02  0.7816164E-02  0.1266605E+00
        -11   -1    0    0    0    0  0.00000000000E+00  0.00000000000E+00  0.45593999997E+02  0.45594000000E+02  0.51100000000E-03 0. -1.
         11   -1    0    0    0    0 -0.00000000000E+00 -0.00000000000E+00 -0.45593999997E+02  0.45594000000E+02  0.51100000000E-03 0.  1.
    9900012    2    1    2    0    0  0.67733800888E+01  0.31122361062E+02 -0.14970645980E+01  0.59301933477E+02  0.49999980757E+02 0.  0.
         12    1    1    2    0    0 -0.67733800888E+01 -0.31122361062E+02  0.14970645980E+01  0.31886066523E+02  0.00000000000E+00 0. -1.
         11    1    3    3    0    0 -0.13556077568E+02  0.17141039149E+02  0.15419314224E+02  0.26745798054E+02  0.51100000000E-03 0. -1.
        -11    1    3    3    0    0  0.14802841209E+02  0.26282361750E+01 -0.10895779812E+02  0.18567437928E+02  0.51100000000E-03 0.  1.
         12    1    3    3    0    0  0.55266164486E+01  0.11353085738E+02 -0.60205990100E+01  0.13988697494E+02  0.00000000000E+00 0. -1.
</event>
<event>
 7    1  0.7749294E-012  0.5930200E+02  0.7816164E-02  0.1266605E+00
        -11   -1    0    0    0    0  0.00000000000E+00  0.00000000000E+00  0.45593999997E+02  0.45594000000E+02  0.51100000000E-03 0. -1.
         11   -1    0    0    0    0 -0.00000000000E+00 -0.00000000000E+00 -0.45593999997E+02  0.45594000000E+02  0.51100000000E-03 0.  1.
    9900012    2    1    2    0    0  0.82533478731E+01 -0.30799288919E+02 -0.53545013745E-01  0.59302002821E+02  0.50000107225E+02 0.  0.
         12    1    1    2    0    0 -0.82533478731E+01  0.30799288919E+02  0.53545013745E-01  0.31885997179E+02  0.00000000000E+00 0. -1.
         11    1    3    3    0    0 -0.45487093224E+01 -0.38458365245E+02 -0.40353644032E+01  0.38936111516E+02  0.51100000000E-03 0.  1.
        -11    1    3    3    0    0  0.48950096183E+01  0.10232374680E+02  0.40675380865E+01  0.12050206517E+02  0.51100000000E-03 0. -1.
        -12    1    3    3    0    0  0.79070475772E+01 -0.25732983533E+01 -0.85718697039E-01  0.83156847883E+01  0.00000000000E+00 0.  1.
</event>
<event>
 7    1  0.7749294E-012  0.5930194E+02  0.7816164E-02  0.1266605E+00
        -11   -1    0    0    0    0  0.00000000000E+00  0.00000000000E+00  0.45593999997E+02  0.45594000000E+02  0.51100000000E-03 0. -1.
         11   -1    0    0    0    0 -0.00000000000E+00 -0.00000000000E+00 -0.45593999997E+02  0.45594000000E+02  0.51100000000E-03 0.  1.
    9900012    2    1    2    0    0 -0.13992533459E+02 -0.57812314565E+01 -0.28062562455E+02  0.59301936566E+02  0.49999986392E+02 0.  0.
         12    1    1    2    0    0  0.13992533459E+02  0.57812314565E+01  0.28062562455E+02  0.31886063434E+02  0.00000000000E+00 0. -1.
         11    1    3    3    0    0  0.37589889142E+01 -0.15104113483E+02 -0.10966406812E+02  0.19040123960E+02  0.51100000000E-03 0. -1.
        -11    1    3    3    0    0 -0.24553657313E+02 -0.12119282526E+00 -0.13795961368E+02  0.28164256168E+02  0.51100000000E-03 0.  1.
         12    1    3    3    0    0  0.68021349397E+01  0.94440748520E+01 -0.33001942749E+01  0.12097556439E+02  0.00000000000E+00 0. -1.
</event>
<event>
 7    1  0.7749294E-012  0.5930195E+02  0.7816164E-02  0.1266605E+00
        -11   -1    0    0    0    0  0.00000000000E+00  0.00000000000E+00  0.45593999997E+02  0.45594000000E+02  0.51100000000E-03 0. -1.
         11   -1    0    0    0    0 -0.00000000000E+00 -0.00000000000E+00 -0.45593999997E+02  0.45594000000E+02  0.51100000000E-03 0.  1.
    9900012    2    1    2    0    0  0.18673551316E+02  0.25844764506E+02 -0.25877565499E+00  0.59301947626E+02  0.50000006563E+02 0.  0.
         12    1    1    2    0    0 -0.18673551316E+02 -0.25844764506E+02  0.25877565499E+00  0.31886052374E+02  0.00000000000E+00 0. -1.
         11    1    3    3    0    0  0.14016886057E+02  0.13656643965E+02  0.93039540696E-01  0.19570019820E+02  0.51100000000E-03 0. -1.
        -11    1    3    3    0    0  0.77791757753E+01 -0.92931425170E+01 -0.10251916621E+02  0.15873873763E+02  0.51100000000E-03 0.  1.
        -12    1    3    3    0    0 -0.31225105163E+01  0.21481263058E+02  0.99001014257E+01  0.23858054043E+02  0.00000000000E+00 0.  1.
</event>
<event>
 7    1  0.7749294E-012  0.5930192E+02  0.7816164E-02  0.1266605E+00
        -11   -1    0    0    0    0  0.00000000000E+00  0.00000000000E+00  0.45593999997E+02  0.45594000000E+02  0.51100000000E-03 0. -1.
         11   -1    0    0    0    0 -0.00000000000E+00 -0.00000000000E+00 -0.45593999997E+02  0.45594000000E+02  0.51100000000E-03 0.  1.
    9900012    2    1    2    0    0  0.30195720271E+02 -0.62120698331E+01 -0.81455786957E+01  0.59301924880E+02  0.49999965079E+02 0.  0.
         12    1    1    2    0    0 -0.30195720271E+02  0.62120698331E+01  0.81455786957E+01  0.31886075120E+02  0.00000000000E+00 0. -1.
         11    1    3    3    0    0  0.12907778107E+02 -0.98726167374E+01  0.44405707428E+01  0.16846304214E+02  0.51100000000E-03 0. -1.
        -11    1    3    3    0    0 -0.40390359605E+01  0.12096881583E+02  0.48509546569E+01  0.13644783504E+02  0.51100000000E-03 0.  1.
        -12    1    3    3    0    0  0.21326978124E+02 -0.84363346784E+01 -0.17437104095E+02  0.28810837162E+02  0.00000000000E+00 0.  1.
</event>
<event>
 7    1  0.7749294E-012  0.5930201E+02  0.7816164E-02  0.1266605E+00
        -11   -1    0    0    0    0  0.00000000000E+00  0.00000000000E+00  0.45593999997E+02  0.45594000000E+02  0.51100000000E-03 0. -1.
         11   -1    0    0    0    0 -0.00000000000E+00 -0.00000000000E+00 -0.45593999997E+02  0.45594000000E+02  0.51100000000E-03 0.  1.
    9900012    2    1    2    0    0  0.26703936358E+02 -0.14831742963E+02  0.91452400957E+01  0.59302011969E+02  0.50000123908E+02 0.  0.
         12    1    1    2    0    0 -0.26703936358E+02  0.14831742963E+02 -0.91452400957E+01  0.31885988031E+02  0.00000000000E+00 0. -1.
         11    1    3    3    0    0 -0.84883021201E+01 -0.81516048313E+01 -0.79092543811E+01  0.14179430148E+02  0.51100000000E-03 0. -1.
        -11    1    3    3    0    0  0.29629181835E+02  0.26768434516E+01  0.76025008036E+01  0.30705893991E+02  0.51100000000E-03 0.  1.
         12    1    3    3    0    0  0.55630566429E+01 -0.93569815831E+01  0.94519936732E+01  0.14416687829E+02  0.00000000000E+00 0. -1.
</event>
<event>
 7    1  0.7749294E-012  0.5930193E+02  0.7816164E-02  0.1266605E+00
        -11   -1    0    0    0    0  0.00000000000E+00  0.00000000000E+00  0.45593999997E+02  0.45594000000E+02  0.51100000000E-03 0. -1.
         11   -1    0    0    0    0 -0.00000000000E+00 -0.00000000000E+00 -0.45593999997E+02  0.45594000000E+02  0.51100000000E-03 0.  1.
    9900012    2    1    2    0    0  0.50414070060E+01  0.13692589816E+02 -0.28351698053E+02  0.59301928073E+02  0.49999970902E+02 0.  0.
         12    1    1    2    0    0 -0.50414070060E+01 -0.13692589816E+02  0.28351698053E+02  0.31886071927E+02  0.00000000000E+00 0. -1.
         11    1    3    3    0    0 -0.19996282590E+02 -0.40918716650E+01 -0.10324108355E+02  0.22873170850E+02  0.51100000000E-03 0. -1.
        -11    1    3    3    0    0  0.12683026776E+02  0.60812961502E+01 -0.47563563755E+01  0.14848038837E+02  0.51100000000E-03 0.  1.
         12    1    3    3    0    0  0.12354662821E+02  0.11703165331E+02 -0.13271233322E+02  0.21580718386E+02  0.00000000000E+00 0. -1.
</event>
<event>
 7    1  0.7749294E-012  0.5930193E+02  0.7816164E-02  0.1266605E+00
        -11   -1    0    0    0    0  0.00000000000E+00  0.00000000000E+00  0.45593999997E+02  0.45594000000E+02  0.51100000000E-03 0. -1.
         11   -1    0    0    0    0 -0.00000000000E+00 -0.00000000000E+00 -0.45593999997E+02  0.45594000000E+02  0.51100000000E-03 0.  1.
    9900012    2    1    2    0    0  0.30441101239E+02 -0.92422469259E+01  0.21544984548E+01  0.59301927234E+02  0.49999969371E+02 0.  0.
         12    1    1    2    0    0 -0.30441101239E+02  0.92422469259E+01 -0.21544984548E+01  0.31886072766E+02  0.00000000000E+00 0. -1.
         11    1    3    3    0    0 -0.78601912168E+01 -0.11447472452E+02 -0.10840913275E+02  0.17616828103E+02  0.51100000000E-03 0.  1.
        -11    1    3    3    0    0  0.19223857149E+02 -0.55649450451E+00  0.11367363275E+02  0.22340172736E+02  0.51100000000E-03 0. -1.
        -12    1    3    3    0    0  0.19077435307E+02  0.27617200306E+01  0.16280484549E+01  0.19344926394E+02  0.00000000000E+00 0.  1.
</event>
<event>
 7    1  0.7749294E-012  0.5930194E+02  0.7816164E-02  0.1266605E+00
        -11   -1    0    0    0    0  0.00000000000E+00  0.00000000000E+00  0.45593999997E+02  0.45594000000E+02  0.51100000000E-03 0.  1.
         11   -1    0    0    0    0 -0.00000000000E+00 -0.00000000000E+00 -0.45593999997E+02  0.45594000000E+02  0.51100000000E-03 0. -1.
    9900012    2    1    2    0    0  0.12763774759E+01  0.29764661330E+02 -0.11364709797E+02  0.59301939843E+02  0.49999992369E+02 0.  0.
         12    1    1    2    0    0 -0.12763774759E+01 -0.29764661330E+02  0.11364709797E+02  0.31886060157E+02  0.00000000000E+00 0. -1.
         11    1    3    3    0    0 -0.22154068768E+01  0.33300136848E+02 -0.22207983464E+01  0.33447557269E+02  0.51100000000E-03 0. -1.
        -11    1    3    3    0    0  0.81947458337E+01  0.34298051507E+01  0.44010017818E+01  0.99139416780E+01  0.51100000000E-03 0.  1.
         12    1    3    3    0    0 -0.47029614810E+01 -0.69652806689E+01 -0.13544913233E+02  0.15940440896E+02  0.00000000000E+00 0. -1.
</event>
<event>
 7    1  0.7749294E-012  0.5930185E+02  0.7816164E-02  0.1266605E+00
        -11   -1    0    0    0    0  0.00000000000E+00  0.00000000000E+00  0.45593999997E+02  0.45594000000E+02  0.51100000000E-03 0. -1.
         11   -1    0    0    0    0 -0.00000000000E+00 -0.00000000000E+00 -0.45593999997E+02  0.45594000000E+02  0.51100000000E-03 0.  1.
    9900012    2    1    2    0    0 -0.98517020741E+00  0.29060840703E+02 -0.13085243193E+02  0.59301849211E+02  0.49999827077E+02 0.  0.
         12    1    1    2    0    0  0.98517020741E+00 -0.29060840703E+02  0.13085243193E+02  0.31886150789E+02  0.00000000000E+00 0. -1.
         11    1    3    3    0    0 -0.17452805067E+01  0.39182417440E+01  0.70096943126E+01  0.82179338661E+01  0.51100000000E-03 0. -1.
        -11    1    3    3    0    0  0.47722543927E+01  0.35482203788E+02 -0.14114525609E+02  0.38483516356E+02  0.51100000000E-03 0.  1.
        -12    1    3    3    0    0 -0.40121440934E+01 -0.10339604829E+02 -0.59804118962E+01  0.12600398990E+02  0.00000000000E+00 0.  1.
</event>
<event>
 7    1  0.7749294E-012  0.5930196E+02  0.7816164E-02  0.1266605E+00
        -11   -1    0    0    0    0  0.00000000000E+00  0.00000000000E+00  0.45593999997E+02  0.45594000000E+02  0.51100000000E-03 0.  1.
         11   -1    0    0    0    0 -0.00000000000E+00 -0.00000000000E+00 -0.45593999997E+02  0.45594000000E+02  0.51100000000E-03 0. -1.
    9900012    2    1    2    0    0  0.15794899859E+00  0.31706484098E+02  0.33754678757E+01  0.59301955010E+02  0.50000020029E+02 0.  0.
         12    1    1    2    0    0 -0.15794899859E+00 -0.31706484098E+02 -0.33754678757E+01  0.31886044990E+02  0.00000000000E+00 0. -1.
         11    1    3    3    0    0  0.13108532307E+02  0.10044809803E+02  0.53933015548E+01  0.17372953840E+02  0.51100000000E-03 0. -1.
        -11    1    3    3    0    0 -0.19342620959E+02  0.25320133371E+02 -0.75168872051E+01  0.32737588992E+02  0.51100000000E-03 0.  1.
        -12    1    3    3    0    0  0.63920376514E+01 -0.36584590754E+01  0.54990535260E+01  0.91914121780E+01  0.00000000000E+00 0.  1.
</event>
<event>
 7    1  0.7749294E-012  0.5930195E+02  0.7816164E-02  0.1266605E+00
        -11   -1    0    0    0    0  0.00000000000E+00  0.00000000000E+00  0.45593999997E+02  0.45594000000E+02  0.51100000000E-03 0. -1.
         11   -1    0    0    0    0 -0.00000000000E+00 -0.00000000000E+00 -0.45593999997E+02  0.45594000000E+02  0.51100000000E-03 0.  1.
    9900012    2    1    2    0    0  0.26225667325E+02 -0.17601802787E+02 -0.43716408121E+01  0.59301947699E+02  0.50000006695E+02 0.  0.
         12    1    1    2    0    0 -0.26225667325E+02  0.17601802787E+02  0.43716408121E+01  0.31886052301E+02  0.00000000000E+00 0. -1.
         11    1    3    3    0    0 -0.74237892702E+01 -0.29998011483E+01  0.11242203363E+02  0.13802122691E+02  0.51100000000E-03 0. -1.
        -11    1    3    3    0    0  0.28498403671E+02 -0.74357107613E+01 -0.20042867422E+02  0.35625346891E+02  0.51100000000E-03 0.  1.
         12    1    3    3    0    0  0.51510529243E+01 -0.71662908770E+01  0.44290232467E+01  0.98744781170E+01  0.00000000000E+00 0. -1.
</event>
<event>
 7    1  0.7749294E-012  0.5930196E+02  0.7816164E-02  0.1266605E+00
        -11   -1    0    0    0    0  0.00000000000E+00  0.00000000000E+00  0.45593999997E+02  0.45594000000E+02  0.51100000000E-03 0. -1.
         11   -1    0    0    0    0 -0.00000000000E+00 -0.00000000000E+00 -0.45593999997E+02  0.45594000000E+02  0.51100000000E-03 0.  1.
    9900012    2    1    2    0    0 -0.77125517944E+01 -0.86413417655E+01 -0.29707966127E+02  0.59301960827E+02  0.50000030639E+02 0.  0.
         12    1    1    2    0    0  0.77125517944E+01  0.86413417655E+01  0.29707966127E+02  0.31886039173E+02  0.00000000000E+00 0. -1.
         11    1    3    3    0    0  0.33611346323E+00 -0.11542749731E+02  0.92981481711E+01  0.14825774964E+02  0.51100000000E-03 0. -1.
        -11    1    3    3    0    0 -0.32011111502E+01 -0.84360433308E+01 -0.15631839919E+02  0.18049054246E+02  0.51100000000E-03 0.  1.
         12    1    3    3    0    0 -0.48475541074E+01  0.11337451297E+02 -0.23374274380E+02  0.26427131617E+02  0.00000000000E+00 0. -1.
</event>
<event>
 7    1  0.7749294E-012  0.5930192E+02  0.7816164E-02  0.1266605E+00
        -11   -1    0    0    0    0  0.00000000000E+00  0.00000000000E+00  0.45593999997E+02  0.45594000000E+02  0.51100000000E-03 0.  1.
         11   -1    0    0    0    0 -0.00000000000E+00 -0.00000000000E+00 -0.45593999997E+02  0.45594000000E+02  0.51100000000E-03 0. -1.
    9900012    2    1    2    0    0 -0.94532127187E+01 -0.89205449409E+00  0.30439500984E+02  0.59301918208E+02  0.49999952911E+02 0.  0.
         12    1    1    2    0    0  0.94532127187E+01  0.89205449409E+00 -0.30439500984E+02  0.31886081792E+02  0.00000000000E+00 0. -1.
         11    1    3    3    0    0 -0.10151782325E+02 -0.12166246342E+02 -0.11396760813E+01  0.15886317895E+02  0.51100000000E-03 0. -1.
        -11    1    3    3    0    0  0.34336853692E+01  0.14190960134E+01  0.32894599981E+02  0.33103757142E+02  0.51100000000E-03 0.  1.
        -12    1    3    3    0    0 -0.27351157631E+01  0.98550958344E+01 -0.13154229163E+01  0.10311843171E+02  0.00000000000E+00 0.  1.
</event>
<event>
 7    1  0.7749294E-012  0.5930191E+02  0.7816164E-02  0.1266605E+00
        -11   -1    0    0    0    0  0.00000000000E+00  0.00000000000E+00  0.45593999997E+02  0.45594000000E+02  0.51100000000E-03 0.  1.
         11   -1    0    0    0    0 -0.00000000000E+00 -0.00000000000E+00 -0.45593999997E+02  0.45594000000E+02  0.51100000000E-03 0. -1.
    9900012    2    1    2    0    0  0.16480284991E+02 -0.14597352352E+02  0.23065994353E+02  0.59301912367E+02  0.49999942258E+02 0.  0.
         12    1    1    2    0    0 -0.16480284991E+02  0.14597352352E+02 -0.23065994353E+02  0.31886087633E+02  0.00000000000E+00 0. -1.
         11    1    3    3    0    0 -0.28857752999E+01 -0.37398600351E+01 -0.32584439894E+01  0.57386156568E+01  0.51100000000E-03 0. -1.
        -11    1    3    3    0    0  0.22549936643E+02 -0.22819937641E+02  0.25807286705E+02  0.41173598870E+02  0.51100000000E-03 0.  1.
        -12    1    3    3    0    0 -0.31838763521E+01  0.11962445324E+02  0.51715163744E+00  0.12389697840E+02  0.00000000000E+00 0.  1.
</event>
<event>
 7    1  0.7749294E-012  0.5930194E+02  0.7816164E-02  0.1266605E+00
        -11   -1    0    0    0    0  0.00000000000E+00  0.00000000000E+00  0.45593999997E+02  0.45594000000E+02  0.51100000000E-03 0. -1.
         11   -1    0    0    0    0 -0.00000000000E+00 -0.00000000000E+00 -0.45593999997E+02  0.45594000000E+02  0.51100000000E-03 0.  1.
    9900012    2    1    2    0    0 -0.84573583082E+01  0.98037790246E-01 -0.30743845995E+02  0.59301943682E+02  0.49999999369E+02 0.  0.
         12    1    1    2    0    0  0.84573583082E+01 -0.98037790246E-01  0.30743845995E+02  0.31886056318E+02  0.00000000000E+00 0. -1.
         11    1    3    3    0    0 -0.75935400410E+00  0.90802015456E+00  0.60298624160E+01  0.61449459006E+01  0.51100000000E-03 0. -1.
        -11    1    3    3    0    0 -0.14670494490E+02 -0.15336831140E+01 -0.41933929646E+02  0.44452559525E+02  0.51100000000E-03 0.  1.
        -12    1    3    3    0    0  0.69724901859E+01  0.72370074964E+00  0.51602212348E+01  0.87044382564E+01  0.00000000000E+00 0.  1.
</event>
<event>
 7    1  0.7749294E-012  0.5930195E+02  0.7816164E-02  0.1266605E+00
        -11   -1    0    0    0    0  0.00000000000E+00  0.00000000000E+00  0.45593999997E+02  0.45594000000E+02  0.51100000000E-03 0.  1.
         11   -1    0    0    0    0 -0.00000000000E+00 -0.00000000000E+00 -0.45593999997E+02  0.45594000000E+02  0.51100000000E-03 0. -1.
    9900012    2    1    2    0    0 -0.12064257759E+02 -0.15219590304E+02  0.25289082134E+02  0.59301954158E+02  0.50000018475E+02 0.  0.
         12    1    1    2    0    0  0.12064257759E+02  0.15219590304E+02 -0.25289082134E+02  0.31886045842E+02  0.00000000000E+00 0. -1.
         11    1    3    3    0    0 -0.79737392230E+01 -0.71051988747E+01 -0.43783813126E+01  0.11542728942E+02  0.51100000000E-03 0. -1.
        -11    1    3    3    0    0  0.15074346468E+02  0.26947028266E+01  0.10383400230E+02  0.18501684934E+02  0.51100000000E-03 0.  1.
         12    1    3    3    0    0 -0.19164865005E+02 -0.10809094256E+02  0.19284063216E+02  0.29257540282E+02  0.00000000000E+00 0. -1.
</event>
<event>
 7    1  0.7749294E-012  0.5930191E+02  0.7816164E-02  0.1266605E+00
        -11   -1    0    0    0    0  0.00000000000E+00  0.00000000000E+00  0.45593999997E+02  0.45594000000E+02  0.51100000000E-03 0.  1.
         11   -1    0    0    0    0 -0.00000000000E+00 -0.00000000000E+00 -0.45593999997E+02  0.45594000000E+02  0.51100000000E-03 0. -1.
    9900012    2    1    2    0    0 -0.15358785012E+02  0.26857533721E+02 -0.77138565335E+01  0.59301906209E+02  0.49999931028E+02 0.  0.
         12    1    1    2    0    0  0.15358785012E+02 -0.26857533721E+02  0.77138565335E+01  0.31886093791E+02  0.00000000000E+00 0. -1.
         11    1    3    3    0    0 -0.64292628093E+01  0.65082493605E+01 -0.19360813160E+02  0.21413402730E+02  0.51100000000E-03 0. -1.
        -11    1    3    3    0    0 -0.18718056433E+02  0.17984586996E+02  0.77425811721E+01  0.27087978321E+02  0.51100000000E-03 0.  1.
        -12    1    3    3    0    0  0.97885342303E+01  0.23646973644E+01  0.39043754543E+01  0.10800525158E+02  0.00000000000E+00 0.  1.
</event>
<event>
 7    1  0.7749294E-012  0.5930194E+02  0.7816164E-02  0.1266605E+00
        -11   -1    0    0    0    0  0.00000000000E+00  0.00000000000E+00  0.45593999997E+02  0.45594000000E+02  0.51100000000E-03 0. -1.
         11   -1    0    0    0    0 -0.00000000000E+00 -0.00000000000E+00 -0.45593999997E+02  0.45594000000E+02  0.51100000000E-03 0.  1.
    9900012    2    1    2    0    0 -0.18441531674E+02  0.10779309080E+02 -0.23673552370E+02  0.59301942286E+02  0.49999996823E+02 0.  0.
         12    1    1    2    0    0  0.18441531674E+02 -0.10779309080E+02  0.23673552370E+02  0.31886057714E+02  0.00000000000E+00 0. -1.
         11    1    3    3    0    0 -0.16536939144E+02  0.19967179607E+02 -0.60311834576E+01  0.26618298065E+02  0.51100000000E-03 0. -1.
        -11    1    3    3    0    0 -0.60793089684E+00 -0.94654809232E+01 -0.24200461840E+02  0.25992830985E+02  0.51100000000E-03 0.  1.
         12    1    3    3    0    0 -0.12966616327E+01  0.27761039622E+00  0.65580929271E+01  0.66908132363E+01  0.00000000000E+00 0. -1.
</event>
<event>
 7    1  0.8154358E-012  0.5930195E+02  0.7816164E-02  0.1266605E+00
        -11   -1    0    0    0    0  0.00000000000E+00  0.00000000000E+00  0.45593999997E+02  0.45594000000E+02  0.51100000000E-03 0.  1.
         11   -1    0    0    0    0 -0.00000000000E+00 -0.00000000000E+00 -0.45593999997E+02  0.45594000000E+02  0.51100000000E-03 0. -1.
    9900012    2    1    2    0    0  0.11903999187E+02 -0.22041044386E+02  0.19728339880E+02  0.59301949309E+02  0.50000009631E+02 0.  0.
         12    1    1    2    0    0 -0.11903999187E+02  0.22041044386E+02 -0.19728339880E+02  0.31886050691E+02  0.00000000000E+00 0. -1.
         11    1    3    3    0    0 -0.12913689566E+02 -0.13441579777E+02  0.65427770745E+01  0.19754679881E+02  0.51100000000E-03 0. -1.
        -11    1    3    3    0    0  0.15010294387E+02 -0.71082823958E+01  0.21103215058E+02  0.26854837595E+02  0.51100000000E-03 0.  1.
         12    1    3    3    0    0  0.98073943652E+01 -0.14911822127E+01 -0.79176522524E+01  0.12692431832E+02  0.00000000000E+00 0. -1.
</event>
<event>
 7    1  0.7749294E-012  0.5930195E+02  0.7816164E-02  0.1266605E+00
        -11   -1    0    0    0    0  0.00000000000E+00  0.00000000000E+00  0.45593999997E+02  0.45594000000E+02  0.51100000000E-03 0.  1.
         11   -1    0    0    0    0 -0.00000000000E+00 -0.00000000000E+00 -0.45593999997E+02  0.45594000000E+02  0.51100000000E-03 0. -1.
    9900012    2    1    2    0    0 -0.52868931442E+01  0.35088506283E+01  0.31248310825E+02  0.59301949739E+02  0.50000010416E+02 0.  0.
         12    1    1    2    0    0  0.52868931442E+01 -0.35088506283E+01 -0.31248310825E+02  0.31886050261E+02  0.00000000000E+00 0. -1.
         11    1    3    3    0    0 -0.21552776413E+02  0.29707976036E+01 -0.84230235695E+00  0.21772856566E+02  0.51100000000E-03 0. -1.
        -11    1    3    3    0    0  0.11642616978E+02  0.23849529411E+01  0.29733818828E+02  0.32020907436E+02  0.51100000000E-03 0.  1.
         12    1    3    3    0    0  0.46232662903E+01 -0.18468999164E+01  0.23567943538E+01  0.55081857375E+01  0.00000000000E+00 0. -1.
</event>
<event>
 7    1  0.7749294E-012  0.5930191E+02  0.7816164E-02  0.1266605E+00
        -11   -1    0    0    0    0  0.00000000000E+00  0.00000000000E+00  0.45593999997E+02  0.45594000000E+02  0.51100000000E-03 0. -1.
         11   -1    0    0    0    0 -0.00000000000E+00 -0.00000000000E+00 -0.45593999997E+02  0.45594000000E+02  0.51100000000E-03 0.  1.
    9900012    2    1    2    0    0  0.29440612042E+02  0.12136018401E+02  0.16401505563E+01  0.59301910966E+02  0.49999939703E+02 0.  0.
         12    1    1    2    0    0 -0.29440612042E+02 -0.12136018401E+02 -0.16401505563E+01  0.31886089034E+02  0.00000000000E+00 0. -1.
         11    1    3    3    0    0  0.24863928045E+00 -0.62536369899E+01  0.15072023189E+02  0.16319794128E+02  0.51100000000E-03 0. -1.
        -11    1    3    3    0    0  0.25977153701E+02  0.42450561380E+01 -0.84349259871E+01  0.27640206090E+02  0.51100000000E-03 0.  1.
        -12    1    3    3    0    0  0.32148190603E+01  0.14144599253E+02 -0.49969466458E+01  0.15341910748E+02  0.00000000000E+00 0.  1.
</event>
<event>
 7    1  0.7749294E-012  0.5930190E+02  0.7816164E-02  0.1266605E+00
        -11   -1    0    0    0    0  0.00000000000E+00  0.00000000000E+00  0.45593999997E+02  0.45594000000E+02  0.51100000000E-03 0.  1.
         11   -1    0    0    0    0 -0.00000000000E+00 -0.00000000000E+00 -0.45593999997E+02  0.45594000000E+02  0.51100000000E-03 0. -1.
    9900012    2    1    2    0    0  0.99215600955E+01 -0.30296175762E+02  0.65415774755E+00  0.59301897339E+02  0.49999914851E+02 0.  0.
         12    1    1    2    0    0 -0.99215600955E+01  0.30296175762E+02 -0.65415774755E+00  0.31886102661E+02  0.00000000000E+00 0. -1.
         11    1    3    3    0    0 -0.10326551743E+01  0.78231442994E+01 -0.70562379621E+01  0.10585766759E+02  0.51100000000E-03 0. -1.
        -11    1    3    3    0    0  0.24093406806E+01 -0.17782303682E+02  0.17057500783E+02  0.24758303253E+02  0.51100000000E-03 0.  1.
        -12    1    3    3    0    0  0.85448745892E+01 -0.20337016379E+02 -0.93471050735E+01  0.23957827327E+02  0.00000000000E+00 0.  1.
</event>
<event>
 7    1  0.7749294E-012  0.5930194E+02  0.7816164E-02  0.1266605E+00
        -11   -1    0    0    0    0  0.00000000000E+00  0.00000000000E+00  0.45593999997E+02  0.45594000000E+02  0.51100000000E-03 0.  1.
         11   -1    0    0    0    0 -0.00000000000E+00 -0.00000000000E+00 -0.45593999997E+02  0.45594000000E+02  0.51100000000E-03 0. -1.
    9900012    2    1    2    0    0 -0.98731919715E+01  0.50761562562E+01  0.29891027360E+02  0.59301940371E+02  0.49999993331E+02 0.  0.
         12    1    1    2    0    0  0.98731919715E+01 -0.50761562562E+01 -0.29891027360E+02  0.31886059629E+02  0.00000000000E+00 0. -1.
         11    1    3    3    0    0  0.20728927421E+01  0.11207024468E+02  0.26641839440E+01  0.11704364916E+02  0.51100000000E-03 0. -1.
        -11    1    3    3    0    0 -0.47491387196E+01 -0.11340109592E+02  0.34174801734E+02  0.36318996103E+02  0.51100000000E-03 0.  1.
         12    1    3    3    0    0 -0.71969459939E+01  0.52092413803E+01 -0.69479583183E+01  0.11278579352E+02  0.00000000000E+00 0. -1.
</event>
<event>
 7    1  0.7749294E-012  0.5930195E+02  0.7816164E-02  0.1266605E+00
        -11   -1    0    0    0    0  0.00000000000E+00  0.00000000000E+00  0.45593999997E+02  0.45594000000E+02  0.51100000000E-03 0. -1.
         11   -1    0    0    0    0 -0.00000000000E+00 -0.00000000000E+00 -0.45593999997E+02  0.45594000000E+02  0.51100000000E-03 0.  1.
    9900012    2    1    2    0    0 -0.15808846447E+02  0.70993195741E+01 -0.26765650192E+02  0.59301952979E+02  0.50000016325E+02 0.  0.
         12    1    1    2    0    0  0.15808846447E+02 -0.70993195741E+01  0.26765650192E+02  0.31886047021E+02  0.00000000000E+00 0. -1.
         11    1    3    3    0    0 -0.13009151893E+02 -0.32400701676E+01 -0.53823039638E+01  0.14446635729E+02  0.51100000000E-03 0. -1.
        -11    1    3    3    0    0  0.96509421259E+00  0.85496985364E+01 -0.32164994992E+02  0.33295880451E+02  0.51100000000E-03 0.  1.
        -12    1    3    3    0    0 -0.37647887671E+01  0.17896912054E+01  0.10781648763E+02  0.11559436800E+02  0.00000000000E+00 0.  1.
</event>
<event>
 7    1  0.7749294E-012  0.5930196E+02  0.7816164E-02  0.1266605E+00
        -11   -1    0    0    0    0  0.00000000000E+00  0.00000000000E+00  0.45593999997E+02  0.45594000000E+02  0.51100000000E-03 0. -1.
         11   -1    0    0    0    0 -0.00000000000E+00 -0.00000000000E+00 -0.45593999997E+02  0.45594000000E+02  0.51100000000E-03 0.  1.
    9900012    2    1    2    0    0  0.14903300799E+02  0.56543597779E+01 -0.27615924170E+02  0.59301961880E+02  0.50000032559E+02 0.  0.
         12    1    1    2    0    0 -0.14903300799E+02 -0.56543597779E+01  0.27615924170E+02  0.31886038120E+02  0.00000000000E+00 0. -1.
         11    1    3    3    0    0  0.11061141087E+02 -0.10541396829E+02 -0.65399612750E+01  0.16620498879E+02  0.51100000000E-03 0. -1.
        -11    1    3    3    0    0 -0.75019292453E+01  0.21624498984E+02 -0.72915735140E+01  0.24022176073E+02  0.51100000000E-03 0.  1.
         12    1    3    3    0    0  0.11344088958E+02 -0.54287423773E+01 -0.13784389381E+02  0.18659286929E+02  0.00000000000E+00 0. -1.
</event>
<event>
 7    1  0.7749294E-012  0.5930204E+02  0.7816164E-02  0.1266604E+00
        -11   -1    0    0    0    0  0.00000000000E+00  0.00000000000E+00  0.45593999997E+02  0.45594000000E+02  0.51100000000E-03 0.  1.
         11   -1    0    0    0    0 -0.00000000000E+00 -0.00000000000E+00 -0.45593999997E+02  0.45594000000E+02  0.51100000000E-03 0. -1.
    9900012    2    1    2    0    0  0.17554451069E+02 -0.60695617558E+01  0.25917491937E+02  0.59302035681E+02  0.50000167154E+02 0.  0.
         12    1    1    2    0    0 -0.17554451069E+02  0.60695617558E+01 -0.25917491937E+02  0.31885964319E+02  0.00000000000E+00 0. -1.
         11    1    3    3    0    0  0.10878896939E+02  0.19818358107E+02  0.30666187409E+01  0.22814948333E+02  0.51100000000E-03 0. -1.
        -11    1    3    3    0    0  0.85304861016E+01 -0.19459165630E+02  0.20115522542E+02  0.29258546915E+02  0.51100000000E-03 0.  1.
         12    1    3    3    0    0 -0.18549319717E+01 -0.64287542325E+01  0.27353506537E+01  0.72285404337E+01  0.00000000000E+00 0. -1.
</event>
<event>
 7    1  0.7749294E-012  0.5930195E+02  0.7816164E-02  0.1266605E+00
        -11   -1    0    0    0    0  0.00000000000E+00  0.00000000000E+00  0.45593999997E+02  0.45594000000E+02  0.51100000000E-03 0.  1.
         11   -1    0    0    0    0 -0.00000000000E+00 -0.00000000000E+00 -0.45593999997E+02  0.45594000000E+02  0.51100000000E-03 0. -1.
    9900012    2    1    2    0    0  0.24889322250E+02 -0.39755998795E+01  0.19530405048E+02  0.59301945402E+02  0.50000002506E+02 0.  0.
         12    1    1    2    0    0 -0.24889322250E+02  0.39755998795E+01 -0.19530405048E+02  0.31886054598E+02  0.00000000000E+00 0. -1.
         11    1    3    3    0    0  0.30129054058E+02 -0.14058480653E+01  0.10657700113E+02  0.31989418237E+02  0.51100000000E-03 0. -1.
        -11    1    3    3    0    0 -0.79263867912E+00 -0.13552545858E+02  0.23205175057E+01  0.13772602408E+02  0.51100000000E-03 0.  1.
         12    1    3    3    0    0 -0.44470931284E+01  0.10982794044E+02  0.65521874297E+01  0.13539924757E+02  0.00000000000E+00 0. -1.
</event>
<event>
 7    1  0.7749294E-012  0.5930195E+02  0.7816164E-02  0.1266605E+00
        -11   -1    0    0    0    0  0.00000000000E+00  0.00000000000E+00  0.45593999997E+02  0.45594000000E+02  0.51100000000E-03 0.  1.
         11   -1    0    0    0    0 -0.00000000000E+00 -0.00000000000E+00 -0.45593999997E+02  0.45594000000E+02  0.51100000000E-03 0. -1.
    9900012    2    1    2    0    0 -0.79458463030E+00  0.23645642973E+02  0.21376918784E+02  0.59301945790E+02  0.50000003214E+02 0.  0.
         12    1    1    2    0    0  0.79458463030E+00 -0.23645642973E+02 -0.21376918784E+02  0.31886054210E+02  0.00000000000E+00 0. -1.
         11    1    3    3    0    0  0.27057286511E+01 -0.22675069568E+01 -0.68282470685E+01  0.76868402886E+01  0.51100000000E-03 0. -1.
        -11    1    3    3    0    0  0.46379357745E+01  0.32344206052E+02  0.19335324292E+02  0.37967260622E+02  0.51100000000E-03 0.  1.
        -12    1    3    3    0    0 -0.81382490559E+01 -0.64310561220E+01  0.88698415610E+01  0.13647844880E+02  0.00000000000E+00 0.  1.
</event>
<event>
 7    1  0.7749294E-012  0.5930192E+02  0.7816164E-02  0.1266605E+00
        -11   -1    0    0    0    0  0.00000000000E+00  0.00000000000E+00  0.45593999997E+02  0.45594000000E+02  0.51100000000E-03 0.  1.
         11   -1    0    0    0    0 -0.00000000000E+00 -0.00000000000E+00 -0.45593999997E+02  0.45594000000E+02  0.51100000000E-03 0. -1.
    9900012    2    1    2    0    0  0.27275346044E+02 -0.14833856645E+02  0.72618524813E+01  0.59301916731E+02  0.49999950217E+02 0.  0.
         12    1    1    2    0    0 -0.27275346044E+02  0.14833856645E+02 -0.72618524813E+01  0.31886083269E+02  0.00000000000E+00 0. -1.
         11    1    3    3    0    0  0.70545142290E+01 -0.73631436673E+00 -0.12471905318E+02  0.14347708960E+02  0.51100000000E-03 0. -1.
        -11    1    3    3    0    0  0.29018470946E+02 -0.10292220142E+02  0.15588861012E+02  0.34511071259E+02  0.51100000000E-03 0.  1.
        -12    1    3    3    0    0 -0.87976391309E+01 -0.38053221360E+01  0.41448967878E+01  0.10443136512E+02  0.00000000000E+00 0.  1.
</event>
<event>
 7    1  0.7749294E-012  0.5930195E+02  0.7816164E-02  0.1266605E+00
        -11   -1    0    0    0    0  0.00000000000E+00  0.00000000000E+00  0.45593999997E+02  0.45594000000E+02  0.51100000000E-03 0. -1.
         11   -1    0    0    0    0 -0.00000000000E+00 -0.00000000000E+00 -0.45593999997E+02  0.45594000000E+02  0.51100000000E-03 0.  1.
    9900012    2    1    2    0    0  0.14904147188E+02 -0.27948558943E+02 -0.36694609167E+01  0.59301945151E+02  0.50000002049E+02 0.  0.
         12    1    1    2    0    0 -0.14904147188E+02  0.27948558943E+02  0.36694609167E+01  0.31886054849E+02  0.00000000000E+00 0. -1.
         11    1    3    3    0    0  0.23155667820E+02 -0.10130023107E+02  0.11454878461E+02  0.27749172260E+02  0.51100000000E-03 0. -1.
        -11    1    3    3    0    0 -0.13104095247E+02 -0.14277138513E+02 -0.53914723652E+01  0.20115217396E+02  0.51100000000E-03 0.  1.
         12    1    3    3    0    0  0.48525746159E+01 -0.35413973239E+01 -0.97328670123E+01  0.11437555494E+02  0.00000000000E+00 0. -1.
</event>
<event>
 7    1  0.7749294E-012  0.5930197E+02  0.7816164E-02  0.1266605E+00
        -11   -1    0    0    0    0  0.00000000000E+00  0.00000000000E+00  0.45593999997E+02  0.45594000000E+02  0.51100000000E-03 0. -1.
         11   -1    0    0    0    0 -0.00000000000E+00 -0.00000000000E+00 -0.45593999997E+02  0.45594000000E+02  0.51100000000E-03 0.  1.
    9900012    2    1    2    0    0  0.65426898956E+01 -0.21019199481E+02 -0.23067410672E+02  0.59301968999E+02  0.50000045542E+02 0.  0.
         12    1    1    2    0    0 -0.65426898956E+01  0.21019199481E+02  0.23067410672E+02  0.31886031001E+02  0.00000000000E+00 0. -1.
         11    1    3    3    0    0  0.16011565865E+02  0.22058428256E+01  0.64474171051E+01  0.17401297986E+02  0.51100000000E-03 0. -1.
        -11    1    3    3    0    0 -0.12572102592E+02 -0.18983946332E+02 -0.17276991332E+02  0.28582204458E+02  0.51100000000E-03 0.  1.
         12    1    3    3    0    0  0.31032266228E+01 -0.42410959741E+01 -0.12237836445E+02  0.13318466556E+02  0.00000000000E+00 0. -1.
</event>
<event>
 7    1  0.7749294E-012  0.5930197E+02  0.7816164E-02  0.1266605E+00
        -11   -1    0    0    0    0  0.00000000000E+00  0.00000000000E+00  0.45593999997E+02  0.45594000000E+02  0.51100000000E-03 0. -1.
         11   -1    0    0    0    0 -0.00000000000E+00 -0.00000000000E+00 -0.45593999997E+02  0.45594000000E+02  0.51100000000E-03 0.  1.
    9900012    2    1    2    0    0 -0.30456455523E+02  0.14045281957E+01 -0.93354381265E+01  0.59301971908E+02  0.50000050846E+02 0.  0.
         12    1    1    2    0    0  0.30456455523E+02 -0.14045281957E+01  0.93354381265E+01  0.31886028092E+02  0.00000000000E+00 0. -1.
         11    1    3    3    0    0  0.25246695647E+01 -0.87238736879E+01 -0.22312741981E+01  0.93519256488E+01  0.51100000000E-03 0. -1.
        -11    1    3    3    0    0 -0.38930507935E+02  0.18638751276E+01 -0.77816305244E+01  0.39744336105E+02  0.51100000000E-03 0.  1.
        -12    1    3    3    0    0  0.59493828467E+01  0.82645267560E+01  0.67746659601E+00  0.10205710154E+02  0.00000000000E+00 0.  1.
</event>
<event>
 7    1  0.7749294E-012  0.5930195E+02  0.7816164E-02  0.1266605E+00
        -11   -1    0    0    0    0  0.00000000000E+00  0.00000000000E+00  0.45593999997E+02  0.45594000000E+02  0.51100000000E-03 0.  1.
         11   -1    0    0    0    0 -0.00000000000E+00 -0.00000000000E+00 -0.45593999997E+02  0.45594000000E+02  0.51100000000E-03 0. -1.
    9900012    2    1    2    0    0 -0.35704114817E+00  0.20832688986E+02  0.24136941057E+02  0.59301947683E+02  0.50000006667E+02 0.  0.
         12    1    1    2    0    0  0.35704114817E+00 -0.20832688986E+02 -0.24136941057E+02  0.31886052317E+02  0.00000000000E+00 0. -1.
         11    1    3    3    0    0 -0.14625912831E+02  0.29651863922E+02  0.11787720702E+02  0.35101292281E+02  0.51100000000E-03 0. -1.
        -11    1    3    3    0    0  0.21792378471E+01 -0.70617406990E+01  0.87736592144E+01  0.11471458302E+02  0.51100000000E-03 0.  1.
         12    1    3    3    0    0  0.12089633835E+02 -0.17574342371E+01  0.35755611405E+01  0.12729197101E+02  0.00000000000E+00 0. -1.
</event>
<event>
 7    1  0.7749294E-012  0.5930189E+02  0.7816164E-02  0.1266605E+00
        -11   -1    0    0    0    0  0.00000000000E+00  0.00000000000E+00  0.45593999997E+02  0.45594000000E+02  0.51100000000E-03 0. -1.
         11   -1    0    0    0    0 -0.00000000000E+00 -0.00000000000E+00 -0.45593999997E+02  0.45594000000E+02  0.51100000000E-03 0.  1.
    9900012    2    1    2    0    0  0.14252113066E+02  0.26163745984E+02  0.11360439688E+02  0.59301891416E+02  0.49999904048E+02 0.  0.
         12    1    1    2    0    0 -0.14252113066E+02 -0.26163745984E+02 -0.11360439688E+02  0.31886108584E+02  0.00000000000E+00 0. -1.
         11    1    3    3    0    0  0.42905570425E+01  0.35075534063E+02  0.10900471498E+02  0.36980024996E+02  0.51100000000E-03 0. -1.
        -11    1    3    3    0    0  0.12546735382E+02 -0.13673298226E+01 -0.39295142341E+01  0.13218594554E+02  0.51100000000E-03 0.  1.
        -12    1    3    3    0    0 -0.25851793593E+01 -0.75444582568E+01  0.43894824238E+01  0.91032718655E+01  0.00000000000E+00 0.  1.
</event>
<event>
 7    1  0.7749294E-012  0.5930196E+02  0.7816164E-02  0.1266605E+00
        -11   -1    0    0    0    0  0.00000000000E+00  0.00000000000E+00  0.45593999997E+02  0.45594000000E+02  0.51100000000E-03 0. -1.
         11   -1    0    0    0    0 -0.00000000000E+00 -0.00000000000E+00 -0.45593999997E+02  0.45594000000E+02  0.51100000000E-03 0.  1.
    9900012    2    1    2    0    0 -0.11737332419E+02 -0.20488052800E+02 -0.21428823024E+02  0.59301957034E+02  0.50000023720E+02 0.  0.
         12    1    1    2    0    0  0.11737332419E+02  0.20488052800E+02  0.21428823024E+02  0.31886042966E+02  0.00000000000E+00 0. -1.
         11    1    3    3    0    0 -0.15120184094E+02  0.15705806172E+01 -0.13038799048E+02  0.20027405508E+02  0.51100000000E-03 0. -1.
        -11    1    3    3    0    0 -0.23615831628E+01 -0.19033343672E+02  0.86499500537E+01  0.21039650248E+02  0.51100000000E-03 0.  1.
        -12    1    3    3    0    0  0.57444348382E+01 -0.30252897453E+01 -0.17039974031E+02  0.18234901278E+02  0.00000000000E+00 0.  1.
</event>
<event>
 7    1  0.7749294E-012  0.5930195E+02  0.7816164E-02  0.1266605E+00
        -11   -1    0    0    0    0  0.00000000000E+00  0.00000000000E+00  0.45593999997E+02  0.45594000000E+02  0.51100000000E-03 0.  1.
         11   -1    0    0    0    0 -0.00000000000E+00 -0.00000000000E+00 -0.45593999997E+02  0.45594000000E+02  0.51100000000E-03 0. -1.
    9900012    2    1    2    0    0 -0.25010329179E+02  0.10923776072E+02  0.16488622758E+02  0.59301950860E+02  0.50000012460E+02 0.  0.
         12    1    1    2    0    0  0.25010329179E+02 -0.10923776072E+02 -0.16488622758E+02  0.31886049140E+02  0.00000000000E+00 0. -1.
         11    1    3    3    0    0 -0.25848361742E+02 -0.14558373160E+02  0.67661378574E+01  0.30428024182E+02  0.51100000000E-03 0.  1.
        -11    1    3    3    0    0  0.50891394316E+01  0.15188821151E+02  0.64268371530E+01  0.17259891778E+02  0.51100000000E-03 0. -1.
        -12    1    3    3    0    0 -0.42511068685E+01  0.10293328081E+02  0.32956477472E+01  0.11614034900E+02  0.00000000000E+00 0.  1.
</event>
<event>
 7    1  0.7749294E-012  0.5930195E+02  0.7816164E-02  0.1266605E+00
        -11   -1    0    0    0    0  0.00000000000E+00  0.00000000000E+00  0.45593999997E+02  0.45594000000E+02  0.51100000000E-03 0. -1.
         11   -1    0    0    0    0 -0.00000000000E+00 -0.00000000000E+00 -0.45593999997E+02  0.45594000000E+02  0.51100000000E-03 0.  1.
    9900012    2    1    2    0    0  0.54740557973E+01 -0.29393294543E+02 -0.11081027305E+02  0.59301949490E+02  0.50000009963E+02 0.  0.
         12    1    1    2    0    0 -0.54740557973E+01  0.29393294543E+02  0.11081027305E+02  0.31886050510E+02  0.00000000000E+00 0. -1.
         11    1    3    3    0    0  0.59504966465E+00  0.61444990107E+01 -0.11616277024E+01  0.62815866926E+01  0.51100000000E-03 0. -1.
        -11    1    3    3    0    0 -0.58575717027E+01 -0.39462434048E+02 -0.38567465484E+01  0.40080785190E+02  0.51100000000E-03 0.  1.
        -12    1    3    3    0    0  0.10736577835E+02  0.39246404940E+01 -0.60626530544E+01  0.12939577608E+02  0.00000000000E+00 0.  1.
</event>
<event>
 7    1  0.7749294E-012  0.5930197E+02  0.7816164E-02  0.1266605E+00
        -11   -1    0    0    0    0  0.00000000000E+00  0.00000000000E+00  0.45593999997E+02  0.45594000000E+02  0.51100000000E-03 0.  1.
         11   -1    0    0    0    0 -0.00000000000E+00 -0.00000000000E+00 -0.45593999997E+02  0.45594000000E+02  0.51100000000E-03 0. -1.
    9900012    2    1    2    0    0  0.23804250908E+02  0.28562152982E+01  0.21021866838E+02  0.59301965244E+02  0.50000038693E+02 0.  0.
         12    1    1    2    0    0 -0.23804250908E+02 -0.28562152982E+01 -0.21021866838E+02  0.31886034756E+02  0.00000000000E+00 0. -1.
         11    1    3    3    0    0  0.22093821146E+01  0.94066590855E+00 -0.53068091881E+01  0.58248129326E+01  0.51100000000E-03 0. -1.
        -11    1    3    3    0    0 -0.66373343375E+01 -0.11134658441E+02  0.16240445277E+02  0.20779482399E+02  0.51100000000E-03 0.  1.
        -12    1    3    3    0    0  0.28232203131E+02  0.13050207830E+02  0.10088230749E+02  0.32697669912E+02  0.00000000000E+00 0.  1.
</event>
<event>
 7    1  0.7749294E-012  0.5930197E+02  0.7816164E-02  0.1266605E+00
        -11   -1    0    0    0    0  0.00000000000E+00  0.00000000000E+00  0.45593999997E+02  0.45594000000E+02  0.51100000000E-03 0.  1.
         11   -1    0    0    0    0 -0.00000000000E+00 -0.00000000000E+00 -0.45593999997E+02  0.45594000000E+02  0.51100000000E-03 0. -1.
    9900012    2    1    2    0    0 -0.11794201824E+02 -0.12965270795E+01  0.29596191917E+02  0.59301972415E+02  0.50000051772E+02 0.  0.
         12    1    1    2    0    0  0.11794201824E+02  0.12965270795E+01 -0.29596191917E+02  0.31886027585E+02  0.00000000000E+00 0. -1.
         11    1    3    3    0    0  0.58617016302E+01 -0.14732629707E+02  0.13541401148E+02  0.20851366128E+02  0.51100000000E-03 0. -1.
        -11    1    3    3    0    0 -0.23630043337E+01  0.17388939832E+02  0.14145654076E+02  0.22540154113E+02  0.51100000000E-03 0.  1.
        -12    1    3    3    0    0 -0.15292899121E+02 -0.39528372043E+01  0.19091366925E+01  0.15910452174E+02  0.00000000000E+00 0.  1.
</event>
<event>
 7    1  0.7749294E-012  0.5930193E+02  0.7816164E-02  0.1266605E+00
        -11   -1    0    0    0    0  0.00000000000E+00  0.00000000000E+00  0.45593999997E+02  0.45594000000E+02  0.51100000000E-03 0. -1.
         11   -1    0    0    0    0 -0.00000000000E+00 -0.00000000000E+00 -0.45593999997E+02  0.45594000000E+02  0.51100000000E-03 0.  1.
    9900012    2    1    2    0    0 -0.26102298151E+02 -0.18107801222E+02  0.27383946263E+01  0.59301933467E+02  0.49999980739E+02 0.  0.
         12    1    1    2    0    0  0.26102298151E+02  0.18107801222E+02 -0.27383946263E+01  0.31886066533E+02  0.00000000000E+00 0. -1.
         11    1    3    3    0    0 -0.28723592962E+02 -0.19488538433E+02  0.15568677454E+02  0.38042497826E+02  0.51100000000E-03 0. -1.
        -11    1    3    3    0    0 -0.18624796560E+01 -0.71095832829E+01 -0.55017844923E+01  0.91806665219E+01  0.51100000000E-03 0.  1.
         12    1    3    3    0    0  0.44837744670E+01  0.84903204944E+01 -0.73284983354E+01  0.12078769119E+02  0.00000000000E+00 0. -1.
</event>
<event>
 7    1  0.7749294E-012  0.5930194E+02  0.7816164E-02  0.1266605E+00
        -11   -1    0    0    0    0  0.00000000000E+00  0.00000000000E+00  0.45593999997E+02  0.45594000000E+02  0.51100000000E-03 0.  1.
         11   -1    0    0    0    0 -0.00000000000E+00 -0.00000000000E+00 -0.45593999997E+02  0.45594000000E+02  0.51100000000E-03 0. -1.
    9900012    2    1    2    0    0  0.22423187832E+02 -0.13976346115E+02  0.17848905712E+02  0.59301936612E+02  0.49999986475E+02 0.  0.
         12    1    1    2    0    0 -0.22423187832E+02  0.13976346115E+02 -0.17848905712E+02  0.31886063388E+02  0.00000000000E+00 0. -1.
         11    1    3    3    0    0  0.22061837932E+02 -0.12054053201E+02 -0.66947073026E+01  0.26016225661E+02  0.51100000000E-03 0. -1.
        -11    1    3    3    0    0  0.11038521857E+01  0.61541047710E+01  0.24384908339E+02  0.25173701559E+02  0.51100000000E-03 0.  1.
        -12    1    3    3    0    0 -0.74250228626E+00 -0.80763976847E+01  0.15870467571E+00  0.81120093923E+01  0.00000000000E+00 0.  1.
</event>
<event>
 7    1  0.7749294E-012  0.5930192E+02  0.7816164E-02  0.1266605E+00
        -11   -1    0    0    0    0  0.00000000000E+00  0.00000000000E+00  0.45593999997E+02  0.45594000000E+02  0.51100000000E-03 0.  1.
         11   -1    0    0    0    0 -0.00000000000E+00 -0.00000000000E+00 -0.45593999997E+02  0.45594000000E+02  0.51100000000E-03 0. -1.
    9900012    2    1    2    0    0 -0.20021067608E+01 -0.15095577594E+01  0.31787336226E+02  0.59301922466E+02  0.49999960677E+02 0.  0.
         12    1    1    2    0    0  0.20021067608E+01  0.15095577594E+01 -0.31787336226E+02  0.31886077534E+02  0.00000000000E+00 0. -1.
         11    1    3    3    0    0 -0.15350044288E+02  0.14220213226E+02  0.10860539099E+02  0.23575191062E+02  0.51100000000E-03 0.  1.
        -11    1    3    3    0    0  0.30958633046E+01 -0.14933243086E+02  0.37465380776E+01  0.15704224479E+02  0.51100000000E-03 0. -1.
        -12    1    3    3    0    0  0.10252074222E+02 -0.79652789959E+00  0.17180259050E+02  0.20022506926E+02  0.00000000000E+00 0.  1.
</event>
<event>
 7    1  0.7749294E-012  0.5930192E+02  0.7816164E-02  0.1266605E+00
        -11   -1    0    0    0    0  0.00000000000E+00  0.00000000000E+00  0.45593999997E+02  0.45594000000E+02  0.51100000000E-03 0. -1.
         11   -1    0    0    0    0 -0.00000000000E+00 -0.00000000000E+00 -0.45593999997E+02  0.45594000000E+02  0.51100000000E-03 0.  1.
    9900012    2    1    2    0    0  0.26374448942E+02  0.51831739654E+01 -0.17153570573E+02  0.59301924155E+02  0.49999963758E+02 0.  0.
         12    1    1    2    0    0 -0.26374448942E+02 -0.51831739654E+01  0.17153570573E+02  0.31886075845E+02  0.00000000000E+00 0. -1.
         11    1    3    3    0    0  0.16019318151E+02  0.14949848854E+02 -0.19721558169E+02  0.29479762408E+02  0.51100000000E-03 0.  1.
        -11    1    3    3    0    0  0.67895219261E+01 -0.14884726320E+02 -0.74851538641E+01  0.17991114869E+02  0.51100000000E-03 0. -1.
         12    1    3    3    0    0  0.35656088651E+01  0.51180514308E+01  0.10053141460E+02  0.11831046878E+02  0.00000000000E+00 0. -1.
</event>
<event>
 7    1  0.7749294E-012  0.5930192E+02  0.7816164E-02  0.1266605E+00
        -11   -1    0    0    0    0  0.00000000000E+00  0.00000000000E+00  0.45593999997E+02  0.45594000000E+02  0.51100000000E-03 0.  1.
         11   -1    0    0    0    0 -0.00000000000E+00 -0.00000000000E+00 -0.45593999997E+02  0.45594000000E+02  0.51100000000E-03 0. -1.
    9900012    2    1    2    0    0 -0.56638295819E+01  0.12336597578E+02  0.28852237770E+02  0.59301917931E+02  0.49999952406E+02 0.  0.
         12    1    1    2    0    0  0.56638295819E+01 -0.12336597578E+02 -0.28852237770E+02  0.31886082069E+02  0.00000000000E+00 0. -1.
         11    1    3    3    0    0 -0.12169237499E+02  0.13139733416E+01  0.85043442735E+01  0.14904386570E+02  0.51100000000E-03 0. -1.
        -11    1    3    3    0    0  0.12140690750E+02  0.52215947634E+01 -0.76394507120E+01  0.15265078814E+02  0.51100000000E-03 0.  1.
        -12    1    3    3    0    0 -0.56352828329E+01  0.58010294729E+01  0.27987344209E+02  0.29132452547E+02  0.00000000000E+00 0.  1.
</event>
<event>
 7    1  0.7749294E-012  0.5930200E+02  0.7816164E-02  0.1266605E+00
        -11   -1    0    0    0    0  0.00000000000E+00  0.00000000000E+00  0.45593999997E+02  0.45594000000E+02  0.51100000000E-03 0. -1.
         11   -1    0    0    0    0 -0.00000000000E+00 -0.00000000000E+00 -0.45593999997E+02  0.45594000000E+02  0.51100000000E-03 0.  1.
    9900012    2    1    2    0    0  0.86023719698E+01 -0.85126029177E+00 -0.30691879894E+02  0.59302000894E+02  0.50000103709E+02 0.  0.
         12    1    1    2    0    0 -0.86023719698E+01  0.85126029177E+00  0.30691879894E+02  0.31885999106E+02  0.00000000000E+00 0. -1.
         11    1    3    3    0    0  0.25234153862E+02 -0.32561622551E+01 -0.11026429224E+02  0.27729898223E+02  0.51100000000E-03 0.  1.
        -11    1    3    3    0    0 -0.12121294304E+02  0.21012390883E+01 -0.97269499831E+00  0.12340466650E+02  0.51100000000E-03 0. -1.
        -12    1    3    3    0    0 -0.45104875886E+01  0.30366287507E+00 -0.18692755672E+02  0.19231636021E+02  0.00000000000E+00 0.  1.
</event>
<event>
 7    1  0.7749294E-012  0.5930194E+02  0.7816164E-02  0.1266605E+00
        -11   -1    0    0    0    0  0.00000000000E+00  0.00000000000E+00  0.45593999997E+02  0.45594000000E+02  0.51100000000E-03 0. -1.
         11   -1    0    0    0    0 -0.00000000000E+00 -0.00000000000E+00 -0.45593999997E+02  0.45594000000E+02  0.51100000000E-03 0.  1.
    9900012    2    1    2    0    0 -0.17088805956E+02 -0.25833140194E+02  0.75724916513E+01  0.59301936413E+02  0.49999986113E+02 0.  0.
         12    1    1    2    0    0  0.17088805956E+02  0.25833140194E+02 -0.75724916513E+01  0.31886063587E+02  0.00000000000E+00 0. -1.
         11    1    3    3    0    0 -0.16342054166E+01 -0.19386887081E+01  0.23469427488E+02  0.23605998562E+02  0.51100000000E-03 0. -1.
        -11    1    3    3    0    0 -0.13722211162E+02 -0.17982405115E+02 -0.49816380065E+01  0.23162095984E+02  0.51100000000E-03 0.  1.
        -12    1    3    3    0    0 -0.17323893768E+01 -0.59120463709E+01 -0.10915297830E+02  0.12533841867E+02  0.00000000000E+00 0.  1.
</event>
<event>
 7    1  0.7749294E-012  0.5930194E+02  0.7816164E-02  0.1266605E+00
        -11   -1    0    0    0    0  0.00000000000E+00  0.00000000000E+00  0.45593999997E+02  0.45594000000E+02  0.51100000000E-03 0.  1.
         11   -1    0    0    0    0 -0.00000000000E+00 -0.00000000000E+00 -0.45593999997E+02  0.45594000000E+02  0.51100000000E-03 0. -1.
    9900012    2    1    2    0    0  0.10218481720E+02  0.28967842467E+02 -0.85537877071E+01  0.59301944270E+02  0.50000000442E+02 0.  0.
         12    1    1    2    0    0 -0.10218481720E+02 -0.28967842467E+02  0.85537877071E+01  0.31886055730E+02  0.00000000000E+00 0. -1.
         11    1    3    3    0    0  0.13930299336E+02  0.26877408010E+02  0.92828386571E+01  0.31664165782E+02  0.51100000000E-03 0.  1.
        -11    1    3    3    0    0 -0.28932115256E+01 -0.92396720452E+01 -0.70915696520E+01  0.12001357124E+02  0.51100000000E-03 0. -1.
         12    1    3    3    0    0 -0.81860609047E+00  0.11330106503E+02 -0.10745056712E+02  0.15636421363E+02  0.00000000000E+00 0. -1.
</event>
<event>
 7    1  0.7749294E-012  0.5930195E+02  0.7816164E-02  0.1266605E+00
        -11   -1    0    0    0    0  0.00000000000E+00  0.00000000000E+00  0.45593999997E+02  0.45594000000E+02  0.51100000000E-03 0. -1.
         11   -1    0    0    0    0 -0.00000000000E+00 -0.00000000000E+00 -0.45593999997E+02  0.45594000000E+02  0.51100000000E-03 0.  1.
    9900012    2    1    2    0    0 -0.75250445108E+01 -0.29674503504E+02 -0.89172856468E+01  0.59301946052E+02  0.50000003691E+02 0.  0.
         12    1    1    2    0    0  0.75250445108E+01  0.29674503504E+02  0.89172856468E+01  0.31886053948E+02  0.00000000000E+00 0. -1.
         11    1    3    3    0    0  0.92637245895E+01 -0.27453296093E+02 -0.10725477516E+02  0.30895564857E+02  0.51100000000E-03 0. -1.
        -11    1    3    3    0    0 -0.21589710129E+02 -0.53211815150E+01 -0.50411936132E+00  0.22241508330E+02  0.51100000000E-03 0.  1.
         12    1    3    3    0    0  0.48009410291E+01  0.30999741046E+01  0.23123112300E+01  0.61648728647E+01  0.00000000000E+00 0. -1.
</event>
<event>
 7    1  0.7749294E-012  0.5930192E+02  0.7816164E-02  0.1266605E+00
        -11   -1    0    0    0    0  0.00000000000E+00  0.00000000000E+00  0.45593999997E+02  0.45594000000E+02  0.51100000000E-03 0.  1.
         11   -1    0    0    0    0 -0.00000000000E+00 -0.00000000000E+00 -0.45593999997E+02  0.45594000000E+02  0.51100000000E-03 0. -1.
    9900012    2    1    2    0    0 -0.14212001523E+02  0.30614867225E+01  0.28379018794E+02  0.59301915325E+02  0.49999947653E+02 0.  0.
         12    1    1    2    0    0  0.14212001523E+02 -0.30614867225E+01 -0.28379018794E+02  0.31886084675E+02  0.00000000000E+00 0. -1.
         11    1    3    3    0    0  0.70207887211E+01  0.21128966379E+02  0.16034646255E+02  0.27437831097E+02  0.51100000000E-03 0. -1.
        -11    1    3    3    0    0 -0.28044510279E+01 -0.64190859545E+01  0.58210777184E+01  0.91079391810E+01  0.51100000000E-03 0.  1.
         12    1    3    3    0    0 -0.18428339216E+02 -0.11648393702E+02  0.65232948198E+01  0.22756145047E+02  0.00000000000E+00 0. -1.
</event>
<event>
 7    1  0.7749294E-012  0.5930201E+02  0.7816164E-02  0.1266605E+00
        -11   -1    0    0    0    0  0.00000000000E+00  0.00000000000E+00  0.45593999997E+02  0.45594000000E+02  0.51100000000E-03 0. -1.
         11   -1    0    0    0    0 -0.00000000000E+00 -0.00000000000E+00 -0.45593999997E+02  0.45594000000E+02  0.51100000000E-03 0.  1.
    9900012    2    1    2    0    0 -0.15525894867E+02  0.18262148346E+02 -0.21027531643E+02  0.59302006828E+02  0.50000114532E+02 0.  0.
         12    1    1    2    0    0  0.15525894867E+02 -0.18262148346E+02  0.21027531643E+02  0.31885993172E+02  0.00000000000E+00 0. -1.
         11    1    3    3    0    0  0.15530504048E+02  0.15259487875E+02 -0.15975699794E+02  0.27005027501E+02  0.51100000000E-03 0. -1.
        -11    1    3    3    0    0 -0.13139905230E+02  0.15216588421E+01  0.11550537072E+01  0.13278053487E+02  0.51100000000E-03 0.  1.
         12    1    3    3    0    0 -0.17916493685E+02  0.14810016289E+01 -0.62068855564E+01  0.19018925839E+02  0.00000000000E+00 0. -1.
</event>
<event>
 7    1  0.7749294E-012  0.5930195E+02  0.7816164E-02  0.1266605E+00
        -11   -1    0    0    0    0  0.00000000000E+00  0.00000000000E+00  0.45593999997E+02  0.45594000000E+02  0.51100000000E-03 0. -1.
         11   -1    0    0    0    0 -0.00000000000E+00 -0.00000000000E+00 -0.45593999997E+02  0.45594000000E+02  0.51100000000E-03 0.  1.
    9900012    2    1    2    0    0 -0.31097510000E+02 -0.49108286405E+01  0.50545918884E+01  0.59301948734E+02  0.50000008584E+02 0.  0.
         12    1    1    2    0    0  0.31097510000E+02  0.49108286405E+01 -0.50545918884E+01  0.31886051266E+02  0.00000000000E+00 0. -1.
         11    1    3    3    0    0 -0.33466757065E+02 -0.10182527366E+02 -0.14514605018E+02  0.37873228686E+02  0.51100000000E-03 0. -1.
        -11    1    3    3    0    0  0.12827690075E+01  0.29369255669E+01  0.22420221789E+01  0.39112263836E+01  0.51100000000E-03 0.  1.
         12    1    3    3    0    0  0.10864780566E+01  0.23347731588E+01  0.17327174727E+02  0.17517493665E+02  0.00000000000E+00 0. -1.
</event>
<event>
 7    1  0.7749294E-012  0.5930194E+02  0.7816164E-02  0.1266605E+00
        -11   -1    0    0    0    0  0.00000000000E+00  0.00000000000E+00  0.45593999997E+02  0.45594000000E+02  0.51100000000E-03 0. -1.
         11   -1    0    0    0    0 -0.00000000000E+00 -0.00000000000E+00 -0.45593999997E+02  0.45594000000E+02  0.51100000000E-03 0.  1.
    9900012    2    1    2    0    0 -0.10390448002E+02  0.20976499614E+02 -0.21650546482E+02  0.59301935510E+02  0.49999984465E+02 0.  0.
         12    1    1    2    0    0  0.10390448002E+02 -0.20976499614E+02  0.21650546482E+02  0.31886064490E+02  0.00000000000E+00 0. -1.
         11    1    3    3    0    0 -0.16514688889E+02 -0.52858113822E+01  0.29127385651E+01  0.17582912082E+02  0.51100000000E-03 0. -1.
        -11    1    3    3    0    0 -0.56206009741E+01  0.15020726388E+02 -0.62040014074E+01  0.17196017279E+02  0.51100000000E-03 0.  1.
         12    1    3    3    0    0  0.11744841861E+02  0.11241584608E+02 -0.18359283639E+02  0.24523006149E+02  0.00000000000E+00 0. -1.
</event>
<event>
 7    1  0.7749294E-012  0.5930197E+02  0.7816164E-02  0.1266605E+00
        -11   -1    0    0    0    0  0.00000000000E+00  0.00000000000E+00  0.45593999997E+02  0.45594000000E+02  0.51100000000E-03 0.  1.
         11   -1    0    0    0    0 -0.00000000000E+00 -0.00000000000E+00 -0.45593999997E+02  0.45594000000E+02  0.51100000000E-03 0. -1.
    9900012    2    1    2    0    0  0.18385314429E+02 -0.18824522809E+02  0.18009338479E+02  0.59301972996E+02  0.50000052832E+02 0.  0.
         12    1    1    2    0    0 -0.18385314429E+02  0.18824522809E+02 -0.18009338479E+02  0.31886027004E+02  0.00000000000E+00 0. -1.
         11    1    3    3    0    0 -0.13132648049E+02  0.20731405072E+01  0.16436188588E+01  0.13396486090E+02  0.51100000000E-03 0. -1.
        -11    1    3    3    0    0  0.21608610823E+02 -0.16669648973E+02  0.20740046139E+02  0.34277671634E+02  0.51100000000E-03 0.  1.
        -12    1    3    3    0    0  0.99093516547E+01 -0.42280143437E+01 -0.43743265190E+01  0.11627815272E+02  0.00000000000E+00 0.  1.
</event>
<event>
 7    1  0.7749294E-012  0.5930196E+02  0.7816164E-02  0.1266605E+00
        -11   -1    0    0    0    0  0.00000000000E+00  0.00000000000E+00  0.45593999997E+02  0.45594000000E+02  0.51100000000E-03 0. -1.
         11   -1    0    0    0    0 -0.00000000000E+00 -0.00000000000E+00 -0.45593999997E+02  0.45594000000E+02  0.51100000000E-03 0.  1.
    9900012    2    1    2    0    0 -0.18838135012E+02 -0.14064954775E+02 -0.21541152208E+02  0.59301960390E+02  0.50000029842E+02 0.  0.
         12    1    1    2    0    0  0.18838135012E+02  0.14064954775E+02  0.21541152208E+02  0.31886039610E+02  0.00000000000E+00 0. -1.
         11    1    3    3    0    0 -0.20898562166E-01 -0.28499201628E+02 -0.45932438967E+01  0.28866984947E+02  0.51100000000E-03 0. -1.
        -11    1    3    3    0    0 -0.41386020089E+01 -0.52937548154E+00 -0.40997450318E+01  0.58494593404E+01  0.51100000000E-03 0.  1.
         12    1    3    3    0    0 -0.14678634441E+02  0.14963622334E+02 -0.12848163279E+02  0.24585516103E+02  0.00000000000E+00 0. -1.
</event>
<event>
 7    1  0.7749294E-012  0.5930196E+02  0.7816164E-02  0.1266605E+00
        -11   -1    0    0    0    0  0.00000000000E+00  0.00000000000E+00  0.45593999997E+02  0.45594000000E+02  0.51100000000E-03 0.  1.
         11   -1    0    0    0    0 -0.00000000000E+00 -0.00000000000E+00 -0.45593999997E+02  0.45594000000E+02  0.51100000000E-03 0. -1.
    9900012    2    1    2    0    0 -0.29076389225E+02 -0.12935514592E+02  0.19888640296E+01  0.59301960292E+02  0.50000029662E+02 0.  0.
         12    1    1    2    0    0  0.29076389225E+02  0.12935514592E+02 -0.19888640296E+01  0.31886039708E+02  0.00000000000E+00 0. -1.
         11    1    3    3    0    0 -0.14436943558E+02 -0.24005331018E+02 -0.98915078417E+01  0.29707291768E+02  0.51100000000E-03 0.  1.
        -11    1    3    3    0    0 -0.96848899890E+01  0.15968978772E+02  0.40450570725E+01  0.19109365874E+02  0.51100000000E-03 0. -1.
         12    1    3    3    0    0 -0.49545556783E+01 -0.48991623460E+01  0.78353147988E+01  0.10485302650E+02  0.00000000000E+00 0. -1.
</event>
<event>
 7    1  0.7749294E-012  0.5930196E+02  0.7816164E-02  0.1266605E+00
        -11   -1    0    0    0    0  0.00000000000E+00  0.00000000000E+00  0.45593999997E+02  0.45594000000E+02  0.51100000000E-03 0. -1.
         11   -1    0    0    0    0 -0.00000000000E+00 -0.00000000000E+00 -0.45593999997E+02  0.45594000000E+02  0.51100000000E-03 0.  1.
    9900012    2    1    2    0    0 -0.12956887945E+02 -0.27218211671E+02 -0.10392674748E+02  0.59301957909E+02  0.50000025316E+02 0.  0.
         12    1    1    2    0    0  0.12956887945E+02  0.27218211671E+02  0.10392674748E+02  0.31886042091E+02  0.00000000000E+00 0. -1.
         11    1    3    3    0    0 -0.12772189826E+02 -0.26338913866E+02  0.15498639854E+02  0.33122123334E+02  0.51100000000E-03 0. -1.
        -11    1    3    3    0    0 -0.12276259007E+01 -0.63172898924E+00 -0.23702182522E+02  0.23742358843E+02  0.51100000000E-03 0.  1.
         12    1    3    3    0    0  0.10429277814E+01 -0.24756881639E+00 -0.21891320799E+01  0.24374757311E+01  0.00000000000E+00 0. -1.
</event>
<event>
 7    1  0.7749294E-012  0.5930193E+02  0.7816164E-02  0.1266605E+00
        -11   -1    0    0    0    0  0.00000000000E+00  0.00000000000E+00  0.45593999997E+02  0.45594000000E+02  0.51100000000E-03 0. -1.
         11   -1    0    0    0    0 -0.00000000000E+00 -0.00000000000E+00 -0.45593999997E+02  0.45594000000E+02  0.51100000000E-03 0.  1.
    9900012    2    1    2    0    0  0.23158558447E+02 -0.23832785476E+01 -0.21788126713E+02  0.59301932327E+02  0.49999978661E+02 0.  0.
         12    1    1    2    0    0 -0.23158558447E+02  0.23832785476E+01  0.21788126713E+02  0.31886067673E+02  0.00000000000E+00 0. -1.
         11    1    3    3    0    0 -0.53255510948E+01 -0.16316798136E+02  0.41436264980E+01  0.17656982661E+02  0.51100000000E-03 0. -1.
        -11    1    3    3    0    0  0.12960962191E+02  0.64683294695E+01 -0.71272390625E+01  0.16143833620E+02  0.51100000000E-03 0.  1.
         12    1    3    3    0    0  0.15523147350E+02  0.74651901190E+01 -0.18804514149E+02  0.25501116045E+02  0.00000000000E+00 0. -1.
</event>
<event>
 7    1  0.7749294E-012  0.5930196E+02  0.7816164E-02  0.1266605E+00
        -11   -1    0    0    0    0  0.00000000000E+00  0.00000000000E+00  0.45593999997E+02  0.45594000000E+02  0.51100000000E-03 0.  1.
         11   -1    0    0    0    0 -0.00000000000E+00 -0.00000000000E+00 -0.45593999997E+02  0.45594000000E+02  0.51100000000E-03 0. -1.
    9900012    2    1    2    0    0 -0.20638774976E+02  0.12819218205E+01  0.24271740110E+02  0.59301957222E+02  0.50000024064E+02 0.  0.
         12    1    1    2    0    0  0.20638774976E+02 -0.12819218205E+01 -0.24271740110E+02  0.31886042778E+02  0.00000000000E+00 0. -1.
         11    1    3    3    0    0  0.11184326479E+02  0.58136937103E+01  0.19522012911E+02  0.23237839437E+02  0.51100000000E-03 0. -1.
        -11    1    3    3    0    0 -0.29277382180E+02  0.59623395500E+00  0.11595155624E+01  0.29306399964E+02  0.51100000000E-03 0.  1.
         12    1    3    3    0    0 -0.25457192750E+01 -0.51280058448E+01  0.35902116366E+01  0.67577178224E+01  0.00000000000E+00 0. -1.
</event>
<event>
 7    1  0.7749294E-012  0.5930193E+02  0.7816164E-02  0.1266605E+00
        -11   -1    0    0    0    0  0.00000000000E+00  0.00000000000E+00  0.45593999997E+02  0.45594000000E+02  0.51100000000E-03 0. -1.
         11   -1    0    0    0    0 -0.00000000000E+00 -0.00000000000E+00 -0.45593999997E+02  0.45594000000E+02  0.51100000000E-03 0.  1.
    9900012    2    1    2    0    0 -0.26440611172E+02 -0.15740591027E+02 -0.83575874602E+01  0.59301931049E+02  0.49999976329E+02 0.  0.
         12    1    1    2    0    0  0.26440611172E+02  0.15740591027E+02  0.83575874602E+01  0.31886068951E+02  0.00000000000E+00 0. -1.
         11    1    3    3    0    0 -0.32251961771E+02 -0.16771818716E+02 -0.15965492456E+02  0.39703650849E+02  0.51100000000E-03 0.  1.
        -11    1    3    3    0    0  0.50828177391E+01  0.16865630762E+01 -0.47760203008E+01  0.71756464066E+01  0.51100000000E-03 0. -1.
         12    1    3    3    0    0  0.72853286053E+00 -0.65533538775E+00  0.12383925296E+02  0.12422633793E+02  0.00000000000E+00 0. -1.
</event>
<event>
 7    1  0.7749294E-012  0.5930201E+02  0.7816164E-02  0.1266605E+00
        -11   -1    0    0    0    0  0.00000000000E+00  0.00000000000E+00  0.45593999997E+02  0.45594000000E+02  0.51100000000E-03 0.  1.
         11   -1    0    0    0    0 -0.00000000000E+00 -0.00000000000E+00 -0.45593999997E+02  0.45594000000E+02  0.51100000000E-03 0. -1.
    9900012    2    1    2    0    0  0.26061080954E+02  0.91814482627E+01  0.15913433982E+02  0.59302010697E+02  0.50000121589E+02 0.  0.
         12    1    1    2    0    0 -0.26061080954E+02 -0.91814482627E+01 -0.15913433982E+02  0.31885989303E+02  0.00000000000E+00 0. -1.
         11    1    3    3    0    0 -0.65401249641E+00 -0.23768689972E+01 -0.65013650794E+01  0.69530559276E+01  0.51100000000E-03 0. -1.
        -11    1    3    3    0    0  0.28419190907E+01 -0.52893342265E+01  0.22336496908E+02  0.23129475892E+02  0.51100000000E-03 0.  1.
        -12    1    3    3    0    0  0.23873174360E+02  0.16847651486E+02  0.78302153240E-01  0.29219478877E+02  0.00000000000E+00 0.  1.
</event>
<event>
 7    1  0.7749294E-012  0.5930196E+02  0.7816164E-02  0.1266605E+00
        -11   -1    0    0    0    0  0.00000000000E+00  0.00000000000E+00  0.45593999997E+02  0.45594000000E+02  0.51100000000E-03 0. -1.
         11   -1    0    0    0    0 -0.00000000000E+00 -0.00000000000E+00 -0.45593999997E+02  0.45594000000E+02  0.51100000000E-03 0.  1.
    9900012    2    1    2    0    0  0.17584092569E+02  0.48212882509E+01 -0.26158635693E+02  0.59301963037E+02  0.50000034669E+02 0.  0.
         12    1    1    2    0    0 -0.17584092569E+02 -0.48212882509E+01  0.26158635693E+02  0.31886036963E+02  0.00000000000E+00 0. -1.
         11    1    3    3    0    0 -0.39281883598E+01  0.90560288234E+01  0.75176612150E+01  0.12407963259E+02  0.51100000000E-03 0. -1.
        -11    1    3    3    0    0  0.37559345662E+01 -0.77731340259E+00 -0.27518986513E+02  0.27784993784E+02  0.51100000000E-03 0.  1.
         12    1    3    3    0    0  0.17756346363E+02 -0.34574271699E+01 -0.61573103942E+01  0.19109005994E+02  0.00000000000E+00 0. -1.
</event>
<event>
 7    1  0.7749294E-012  0.5930192E+02  0.7816164E-02  0.1266605E+00
        -11   -1    0    0    0    0  0.00000000000E+00  0.00000000000E+00  0.45593999997E+02  0.45594000000E+02  0.51100000000E-03 0.  1.
         11   -1    0    0    0    0 -0.00000000000E+00 -0.00000000000E+00 -0.45593999997E+02  0.45594000000E+02  0.51100000000E-03 0. -1.
    9900012    2    1    2    0    0 -0.21262078544E+02  0.18312415565E+02  0.15142708958E+02  0.59301918673E+02  0.49999953758E+02 0.  0.
         12    1    1    2    0    0  0.21262078544E+02 -0.18312415565E+02 -0.15142708958E+02  0.31886081327E+02  0.00000000000E+00 0. -1.
         11    1    3    3    0    0 -0.14917250759E+02  0.12646268493E+02  0.86904250296E+01  0.21400372998E+02  0.51100000000E-03 0. -1.
        -11    1    3    3    0    0  0.11532685210E+02  0.27505629339E+01  0.13941035487E+02  0.18300844115E+02  0.51100000000E-03 0.  1.
         12    1    3    3    0    0 -0.17877512994E+02  0.29155841383E+01 -0.74887515584E+01  0.19600701560E+02  0.00000000000E+00 0. -1.
</event>
<event>
 7    1  0.7749294E-012  0.5930194E+02  0.7816164E-02  0.1266605E+00
        -11   -1    0    0    0    0  0.00000000000E+00  0.00000000000E+00  0.45593999997E+02  0.45594000000E+02  0.51100000000E-03 0.  1.
         11   -1    0    0    0    0 -0.00000000000E+00 -0.00000000000E+00 -0.45593999997E+02  0.45594000000E+02  0.51100000000E-03 0. -1.
    9900012    2    1    2    0    0  0.16783714852E+02 -0.13067256002E+02  0.23754462443E+02  0.59301941141E+02  0.49999994735E+02 0.  0.
         12    1    1    2    0    0 -0.16783714852E+02  0.13067256002E+02 -0.23754462443E+02  0.31886058859E+02  0.00000000000E+00 0. -1.
         11    1    3    3    0    0 -0.10069810143E+01 -0.14160533434E+02 -0.80927306006E+01  0.16340961010E+02  0.51100000000E-03 0. -1.
        -11    1    3    3    0    0  0.45601975063E+01 -0.44136907090E+01  0.27147156668E+02  0.27879099383E+02  0.51100000000E-03 0.  1.
        -12    1    3    3    0    0  0.13230498360E+02  0.55069681414E+01  0.47000363754E+01  0.15081880748E+02  0.00000000000E+00 0.  1.
</event>
<event>
 7    1  0.7749294E-012  0.5930196E+02  0.7816164E-02  0.1266605E+00
        -11   -1    0    0    0    0  0.00000000000E+00  0.00000000000E+00  0.45593999997E+02  0.45594000000E+02  0.51100000000E-03 0.  1.
         11   -1    0    0    0    0 -0.00000000000E+00 -0.00000000000E+00 -0.45593999997E+02  0.45594000000E+02  0.51100000000E-03 0. -1.
    9900012    2    1    2    0    0  0.12897484292E+02  0.27871213408E+02  0.85772965223E+01  0.59301958327E+02  0.50000026079E+02 0.  0.
         12    1    1    2    0    0 -0.12897484292E+02 -0.27871213408E+02 -0.85772965223E+01  0.31886041673E+02  0.00000000000E+00 0. -1.
         11    1    3    3    0    0  0.22632464377E+01  0.35896414992E+02 -0.26176843465E+01  0.36062822481E+02  0.51100000000E-03 0. -1.
        -11    1    3    3    0    0  0.43069299959E+00  0.16089931201E+01  0.88573369698E+01  0.90125897376E+01  0.51100000000E-03 0.  1.
         12    1    3    3    0    0  0.10203544855E+02 -0.96341947036E+01  0.23376438990E+01  0.14226546109E+02  0.00000000000E+00 0. -1.
</event>
<event>
 7    1  0.7749294E-012  0.5930186E+02  0.7816164E-02  0.1266605E+00
        -11   -1    0    0    0    0  0.00000000000E+00  0.00000000000E+00  0.45593999997E+02  0.45594000000E+02  0.51100000000E-03 0.  1.
         11   -1    0    0    0    0 -0.00000000000E+00 -0.00000000000E+00 -0.45593999997E+02  0.45594000000E+02  0.51100000000E-03 0. -1.
    9900012    2    1    2    0    0  0.10611967796E+02  0.29912870964E+02 -0.30549048311E+01  0.59301856406E+02  0.49999840198E+02 0.  0.
         12    1    1    2    0    0 -0.10611967796E+02 -0.29912870964E+02  0.30549048311E+01  0.31886143594E+02  0.00000000000E+00 0. -1.
         11    1    3    3    0    0 -0.93644939916E+01  0.42922291501E+01 -0.14317359183E+02  0.17638133490E+02  0.51100000000E-03 0. -1.
        -11    1    3    3    0    0  0.15703855985E+02  0.31714144709E+01  0.97654549769E+01  0.18762544436E+02  0.51100000000E-03 0.  1.
         12    1    3    3    0    0  0.42726058029E+01  0.22449227343E+02  0.14969993748E+01  0.22901178480E+02  0.00000000000E+00 0. -1.
</event>
<event>
 7    1  0.7749294E-012  0.5930193E+02  0.7816164E-02  0.1266605E+00
        -11   -1    0    0    0    0  0.00000000000E+00  0.00000000000E+00  0.45593999997E+02  0.45594000000E+02  0.51100000000E-03 0. -1.
         11   -1    0    0    0    0 -0.00000000000E+00 -0.00000000000E+00 -0.45593999997E+02  0.45594000000E+02  0.51100000000E-03 0.  1.
    9900012    2    1    2    0    0 -0.22067664944E+02 -0.26058267040E+01 -0.22868080818E+02  0.59301932679E+02  0.49999979303E+02 0.  0.
         12    1    1    2    0    0  0.22067664944E+02  0.26058267040E+01  0.22868080818E+02  0.31886067321E+02  0.00000000000E+00 0. -1.
         11    1    3    3    0    0 -0.52477560858E+01  0.14739863900E+02  0.47939861588E+00  0.15653509352E+02  0.51100000000E-03 0. -1.
        -11    1    3    3    0    0 -0.50540800049E+01 -0.21887097171E+02 -0.21137314136E+02  0.30844364094E+02  0.51100000000E-03 0.  1.
         12    1    3    3    0    0 -0.11765828853E+02  0.45414065665E+01 -0.22101652981E+01  0.12804059233E+02  0.00000000000E+00 0. -1.
</event>
<event>
 7    1  0.7749294E-012  0.5930195E+02  0.7816164E-02  0.1266605E+00
        -11   -1    0    0    0    0  0.00000000000E+00  0.00000000000E+00  0.45593999997E+02  0.45594000000E+02  0.51100000000E-03 0.  1.
         11   -1    0    0    0    0 -0.00000000000E+00 -0.00000000000E+00 -0.45593999997E+02  0.45594000000E+02  0.51100000000E-03 0. -1.
    9900012    2    1    2    0    0  0.17525317252E+02  0.25281542632E+02  0.83920691410E+01  0.59301953411E+02  0.50000017112E+02 0.  0.
         12    1    1    2    0    0 -0.17525317252E+02 -0.25281542632E+02 -0.83920691410E+01  0.31886046589E+02  0.00000000000E+00 0. -1.
         11    1    3    3    0    0  0.67151480541E+01  0.17298692515E+02  0.79389939544E+01  0.20183300062E+02  0.51100000000E-03 0. -1.
        -11    1    3    3    0    0  0.31984475094E+01 -0.14518609074E+02 -0.28457470334E+01  0.15136655917E+02  0.51100000000E-03 0.  1.
        -12    1    3    3    0    0  0.76117216886E+01  0.22501459191E+02  0.32988222200E+01  0.23981997432E+02  0.00000000000E+00 0.  1.
</event>
<event>
 7    1  0.7749294E-012  0.5930200E+02  0.7816164E-02  0.1266605E+00
        -11   -1    0    0    0    0  0.00000000000E+00  0.00000000000E+00  0.45593999997E+02  0.45594000000E+02  0.51100000000E-03 0. -1.
         11   -1    0    0    0    0 -0.00000000000E+00 -0.00000000000E+00 -0.45593999997E+02  0.45594000000E+02  0.51100000000E-03 0.  1.
    9900012    2    1    2    0    0  0.20363422390E+02 -0.20341251716E+02 -0.13721581291E+02  0.59301995454E+02  0.50000093789E+02 0.  0.
         12    1    1    2    0    0 -0.20363422390E+02  0.20341251716E+02  0.13721581291E+02  0.31886004546E+02  0.00000000000E+00 0. -1.
         11    1    3    3    0    0  0.20209987184E+02 -0.48792756185E+01  0.43134551204E+01  0.21233388987E+02  0.51100000000E-03 0. -1.
        -11    1    3    3    0    0 -0.13567393646E+02 -0.62178485449E+01 -0.15165224189E+02  0.21277214006E+02  0.51100000000E-03 0.  1.
         12    1    3    3    0    0  0.13720828852E+02 -0.92441275526E+01 -0.28698122227E+01  0.16791392462E+02  0.00000000000E+00 0. -1.
</event>
<event>
 7    1  0.7749294E-012  0.5930193E+02  0.7816164E-02  0.1266605E+00
        -11   -1    0    0    0    0  0.00000000000E+00  0.00000000000E+00  0.45593999997E+02  0.45594000000E+02  0.51100000000E-03 0.  1.
         11   -1    0    0    0    0 -0.00000000000E+00 -0.00000000000E+00 -0.45593999997E+02  0.45594000000E+02  0.51100000000E-03 0. -1.
    9900012    2    1    2    0    0 -0.42806506201E+01  0.30139860451E+02 -0.94861067968E+01  0.59301931256E+02  0.49999976708E+02 0.  0.
         12    1    1    2    0    0  0.42806506201E+01 -0.30139860451E+02  0.94861067968E+01  0.31886068744E+02  0.00000000000E+00 0. -1.
         11    1    3    3    0    0 -0.11280310828E+02  0.33307815614E+02 -0.22468223102E+02  0.41731008171E+02  0.51100000000E-03 0. -1.
        -11    1    3    3    0    0  0.41126397359E+01 -0.34625541550E-01  0.12644981970E+02  0.13297013718E+02  0.51100000000E-03 0.  1.
         12    1    3    3    0    0  0.28870204721E+01 -0.31333296210E+01  0.33713433494E+00  0.42739093673E+01  0.00000000000E+00 0. -1.
</event>
<event>
 7    1  0.7749294E-012  0.5930228E+02  0.7816164E-02  0.1266604E+00
        -11   -1    0    0    0    0  0.00000000000E+00  0.00000000000E+00  0.45593999997E+02  0.45594000000E+02  0.51100000000E-03 0. -1.
         11   -1    0    0    0    0 -0.00000000000E+00 -0.00000000000E+00 -0.45593999997E+02  0.45594000000E+02  0.51100000000E-03 0.  1.
    9900012    2    1    2    0    0 -0.52756563981E+01 -0.27645700931E+02  0.14986052990E+02  0.59302280397E+02  0.50000613453E+02 0.  0.
         12    1    1    2    0    0  0.52756563981E+01  0.27645700931E+02 -0.14986052990E+02  0.31885719603E+02  0.00000000000E+00 0. -1.
         11    1    3    3    0    0  0.10143150117E+02 -0.16435447438E+02  0.18465895934E+02  0.26720717425E+02  0.51100000000E-03 0. -1.
        -11    1    3    3    0    0 -0.11857251356E+02 -0.14790618706E+02 -0.12172539216E+02  0.22528371505E+02  0.51100000000E-03 0.  1.
        -12    1    3    3    0    0 -0.35615551584E+01  0.35803652134E+01  0.86926962722E+01  0.10053191468E+02  0.00000000000E+00 0.  1.
</event>
<event>
 7    1  0.7749294E-012  0.5930194E+02  0.7816164E-02  0.1266605E+00
        -11   -1    0    0    0    0  0.00000000000E+00  0.00000000000E+00  0.45593999997E+02  0.45594000000E+02  0.51100000000E-03 0. -1.
         11   -1    0    0    0    0 -0.00000000000E+00 -0.00000000000E+00 -0.45593999997E+02  0.45594000000E+02  0.51100000000E-03 0.  1.
    9900012    2    1    2    0    0  0.24400721535E+02 -0.17553251985E+02 -0.10639957359E+02  0.59301944125E+02  0.50000000177E+02 0.  0.
         12    1    1    2    0    0 -0.24400721535E+02  0.17553251985E+02  0.10639957359E+02  0.31886055875E+02  0.00000000000E+00 0. -1.
         11    1    3    3    0    0 -0.64710608051E+01 -0.14760688133E+02 -0.39868404472E+01  0.16602633499E+02  0.51100000000E-03 0. -1.
        -11    1    3    3    0    0  0.21454151039E+02  0.83885533340E+01 -0.13344508230E+02  0.26621876793E+02  0.51100000000E-03 0.  1.
         12    1    3    3    0    0  0.94176313008E+01 -0.11181117186E+02  0.66913913179E+01  0.16077433832E+02  0.00000000000E+00 0. -1.
</event>
<event>
 7    1  0.7749294E-012  0.5930200E+02  0.7816164E-02  0.1266605E+00
        -11   -1    0    0    0    0  0.00000000000E+00  0.00000000000E+00  0.45593999997E+02  0.45594000000E+02  0.51100000000E-03 0.  1.
         11   -1    0    0    0    0 -0.00000000000E+00 -0.00000000000E+00 -0.45593999997E+02  0.45594000000E+02  0.51100000000E-03 0. -1.
    9900012    2    1    2    0    0 -0.11004809336E+02  0.21926549403E+02 -0.20367556581E+02  0.59302003727E+02  0.50000108876E+02 0.  0.
         12    1    1    2    0    0  0.11004809336E+02 -0.21926549403E+02  0.20367556581E+02  0.31885996273E+02  0.00000000000E+00 0. -1.
         11    1    3    3    0    0  0.44432288968E+01 -0.12057562663E+00 -0.67225488801E+01  0.80591243456E+01  0.51100000000E-03 0. -1.
        -11    1    3    3    0    0 -0.28856944298E+02  0.85884980509E+01 -0.11033768283E+02  0.32066019020E+02  0.51100000000E-03 0.  1.
        -12    1    3    3    0    0  0.13408906065E+02  0.13458626979E+02 -0.26112394176E+01  0.19176860361E+02  0.00000000000E+00 0.  1.
</event>
<event>
 7    1  0.7749294E-012  0.5930193E+02  0.7816164E-02  0.1266605E+00
        -11   -1    0    0    0    0  0.00000000000E+00  0.00000000000E+00  0.45593999997E+02  0.45594000000E+02  0.51100000000E-03 0.  1.
         11   -1    0    0    0    0 -0.00000000000E+00 -0.00000000000E+00 -0.45593999997E+02  0.45594000000E+02  0.51100000000E-03 0. -1.
    9900012    2    1    2    0    0 -0.52463881986E+01  0.11116253382E+02  0.29421516813E+02  0.59301932040E+02  0.49999978137E+02 0.  0.
         12    1    1    2    0    0  0.52463881986E+01 -0.11116253382E+02 -0.29421516813E+02  0.31886067960E+02  0.00000000000E+00 0. -1.
         11    1    3    3    0    0 -0.12450272369E+02  0.11103671656E+02 -0.55359913449E+01  0.17576916872E+02  0.51100000000E-03 0. -1.
        -11    1    3    3    0    0  0.13746401171E+02  0.15619062744E+01  0.13864692727E+02  0.19586546430E+02  0.51100000000E-03 0.  1.
        -12    1    3    3    0    0 -0.65425170010E+01 -0.15493245478E+01  0.21092815431E+02  0.22138468738E+02  0.00000000000E+00 0.  1.
</event>
<event>
 7    1  0.7749294E-012  0.5930195E+02  0.7816164E-02  0.1266605E+00
        -11   -1    0    0    0    0  0.00000000000E+00  0.00000000000E+00  0.45593999997E+02  0.45594000000E+02  0.51100000000E-03 0.  1.
         11   -1    0    0    0    0 -0.00000000000E+00 -0.00000000000E+00 -0.45593999997E+02  0.45594000000E+02  0.51100000000E-03 0. -1.
    9900012    2    1    2    0    0  0.19942192118E+02  0.12242822488E+02 -0.21659695193E+02  0.59301950938E+02  0.50000012603E+02 0.  0.
         12    1    1    2    0    0 -0.19942192118E+02 -0.12242822488E+02  0.21659695193E+02  0.31886049062E+02  0.00000000000E+00 0. -1.
         11    1    3    3    0    0  0.19925129876E+02 -0.63966870525E+00  0.68745359031E+01  0.21087418542E+02  0.51100000000E-03 0. -1.
        -11    1    3    3    0    0 -0.10366620024E+02  0.83591284107E+01 -0.10678696697E+02  0.17069751079E+02  0.51100000000E-03 0.  1.
         12    1    3    3    0    0  0.10383682266E+02  0.45233627825E+01 -0.17855534399E+02  0.21144781317E+02  0.00000000000E+00 0. -1.
</event>
<event>
 7    1  0.7749294E-012  0.5930194E+02  0.7816164E-02  0.1266605E+00
        -11   -1    0    0    0    0  0.00000000000E+00  0.00000000000E+00  0.45593999997E+02  0.45594000000E+02  0.51100000000E-03 0.  1.
         11   -1    0    0    0    0 -0.00000000000E+00 -0.00000000000E+00 -0.45593999997E+02  0.45594000000E+02  0.51100000000E-03 0. -1.
    9900012    2    1    2    0    0  0.11029468664E+02 -0.24757608901E+02  0.16796795138E+02  0.59301941849E+02  0.49999996027E+02 0.  0.
         12    1    1    2    0    0 -0.11029468664E+02  0.24757608901E+02 -0.16796795138E+02  0.31886058151E+02  0.00000000000E+00 0. -1.
         11    1    3    3    0    0  0.16464716051E+02  0.18814847539E+01  0.47705617746E+01  0.17244857768E+02  0.51100000000E-03 0.  1.
        -11    1    3    3    0    0 -0.11861669075E+02 -0.52835177128E+01 -0.50871450394E+01  0.13946103311E+02  0.51100000000E-03 0. -1.
        -12    1    3    3    0    0  0.64264216875E+01 -0.21355575942E+02  0.17113378402E+02  0.28110980770E+02  0.00000000000E+00 0.  1.
</event>
<event>
 7    1  0.7749294E-012  0.5930196E+02  0.7816164E-02  0.1266605E+00
        -11   -1    0    0    0    0  0.00000000000E+00  0.00000000000E+00  0.45593999997E+02  0.45594000000E+02  0.51100000000E-03 0.  1.
         11   -1    0    0    0    0 -0.00000000000E+00 -0.00000000000E+00 -0.45593999997E+02  0.45594000000E+02  0.51100000000E-03 0. -1.
    9900012    2    1    2    0    0  0.18245487048E+02  0.26124264788E+02  0.11596326505E+01  0.59301956717E+02  0.50000023143E+02 0.  0.
         12    1    1    2    0    0 -0.18245487048E+02 -0.26124264788E+02 -0.11596326505E+01  0.31886043283E+02  0.00000000000E+00 0. -1.
         11    1    3    3    0    0  0.25693128634E+02  0.13620682965E+02  0.72168154754E+00  0.29089185068E+02  0.51100000000E-03 0. -1.
        -11    1    3    3    0    0 -0.72191656460E+01  0.17244524328E+01  0.12185268411E+02  0.14267825880E+02  0.51100000000E-03 0.  1.
        -12    1    3    3    0    0 -0.22847593928E+00  0.10779129390E+02 -0.11747317308E+02  0.15944945769E+02  0.00000000000E+00 0.  1.
</event>
<event>
 7    1  0.7749294E-012  0.5930194E+02  0.7816164E-02  0.1266605E+00
        -11   -1    0    0    0    0  0.00000000000E+00  0.00000000000E+00  0.45593999997E+02  0.45594000000E+02  0.51100000000E-03 0.  1.
         11   -1    0    0    0    0 -0.00000000000E+00 -0.00000000000E+00 -0.45593999997E+02  0.45594000000E+02  0.51100000000E-03 0. -1.
    9900012    2    1    2    0    0 -0.16429112625E+02  0.10714727297E+02  0.25139598662E+02  0.59301944370E+02  0.50000000625E+02 0.  0.
         12    1    1    2    0    0  0.16429112625E+02 -0.10714727297E+02 -0.25139598662E+02  0.31886055630E+02  0.00000000000E+00 0. -1.
         11    1    3    3    0    0 -0.33648557543E+01  0.21113499648E+02  0.39689435619E+01  0.21745220967E+02  0.51100000000E-03 0. -1.
        -11    1    3    3    0    0 -0.19479578183E+02 -0.68286774987E+01  0.73578651679E+01  0.21913990569E+02  0.51100000000E-03 0.  1.
        -12    1    3    3    0    0  0.64153213124E+01 -0.35700948525E+01  0.13812789933E+02  0.15642732834E+02  0.00000000000E+00 0.  1.
</event>
<event>
 7    1  0.7749294E-012  0.5930195E+02  0.7816164E-02  0.1266605E+00
        -11   -1    0    0    0    0  0.00000000000E+00  0.00000000000E+00  0.45593999997E+02  0.45594000000E+02  0.51100000000E-03 0. -1.
         11   -1    0    0    0    0 -0.00000000000E+00 -0.00000000000E+00 -0.45593999997E+02  0.45594000000E+02  0.51100000000E-03 0.  1.
    9900012    2    1    2    0    0 -0.18192595698E+02  0.22255622288E+02 -0.13799888999E+02  0.59301949789E+02  0.50000010508E+02 0.  0.
         12    1    1    2    0    0  0.18192595698E+02 -0.22255622288E+02  0.13799888999E+02  0.31886050211E+02  0.00000000000E+00 0. -1.
         11    1    3    3    0    0 -0.26243790549E+02  0.14888239612E+02 -0.12113364834E+02  0.32513533013E+02  0.51100000000E-03 0. -1.
        -11    1    3    3    0    0  0.41146786146E+01  0.15549246020E+02  0.33148391079E+01  0.16422478207E+02  0.51100000000E-03 0.  1.
         12    1    3    3    0    0  0.39365162364E+01 -0.81818633433E+01 -0.50013632727E+01  0.10365938570E+02  0.00000000000E+00 0. -1.
</event>
<event>
 7    1  0.7749294E-012  0.5930194E+02  0.7816164E-02  0.1266605E+00
        -11   -1    0    0    0    0  0.00000000000E+00  0.00000000000E+00  0.45593999997E+02  0.45594000000E+02  0.51100000000E-03 0. -1.
         11   -1    0    0    0    0 -0.00000000000E+00 -0.00000000000E+00 -0.45593999997E+02  0.45594000000E+02  0.51100000000E-03 0.  1.
    9900012    2    1    2    0    0  0.14660869152E+02  0.27958120655E+02  0.44859175350E+01  0.59301936414E+02  0.49999986115E+02 0.  0.
         12    1    1    2    0    0 -0.14660869152E+02 -0.27958120655E+02 -0.44859175350E+01  0.31886063586E+02  0.00000000000E+00 0. -1.
         11    1    3    3    0    0  0.21657917021E+01  0.20926914551E+02  0.20617632842E+02  0.29456971850E+02  0.51100000000E-03 0. -1.
        -11    1    3    3    0    0  0.11059982139E+01  0.10425732317E+01 -0.16886966494E+02  0.16955230126E+02  0.51100000000E-03 0.  1.
        -12    1    3    3    0    0  0.11389079236E+02  0.59886328726E+01  0.75525118725E+00  0.12889734438E+02  0.00000000000E+00 0.  1.
</event>
<event>
 7    1  0.7749294E-012  0.5930195E+02  0.7816164E-02  0.1266605E+00
        -11   -1    0    0    0    0  0.00000000000E+00  0.00000000000E+00  0.45593999997E+02  0.45594000000E+02  0.51100000000E-03 0.  1.
         11   -1    0    0    0    0 -0.00000000000E+00 -0.00000000000E+00 -0.45593999997E+02  0.45594000000E+02  0.51100000000E-03 0. -1.
    9900012    2    1    2    0    0 -0.13432750625E+02 -0.27674974121E+02 -0.83891212474E+01  0.59301947606E+02  0.50000006527E+02 0.  0.
         12    1    1    2    0    0  0.13432750625E+02  0.27674974121E+02  0.83891212474E+01  0.31886052394E+02  0.00000000000E+00 0. -1.
         11    1    3    3    0    0  0.77737292837E+01 -0.23381725558E+02  0.12250610838E+01  0.24670564079E+02  0.51100000000E-03 0. -1.
        -11    1    3    3    0    0 -0.24427230035E+02 -0.10121725201E+02 -0.62462991427E+01  0.27169010683E+02  0.51100000000E-03 0.  1.
        -12    1    3    3    0    0  0.32207501264E+01  0.58284766386E+01 -0.33678831885E+01  0.74623728448E+01  0.00000000000E+00 0.  1.
</event>
<event>
 7    1  0.7749294E-012  0.5930206E+02  0.7816164E-02  0.1266604E+00
        -11   -1    0    0    0    0  0.00000000000E+00  0.00000000000E+00  0.45593999997E+02  0.45594000000E+02  0.51100000000E-03 0.  1.
         11   -1    0    0    0    0 -0.00000000000E+00 -0.00000000000E+00 -0.45593999997E+02  0.45594000000E+02  0.51100000000E-03 0. -1.
    9900012    2    1    2    0    0 -0.27711531491E+01  0.30668682116E+02  0.82744204921E+01  0.59302056592E+02  0.50000205290E+02 0.  0.
         12    1    1    2    0    0  0.27711531491E+01 -0.30668682116E+02 -0.82744204921E+01  0.31885943408E+02  0.00000000000E+00 0. -1.
         11    1    3    3    0    0 -0.20491006003E+02 -0.79518982305E+00 -0.15811618170E+01  0.20567297509E+02  0.51100000000E-03 0. -1.
        -11    1    3    3    0    0  0.12802176407E+01  0.41421863106E+01  0.47692415746E+01  0.64453339788E+01  0.51100000000E-03 0.  1.
         12    1    3    3    0    0  0.16439635213E+02  0.27321685629E+02  0.50863407344E+01  0.32289425105E+02  0.00000000000E+00 0. -1.
</event>
<event>
 7    1  0.7749294E-012  0.5930197E+02  0.7816164E-02  0.1266605E+00
        -11   -1    0    0    0    0  0.00000000000E+00  0.00000000000E+00  0.45593999997E+02  0.45594000000E+02  0.51100000000E-03 0. -1.
         11   -1    0    0    0    0 -0.00000000000E+00 -0.00000000000E+00 -0.45593999997E+02  0.45594000000E+02  0.51100000000E-03 0.  1.
    9900012    2    1    2    0    0  0.93067764867E+00 -0.31398501621E+02  0.54760496758E+01  0.59301965675E+02  0.50000039480E+02 0.  0.
         12    1    1    2    0    0 -0.93067764867E+00  0.31398501621E+02 -0.54760496758E+01  0.31886034325E+02  0.00000000000E+00 0. -1.
         11    1    3    3    0    0 -0.11044941334E+02 -0.18258007822E+02 -0.12092648092E+02  0.24527081295E+02  0.51100000000E-03 0. -1.
        -11    1    3    3    0    0  0.15704418621E+02 -0.97415951484E+01  0.22141517491E+01  0.18612627662E+02  0.51100000000E-03 0.  1.
         12    1    3    3    0    0 -0.37287996390E+01 -0.33988986502E+01  0.15354546019E+02  0.16162256718E+02  0.00000000000E+00 0. -1.
</event>
<event>
 7    1  0.7749294E-012  0.5930195E+02  0.7816164E-02  0.1266605E+00
        -11   -1    0    0    0    0  0.00000000000E+00  0.00000000000E+00  0.45593999997E+02  0.45594000000E+02  0.51100000000E-03 0.  1.
         11   -1    0    0    0    0 -0.00000000000E+00 -0.00000000000E+00 -0.45593999997E+02  0.45594000000E+02  0.51100000000E-03 0. -1.
    9900012    2    1    2    0    0 -0.30727420942E+02  0.23262268293E+01  0.81935762207E+01  0.59301946304E+02  0.50000004152E+02 0.  0.
         12    1    1    2    0    0  0.30727420942E+02 -0.23262268293E+01 -0.81935762207E+01  0.31886053696E+02  0.00000000000E+00 0. -1.
         11    1    3    3    0    0 -0.25254952249E+02 -0.16480882182E+02 -0.32704400948E+01  0.30333609565E+02  0.51100000000E-03 0. -1.
        -11    1    3    3    0    0  0.55160940147E+01  0.93003322688E+01  0.60740247168E+00  0.10830162118E+02  0.51100000000E-03 0.  1.
        -12    1    3    3    0    0 -0.10988562708E+02  0.95067767423E+01  0.10856613844E+02  0.18138174621E+02  0.00000000000E+00 0.  1.
</event>
<event>
 7    1  0.7749294E-012  0.5930198E+02  0.7816164E-02  0.1266605E+00
        -11   -1    0    0    0    0  0.00000000000E+00  0.00000000000E+00  0.45593999997E+02  0.45594000000E+02  0.51100000000E-03 0.  1.
         11   -1    0    0    0    0 -0.00000000000E+00 -0.00000000000E+00 -0.45593999997E+02  0.45594000000E+02  0.51100000000E-03 0. -1.
    9900012    2    1    2    0    0 -0.22282212637E+02 -0.17861432462E+02  0.14184173811E+02  0.59301975533E+02  0.50000057458E+02 0.  0.
         12    1    1    2    0    0  0.22282212637E+02  0.17861432462E+02 -0.14184173811E+02  0.31886024467E+02  0.00000000000E+00 0. -1.
         11    1    3    3    0    0  0.45720508979E+01 -0.53565368832E+01  0.38954224368E+01  0.80480092579E+01  0.51100000000E-03 0. -1.
        -11    1    3    3    0    0 -0.33709700069E+02 -0.16634278575E+02  0.16569826108E+02  0.41080436219E+02  0.51100000000E-03 0.  1.
        -12    1    3    3    0    0  0.68554365338E+01  0.41293829959E+01 -0.62810747330E+01  0.10173530056E+02  0.00000000000E+00 0.  1.
</event>
<event>
 7    1  0.7749294E-012  0.5930189E+02  0.7816164E-02  0.1266605E+00
        -11   -1    0    0    0    0  0.00000000000E+00  0.00000000000E+00  0.45593999997E+02  0.45594000000E+02  0.51100000000E-03 0. -1.
         11   -1    0    0    0    0 -0.00000000000E+00 -0.00000000000E+00 -0.45593999997E+02  0.45594000000E+02  0.51100000000E-03 0.  1.
    9900012    2    1    2    0    0  0.85037285176E+01 -0.92605509419E+00 -0.30717308799E+02  0.59301889597E+02  0.49999900732E+02 0.  0.
         12    1    1    2    0    0 -0.85037285176E+01  0.92605509419E+00  0.30717308799E+02  0.31886110403E+02  0.00000000000E+00 0. -1.
         11    1    3    3    0    0  0.15056124025E+02 -0.54948900271E+01 -0.15967357389E+02  0.22623819070E+02  0.51100000000E-03 0. -1.
        -11    1    3    3    0    0 -0.12447444144E+02 -0.10362152087E+02 -0.22898726411E+01  0.16357156799E+02  0.51100000000E-03 0.  1.
        -12    1    3    3    0    0  0.58950486362E+01  0.14930987019E+02 -0.12460078770E+02  0.20320913728E+02  0.00000000000E+00 0.  1.
</event>
<event>
 7    1  0.7749294E-012  0.5930194E+02  0.7816164E-02  0.1266605E+00
        -11   -1    0    0    0    0  0.00000000000E+00  0.00000000000E+00  0.45593999997E+02  0.45594000000E+02  0.51100000000E-03 0. -1.
         11   -1    0    0    0    0 -0.00000000000E+00 -0.00000000000E+00 -0.45593999997E+02  0.45594000000E+02  0.51100000000E-03 0.  1.
    9900012    2    1    2    0    0  0.20908855287E+02 -0.16238690329E+02 -0.17772037789E+02  0.59301943169E+02  0.49999998435E+02 0.  0.
         12    1    1    2    0    0 -0.20908855287E+02  0.16238690329E+02  0.17772037789E+02  0.31886056831E+02  0.00000000000E+00 0. -1.
         11    1    3    3    0    0 -0.11015450534E+02  0.37309377232E+01 -0.83616666388E+01  0.14324018850E+02  0.51100000000E-03 0. -1.
        -11    1    3    3    0    0  0.26024593238E+02 -0.35213954245E+01 -0.79693611033E+01  0.27444314449E+02  0.51100000000E-03 0.  1.
        -12    1    3    3    0    0  0.58997125840E+01 -0.16448232627E+02 -0.14410100471E+01  0.17533609871E+02  0.00000000000E+00 0.  1.
</event>
<event>
 7    1  0.7749294E-012  0.5930193E+02  0.7816164E-02  0.1266605E+00
        -11   -1    0    0    0    0  0.00000000000E+00  0.00000000000E+00  0.45593999997E+02  0.45594000000E+02  0.51100000000E-03 0.  1.
         11   -1    0    0    0    0 -0.00000000000E+00 -0.00000000000E+00 -0.45593999997E+02  0.45594000000E+02  0.51100000000E-03 0. -1.
    9900012    2    1    2    0    0  0.10351513930E+02  0.19128510770E+02 -0.23316688381E+02  0.59301925893E+02  0.49999966927E+02 0.  0.
         12    1    1    2    0    0 -0.10351513930E+02 -0.19128510770E+02  0.23316688381E+02  0.31886074107E+02  0.00000000000E+00 0. -1.
         11    1    3    3    0    0  0.19296565398E+01  0.15475011039E+02 -0.28336114987E+02  0.32344009551E+02  0.51100000000E-03 0. -1.
        -11    1    3    3    0    0 -0.29291844352E+01  0.10305209054E+02  0.81177992605E+01  0.13441581759E+02  0.51100000000E-03 0.  1.
        -12    1    3    3    0    0  0.11351041826E+02 -0.66517093235E+01 -0.30983726542E+01  0.13516334583E+02  0.00000000000E+00 0.  1.
</event>
<event>
 7    1  0.7749294E-012  0.5930195E+02  0.7816164E-02  0.1266605E+00
        -11   -1    0    0    0    0  0.00000000000E+00  0.00000000000E+00  0.45593999997E+02  0.45594000000E+02  0.51100000000E-03 0.  1.
         11   -1    0    0    0    0 -0.00000000000E+00 -0.00000000000E+00 -0.45593999997E+02  0.45594000000E+02  0.51100000000E-03 0. -1.
    9900012    2    1    2    0    0 -0.19571105068E+02 -0.25066982350E+02  0.23105151686E+01  0.59301949162E+02  0.50000009364E+02 0.  0.
         12    1    1    2    0    0  0.19571105068E+02  0.25066982350E+02 -0.23105151686E+01  0.31886050838E+02  0.00000000000E+00 0. -1.
         11    1    3    3    0    0  0.32117678133E+01  0.70483025625E+01  0.44084857573E+01  0.89122818869E+01  0.51100000000E-03 0. -1.
        -11    1    3    3    0    0 -0.22512463509E+02 -0.37913236794E+02  0.33877144762E+00  0.44094662986E+02  0.51100000000E-03 0.  1.
        -12    1    3    3    0    0 -0.27040937215E+00  0.57979518820E+01 -0.24367420363E+01  0.62950042896E+01  0.00000000000E+00 0.  1.
</event>
<event>
 7    1  0.7749294E-012  0.5930190E+02  0.7816164E-02  0.1266605E+00
        -11   -1    0    0    0    0  0.00000000000E+00  0.00000000000E+00  0.45593999997E+02  0.45594000000E+02  0.51100000000E-03 0.  1.
         11   -1    0    0    0    0 -0.00000000000E+00 -0.00000000000E+00 -0.45593999997E+02  0.45594000000E+02  0.51100000000E-03 0. -1.
    9900012    2    1    2    0    0 -0.12728479800E+02  0.28977418935E+02  0.38753440539E+01  0.59301901184E+02  0.49999921864E+02 0.  0.
         12    1    1    2    0    0  0.12728479800E+02 -0.28977418935E+02 -0.38753440539E+01  0.31886098816E+02  0.00000000000E+00 0. -1.
         11    1    3    3    0    0  0.11641672400E+02  0.18332445125E+02  0.29712008999E+01  0.21918830160E+02  0.51100000000E-03 0. -1.
        -11    1    3    3    0    0 -0.26629427426E+02  0.10008372641E+01 -0.28284084856E+01  0.26797909901E+02  0.51100000000E-03 0.  1.
        -12    1    3    3    0    0  0.22592752258E+01  0.96441365461E+01  0.37325516396E+01  0.10585161123E+02  0.00000000000E+00 0.  1.
</event>
<event>
 7    1  0.7749294E-012  0.5930194E+02  0.7816164E-02  0.1266605E+00
        -11   -1    0    0    0    0  0.00000000000E+00  0.00000000000E+00  0.45593999997E+02  0.45594000000E+02  0.51100000000E-03 0.  1.
         11   -1    0    0    0    0 -0.00000000000E+00 -0.00000000000E+00 -0.45593999997E+02  0.45594000000E+02  0.51100000000E-03 0. -1.
    9900012    2    1    2    0    0 -0.37798242925E+01  0.15696992484E+02  0.27496153282E+02  0.59301935802E+02  0.49999984998E+02 0.  0.
         12    1    1    2    0    0  0.37798242925E+01 -0.15696992484E+02 -0.27496153282E+02  0.31886064198E+02  0.00000000000E+00 0. -1.
         11    1    3    3    0    0 -0.17731870654E+01 -0.10319384638E+02  0.18258052088E+01  0.10628614989E+02  0.51100000000E-03 0. -1.
        -11    1    3    3    0    0 -0.31980164204E+01  0.27102161496E+02  0.32049167740E+02  0.42093985555E+02  0.51100000000E-03 0.  1.
        -12    1    3    3    0    0  0.11913791934E+01 -0.10857843741E+01 -0.63788196673E+01  0.65793352580E+01  0.00000000000E+00 0.  1.
</event>
<event>
 7    1  0.7749294E-012  0.5930195E+02  0.7816164E-02  0.1266605E+00
        -11   -1    0    0    0    0  0.00000000000E+00  0.00000000000E+00  0.45593999997E+02  0.45594000000E+02  0.51100000000E-03 0.  1.
         11   -1    0    0    0    0 -0.00000000000E+00 -0.00000000000E+00 -0.45593999997E+02  0.45594000000E+02  0.51100000000E-03 0. -1.
    9900012    2    1    2    0    0  0.11286718052E+02 -0.25463985460E+02  0.15521467139E+02  0.59301945022E+02  0.50000001814E+02 0.  0.
         12    1    1    2    0    0 -0.11286718052E+02  0.25463985460E+02 -0.15521467139E+02  0.31886054978E+02  0.00000000000E+00 0. -1.
         11    1    3    3    0    0 -0.50734673247E+01  0.30979069933E+01 -0.12433678826E+02  0.13781635166E+02  0.51100000000E-03 0. -1.
        -11    1    3    3    0    0  0.46799914800E+01 -0.88650232837E+01  0.17888196235E+02  0.20505572971E+02  0.51100000000E-03 0.  1.
         12    1    3    3    0    0  0.11680193897E+02 -0.19696869170E+02  0.10066949730E+02  0.25014736885E+02  0.00000000000E+00 0. -1.
</event>
<event>
 7    1  0.7749294E-012  0.5930196E+02  0.7816164E-02  0.1266605E+00
        -11   -1    0    0    0    0  0.00000000000E+00  0.00000000000E+00  0.45593999997E+02  0.45594000000E+02  0.51100000000E-03 0. -1.
         11   -1    0    0    0    0 -0.00000000000E+00 -0.00000000000E+00 -0.45593999997E+02  0.45594000000E+02  0.51100000000E-03 0.  1.
    9900012    2    1    2    0    0 -0.60900319169E+01  0.28361299076E+02 -0.13238880678E+02  0.59301957040E+02  0.50000023732E+02 0.  0.
         12    1    1    2    0    0  0.60900319169E+01 -0.28361299076E+02  0.13238880678E+02  0.31886042960E+02  0.00000000000E+00 0. -1.
         11    1    3    3    0    0  0.11970342486E+01  0.27061309817E+02  0.49806208259E+01  0.27541858399E+02  0.51100000000E-03 0. -1.
        -11    1    3    3    0    0 -0.15390533567E+02 -0.55526820987E-01 -0.17803203463E+02  0.23533500813E+02  0.51100000000E-03 0.  1.
         12    1    3    3    0    0  0.81034674014E+01  0.13555160798E+01 -0.41629804120E+00  0.82265978282E+01  0.00000000000E+00 0. -1.
</event>
<event>
 7    1  0.7749294E-012  0.5930195E+02  0.7816164E-02  0.1266605E+00
        -11   -1    0    0    0    0  0.00000000000E+00  0.00000000000E+00  0.45593999997E+02  0.45594000000E+02  0.51100000000E-03 0. -1.
         11   -1    0    0    0    0 -0.00000000000E+00 -0.00000000000E+00 -0.45593999997E+02  0.45594000000E+02  0.51100000000E-03 0.  1.
    9900012    2    1    2    0    0 -0.13363856347E+02 -0.95424950581E+01 -0.27332546341E+02  0.59301953555E+02  0.50000017376E+02 0.  0.
         12    1    1    2    0    0  0.13363856347E+02  0.95424950581E+01  0.27332546341E+02  0.31886046445E+02  0.00000000000E+00 0. -1.
         11    1    3    3    0    0 -0.34761043694E+01 -0.55325867460E+01  0.68685095354E+01  0.94799388810E+01  0.51100000000E-03 0. -1.
        -11    1    3    3    0    0  0.92085087774E+01 -0.57155288394E+01 -0.27422724587E+02  0.29486772083E+02  0.51100000000E-03 0.  1.
        -12    1    3    3    0    0 -0.19096260755E+02  0.17056205273E+01 -0.67783312891E+01  0.20335242592E+02  0.00000000000E+00 0.  1.
</event>
<event>
 7    1  0.7749294E-012  0.5930195E+02  0.7816164E-02  0.1266605E+00
        -11   -1    0    0    0    0  0.00000000000E+00  0.00000000000E+00  0.45593999997E+02  0.45594000000E+02  0.51100000000E-03 0.  1.
         11   -1    0    0    0    0 -0.00000000000E+00 -0.00000000000E+00 -0.45593999997E+02  0.45594000000E+02  0.51100000000E-03 0. -1.
    9900012    2    1    2    0    0 -0.19925120479E+02 -0.77284365127E+01  0.23663912306E+02  0.59301954421E+02  0.50000018955E+02 0.  0.
         12    1    1    2    0    0  0.19925120479E+02  0.77284365127E+01 -0.23663912306E+02  0.31886045579E+02  0.00000000000E+00 0. -1.
         11    1    3    3    0    0 -0.11433344914E+02  0.91267459957E+01 -0.93575174243E+01  0.17366116463E+02  0.51100000000E-03 0. -1.
        -11    1    3    3    0    0 -0.84321206036E+01 -0.11250152394E-01  0.15409820321E+02  0.17565971280E+02  0.51100000000E-03 0.  1.
         12    1    3    3    0    0 -0.59654961229E-01 -0.16843932356E+02  0.17611609409E+02  0.24369866678E+02  0.00000000000E+00 0. -1.
</event>
<event>
 7    1  0.7749294E-012  0.5930190E+02  0.7816164E-02  0.1266605E+00
        -11   -1    0    0    0    0  0.00000000000E+00  0.00000000000E+00  0.45593999997E+02  0.45594000000E+02  0.51100000000E-03 0.  1.
         11   -1    0    0    0    0 -0.00000000000E+00 -0.00000000000E+00 -0.45593999997E+02  0.45594000000E+02  0.51100000000E-03 0. -1.
    9900012    2    1    2    0    0  0.17270258885E+02  0.20204544648E+02  0.17613572679E+02  0.59301899441E+02  0.49999918684E+02 0.  0.
         12    1    1    2    0    0 -0.17270258885E+02 -0.20204544648E+02 -0.17613572679E+02  0.31886100559E+02  0.00000000000E+00 0. -1.
         11    1    3    3    0    0 -0.11136292108E+02 -0.43626327802E+01  0.35330396100E+01  0.12471244358E+02  0.51100000000E-03 0. -1.
        -11    1    3    3    0    0  0.11790572786E+02  0.25363421405E+02  0.99853093726E+01  0.29698941993E+02  0.51100000000E-03 0.  1.
         12    1    3    3    0    0  0.16615978207E+02 -0.79624397684E+00  0.40952236960E+01  0.17131713089E+02  0.00000000000E+00 0. -1.
</event>
<event>
 7    1  0.7749294E-012  0.5930192E+02  0.7816164E-02  0.1266605E+00
        -11   -1    0    0    0    0  0.00000000000E+00  0.00000000000E+00  0.45593999997E+02  0.45594000000E+02  0.51100000000E-03 0.  1.
         11   -1    0    0    0    0 -0.00000000000E+00 -0.00000000000E+00 -0.45593999997E+02  0.45594000000E+02  0.51100000000E-03 0. -1.
    9900012    2    1    2    0    0  0.27036254567E+02  0.87906507473E+01  0.14439089605E+02  0.59301922942E+02  0.49999961544E+02 0.  0.
         12    1    1    2    0    0 -0.27036254567E+02 -0.87906507473E+01 -0.14439089605E+02  0.31886077058E+02  0.00000000000E+00 0. -1.
         11    1    3    3    0    0  0.30031652316E+02  0.55725203354E+01  0.27856010871E+01  0.30671040045E+02  0.51100000000E-03 0. -1.
        -11    1    3    3    0    0 -0.32676955646E+01  0.90505981769E+01  0.17749329849E+02  0.20189845765E+02  0.51100000000E-03 0.  1.
         12    1    3    3    0    0  0.27229781493E+00 -0.58324677651E+01 -0.60958413314E+01  0.84410371323E+01  0.00000000000E+00 0. -1.
</event>
<event>
 7    1  0.7749294E-012  0.5930195E+02  0.7816164E-02  0.1266605E+00
        -11   -1    0    0    0    0  0.00000000000E+00  0.00000000000E+00  0.45593999997E+02  0.45594000000E+02  0.51100000000E-03 0. -1.
         11   -1    0    0    0    0 -0.00000000000E+00 -0.00000000000E+00 -0.45593999997E+02  0.45594000000E+02  0.51100000000E-03 0.  1.
    9900012    2    1    2    0    0  0.67332972935E+01  0.29901133398E+02 -0.87923263116E+01  0.59301951751E+02  0.50000014086E+02 0.  0.
         12    1    1    2    0    0 -0.67332972935E+01 -0.29901133398E+02  0.87923263116E+01  0.31886048249E+02  0.00000000000E+00 0. -1.
         11    1    3    3    0    0  0.20325757460E+02 -0.28284027802E+00 -0.75873220534E+00  0.20341880193E+02  0.51100000000E-03 0. -1.
        -11    1    3    3    0    0 -0.14378447706E+02  0.22860767307E+02  0.13390870517E+01  0.27039741025E+02  0.51100000000E-03 0.  1.
        -12    1    3    3    0    0  0.78598753895E+00  0.73232063690E+01 -0.93726811580E+01  0.11920330533E+02  0.00000000000E+00 0.  1.
</event>
<event>
 7    1  0.7749294E-012  0.5930193E+02  0.7816164E-02  0.1266605E+00
        -11   -1    0    0    0    0  0.00000000000E+00  0.00000000000E+00  0.45593999997E+02  0.45594000000E+02  0.51100000000E-03 0.  1.
         11   -1    0    0    0    0 -0.00000000000E+00 -0.00000000000E+00 -0.45593999997E+02  0.45594000000E+02  0.51100000000E-03 0. -1.
    9900012    2    1    2    0    0 -0.18652637233E+02  0.25373835597E+02  0.49969144730E+01  0.59301928387E+02  0.49999971476E+02 0.  0.
         12    1    1    2    0    0  0.18652637233E+02 -0.25373835597E+02 -0.49969144730E+01  0.31886071613E+02  0.00000000000E+00 0. -1.
         11    1    3    3    0    0 -0.21524655603E+02  0.20007029947E+02 -0.14984415879E+01  0.29425114674E+02  0.51100000000E-03 0. -1.
        -11    1    3    3    0    0  0.13821230988E+02  0.97953455335E+01  0.13507642230E+01  0.16994110285E+02  0.51100000000E-03 0.  1.
        -12    1    3    3    0    0 -0.10949212617E+02 -0.44285398836E+01  0.51445918380E+01  0.12882703428E+02  0.00000000000E+00 0.  1.
</event>
<event>
 7    1  0.7749294E-012  0.5930194E+02  0.7816164E-02  0.1266605E+00
        -11   -1    0    0    0    0  0.00000000000E+00  0.00000000000E+00  0.45593999997E+02  0.45594000000E+02  0.51100000000E-03 0. -1.
         11   -1    0    0    0    0 -0.00000000000E+00 -0.00000000000E+00 -0.45593999997E+02  0.45594000000E+02  0.51100000000E-03 0.  1.
    9900012    2    1    2    0    0 -0.18580238793E+02  0.14621449573E+02 -0.21394129940E+02  0.59301939454E+02  0.49999991660E+02 0.  0.
         12    1    1    2    0    0  0.18580238793E+02 -0.14621449573E+02  0.21394129940E+02  0.31886060546E+02  0.00000000000E+00 0. -1.
         11    1    3    3    0    0  0.11006584792E+02  0.52392518678E+01  0.44294678032E+01  0.12969766929E+02  0.51100000000E-03 0. -1.
        -11    1    3    3    0    0 -0.25190630946E+02  0.67452891139E+01 -0.72543368627E+01  0.27068288018E+02  0.51100000000E-03 0.  1.
         12    1    3    3    0    0 -0.43961926394E+01  0.26369085917E+01 -0.18569260880E+02  0.19263884507E+02  0.00000000000E+00 0. -1.
</event>
<event>
 7    1  0.7749294E-012  0.5930199E+02  0.7816164E-02  0.1266605E+00
        -11   -1    0    0    0    0  0.00000000000E+00  0.00000000000E+00  0.45593999997E+02  0.45594000000E+02  0.51100000000E-03 0. -1.
         11   -1    0    0    0    0 -0.00000000000E+00 -0.00000000000E+00 -0.45593999997E+02  0.45594000000E+02  0.51100000000E-03 0.  1.
    9900012    2    1    2    0    0 -0.18289430125E+02  0.21962203856E+02 -0.14137749898E+02  0.59301990141E+02  0.50000084100E+02 0.  0.
         12    1    1    2    0    0  0.18289430125E+02 -0.21962203856E+02  0.14137749898E+02  0.31886009859E+02  0.00000000000E+00 0. -1.
         11    1    3    3    0    0  0.65401595909E+01 -0.44095547714E+01 -0.27214336397E+00  0.78925232358E+01  0.51100000000E-03 0. -1.
        -11    1    3    3    0    0 -0.17967113613E+02  0.17750818477E+02 -0.25146124441E+02  0.35640374617E+02  0.51100000000E-03 0.  1.
        -12    1    3    3    0    0 -0.68624761032E+01  0.86209401510E+01  0.11280517907E+02  0.15769092288E+02  0.00000000000E+00 0.  1.
</event>
<event>
 7    1  0.7749294E-012  0.5930205E+02  0.7816164E-02  0.1266604E+00
        -11   -1    0    0    0    0  0.00000000000E+00  0.00000000000E+00  0.45593999997E+02  0.45594000000E+02  0.51100000000E-03 0. -1.
         11   -1    0    0    0    0 -0.00000000000E+00 -0.00000000000E+00 -0.45593999997E+02  0.45594000000E+02  0.51100000000E-03 0.  1.
    9900012    2    1    2    0    0 -0.16488054427E+02  0.12154268489E+02 -0.24436283147E+02  0.59302045171E+02  0.50000184461E+02 0.  0.
         12    1    1    2    0    0  0.16488054427E+02 -0.12154268489E+02  0.24436283147E+02  0.31885954829E+02  0.00000000000E+00 0. -1.
         11    1    3    3    0    0  0.10409050794E+02 -0.29739243699E+01 -0.39226892174E+01  0.11514341299E+02  0.51100000000E-03 0. -1.
        -11    1    3    3    0    0 -0.30234752271E+02  0.20623138804E+02 -0.16063306335E+02  0.39968536497E+02  0.51100000000E-03 0.  1.
        -12    1    3    3    0    0  0.33376470504E+01 -0.54949459446E+01 -0.44502875945E+01  0.78191673752E+01  0.00000000000E+00 0.  1.
</event>
<event>
 7    1  0.7749294E-012  0.5930195E+02  0.7816164E-02  0.1266605E+00
        -11   -1    0    0    0    0  0.00000000000E+00  0.00000000000E+00  0.45593999997E+02  0.45594000000E+02  0.51100000000E-03 0.  1.
         11   -1    0    0    0    0 -0.00000000000E+00 -0.00000000000E+00 -0.45593999997E+02  0.45594000000E+02  0.51100000000E-03 0. -1.
    9900012    2    1    2    0    0  0.12169886239E+02  0.86489906661E+01  0.28174614700E+02  0.59301951576E+02  0.50000013766E+02 0.  0.
         12    1    1    2    0    0 -0.12169886239E+02 -0.86489906661E+01 -0.28174614700E+02  0.31886048424E+02  0.00000000000E+00 0. -1.
         11    1    3    3    0    0 -0.66308754367E+01  0.10592863798E+02  0.83005474058E+01  0.15002545117E+02  0.51100000000E-03 0. -1.
        -11    1    3    3    0    0  0.13145112607E+02 -0.13820811768E+02 -0.15739611442E+01  0.19138604372E+02  0.51100000000E-03 0.  1.
        -12    1    3    3    0    0  0.56556490686E+01  0.11876938636E+02  0.21448028438E+02  0.25160802086E+02  0.00000000000E+00 0.  1.
</event>
<event>
 7    1  0.7749294E-012  0.5930195E+02  0.7816164E-02  0.1266605E+00
        -11   -1    0    0    0    0  0.00000000000E+00  0.00000000000E+00  0.45593999997E+02  0.45594000000E+02  0.51100000000E-03 0.  1.
         11   -1    0    0    0    0 -0.00000000000E+00 -0.00000000000E+00 -0.45593999997E+02  0.45594000000E+02  0.51100000000E-03 0. -1.
    9900012    2    1    2    0    0 -0.15752941041E+01  0.95993403990E-01  0.31846966077E+02  0.59301952667E+02  0.50000015756E+02 0.  0.
         12    1    1    2    0    0  0.15752941041E+01 -0.95993403990E-01 -0.31846966077E+02  0.31886047333E+02  0.00000000000E+00 0. -1.
         11    1    3    3    0    0 -0.30265798878E+01  0.33631676091E+01 -0.61861608767E+01  0.76641808980E+01  0.51100000000E-03 0. -1.
        -11    1    3    3    0    0  0.16006092128E+02 -0.70314430162E+00  0.31780518313E+02  0.35590599062E+02  0.51100000000E-03 0.  1.
        -12    1    3    3    0    0 -0.14554806344E+02 -0.25640299035E+01  0.62526086406E+01  0.16047172707E+02  0.00000000000E+00 0.  1.
</event>
<event>
 7    1  0.7749294E-012  0.5930194E+02  0.7816164E-02  0.1266605E+00
        -11   -1    0    0    0    0  0.00000000000E+00  0.00000000000E+00  0.45593999997E+02  0.45594000000E+02  0.51100000000E-03 0.  1.
         11   -1    0    0    0    0 -0.00000000000E+00 -0.00000000000E+00 -0.45593999997E+02  0.45594000000E+02  0.51100000000E-03 0. -1.
    9900012    2    1    2    0    0  0.16887838567E+02  0.61610200946E+01  0.26335596830E+02  0.59301938461E+02  0.49999989849E+02 0.  0.
         12    1    1    2    0    0 -0.16887838567E+02 -0.61610200946E+01 -0.26335596830E+02  0.31886061539E+02  0.00000000000E+00 0. -1.
         11    1    3    3    0    0 -0.83656908738E+01 -0.14962271595E+02  0.14704572176E+02  0.22584924136E+02  0.51100000000E-03 0. -1.
        -11    1    3    3    0    0  0.10454078145E+02  0.12272362349E+02  0.10893972332E+02  0.19457061980E+02  0.51100000000E-03 0.  1.
         12    1    3    3    0    0  0.14799451296E+02  0.88509293408E+01  0.73705232203E+00  0.17259952346E+02  0.00000000000E+00 0. -1.
</event>
<event>
 7    1  0.7749294E-012  0.5930195E+02  0.7816164E-02  0.1266605E+00
        -11   -1    0    0    0    0  0.00000000000E+00  0.00000000000E+00  0.45593999997E+02  0.45594000000E+02  0.51100000000E-03 0. -1.
         11   -1    0    0    0    0 -0.00000000000E+00 -0.00000000000E+00 -0.45593999997E+02  0.45594000000E+02  0.51100000000E-03 0.  1.
    9900012    2    1    2    0    0 -0.61375076642E+01  0.22121563865E+01 -0.31211498404E+02  0.59301948679E+02  0.50000008483E+02 0.  0.
         12    1    1    2    0    0  0.61375076642E+01 -0.22121563865E+01  0.31211498404E+02  0.31886051321E+02  0.00000000000E+00 0. -1.
         11    1    3    3    0    0  0.28230962875E+01 -0.23178101373E+01  0.13090054855E+01  0.38801561957E+01  0.51100000000E-03 0. -1.
        -11    1    3    3    0    0 -0.15216956550E+02 -0.15337469426E+02 -0.25542817676E+02  0.33454884100E+02  0.51100000000E-03 0.  1.
        -12    1    3    3    0    0  0.62563525984E+01  0.19867435950E+02 -0.69776862137E+01  0.21966908384E+02  0.00000000000E+00 0.  1.
</event>
<event>
 7    1  0.7749294E-012  0.5930194E+02  0.7816164E-02  0.1266605E+00
        -11   -1    0    0    0    0  0.00000000000E+00  0.00000000000E+00  0.45593999997E+02  0.45594000000E+02  0.51100000000E-03 0.  1.
         11   -1    0    0    0    0 -0.00000000000E+00 -0.00000000000E+00 -0.45593999997E+02  0.45594000000E+02  0.51100000000E-03 0. -1.
    9900012    2    1    2    0    0  0.17652860663E+02 -0.14071525391E+02  0.22518649244E+02  0.59301939093E+02  0.49999991000E+02 0.  0.
         12    1    1    2    0    0 -0.17652860663E+02  0.14071525391E+02 -0.22518649244E+02  0.31886060907E+02  0.00000000000E+00 0. -1.
         11    1    3    3    0    0  0.39446279512E+01  0.48419741789E+01 -0.58845018642E+01  0.85809187197E+01  0.51100000000E-03 0. -1.
        -11    1    3    3    0    0  0.24808858753E+02 -0.17461235575E+02  0.24031399424E+02  0.38702485437E+02  0.51100000000E-03 0.  1.
        -12    1    3    3    0    0 -0.11100626041E+02 -0.14522639944E+01  0.43717516836E+01  0.12018534936E+02  0.00000000000E+00 0.  1.
</event>
<event>
 7    1  0.7749294E-012  0.5930195E+02  0.7816164E-02  0.1266605E+00
        -11   -1    0    0    0    0  0.00000000000E+00  0.00000000000E+00  0.45593999997E+02  0.45594000000E+02  0.51100000000E-03 0.  1.
         11   -1    0    0    0    0 -0.00000000000E+00 -0.00000000000E+00 -0.45593999997E+02  0.45594000000E+02  0.51100000000E-03 0. -1.
    9900012    2    1    2    0    0  0.19865380201E+02 -0.21171011289E+02  0.13186162057E+02  0.59301954160E+02  0.50000018479E+02 0.  0.
         12    1    1    2    0    0 -0.19865380201E+02  0.21171011289E+02 -0.13186162057E+02  0.31886045840E+02  0.00000000000E+00 0. -1.
         11    1    3    3    0    0  0.15720050018E+01 -0.12055434522E+02 -0.63848378114E+01  0.13732110376E+02  0.51100000000E-03 0. -1.
        -11    1    3    3    0    0  0.22986171312E+02 -0.10687742531E+02  0.26748101768E+02  0.36851768755E+02  0.51100000000E-03 0.  1.
        -12    1    3    3    0    0 -0.46927961126E+01  0.15721657635E+01 -0.71771018991E+01  0.87180750291E+01  0.00000000000E+00 0.  1.
</event>
<event>
 7    1  0.7749294E-012  0.5930191E+02  0.7816164E-02  0.1266605E+00
        -11   -1    0    0    0    0  0.00000000000E+00  0.00000000000E+00  0.45593999997E+02  0.45594000000E+02  0.51100000000E-03 0. -1.
         11   -1    0    0    0    0 -0.00000000000E+00 -0.00000000000E+00 -0.45593999997E+02  0.45594000000E+02  0.51100000000E-03 0.  1.
    9900012    2    1    2    0    0  0.10628113210E+02  0.22320385920E+02 -0.20138672756E+02  0.59301912776E+02  0.49999943005E+02 0.  0.
         12    1    1    2    0    0 -0.10628113210E+02 -0.22320385920E+02  0.20138672756E+02  0.31886087224E+02  0.00000000000E+00 0. -1.
         11    1    3    3    0    0 -0.11928517089E+02  0.80624388179E+01  0.11650776622E+01  0.14444716884E+02  0.51100000000E-03 0. -1.
        -11    1    3    3    0    0  0.20202737909E+02  0.22717841085E+02 -0.14161222338E+02  0.33537906031E+02  0.51100000000E-03 0.  1.
        -12    1    3    3    0    0  0.23538923905E+01 -0.84598939824E+01 -0.71425280801E+01  0.11319289861E+02  0.00000000000E+00 0.  1.
</event>
<event>
 7    1  0.7749294E-012  0.5930197E+02  0.7816164E-02  0.1266605E+00
        -11   -1    0    0    0    0  0.00000000000E+00  0.00000000000E+00  0.45593999997E+02  0.45594000000E+02  0.51100000000E-03 0.  1.
         11   -1    0    0    0    0 -0.00000000000E+00 -0.00000000000E+00 -0.45593999997E+02  0.45594000000E+02  0.51100000000E-03 0. -1.
    9900012    2    1    2    0    0  0.11468942588E+02 -0.88361745948E+01 -0.28409585038E+02  0.59301966262E+02  0.50000040549E+02 0.  0.
         12    1    1    2    0    0 -0.11468942588E+02  0.88361745948E+01  0.28409585038E+02  0.31886033738E+02  0.00000000000E+00 0. -1.
         11    1    3    3    0    0  0.26892239113E+02 -0.14104689846E+02 -0.11871115292E+02  0.32604572972E+02  0.51100000000E-03 0.  1.
        -11    1    3    3    0    0 -0.15195802025E+02  0.44682469186E+01 -0.18626070348E+02  0.24450115063E+02  0.51100000000E-03 0. -1.
         12    1    3    3    0    0 -0.22749450026E+00  0.80026833255E+00  0.20876006024E+01  0.22472782264E+01  0.00000000000E+00 0. -1.
</event>
<event>
 7    1  0.7749294E-012  0.5930196E+02  0.7816164E-02  0.1266605E+00
        -11   -1    0    0    0    0  0.00000000000E+00  0.00000000000E+00  0.45593999997E+02  0.45594000000E+02  0.51100000000E-03 0. -1.
         11   -1    0    0    0    0 -0.00000000000E+00 -0.00000000000E+00 -0.45593999997E+02  0.45594000000E+02  0.51100000000E-03 0.  1.
    9900012    2    1    2    0    0 -0.24557271786E+02  0.17468977929E+02 -0.10416070075E+02  0.59301963820E+02  0.50000036096E+02 0.  0.
         12    1    1    2    0    0  0.24557271786E+02 -0.17468977929E+02  0.10416070075E+02  0.31886036180E+02  0.00000000000E+00 0. -1.
         11    1    3    3    0    0 -0.12949462881E+01  0.13239012845E-02  0.54702444749E+01  0.56214288680E+01  0.51100000000E-03 0. -1.
        -11    1    3    3    0    0 -0.80967309014E+01  0.30328199471E+02 -0.99034844758E+01  0.32915585054E+02  0.51100000000E-03 0.  1.
        -12    1    3    3    0    0 -0.15165594597E+02 -0.12860545443E+02 -0.59828300744E+01  0.20764949898E+02  0.00000000000E+00 0.  1.
</event>
<event>
 7    1  0.7749294E-012  0.5930192E+02  0.7816164E-02  0.1266605E+00
        -11   -1    0    0    0    0  0.00000000000E+00  0.00000000000E+00  0.45593999997E+02  0.45594000000E+02  0.51100000000E-03 0. -1.
         11   -1    0    0    0    0 -0.00000000000E+00 -0.00000000000E+00 -0.45593999997E+02  0.45594000000E+02  0.51100000000E-03 0.  1.
    9900012    2    1    2    0    0 -0.72417604694E+01 -0.30959172669E+02  0.24100687382E+01  0.59301923126E+02  0.49999961881E+02 0.  0.
         12    1    1    2    0    0  0.72417604694E+01  0.30959172669E+02 -0.24100687382E+01  0.31886076874E+02  0.00000000000E+00 0. -1.
         11    1    3    3    0    0 -0.68759994557E+01  0.11457828823E+02 -0.59128487614E+01  0.14612425897E+02  0.51100000000E-03 0. -1.
        -11    1    3    3    0    0 -0.20217426589E+01 -0.11372862074E+02 -0.24114184534E+01  0.11800185353E+02  0.51100000000E-03 0.  1.
        -12    1    3    3    0    0  0.16559816452E+01 -0.31044139418E+02  0.10734335953E+02  0.32889311877E+02  0.00000000000E+00 0.  1.
</event>
<event>
 7    1  0.7749294E-012  0.5930177E+02  0.7816164E-02  0.1266605E+00
        -11   -1    0    0    0    0  0.00000000000E+00  0.00000000000E+00  0.45593999997E+02  0.45594000000E+02  0.51100000000E-03 0. -1.
         11   -1    0    0    0    0 -0.00000000000E+00 -0.00000000000E+00 -0.45593999997E+02  0.45594000000E+02  0.51100000000E-03 0.  1.
    9900012    2    1    2    0    0  0.18965527528E+02 -0.24644017542E+02 -0.70507519827E+01  0.59301765689E+02  0.49999674752E+02 0.  0.
         12    1    1    2    0    0 -0.18965527528E+02  0.24644017542E+02  0.70507519827E+01  0.31886234311E+02  0.00000000000E+00 0. -1.
         11    1    3    3    0    0 -0.25884026434E+01 -0.14092837583E+00  0.36135438772E+01  0.44471776067E+01  0.51100000000E-03 0. -1.
        -11    1    3    3    0    0  0.30192923345E+02 -0.35670550685E+01 -0.15541063844E+01  0.30442597605E+02  0.51100000000E-03 0.  1.
        -12    1    3    3    0    0 -0.86389931743E+01 -0.20936034098E+02 -0.91101894755E+01  0.24411990478E+02  0.00000000000E+00 0.  1.
</event>
<event>
 7    1  0.7749294E-012  0.5930205E+02  0.7816164E-02  0.1266604E+00
        -11   -1    0    0    0    0  0.00000000000E+00  0.00000000000E+00  0.45593999997E+02  0.45594000000E+02  0.51100000000E-03 0. -1.
         11   -1    0    0    0    0 -0.00000000000E+00 -0.00000000000E+00 -0.45593999997E+02  0.45594000000E+02  0.51100000000E-03 0.  1.
    9900012    2    1    2    0    0  0.11482705521E+02  0.28473627890E+02 -0.86089525187E+01  0.59302045807E+02  0.50000185621E+02 0.  0.
         12    1    1    2    0    0 -0.11482705521E+02 -0.28473627890E+02  0.86089525187E+01  0.31885954193E+02  0.00000000000E+00 0. -1.
         11    1    3    3    0    0  0.10472224325E+02  0.12823431924E+02 -0.11872863470E+02  0.20373334923E+02  0.51100000000E-03 0.  1.
        -11    1    3    3    0    0 -0.15139311833E+02  0.98208534017E+01 -0.64955718541E+01  0.19179165213E+02  0.51100000000E-03 0. -1.
        -12    1    3    3    0    0  0.16149793028E+02  0.58293425644E+01  0.97594828055E+01  0.19749545671E+02  0.00000000000E+00 0.  1.
</event>
<event>
 7    1  0.7749294E-012  0.5930194E+02  0.7816164E-02  0.1266605E+00
        -11   -1    0    0    0    0  0.00000000000E+00  0.00000000000E+00  0.45593999997E+02  0.45594000000E+02  0.51100000000E-03 0.  1.
         11   -1    0    0    0    0 -0.00000000000E+00 -0.00000000000E+00 -0.45593999997E+02  0.45594000000E+02  0.51100000000E-03 0. -1.
    9900012    2    1    2    0    0 -0.30911618398E+02  0.32996084017E+01  0.70926323083E+01  0.59301937204E+02  0.49999987555E+02 0.  0.
         12    1    1    2    0    0  0.30911618398E+02 -0.32996084017E+01 -0.70926323083E+01  0.31886062796E+02  0.00000000000E+00 0. -1.
         11    1    3    3    0    0 -0.30850558188E+02  0.43259777661E+01  0.22732988706E+02  0.38565007454E+02  0.51100000000E-03 0.  1.
        -11    1    3    3    0    0  0.60754613375E+01  0.33060615668E+00 -0.12049768791E+02  0.13498794726E+02  0.51100000000E-03 0. -1.
        -12    1    3    3    0    0 -0.61365215474E+01 -0.13569755211E+01 -0.35905876072E+01  0.72381350244E+01  0.00000000000E+00 0.  1.
</event>
<event>
 7    1  0.7749294E-012  0.5930209E+02  0.7816164E-02  0.1266604E+00
        -11   -1    0    0    0    0  0.00000000000E+00  0.00000000000E+00  0.45593999997E+02  0.45594000000E+02  0.51100000000E-03 0.  1.
         11   -1    0    0    0    0 -0.00000000000E+00 -0.00000000000E+00 -0.45593999997E+02  0.45594000000E+02  0.51100000000E-03 0. -1.
    9900012    2    1    2    0    0  0.86220720572E+01 -0.23542892290E+02  0.19700342842E+02  0.59302087562E+02  0.50000261771E+02 0.  0.
         12    1    1    2    0    0 -0.86220720572E+01  0.23542892290E+02 -0.19700342842E+02  0.31885912438E+02  0.00000000000E+00 0. -1.
         11    1    3    3    0    0  0.50642506347E+01  0.72821501068E+01  0.24362645681E+01  0.91984634573E+01  0.51100000000E-03 0. -1.
        -11    1    3    3    0    0 -0.13239182351E+02 -0.20942480448E+02  0.17962521057E+02  0.30602542372E+02  0.51100000000E-03 0.  1.
        -12    1    3    3    0    0  0.16797003773E+02 -0.98825619481E+01 -0.69844278351E+00  0.19501081732E+02  0.00000000000E+00 0.  1.
</event>
<event>
 7    1  0.7749294E-012  0.5930196E+02  0.7816164E-02  0.1266605E+00
        -11   -1    0    0    0    0  0.00000000000E+00  0.00000000000E+00  0.45593999997E+02  0.45594000000E+02  0.51100000000E-03 0. -1.
         11   -1    0    0    0    0 -0.00000000000E+00 -0.00000000000E+00 -0.45593999997E+02  0.45594000000E+02  0.51100000000E-03 0.  1.
    9900012    2    1    2    0    0  0.25193318152E+02 -0.19381974075E+02 -0.25210228704E+01  0.59301956738E+02  0.50000023181E+02 0.  0.
         12    1    1    2    0    0 -0.25193318152E+02  0.19381974075E+02  0.25210228704E+01  0.31886043262E+02  0.00000000000E+00 0. -1.
         11    1    3    3    0    0 -0.16875465413E+01 -0.80207963145E+01  0.10278979248E+02  0.13146801949E+02  0.51100000000E-03 0. -1.
        -11    1    3    3    0    0  0.82515364430E+01 -0.15223178348E+02 -0.19412795763E+02  0.26013259163E+02  0.51100000000E-03 0.  1.
        -12    1    3    3    0    0  0.18629328251E+02  0.38620005879E+01  0.66127936444E+01  0.20141895626E+02  0.00000000000E+00 0.  1.
</event>
<event>
 7    1  0.7749294E-012  0.5930193E+02  0.7816164E-02  0.1266605E+00
        -11   -1    0    0    0    0  0.00000000000E+00  0.00000000000E+00  0.45593999997E+02  0.45594000000E+02  0.51100000000E-03 0.  1.
         11   -1    0    0    0    0 -0.00000000000E+00 -0.00000000000E+00 -0.45593999997E+02  0.45594000000E+02  0.51100000000E-03 0. -1.
    9900012    2    1    2    0    0  0.75034838260E+00  0.11035634499E+02  0.29906070306E+02  0.59301932625E+02  0.49999979204E+02 0.  0.
         12    1    1    2    0    0 -0.75034838260E+00 -0.11035634499E+02 -0.29906070306E+02  0.31886067375E+02  0.00000000000E+00 0. -1.
         11    1    3    3    0    0 -0.30641836621E+01  0.21843855319E+01 -0.39161666092E+01  0.54311253750E+01  0.51100000000E-03 0. -1.
        -11    1    3    3    0    0  0.17180633182E+02  0.16975871349E+02  0.28478775204E+02  0.37341598814E+02  0.51100000000E-03 0.  1.
        -12    1    3    3    0    0 -0.13366101137E+02 -0.81246223815E+01  0.53434617112E+01  0.16529208436E+02  0.00000000000E+00 0.  1.
</event>
<event>
 7    1  0.7749294E-012  0.5930194E+02  0.7816164E-02  0.1266605E+00
        -11   -1    0    0    0    0  0.00000000000E+00  0.00000000000E+00  0.45593999997E+02  0.45594000000E+02  0.51100000000E-03 0.  1.
         11   -1    0    0    0    0 -0.00000000000E+00 -0.00000000000E+00 -0.45593999997E+02  0.45594000000E+02  0.51100000000E-03 0. -1.
    9900012    2    1    2    0    0 -0.13308780914E+02 -0.16278234143E+02  0.23971149970E+02  0.59301943688E+02  0.49999999380E+02 0.  0.
         12    1    1    2    0    0  0.13308780914E+02  0.16278234143E+02 -0.23971149970E+02  0.31886056312E+02  0.00000000000E+00 0. -1.
         11    1    3    3    0    0  0.40803122341E+01  0.58267564669E+01 -0.67551966981E+01  0.98098278040E+01  0.51100000000E-03 0. -1.
        -11    1    3    3    0    0 -0.88794244181E+01 -0.44962459121E+01  0.28036651469E+02  0.29750869419E+02  0.51100000000E-03 0.  1.
         12    1    3    3    0    0 -0.85096687300E+01 -0.17608744698E+02  0.26896951994E+01  0.19741246465E+02  0.00000000000E+00 0. -1.
</event>
<event>
 7    1  0.7749294E-012  0.5930194E+02  0.7816164E-02  0.1266605E+00
        -11   -1    0    0    0    0  0.00000000000E+00  0.00000000000E+00  0.45593999997E+02  0.45594000000E+02  0.51100000000E-03 0. -1.
         11   -1    0    0    0    0 -0.00000000000E+00 -0.00000000000E+00 -0.45593999997E+02  0.45594000000E+02  0.51100000000E-03 0.  1.
    9900012    2    1    2    0    0 -0.16111034372E+02 -0.73771130829E+01 -0.26509117205E+02  0.59301944725E+02  0.50000001272E+02 0.  0.
         12    1    1    2    0    0  0.16111034372E+02  0.73771130829E+01  0.26509117205E+02  0.31886055275E+02  0.00000000000E+00 0. -1.
         11    1    3    3    0    0 -0.23669107992E+02  0.13870142180E+02 -0.18206238908E+02  0.32925288953E+02  0.51100000000E-03 0. -1.
        -11    1    3    3    0    0  0.93454622493E+01 -0.10328708069E+02 -0.53914780938E+01  0.14936127722E+02  0.51100000000E-03 0.  1.
         12    1    3    3    0    0 -0.17873886299E+01 -0.10918547193E+02 -0.29114002035E+01  0.11440528050E+02  0.00000000000E+00 0. -1.
</event>
<event>
 7    1  0.7749294E-012  0.5930197E+02  0.7816164E-02  0.1266605E+00
        -11   -1    0    0    0    0  0.00000000000E+00  0.00000000000E+00  0.45593999997E+02  0.45594000000E+02  0.51100000000E-03 0.  1.
         11   -1    0    0    0    0 -0.00000000000E+00 -0.00000000000E+00 -0.45593999997E+02  0.45594000000E+02  0.51100000000E-03 0. -1.
    9900012    2    1    2    0    0  0.22488591920E+02  0.14556791961E+02  0.17293989996E+02  0.59301967812E+02  0.50000043376E+02 0.  0.
         12    1    1    2    0    0 -0.22488591920E+02 -0.14556791961E+02 -0.17293989996E+02  0.31886032188E+02  0.00000000000E+00 0. -1.
         11    1    3    3    0    0  0.18804184884E+02  0.11290396730E+02  0.70465970018E+01  0.23037468546E+02  0.51100000000E-03 0. -1.
        -11    1    3    3    0    0 -0.95135880703E+01  0.58895650248E+01 -0.78823445875E+01  0.13686734110E+02  0.51100000000E-03 0.  1.
         12    1    3    3    0    0  0.13197995107E+02 -0.26231697938E+01  0.18129737582E+02  0.22577765155E+02  0.00000000000E+00 0. -1.
</event>
<event>
 7    1  0.7749294E-012  0.5930205E+02  0.7816164E-02  0.1266604E+00
        -11   -1    0    0    0    0  0.00000000000E+00  0.00000000000E+00  0.45593999997E+02  0.45594000000E+02  0.51100000000E-03 0.  1.
         11   -1    0    0    0    0 -0.00000000000E+00 -0.00000000000E+00 -0.45593999997E+02  0.45594000000E+02  0.51100000000E-03 0. -1.
    9900012    2    1    2    0    0 -0.85432344641E+01 -0.24031320764E+02  0.19136938770E+02  0.59302052338E+02  0.50000197532E+02 0.  0.
         12    1    1    2    0    0  0.85432344641E+01  0.24031320764E+02 -0.19136938770E+02  0.31885947662E+02  0.00000000000E+00 0. -1.
         11    1    3    3    0    0  0.86932824256E+01 -0.55922847368E+01 -0.59401169507E+01  0.11921904108E+02  0.51100000000E-03 0.  1.
        -11    1    3    3    0    0 -0.15071521309E+02 -0.16865806090E+02  0.32439422766E+02  0.39546457733E+02  0.51100000000E-03 0. -1.
         12    1    3    3    0    0 -0.21649955811E+01 -0.15732299379E+01 -0.73623670447E+01  0.78336904971E+01  0.00000000000E+00 0. -1.
</event>
<event>
 7    1  0.7749294E-012  0.5930192E+02  0.7816164E-02  0.1266605E+00
        -11   -1    0    0    0    0  0.00000000000E+00  0.00000000000E+00  0.45593999997E+02  0.45594000000E+02  0.51100000000E-03 0. -1.
         11   -1    0    0    0    0 -0.00000000000E+00 -0.00000000000E+00 -0.45593999997E+02  0.45594000000E+02  0.51100000000E-03 0.  1.
    9900012    2    1    2    0    0 -0.57803484933E+01 -0.29589404927E+02 -0.10381574511E+02  0.59301915229E+02  0.49999947479E+02 0.  0.
         12    1    1    2    0    0  0.57803484933E+01  0.29589404927E+02  0.10381574511E+02  0.31886084771E+02  0.00000000000E+00 0. -1.
         11    1    3    3    0    0  0.15439790256E+02 -0.13531125299E+02 -0.97226078047E+01  0.22715800179E+02  0.51100000000E-03 0. -1.
        -11    1    3    3    0    0 -0.78110343133E+01 -0.20884903744E+02 -0.11371231376E+01  0.22326766688E+02  0.51100000000E-03 0.  1.
         12    1    3    3    0    0 -0.13409104436E+02  0.48266241155E+01  0.47815643101E+00  0.14259348362E+02  0.00000000000E+00 0. -1.
</event>
<event>
 7    1  0.7749294E-012  0.5930196E+02  0.7816164E-02  0.1266605E+00
        -11   -1    0    0    0    0  0.00000000000E+00  0.00000000000E+00  0.45593999997E+02  0.45594000000E+02  0.51100000000E-03 0.  1.
         11   -1    0    0    0    0 -0.00000000000E+00 -0.00000000000E+00 -0.45593999997E+02  0.45594000000E+02  0.51100000000E-03 0. -1.
    9900012    2    1    2    0    0  0.20979778275E+02 -0.24011611776E+02 -0.10583046461E+00  0.59301956084E+02  0.50000021987E+02 0.  0.
         12    1    1    2    0    0 -0.20979778275E+02  0.24011611776E+02  0.10583046461E+00  0.31886043916E+02  0.00000000000E+00 0. -1.
         11    1    3    3    0    0  0.87653829266E+01  0.62764266795E+01 -0.13132892909E+02  0.16991125511E+02  0.51100000000E-03 0. -1.
        -11    1    3    3    0    0  0.15360608716E+02 -0.99660491191E+01  0.11646404546E+02  0.21700441799E+02  0.51100000000E-03 0.  1.
         12    1    3    3    0    0 -0.31462133682E+01 -0.20321989336E+02  0.13806578988E+01  0.20610388773E+02  0.00000000000E+00 0. -1.
</event>
<event>
 7    1  0.7749294E-012  0.5930195E+02  0.7816164E-02  0.1266605E+00
        -11   -1    0    0    0    0  0.00000000000E+00  0.00000000000E+00  0.45593999997E+02  0.45594000000E+02  0.51100000000E-03 0. -1.
         11   -1    0    0    0    0 -0.00000000000E+00 -0.00000000000E+00 -0.45593999997E+02  0.45594000000E+02  0.51100000000E-03 0.  1.
    9900012    2    1    2    0    0 -0.68872133624E+01 -0.30047887371E+02 -0.81492786364E+01  0.59301953119E+02  0.50000016581E+02 0.  0.
         12    1    1    2    0    0  0.68872133624E+01  0.30047887371E+02  0.81492786364E+01  0.31886046881E+02  0.00000000000E+00 0. -1.
         11    1    3    3    0    0  0.13861709125E+02 -0.10973121934E+01 -0.68971625327E+01  0.15521659872E+02  0.51100000000E-03 0. -1.
        -11    1    3    3    0    0 -0.16562078972E+02 -0.61440535945E+01 -0.83382780262E+01  0.19534040420E+02  0.51100000000E-03 0.  1.
        -12    1    3    3    0    0 -0.41868435154E+01 -0.22806521584E+02  0.70861619225E+01  0.24246252827E+02  0.00000000000E+00 0.  1.
</event>
<event>
 7    1  0.7749294E-012  0.5930192E+02  0.7816164E-02  0.1266605E+00
        -11   -1    0    0    0    0  0.00000000000E+00  0.00000000000E+00  0.45593999997E+02  0.45594000000E+02  0.51100000000E-03 0.  1.
         11   -1    0    0    0    0 -0.00000000000E+00 -0.00000000000E+00 -0.45593999997E+02  0.45594000000E+02  0.51100000000E-03 0. -1.
    9900012    2    1    2    0    0  0.92691703242E+01  0.28679119022E+02  0.10407338473E+02  0.59301920271E+02  0.49999956674E+02 0.  0.
         12    1    1    2    0    0 -0.92691703242E+01 -0.28679119022E+02 -0.10407338473E+02  0.31886079729E+02  0.00000000000E+00 0. -1.
         11    1    3    3    0    0  0.25872981650E+01  0.34688635775E+02  0.63701248610E+00  0.34790822768E+02  0.51100000000E-03 0. -1.
        -11    1    3    3    0    0 -0.72608276651E+01 -0.37763237782E+01  0.50776269450E+01  0.96313309212E+01  0.51100000000E-03 0.  1.
         12    1    3    3    0    0  0.13942699824E+02 -0.22331929745E+01  0.46926990415E+01  0.14879766582E+02  0.00000000000E+00 0. -1.
</event>
<event>
 7    1  0.1005984E-011  0.5930197E+02  0.7816164E-02  0.1266605E+00
        -11   -1    0    0    0    0  0.00000000000E+00  0.00000000000E+00  0.45593999997E+02  0.45594000000E+02  0.51100000000E-03 0. -1.
         11   -1    0    0    0    0 -0.00000000000E+00 -0.00000000000E+00 -0.45593999997E+02  0.45594000000E+02  0.51100000000E-03 0.  1.
    9900012    2    1    2    0    0  0.10279201513E+02 -0.26797201061E+02 -0.13891261890E+02  0.59301966610E+02  0.50000041184E+02 0.  0.
         12    1    1    2    0    0 -0.10279201513E+02  0.26797201061E+02  0.13891261890E+02  0.31886033390E+02  0.00000000000E+00 0. -1.
         11    1    3    3    0    0 -0.15336430965E+02 -0.66470367454E+01 -0.84831318568E+01  0.18744405528E+02  0.51100000000E-03 0. -1.
        -11    1    3    3    0    0  0.18797725477E+02 -0.13241530046E+02 -0.14561210321E+02  0.27216198253E+02  0.51100000000E-03 0.  1.
         12    1    3    3    0    0  0.68179070012E+01 -0.69086342696E+01  0.91530802881E+01  0.13341362828E+02  0.00000000000E+00 0. -1.
</event>
<event>
 7    1  0.7749294E-012  0.5930193E+02  0.7816164E-02  0.1266605E+00
        -11   -1    0    0    0    0  0.00000000000E+00  0.00000000000E+00  0.45593999997E+02  0.45594000000E+02  0.51100000000E-03 0.  1.
         11   -1    0    0    0    0 -0.00000000000E+00 -0.00000000000E+00 -0.45593999997E+02  0.45594000000E+02  0.51100000000E-03 0. -1.
    9900012    2    1    2    0    0 -0.13078997452E+02 -0.13882859324E+02  0.25552450427E+02  0.59301926548E+02  0.49999968121E+02 0.  0.
         12    1    1    2    0    0  0.13078997452E+02  0.13882859324E+02 -0.25552450427E+02  0.31886073452E+02  0.00000000000E+00 0. -1.
         11    1    3    3    0    0 -0.67958216470E+01 -0.18685860216E+02  0.26045444194E+02  0.32767510241E+02  0.51100000000E-03 0.  1.
        -11    1    3    3    0    0 -0.15713936844E+02  0.12574857128E+01 -0.32351399552E+01  0.16092706803E+02  0.51100000000E-03 0. -1.
         12    1    3    3    0    0  0.94307610383E+01  0.35455151795E+01  0.27421461889E+01  0.10441709504E+02  0.00000000000E+00 0. -1.
</event>
<event>
 7    1  0.7749294E-012  0.5930201E+02  0.7816164E-02  0.1266605E+00
        -11   -1    0    0    0    0  0.00000000000E+00  0.00000000000E+00  0.45593999997E+02  0.45594000000E+02  0.51100000000E-03 0. -1.
         11   -1    0    0    0    0 -0.00000000000E+00 -0.00000000000E+00 -0.45593999997E+02  0.45594000000E+02  0.51100000000E-03 0.  1.
    9900012    2    1    2    0    0  0.54265049212E+01 -0.16291031826E+02 -0.26867667648E+02  0.59302011879E+02  0.50000123745E+02 0.  0.
         12    1    1    2    0    0 -0.54265049212E+01  0.16291031826E+02  0.26867667648E+02  0.31885988121E+02  0.00000000000E+00 0. -1.
         11    1    3    3    0    0 -0.70833227686E+01 -0.15858956523E+02 -0.26187497135E+02  0.31423955351E+02  0.51100000000E-03 0. -1.
        -11    1    3    3    0    0  0.73326841748E+01 -0.12488743457E+02  0.15633250463E+01  0.14566432501E+02  0.51100000000E-03 0.  1.
         12    1    3    3    0    0  0.51771435150E+01  0.12056668153E+02 -0.22434955593E+01  0.13311624028E+02  0.00000000000E+00 0. -1.
</event>
<event>
 7    1  0.7749294E-012  0.5930194E+02  0.7816164E-02  0.1266605E+00
        -11   -1    0    0    0    0  0.00000000000E+00  0.00000000000E+00  0.45593999997E+02  0.45594000000E+02  0.51100000000E-03 0.  1.
         11   -1    0    0    0    0 -0.00000000000E+00 -0.00000000000E+00 -0.45593999997E+02  0.45594000000E+02  0.51100000000E-03 0. -1.
    9900012    2    1    2    0    0  0.30660048052E+02  0.87535278394E+01 -0.24132240183E+00  0.59301936701E+02  0.49999986638E+02 0.  0.
         12    1    1    2    0    0 -0.30660048052E+02 -0.87535278394E+01  0.24132240183E+00  0.31886063299E+02  0.00000000000E+00 0. -1.
         11    1    3    3    0    0 -0.28639408016E+01  0.47983529353E+01 -0.75380938654E+01  0.93834539053E+01  0.51100000000E-03 0. -1.
        -11    1    3    3    0    0  0.11117244095E+02 -0.84098213247E+01  0.17494824203E+02  0.22369333587E+02  0.51100000000E-03 0.  1.
        -12    1    3    3    0    0  0.22406744759E+02  0.12364996229E+02 -0.10198052740E+02  0.27549149208E+02  0.00000000000E+00 0.  1.
</event>
<event>
 7    1  0.7749294E-012  0.5930195E+02  0.7816164E-02  0.1266605E+00
        -11   -1    0    0    0    0  0.00000000000E+00  0.00000000000E+00  0.45593999997E+02  0.45594000000E+02  0.51100000000E-03 0.  1.
         11   -1    0    0    0    0 -0.00000000000E+00 -0.00000000000E+00 -0.45593999997E+02  0.45594000000E+02  0.51100000000E-03 0. -1.
    9900012    2    1    2    0    0  0.72697966896E+01  0.17676050470E+02  0.25523073749E+02  0.59301952930E+02  0.50000016235E+02 0.  0.
         12    1    1    2    0    0 -0.72697966896E+01 -0.17676050470E+02 -0.25523073749E+02  0.31886047070E+02  0.00000000000E+00 0. -1.
         11    1    3    3    0    0  0.49737396832E+01  0.16761035447E+01  0.29509893496E+02  0.29973008257E+02  0.51100000000E-03 0. -1.
        -11    1    3    3    0    0  0.87674039304E+01  0.16836460376E+02  0.36013119864E+01  0.19321056336E+02  0.51100000000E-03 0.  1.
         12    1    3    3    0    0 -0.64713469239E+01 -0.83651345038E+00 -0.75881317332E+01  0.10007888337E+02  0.00000000000E+00 0. -1.
</event>
<event>
 7    1  0.7749294E-012  0.5930198E+02  0.7816164E-02  0.1266605E+00
        -11   -1    0    0    0    0  0.00000000000E+00  0.00000000000E+00  0.45593999997E+02  0.45594000000E+02  0.51100000000E-03 0. -1.
         11   -1    0    0    0    0 -0.00000000000E+00 -0.00000000000E+00 -0.45593999997E+02  0.45594000000E+02  0.51100000000E-03 0.  1.
    9900012    2    1    2    0    0 -0.22368349256E+02  0.22716093624E+02 -0.59536323128E+00  0.59301977743E+02  0.50000061488E+02 0.  0.
         12    1    1    2    0    0  0.22368349256E+02 -0.22716093624E+02  0.59536323128E+00  0.31886022257E+02  0.00000000000E+00 0. -1.
         11    1    3    3    0    0 -0.22468502623E+02 -0.80280195175E+01  0.13697514479E+01  0.23898931498E+02  0.51100000000E-03 0. -1.
        -11    1    3    3    0    0  0.37165392216E+01  0.18312359343E+02 -0.89206759183E+01  0.20705883888E+02  0.51100000000E-03 0.  1.
         12    1    3    3    0    0 -0.36163858555E+01  0.12431753799E+02  0.69555612391E+01  0.14697162356E+02  0.00000000000E+00 0. -1.
</event>
<event>
 7    1  0.7749294E-012  0.5930188E+02  0.7816164E-02  0.1266605E+00
        -11   -1    0    0    0    0  0.00000000000E+00  0.00000000000E+00  0.45593999997E+02  0.45594000000E+02  0.51100000000E-03 0. -1.
         11   -1    0    0    0    0 -0.00000000000E+00 -0.00000000000E+00 -0.45593999997E+02  0.45594000000E+02  0.51100000000E-03 0.  1.
    9900012    2    1    2    0    0  0.15033527472E+02  0.76118884483E+01  0.27069846968E+02  0.59301883760E+02  0.49999890086E+02 0.  0.
         12    1    1    2    0    0 -0.15033527472E+02 -0.76118884483E+01 -0.27069846968E+02  0.31886116240E+02  0.00000000000E+00 0. -1.
         11    1    3    3    0    0  0.14696859801E+02  0.12913297222E+02  0.39536093001E+02  0.44111830422E+02  0.51100000000E-03 0. -1.
        -11    1    3    3    0    0 -0.19692105887E+01 -0.51028569337E+01 -0.51356742072E+01  0.75028054121E+01  0.51100000000E-03 0.  1.
         12    1    3    3    0    0  0.23058782595E+01 -0.19855183961E+00 -0.73305718256E+01  0.76872479257E+01  0.00000000000E+00 0. -1.
</event>
<event>
 7    1  0.7749294E-012  0.5930194E+02  0.7816164E-02  0.1266605E+00
        -11   -1    0    0    0    0  0.00000000000E+00  0.00000000000E+00  0.45593999997E+02  0.45594000000E+02  0.51100000000E-03 0. -1.
         11   -1    0    0    0    0 -0.00000000000E+00 -0.00000000000E+00 -0.45593999997E+02  0.45594000000E+02  0.51100000000E-03 0.  1.
    9900012    2    1    2    0    0 -0.27136373676E+02 -0.16504410093E+02 -0.28182314143E+01  0.59301941023E+02  0.49999994520E+02 0.  0.
         12    1    1    2    0    0  0.27136373676E+02  0.16504410093E+02  0.28182314143E+01  0.31886058977E+02  0.00000000000E+00 0. -1.
         11    1    3    3    0    0  0.97344020538E+01  0.17020243301E+01 -0.21853097216E+00  0.98844942314E+01  0.51100000000E-03 0. -1.
        -11    1    3    3    0    0 -0.27390351623E+02 -0.42172180839E+01 -0.11863748680E+02  0.30145726453E+02  0.51100000000E-03 0.  1.
        -12    1    3    3    0    0 -0.94804241065E+01 -0.13989216339E+02  0.92640482382E+01  0.19271720338E+02  0.00000000000E+00 0.  1.
</event>
<event>
 7    1  0.7749294E-012  0.5930158E+02  0.7816164E-02  0.1266606E+00
        -11   -1    0    0    0    0  0.00000000000E+00  0.00000000000E+00  0.45593999997E+02  0.45594000000E+02  0.51100000000E-03 0.  1.
         11   -1    0    0    0    0 -0.00000000000E+00 -0.00000000000E+00 -0.45593999997E+02  0.45594000000E+02  0.51100000000E-03 0. -1.
    9900012    2    1    2    0    0  0.82411627762E+01  0.28783532932E+02  0.10969738289E+02  0.59301581417E+02  0.49999338680E+02 0.  0.
         12    1    1    2    0    0 -0.82411627762E+01 -0.28783532932E+02 -0.10969738289E+02  0.31886418583E+02  0.00000000000E+00 0. -1.
         11    1    3    3    0    0  0.70007845306E+00  0.87602011715E+01  0.22688231609E+02  0.24330784784E+02  0.51100000000E-03 0. -1.
        -11    1    3    3    0    0  0.14923772725E+02  0.13280747009E+02 -0.55592095369E+00  0.19985151534E+02  0.51100000000E-03 0.  1.
         12    1    3    3    0    0 -0.73826884022E+01  0.67425847510E+01 -0.11162572367E+02  0.14985645098E+02  0.00000000000E+00 0. -1.
</event>
<event>
 7    1  0.7749294E-012  0.5930194E+02  0.7816164E-02  0.1266605E+00
        -11   -1    0    0    0    0  0.00000000000E+00  0.00000000000E+00  0.45593999997E+02  0.45594000000E+02  0.51100000000E-03 0.  1.
         11   -1    0    0    0    0 -0.00000000000E+00 -0.00000000000E+00 -0.45593999997E+02  0.45594000000E+02  0.51100000000E-03 0. -1.
    9900012    2    1    2    0    0 -0.21973261609E+02  0.12651375752E+02  0.19334922184E+02  0.59301941133E+02  0.49999994721E+02 0.  0.
         12    1    1    2    0    0  0.21973261609E+02 -0.12651375752E+02 -0.19334922184E+02  0.31886058867E+02  0.00000000000E+00 0. -1.
         11    1    3    3    0    0 -0.16201921014E+02 -0.12442618346E+02  0.23108387310E+01  0.20558720090E+02  0.51100000000E-03 0. -1.
        -11    1    3    3    0    0  0.91715656092E+01  0.95180302181E+01  0.64705286060E+01  0.14716597965E+02  0.51100000000E-03 0.  1.
        -12    1    3    3    0    0 -0.14942906204E+02  0.15575963880E+02  0.10553554848E+02  0.24026623078E+02  0.00000000000E+00 0.  1.
</event>
<event>
 7    1  0.7749294E-012  0.5930191E+02  0.7816164E-02  0.1266605E+00
        -11   -1    0    0    0    0  0.00000000000E+00  0.00000000000E+00  0.45593999997E+02  0.45594000000E+02  0.51100000000E-03 0.  1.
         11   -1    0    0    0    0 -0.00000000000E+00 -0.00000000000E+00 -0.45593999997E+02  0.45594000000E+02  0.51100000000E-03 0. -1.
    9900012    2    1    2    0    0 -0.37461758163E+01 -0.28344639014E+02  0.14116310060E+02  0.59301912066E+02  0.49999941709E+02 0.  0.
         12    1    1    2    0    0  0.37461758163E+01  0.28344639014E+02 -0.14116310060E+02  0.31886087934E+02  0.00000000000E+00 0. -1.
         11    1    3    3    0    0  0.14771736192E+02 -0.28820780165E+02  0.80096817595E+01  0.33361603103E+02  0.51100000000E-03 0. -1.
        -11    1    3    3    0    0 -0.16498681470E+02 -0.54093905508E+01  0.20445439186E+00  0.17364037498E+02  0.51100000000E-03 0.  1.
        -12    1    3    3    0    0 -0.20192305389E+01  0.58855317024E+01  0.59021739085E+01  0.85762714646E+01  0.00000000000E+00 0.  1.
</event>
<event>
 7    1  0.7749294E-012  0.5930192E+02  0.7816164E-02  0.1266605E+00
        -11   -1    0    0    0    0  0.00000000000E+00  0.00000000000E+00  0.45593999997E+02  0.45594000000E+02  0.51100000000E-03 0.  1.
         11   -1    0    0    0    0 -0.00000000000E+00 -0.00000000000E+00 -0.45593999997E+02  0.45594000000E+02  0.51100000000E-03 0. -1.
    9900012    2    1    2    0    0 -0.30251038520E+02 -0.99423327120E+01  0.16574218941E+01  0.59301915910E+02  0.49999948720E+02 0.  0.
         12    1    1    2    0    0  0.30251038520E+02  0.99423327120E+01 -0.16574218941E+01  0.31886084090E+02  0.00000000000E+00 0. -1.
         11    1    3    3    0    0 -0.77076047649E+01 -0.66927078677E+01 -0.19904075973E+02  0.22368990823E+02  0.51100000000E-03 0. -1.
        -11    1    3    3    0    0 -0.89978944168E+01  0.48281148514E+01  0.18106867300E+02  0.20787771421E+02  0.51100000000E-03 0.  1.
         12    1    3    3    0    0 -0.13545539338E+02 -0.80777396958E+01  0.34546305670E+01  0.16145153666E+02  0.00000000000E+00 0. -1.
</event>
<event>
 7    1  0.8680604E-012  0.5930195E+02  0.7816164E-02  0.1266605E+00
        -11   -1    0    0    0    0  0.00000000000E+00  0.00000000000E+00  0.45593999997E+02  0.45594000000E+02  0.51100000000E-03 0. -1.
         11   -1    0    0    0    0 -0.00000000000E+00 -0.00000000000E+00 -0.45593999997E+02  0.45594000000E+02  0.51100000000E-03 0.  1.
    9900012    2    1    2    0    0 -0.35468147075E+01 -0.24456195529E+01 -0.31593658134E+02  0.59301950012E+02  0.50000010914E+02 0.  0.
         12    1    1    2    0    0  0.35468147075E+01  0.24456195529E+01  0.31593658134E+02  0.31886049988E+02  0.00000000000E+00 0. -1.
         11    1    3    3    0    0  0.69218340872E+01  0.29949590641E+01  0.22114600564E+01  0.78595243348E+01  0.51100000000E-03 0. -1.
        -11    1    3    3    0    0 -0.20198434146E+02 -0.85399367293E+01 -0.74211017902E+01  0.23151242155E+02  0.51100000000E-03 0.  1.
        -12    1    3    3    0    0  0.97297853514E+01  0.30993581123E+01 -0.26384016400E+02  0.28291183522E+02  0.00000000000E+00 0.  1.
</event>
<event>
 7    1  0.7749294E-012  0.5930192E+02  0.7816164E-02  0.1266605E+00
        -11   -1    0    0    0    0  0.00000000000E+00  0.00000000000E+00  0.45593999997E+02  0.45594000000E+02  0.51100000000E-03 0. -1.
         11   -1    0    0    0    0 -0.00000000000E+00 -0.00000000000E+00 -0.45593999997E+02  0.45594000000E+02  0.51100000000E-03 0.  1.
    9900012    2    1    2    0    0 -0.14030561766E+02 -0.20081315908E+02 -0.20410936821E+02  0.59301917551E+02  0.49999951713E+02 0.  0.
         12    1    1    2    0    0  0.14030561766E+02  0.20081315908E+02  0.20410936821E+02  0.31886082449E+02  0.00000000000E+00 0. -1.
         11    1    3    3    0    0 -0.15638562530E+00 -0.19325201589E+02  0.16123068645E+01  0.19392973125E+02  0.51100000000E-03 0. -1.
        -11    1    3    3    0    0 -0.24622124337E+01  0.13661111816E+02 -0.14408539143E+02  0.20007360311E+02  0.51100000000E-03 0.  1.
         12    1    3    3    0    0 -0.11411963707E+02 -0.14417226134E+02 -0.76147045419E+01  0.19901584116E+02  0.00000000000E+00 0. -1.
</event>
<event>
 7    1  0.7749294E-012  0.5930193E+02  0.7816164E-02  0.1266605E+00
        -11   -1    0    0    0    0  0.00000000000E+00  0.00000000000E+00  0.45593999997E+02  0.45594000000E+02  0.51100000000E-03 0.  1.
         11   -1    0    0    0    0 -0.00000000000E+00 -0.00000000000E+00 -0.45593999997E+02  0.45594000000E+02  0.51100000000E-03 0. -1.
    9900012    2    1    2    0    0  0.18572279831E+02  0.11268612518E+02  0.23341165593E+02  0.59301933804E+02  0.49999981355E+02 0.  0.
         12    1    1    2    0    0 -0.18572279831E+02 -0.11268612518E+02 -0.23341165593E+02  0.31886066196E+02  0.00000000000E+00 0. -1.
         11    1    3    3    0    0  0.17945313546E+01  0.87493605507E+01  0.31411520072E+02  0.32656626376E+02  0.51100000000E-03 0.  1.
        -11    1    3    3    0    0  0.20838036060E+02  0.47262861869E+00 -0.67917646166E+01  0.21922025261E+02  0.51100000000E-03 0. -1.
         12    1    3    3    0    0 -0.40602875837E+01  0.20466233489E+01 -0.12785898622E+01  0.47232821671E+01  0.00000000000E+00 0. -1.
</event>
<event>
 7    1  0.7749294E-012  0.5930195E+02  0.7816164E-02  0.1266605E+00
        -11   -1    0    0    0    0  0.00000000000E+00  0.00000000000E+00  0.45593999997E+02  0.45594000000E+02  0.51100000000E-03 0.  1.
         11   -1    0    0    0    0 -0.00000000000E+00 -0.00000000000E+00 -0.45593999997E+02  0.45594000000E+02  0.51100000000E-03 0. -1.
    9900012    2    1    2    0    0  0.29299168495E+02 -0.10964538390E+02 -0.61691007168E+01  0.59301950068E+02  0.50000011017E+02 0.  0.
         12    1    1    2    0    0 -0.29299168495E+02  0.10964538390E+02  0.61691007168E+01  0.31886049932E+02  0.00000000000E+00 0. -1.
         11    1    3    3    0    0  0.33645526737E+02  0.10456080511E+02 -0.14542221780E+01  0.35262811167E+02  0.51100000000E-03 0.  1.
        -11    1    3    3    0    0 -0.18915921887E+01 -0.13919504913E+02 -0.71727307225E+01  0.15772723427E+02  0.51100000000E-03 0. -1.
        -12    1    3    3    0    0 -0.24547660529E+01 -0.75011139872E+01  0.24578521837E+01  0.82664154735E+01  0.00000000000E+00 0.  1.
</event>
<event>
 7    1  0.7749294E-012  0.5930195E+02  0.7816164E-02  0.1266605E+00
        -11   -1    0    0    0    0  0.00000000000E+00  0.00000000000E+00  0.45593999997E+02  0.45594000000E+02  0.51100000000E-03 0.  1.
         11   -1    0    0    0    0 -0.00000000000E+00 -0.00000000000E+00 -0.45593999997E+02  0.45594000000E+02  0.51100000000E-03 0. -1.
    9900012    2    1    2    0    0  0.61926367228E+01 -0.27930110159E+02 -0.14081195475E+02  0.59301954947E+02  0.50000019914E+02 0.  0.
         12    1    1    2    0    0 -0.61926367228E+01  0.27930110159E+02  0.14081195475E+02  0.31886045053E+02  0.00000000000E+00 0. -1.
         11    1    3    3    0    0  0.13018066199E+02 -0.28004239089E+02 -0.16627810961E+02  0.35074086619E+02  0.51100000000E-03 0. -1.
        -11    1    3    3    0    0  0.80993804053E+00  0.87169753402E+01  0.76412105773E+01  0.11620230551E+02  0.51100000000E-03 0.  1.
        -12    1    3    3    0    0 -0.76353675162E+01 -0.86428464105E+01 -0.50945950912E+01  0.12607637777E+02  0.00000000000E+00 0.  1.
</event>
<event>
 7    1  0.7749294E-012  0.5930191E+02  0.7816164E-02  0.1266605E+00
        -11   -1    0    0    0    0  0.00000000000E+00  0.00000000000E+00  0.45593999997E+02  0.45594000000E+02  0.51100000000E-03 0.  1.
         11   -1    0    0    0    0 -0.00000000000E+00 -0.00000000000E+00 -0.45593999997E+02  0.45594000000E+02  0.51100000000E-03 0. -1.
    9900012    2    1    2    0    0 -0.41515523114E+01  0.24905075492E+02  0.19473689501E+02  0.59301909700E+02  0.49999937394E+02 0.  0.
         12    1    1    2    0    0  0.41515523114E+01 -0.24905075492E+02 -0.19473689501E+02  0.31886090300E+02  0.00000000000E+00 0. -1.
         11    1    3    3    0    0 -0.39313288154E+01  0.11098342068E+02 -0.15673765983E+02  0.19603455901E+02  0.51100000000E-03 0. -1.
        -11    1    3    3    0    0  0.47256800859E+01  0.15958756724E+01  0.67417926984E+01  0.83863365354E+01  0.51100000000E-03 0.  1.
         12    1    3    3    0    0 -0.49459035819E+01  0.12210857751E+02  0.28405662785E+02  0.31312117264E+02  0.00000000000E+00 0. -1.
</event>
<event>
 7    1  0.7749294E-012  0.5930194E+02  0.7816164E-02  0.1266605E+00
        -11   -1    0    0    0    0  0.00000000000E+00  0.00000000000E+00  0.45593999997E+02  0.45594000000E+02  0.51100000000E-03 0. -1.
         11   -1    0    0    0    0 -0.00000000000E+00 -0.00000000000E+00 -0.45593999997E+02  0.45594000000E+02  0.51100000000E-03 0.  1.
    9900012    2    1    2    0    0  0.11448419151E+02  0.14155884211E+02 -0.26177569551E+02  0.59301944953E+02  0.50000001688E+02 0.  0.
         12    1    1    2    0    0 -0.11448419151E+02 -0.14155884211E+02  0.26177569551E+02  0.31886055047E+02  0.00000000000E+00 0. -1.
         11    1    3    3    0    0  0.38968909849E+01 -0.27045936478E+01  0.95256323671E+01  0.10641346644E+02  0.51100000000E-03 0. -1.
        -11    1    3    3    0    0  0.35894267697E+01 -0.66301447162E+01 -0.16216137576E+02  0.17883118342E+02  0.51100000000E-03 0.  1.
         12    1    3    3    0    0  0.39621013968E+01  0.23490622575E+02 -0.19487064342E+02  0.30777479967E+02  0.00000000000E+00 0. -1.
</event>
<event>
 7    1  0.7749294E-012  0.5930203E+02  0.7816164E-02  0.1266604E+00
        -11   -1    0    0    0    0  0.00000000000E+00  0.00000000000E+00  0.45593999997E+02  0.45594000000E+02  0.51100000000E-03 0. -1.
         11   -1    0    0    0    0 -0.00000000000E+00 -0.00000000000E+00 -0.45593999997E+02  0.45594000000E+02  0.51100000000E-03 0.  1.
    9900012    2    1    2    0    0  0.20836720240E+02 -0.66719971559E+01 -0.23195480380E+02  0.59302034961E+02  0.50000165841E+02 0.  0.
         12    1    1    2    0    0 -0.20836720240E+02  0.66719971559E+01  0.23195480380E+02  0.31885965039E+02  0.00000000000E+00 0. -1.
         11    1    3    3    0    0  0.66262323827E+01  0.62687385229E+01  0.13229201668E+02  0.16069095036E+02  0.51100000000E-03 0. -1.
        -11    1    3    3    0    0  0.39722509284E+01 -0.24217163986E+01 -0.82387233065E+00  0.47246432280E+01  0.51100000000E-03 0.  1.
         12    1    3    3    0    0  0.10238236929E+02 -0.10519019280E+02 -0.35600809717E+02  0.38508296697E+02  0.00000000000E+00 0. -1.
</event>
<event>
 7    1  0.7749294E-012  0.5930190E+02  0.7816164E-02  0.1266605E+00
        -11   -1    0    0    0    0  0.00000000000E+00  0.00000000000E+00  0.45593999997E+02  0.45594000000E+02  0.51100000000E-03 0. -1.
         11   -1    0    0    0    0 -0.00000000000E+00 -0.00000000000E+00 -0.45593999997E+02  0.45594000000E+02  0.51100000000E-03 0.  1.
    9900012    2    1    2    0    0  0.29342656650E+01 -0.31522095243E+02 -0.38040543275E+01  0.59301902201E+02  0.49999923718E+02 0.  0.
         12    1    1    2    0    0 -0.29342656650E+01  0.31522095243E+02  0.38040543275E+01  0.31886097799E+02  0.00000000000E+00 0. -1.
         11    1    3    3    0    0  0.90422600733E+01 -0.23477255667E+02 -0.20470471671E+02  0.32434306091E+02  0.51100000000E-03 0. -1.
        -11    1    3    3    0    0 -0.12664443361E+02 -0.67338068719E+01  0.10546174637E+02  0.17803204216E+02  0.51100000000E-03 0.  1.
        -12    1    3    3    0    0  0.65564489527E+01 -0.13110327043E+01  0.61202427063E+01  0.90643918938E+01  0.00000000000E+00 0.  1.
</event>
<event>
 7    1  0.7749294E-012  0.5930191E+02  0.7816164E-02  0.1266605E+00
        -11   -1    0    0    0    0  0.00000000000E+00  0.00000000000E+00  0.45593999997E+02  0.45594000000E+02  0.51100000000E-03 0.  1.
         11   -1    0    0    0    0 -0.00000000000E+00 -0.00000000000E+00 -0.45593999997E+02  0.45594000000E+02  0.51100000000E-03 0. -1.
    9900012    2    1    2    0    0  0.33646005055E+01  0.10731415185E+02  0.29836869310E+02  0.59301912460E+02  0.49999942427E+02 0.  0.
         12    1    1    2    0    0 -0.33646005055E+01 -0.10731415185E+02 -0.29836869310E+02  0.31886087540E+02  0.00000000000E+00 0. -1.
         11    1    3    3    0    0  0.38076237287E+01 -0.84225371681E+01 -0.99126999467E+01  0.13553551243E+02  0.51100000000E-03 0. -1.
        -11    1    3    3    0    0  0.22709114623E+01  0.26467107875E+00  0.11045413215E+02  0.11279549769E+02  0.51100000000E-03 0.  1.
         12    1    3    3    0    0 -0.27139346855E+01  0.18889281274E+02  0.28704156042E+02  0.34468811447E+02  0.00000000000E+00 0. -1.
</event>
<event>
 7    1  0.7749294E-012  0.5930195E+02  0.7816164E-02  0.1266605E+00
        -11   -1    0    0    0    0  0.00000000000E+00  0.00000000000E+00  0.45593999997E+02  0.45594000000E+02  0.51100000000E-03 0.  1.
         11   -1    0    0    0    0 -0.00000000000E+00 -0.00000000000E+00 -0.45593999997E+02  0.45594000000E+02  0.51100000000E-03 0. -1.
    9900012    2    1    2    0    0  0.72205400321E+01 -0.26119713273E+02  0.16803109295E+02  0.59301951298E+02  0.50000013260E+02 0.  0.
         12    1    1    2    0    0 -0.72205400321E+01  0.26119713273E+02 -0.16803109295E+02  0.31886048702E+02  0.00000000000E+00 0. -1.
         11    1    3    3    0    0  0.76665375190E+01 -0.26286337428E+02  0.29044712318E+02  0.39916696341E+02  0.51100000000E-03 0. -1.
        -11    1    3    3    0    0 -0.43586568610E+01  0.12545277655E+01  0.17156032179E+01  0.48492292386E+01  0.51100000000E-03 0.  1.
         12    1    3    3    0    0  0.39126593741E+01 -0.10879036110E+01 -0.13957206241E+02  0.14536025719E+02  0.00000000000E+00 0. -1.
</event>
<event>
 7    1  0.7749294E-012  0.5930190E+02  0.7816164E-02  0.1266605E+00
        -11   -1    0    0    0    0  0.00000000000E+00  0.00000000000E+00  0.45593999997E+02  0.45594000000E+02  0.51100000000E-03 0.  1.
         11   -1    0    0    0    0 -0.00000000000E+00 -0.00000000000E+00 -0.45593999997E+02  0.45594000000E+02  0.51100000000E-03 0. -1.
    9900012    2    1    2    0    0 -0.10322538734E+02 -0.29779023194E+02  0.48351303585E+01  0.59301897794E+02  0.49999915681E+02 0.  0.
         12    1    1    2    0    0  0.10322538734E+02  0.29779023194E+02 -0.48351303585E+01  0.31886102206E+02  0.00000000000E+00 0. -1.
         11    1    3    3    0    0 -0.15057077651E+02  0.74084084666E+01  0.69711413382E+00  0.16795418178E+02  0.51100000000E-03 0. -1.
        -11    1    3    3    0    0  0.87238010392E+01 -0.36595485914E+02  0.14288274255E+01  0.37648052300E+02  0.51100000000E-03 0.  1.
        -12    1    3    3    0    0 -0.39892621222E+01 -0.59194574581E+00  0.27091887992E+01  0.48584273170E+01  0.00000000000E+00 0.  1.
</event>
<event>
 7    1  0.7749294E-012  0.5930174E+02  0.7816164E-02  0.1266605E+00
        -11   -1    0    0    0    0  0.00000000000E+00  0.00000000000E+00  0.45593999997E+02  0.45594000000E+02  0.51100000000E-03 0. -1.
         11   -1    0    0    0    0 -0.00000000000E+00 -0.00000000000E+00 -0.45593999997E+02  0.45594000000E+02  0.51100000000E-03 0.  1.
    9900012    2    1    2    0    0  0.45500416487E+01  0.98634734019E+01 -0.29979040112E+02  0.59301735989E+02  0.49999620586E+02 0.  0.
         12    1    1    2    0    0 -0.45500416487E+01 -0.98634734019E+01  0.29979040112E+02  0.31886264011E+02  0.00000000000E+00 0. -1.
         11    1    3    3    0    0 -0.16695832577E+01 -0.15245924323E+02 -0.60297873485E+01  0.16479807416E+02  0.51100000000E-03 0. -1.
        -11    1    3    3    0    0  0.82194103185E+01  0.12268033842E+02 -0.25767760155E+02  0.29699172109E+02  0.51100000000E-03 0.  1.
        -12    1    3    3    0    0 -0.19997854121E+01  0.12841363884E+02  0.18185073916E+01  0.13122756464E+02  0.00000000000E+00 0.  1.
</event>
<event>
 7    1  0.7749294E-012  0.5930194E+02  0.7816164E-02  0.1266605E+00
        -11   -1    0    0    0    0  0.00000000000E+00  0.00000000000E+00  0.45593999997E+02  0.45594000000E+02  0.51100000000E-03 0.  1.
         11   -1    0    0    0    0 -0.00000000000E+00 -0.00000000000E+00 -0.45593999997E+02  0.45594000000E+02  0.51100000000E-03 0. -1.
    9900012    2    1    2    0    0  0.15391103133E+02  0.48467329601E+01  0.27501706402E+02  0.59301941431E+02  0.49999995264E+02 0.  0.
         12    1    1    2    0    0 -0.15391103133E+02 -0.48467329601E+01 -0.27501706402E+02  0.31886058569E+02  0.00000000000E+00 0. -1.
         11    1    3    3    0    0 -0.13421856551E+02 -0.42131050375E+01  0.63287259811E+01  0.15425604044E+02  0.51100000000E-03 0. -1.
        -11    1    3    3    0    0  0.14862307606E+02  0.16833813892E+02  0.12087896749E+02  0.25502602330E+02  0.51100000000E-03 0.  1.
         12    1    3    3    0    0  0.13950652078E+02 -0.77739758942E+01  0.90850836716E+01  0.18373735056E+02  0.00000000000E+00 0. -1.
</event>
<event>
 7    1  0.7749294E-012  0.5930195E+02  0.7816164E-02  0.1266605E+00
        -11   -1    0    0    0    0  0.00000000000E+00  0.00000000000E+00  0.45593999997E+02  0.45594000000E+02  0.51100000000E-03 0. -1.
         11   -1    0    0    0    0 -0.00000000000E+00 -0.00000000000E+00 -0.45593999997E+02  0.45594000000E+02  0.51100000000E-03 0.  1.
    9900012    2    1    2    0    0  0.25698761785E+02  0.17203262437E+02 -0.77680043141E+01  0.59301945261E+02  0.50000002249E+02 0.  0.
         12    1    1    2    0    0 -0.25698761785E+02 -0.17203262437E+02  0.77680043141E+01  0.31886054739E+02  0.00000000000E+00 0. -1.
         11    1    3    3    0    0  0.97344371168E+01 -0.61474627529E+01  0.43706629103E+01  0.12314757765E+02  0.51100000000E-03 0. -1.
        -11    1    3    3    0    0 -0.82918784624E+01 -0.21573176911E+01 -0.76800028561E+01  0.11506159750E+02  0.51100000000E-03 0.  1.
        -12    1    3    3    0    0  0.24256203131E+02  0.25508042881E+02 -0.44586643683E+01  0.35481027746E+02  0.00000000000E+00 0.  1.
</event>
<event>
 7    1  0.7749294E-012  0.5930198E+02  0.7816164E-02  0.1266605E+00
        -11   -1    0    0    0    0  0.00000000000E+00  0.00000000000E+00  0.45593999997E+02  0.45594000000E+02  0.51100000000E-03 0.  1.
         11   -1    0    0    0    0 -0.00000000000E+00 -0.00000000000E+00 -0.45593999997E+02  0.45594000000E+02  0.51100000000E-03 0. -1.
    9900012    2    1    2    0    0  0.30536034198E+02 -0.25766526657E+00  0.91761895795E+01  0.59301980632E+02  0.50000066758E+02 0.  0.
         12    1    1    2    0    0 -0.30536034198E+02  0.25766526657E+00 -0.91761895795E+01  0.31886019368E+02  0.00000000000E+00 0. -1.
         11    1    3    3    0    0 -0.17954765158E+00 -0.18736819542E+02 -0.35308110299E+01  0.19067440067E+02  0.51100000000E-03 0. -1.
        -11    1    3    3    0    0  0.58487929936E+01  0.92512612487E+01  0.29189466720E+00  0.10948945928E+02  0.51100000000E-03 0.  1.
         12    1    3    3    0    0  0.24866788856E+02  0.92278930272E+01  0.12415105942E+02  0.29285594637E+02  0.00000000000E+00 0. -1.
</event>
<event>
 7    1  0.7749294E-012  0.5930195E+02  0.7816164E-02  0.1266605E+00
        -11   -1    0    0    0    0  0.00000000000E+00  0.00000000000E+00  0.45593999997E+02  0.45594000000E+02  0.51100000000E-03 0.  1.
         11   -1    0    0    0    0 -0.00000000000E+00 -0.00000000000E+00 -0.45593999997E+02  0.45594000000E+02  0.51100000000E-03 0. -1.
    9900012    2    1    2    0    0 -0.19392221623E+02  0.65048449678E+01  0.24461167906E+02  0.59301952850E+02  0.50000016089E+02 0.  0.
         12    1    1    2    0    0  0.19392221623E+02 -0.65048449678E+01 -0.24461167906E+02  0.31886047150E+02  0.00000000000E+00 0. -1.
         11    1    3    3    0    0  0.11956384847E+02  0.49217092978E+00 -0.10961209616E+01  0.12016607353E+02  0.51100000000E-03 0. -1.
        -11    1    3    3    0    0 -0.32272113104E+02  0.73303891583E+01  0.28667121150E+02  0.43783875168E+02  0.51100000000E-03 0.  1.
        -12    1    3    3    0    0  0.92350663366E+00 -0.13177151202E+01 -0.31098322825E+01  0.35014703292E+01  0.00000000000E+00 0.  1.
</event>
<event>
 7    1  0.7749294E-012  0.5930187E+02  0.7816164E-02  0.1266605E+00
        -11   -1    0    0    0    0  0.00000000000E+00  0.00000000000E+00  0.45593999997E+02  0.45594000000E+02  0.51100000000E-03 0.  1.
         11   -1    0    0    0    0 -0.00000000000E+00 -0.00000000000E+00 -0.45593999997E+02  0.45594000000E+02  0.51100000000E-03 0. -1.
    9900012    2    1    2    0    0  0.55761172335E+01 -0.31042125061E+02 -0.46924126019E+01  0.59301869038E+02  0.49999863237E+02 0.  0.
         12    1    1    2    0    0 -0.55761172335E+01  0.31042125061E+02  0.46924126019E+01  0.31886130962E+02  0.00000000000E+00 0. -1.
         11    1    3    3    0    0  0.12438248183E+02 -0.11866008243E+02 -0.23822391549E+02  0.29377176666E+02  0.51100000000E-03 0. -1.
        -11    1    3    3    0    0 -0.10026633154E+01 -0.17680404248E+01  0.84215159578E+01  0.86633268411E+01  0.51100000000E-03 0.  1.
         12    1    3    3    0    0 -0.58594676341E+01 -0.17408076393E+02  0.10708462989E+02  0.21261365531E+02  0.00000000000E+00 0. -1.
</event>
<event>
 7    1  0.7749294E-012  0.5930194E+02  0.7816164E-02  0.1266605E+00
        -11   -1    0    0    0    0  0.00000000000E+00  0.00000000000E+00  0.45593999997E+02  0.45594000000E+02  0.51100000000E-03 0.  1.
         11   -1    0    0    0    0 -0.00000000000E+00 -0.00000000000E+00 -0.45593999997E+02  0.45594000000E+02  0.51100000000E-03 0. -1.
    9900012    2    1    2    0    0  0.31075372916E+02 -0.54112338151E+01  0.46648019462E+01  0.59301943008E+02  0.49999998141E+02 0.  0.
         12    1    1    2    0    0 -0.31075372916E+02  0.54112338151E+01 -0.46648019462E+01  0.31886056992E+02  0.00000000000E+00 0. -1.
         11    1    3    3    0    0  0.14534834814E+02 -0.12463667509E+02  0.15301290281E+01  0.19207959963E+02  0.51100000000E-03 0. -1.
        -11    1    3    3    0    0  0.22021771075E+02  0.16694444408E+02 -0.23247095266E+01  0.27732059967E+02  0.51100000000E-03 0.  1.
        -12    1    3    3    0    0 -0.54812329723E+01 -0.96420107143E+01  0.54593824447E+01  0.12361923078E+02  0.00000000000E+00 0.  1.
</event>
<event>
 7    1  0.7749294E-012  0.5930192E+02  0.7816164E-02  0.1266605E+00
        -11   -1    0    0    0    0  0.00000000000E+00  0.00000000000E+00  0.45593999997E+02  0.45594000000E+02  0.51100000000E-03 0. -1.
         11   -1    0    0    0    0 -0.00000000000E+00 -0.00000000000E+00 -0.45593999997E+02  0.45594000000E+02  0.51100000000E-03 0.  1.
    9900012    2    1    2    0    0  0.25569282471E+02  0.17731022507E+02  0.69674113653E+01  0.59301918611E+02  0.49999953647E+02 0.  0.
         12    1    1    2    0    0 -0.25569282471E+02 -0.17731022507E+02 -0.69674113653E+01  0.31886081389E+02  0.00000000000E+00 0. -1.
         11    1    3    3    0    0  0.29948431673E+01  0.91266948135E+01 -0.16946141020E+02  0.19479151407E+02  0.51100000000E-03 0.  1.
        -11    1    3    3    0    0  0.26192424901E+02  0.98902901319E+01  0.20773390698E+02  0.34862511706E+02  0.51100000000E-03 0. -1.
         12    1    3    3    0    0 -0.36179855978E+01 -0.12859624389E+01  0.31401616875E+01  0.49602554978E+01  0.00000000000E+00 0. -1.
</event>
<event>
 7    1  0.7749294E-012  0.5930177E+02  0.7816164E-02  0.1266605E+00
        -11   -1    0    0    0    0  0.00000000000E+00  0.00000000000E+00  0.45593999997E+02  0.45594000000E+02  0.51100000000E-03 0.  1.
         11   -1    0    0    0    0 -0.00000000000E+00 -0.00000000000E+00 -0.45593999997E+02  0.45594000000E+02  0.51100000000E-03 0. -1.
    9900012    2    1    2    0    0 -0.50559297577E+01  0.21634106273E+02 -0.22872136370E+02  0.59301770966E+02  0.49999684375E+02 0.  0.
         12    1    1    2    0    0  0.50559297577E+01 -0.21634106273E+02  0.22872136370E+02  0.31886229034E+02  0.00000000000E+00 0. -1.
         11    1    3    3    0    0  0.99785236274E+01  0.18537236806E+01 -0.10044685000E+01  0.10198832408E+02  0.51100000000E-03 0. -1.
        -11    1    3    3    0    0 -0.17185437308E+02  0.23224453981E+02 -0.28974775499E+02  0.40917626198E+02  0.51100000000E-03 0.  1.
        -12    1    3    3    0    0  0.21509839228E+01 -0.34440713893E+01  0.71071076291E+01  0.81853123595E+01  0.00000000000E+00 0.  1.
</event>
<event>
 7    1  0.8555322E-012  0.5930195E+02  0.7816164E-02  0.1266605E+00
        -11   -1    0    0    0    0  0.00000000000E+00  0.00000000000E+00  0.45593999997E+02  0.45594000000E+02  0.51100000000E-03 0. -1.
         11   -1    0    0    0    0 -0.00000000000E+00 -0.00000000000E+00 -0.45593999997E+02  0.45594000000E+02  0.51100000000E-03 0.  1.
    9900012    2    1    2    0    0  0.10833783452E+02  0.21604323544E+01 -0.29911232224E+02  0.59301950621E+02  0.50000012024E+02 0.  0.
         12    1    1    2    0    0 -0.10833783452E+02 -0.21604323544E+01  0.29911232224E+02  0.31886049379E+02  0.00000000000E+00 0. -1.
         11    1    3    3    0    0  0.87793675478E+01  0.74415688260E+01  0.65882463251E+01  0.13261192670E+02  0.51100000000E-03 0. -1.
        -11    1    3    3    0    0 -0.20806074447E+01 -0.15697024627E+02 -0.15077398202E+02  0.21864433363E+02  0.51100000000E-03 0.  1.
        -12    1    3    3    0    0  0.41350233485E+01  0.10415888155E+02 -0.21422080347E+02  0.24176324588E+02  0.00000000000E+00 0.  1.
</event>
<event>
 7    1  0.7749294E-012  0.5930197E+02  0.7816164E-02  0.1266605E+00
        -11   -1    0    0    0    0  0.00000000000E+00  0.00000000000E+00  0.45593999997E+02  0.45594000000E+02  0.51100000000E-03 0.  1.
         11   -1    0    0    0    0 -0.00000000000E+00 -0.00000000000E+00 -0.45593999997E+02  0.45594000000E+02  0.51100000000E-03 0. -1.
    9900012    2    1    2    0    0  0.12176148221E+02  0.22715208845E+02  0.18774446440E+02  0.59301966419E+02  0.50000040836E+02 0.  0.
         12    1    1    2    0    0 -0.12176148221E+02 -0.22715208845E+02 -0.18774446440E+02  0.31886033581E+02  0.00000000000E+00 0. -1.
         11    1    3    3    0    0 -0.46727757961E+01 -0.12594948738E+02  0.13270406699E+02  0.18883094597E+02  0.51100000000E-03 0. -1.
        -11    1    3    3    0    0  0.41930435002E+01  0.18496124904E+02  0.18009257568E+01  0.19050763347E+02  0.51100000000E-03 0.  1.
         12    1    3    3    0    0  0.12655880517E+02  0.16814032680E+02  0.37031139849E+01  0.21368108475E+02  0.00000000000E+00 0. -1.
</event>
<event>
 7    1  0.7749294E-012  0.5930194E+02  0.7816164E-02  0.1266605E+00
        -11   -1    0    0    0    0  0.00000000000E+00  0.00000000000E+00  0.45593999997E+02  0.45594000000E+02  0.51100000000E-03 0. -1.
         11   -1    0    0    0    0 -0.00000000000E+00 -0.00000000000E+00 -0.45593999997E+02  0.45594000000E+02  0.51100000000E-03 0.  1.
    9900012    2    1    2    0    0 -0.17355480751E+01 -0.63656706182E+01 -0.31195939686E+02  0.59301944389E+02  0.50000000659E+02 0.  0.
         12    1    1    2    0    0  0.17355480751E+01  0.63656706182E+01  0.31195939686E+02  0.31886055611E+02  0.00000000000E+00 0. -1.
         11    1    3    3    0    0  0.50548354008E+00  0.25525704124E+01  0.63184316078E+01  0.68332794150E+01  0.51100000000E-03 0. -1.
        -11    1    3    3    0    0 -0.31271865167E+01 -0.22083281232E+02 -0.29669952922E+02  0.37118145322E+02  0.51100000000E-03 0.  1.
        -12    1    3    3    0    0  0.88615490151E+00  0.13165040201E+02 -0.78444183718E+01  0.15350519652E+02  0.00000000000E+00 0.  1.
</event>
<event>
 7    1  0.7749294E-012  0.5930192E+02  0.7816164E-02  0.1266605E+00
        -11   -1    0    0    0    0  0.00000000000E+00  0.00000000000E+00  0.45593999997E+02  0.45594000000E+02  0.51100000000E-03 0.  1.
         11   -1    0    0    0    0 -0.00000000000E+00 -0.00000000000E+00 -0.45593999997E+02  0.45594000000E+02  0.51100000000E-03 0. -1.
    9900012    2    1    2    0    0  0.28499831965E+02 -0.16797049789E+00  0.14298716300E+02  0.59301922726E+02  0.49999961150E+02 0.  0.
         12    1    1    2    0    0 -0.28499831965E+02  0.16797049789E+00 -0.14298716300E+02  0.31886077274E+02  0.00000000000E+00 0. -1.
         11    1    3    3    0    0  0.29923841555E+02 -0.15961891333E+02  0.25884376665E+01  0.34013501409E+02  0.51100000000E-03 0.  1.
        -11    1    3    3    0    0 -0.72936063224E-01  0.10162681853E+02 -0.20424632959E+01  0.10366150621E+02  0.51100000000E-03 0. -1.
        -12    1    3    3    0    0 -0.13510735265E+01  0.56312389815E+01  0.13752741929E+02  0.14922270695E+02  0.00000000000E+00 0.  1.
</event>
<event>
 7    1  0.7749294E-012  0.5930195E+02  0.7816164E-02  0.1266605E+00
        -11   -1    0    0    0    0  0.00000000000E+00  0.00000000000E+00  0.45593999997E+02  0.45594000000E+02  0.51100000000E-03 0.  1.
         11   -1    0    0    0    0 -0.00000000000E+00 -0.00000000000E+00 -0.45593999997E+02  0.45594000000E+02  0.51100000000E-03 0. -1.
    9900012    2    1    2    0    0  0.10856785564E+02 -0.26162956067E+02 -0.14640690516E+02  0.59301954749E+02  0.50000019554E+02 0.  0.
         12    1    1    2    0    0 -0.10856785564E+02  0.26162956067E+02  0.14640690516E+02  0.31886045251E+02  0.00000000000E+00 0. -1.
         11    1    3    3    0    0  0.27389812620E+01 -0.94548444443E+00 -0.13219639631E+02  0.13533470782E+02  0.51100000000E-03 0. -1.
        -11    1    3    3    0    0  0.10357333993E+02  0.33788671837E+01  0.10101232159E+02  0.14856850349E+02  0.51100000000E-03 0.  1.
        -12    1    3    3    0    0 -0.22395296917E+01 -0.28596338806E+02 -0.11522283044E+02  0.30911633618E+02  0.00000000000E+00 0.  1.
</event>
<event>
 7    1  0.7749294E-012  0.5930199E+02  0.7816164E-02  0.1266605E+00
        -11   -1    0    0    0    0  0.00000000000E+00  0.00000000000E+00  0.45593999997E+02  0.45594000000E+02  0.51100000000E-03 0.  1.
         11   -1    0    0    0    0 -0.00000000000E+00 -0.00000000000E+00 -0.45593999997E+02  0.45594000000E+02  0.51100000000E-03 0. -1.
    9900012    2    1    2    0    0 -0.91445153835E+01 -0.17548689762E+02  0.25002779531E+02  0.59301989615E+02  0.50000083141E+02 0.  0.
         12    1    1    2    0    0  0.91445153835E+01  0.17548689762E+02 -0.25002779531E+02  0.31886010385E+02  0.00000000000E+00 0. -1.
         11    1    3    3    0    0  0.12720806648E+02 -0.75475748803E+01  0.66789198917E+01  0.16229380134E+02  0.51100000000E-03 0. -1.
        -11    1    3    3    0    0 -0.17216925360E+02  0.88668331102E+01  0.70653008376E+01  0.20614599789E+02  0.51100000000E-03 0.  1.
        -12    1    3    3    0    0 -0.46483966718E+01 -0.18867947992E+02  0.11258558802E+02  0.22458009693E+02  0.00000000000E+00 0.  1.
</event>
<event>
 7    1  0.7749294E-012  0.5930208E+02  0.7816164E-02  0.1266604E+00
        -11   -1    0    0    0    0  0.00000000000E+00  0.00000000000E+00  0.45593999997E+02  0.45594000000E+02  0.51100000000E-03 0. -1.
         11   -1    0    0    0    0 -0.00000000000E+00 -0.00000000000E+00 -0.45593999997E+02  0.45594000000E+02  0.51100000000E-03 0.  1.
    9900012    2    1    2    0    0  0.15529992505E+02  0.20592961422E+02 -0.18747294884E+02  0.59302081590E+02  0.50000250880E+02 0.  0.
         12    1    1    2    0    0 -0.15529992505E+02 -0.20592961422E+02  0.18747294884E+02  0.31885918410E+02  0.00000000000E+00 0. -1.
         11    1    3    3    0    0  0.37914521843E+01 -0.87875898983E+01 -0.88477727250E+01  0.13033799459E+02  0.51100000000E-03 0. -1.
        -11    1    3    3    0    0  0.16213699421E+02  0.28734764144E+02 -0.17558117829E+02  0.37374566503E+02  0.51100000000E-03 0.  1.
         12    1    3    3    0    0 -0.44751590996E+01  0.64578717603E+00  0.76585956694E+01  0.88937156279E+01  0.00000000000E+00 0. -1.
</event>
<event>
 7    1  0.7749294E-012  0.5930193E+02  0.7816164E-02  0.1266605E+00
        -11   -1    0    0    0    0  0.00000000000E+00  0.00000000000E+00  0.45593999997E+02  0.45594000000E+02  0.51100000000E-03 0.  1.
         11   -1    0    0    0    0 -0.00000000000E+00 -0.00000000000E+00 -0.45593999997E+02  0.45594000000E+02  0.51100000000E-03 0. -1.
    9900012    2    1    2    0    0  0.16457802769E+01  0.50653248759E+01  0.31438122766E+02  0.59301926679E+02  0.49999968359E+02 0.  0.
         12    1    1    2    0    0 -0.16457802769E+01 -0.50653248759E+01 -0.31438122766E+02  0.31886073321E+02  0.00000000000E+00 0. -1.
         11    1    3    3    0    0  0.53071652580E+01  0.20941804034E+01 -0.10619996030E+02  0.12055534438E+02  0.51100000000E-03 0. -1.
        -11    1    3    3    0    0  0.85669984996E+01  0.32332198008E+01  0.20680774021E+02  0.22617285159E+02  0.51100000000E-03 0.  1.
         12    1    3    3    0    0 -0.12228383481E+02 -0.26207532832E+00  0.21377344775E+02  0.24629107082E+02  0.00000000000E+00 0. -1.
</event>
<event>
 7    1  0.7749294E-012  0.5930177E+02  0.7816164E-02  0.1266605E+00
        -11   -1    0    0    0    0  0.00000000000E+00  0.00000000000E+00  0.45593999997E+02  0.45594000000E+02  0.51100000000E-03 0.  1.
         11   -1    0    0    0    0 -0.00000000000E+00 -0.00000000000E+00 -0.45593999997E+02  0.45594000000E+02  0.51100000000E-03 0. -1.
    9900012    2    1    2    0    0  0.23321189684E+01 -0.31373282759E+02 -0.51971028069E+01  0.59301772134E+02  0.49999686506E+02 0.  0.
         12    1    1    2    0    0 -0.23321189684E+01  0.31373282759E+02  0.51971028069E+01  0.31886227866E+02  0.00000000000E+00 0. -1.
         11    1    3    3    0    0 -0.34369568086E+01  0.68560056428E+01  0.44585526533E+01  0.88710866021E+01  0.51100000000E-03 0. -1.
        -11    1    3    3    0    0  0.13617419387E+02 -0.29187371283E+02  0.37864144061E+01  0.32429518767E+02  0.51100000000E-03 0.  1.
         12    1    3    3    0    0 -0.78483436094E+01 -0.90419171184E+01 -0.13442069866E+02  0.18001166764E+02  0.00000000000E+00 0. -1.
</event>
<event>
 7    1  0.7749294E-012  0.5930207E+02  0.7816164E-02  0.1266604E+00
        -11   -1    0    0    0    0  0.00000000000E+00  0.00000000000E+00  0.45593999997E+02  0.45594000000E+02  0.51100000000E-03 0.  1.
         11   -1    0    0    0    0 -0.00000000000E+00 -0.00000000000E+00 -0.45593999997E+02  0.45594000000E+02  0.51100000000E-03 0. -1.
    9900012    2    1    2    0    0  0.46382586479E+01  0.31501921129E+02 -0.16815945462E+01  0.59302074605E+02  0.50000238140E+02 0.  0.
         12    1    1    2    0    0 -0.46382586479E+01 -0.31501921129E+02  0.16815945462E+01  0.31885925395E+02  0.00000000000E+00 0. -1.
         11    1    3    3    0    0 -0.86158688545E+01  0.28232814243E+02  0.12199174265E+02  0.31939706467E+02  0.51100000000E-03 0.  1.
        -11    1    3    3    0    0  0.74445102038E+01  0.72434570796E+01 -0.16792212192E+02  0.19745044776E+02  0.51100000000E-03 0. -1.
        -12    1    3    3    0    0  0.58096172986E+01 -0.39743501940E+01  0.29114433817E+01  0.76173233610E+01  0.00000000000E+00 0.  1.
</event>
<event>
 7    1  0.7749294E-012  0.5930196E+02  0.7816164E-02  0.1266605E+00
        -11   -1    0    0    0    0  0.00000000000E+00  0.00000000000E+00  0.45593999997E+02  0.45594000000E+02  0.51100000000E-03 0.  1.
         11   -1    0    0    0    0 -0.00000000000E+00 -0.00000000000E+00 -0.45593999997E+02  0.45594000000E+02  0.51100000000E-03 0. -1.
    9900012    2    1    2    0    0  0.15593799925E+02 -0.78852282482E+01  0.26671634844E+02  0.59301960329E+02  0.50000029730E+02 0.  0.
         12    1    1    2    0    0 -0.15593799925E+02  0.78852282482E+01 -0.26671634844E+02  0.31886039671E+02  0.00000000000E+00 0. -1.
         11    1    3    3    0    0  0.10344677064E+02  0.78025547479E+01  0.14699189080E+02  0.19594855550E+02  0.51100000000E-03 0.  1.
        -11    1    3    3    0    0 -0.42966573891E+01 -0.24135303071E+02  0.11156871701E+02  0.26934177274E+02  0.51100000000E-03 0. -1.
         12    1    3    3    0    0  0.95457802499E+01  0.84475200750E+01  0.81557406393E+00  0.12772927505E+02  0.00000000000E+00 0. -1.
</event>
<event>
 7    1  0.7749294E-012  0.5930196E+02  0.7816164E-02  0.1266605E+00
        -11   -1    0    0    0    0  0.00000000000E+00  0.00000000000E+00  0.45593999997E+02  0.45594000000E+02  0.51100000000E-03 0.  1.
         11   -1    0    0    0    0 -0.00000000000E+00 -0.00000000000E+00 -0.45593999997E+02  0.45594000000E+02  0.51100000000E-03 0. -1.
    9900012    2    1    2    0    0 -0.11308923389E+02  0.24387634126E+02  0.17148492232E+02  0.59301964933E+02  0.50000038126E+02 0.  0.
         12    1    1    2    0    0  0.11308923389E+02 -0.24387634126E+02 -0.17148492232E+02  0.31886035067E+02  0.00000000000E+00 0. -1.
         11    1    3    3    0    0  0.12965586082E+00 -0.36429383900E+01  0.14395037981E+01  0.39191813178E+01  0.51100000000E-03 0. -1.
        -11    1    3    3    0    0  0.15840345569E+02  0.18140800756E+02  0.76203250748E+01  0.25260137654E+02  0.51100000000E-03 0.  1.
        -12    1    3    3    0    0 -0.27278924819E+02  0.98897717596E+01  0.80886633589E+01  0.30122645961E+02  0.00000000000E+00 0.  1.
</event>
<event>
 7    1  0.7749294E-012  0.5930192E+02  0.7816164E-02  0.1266605E+00
        -11   -1    0    0    0    0  0.00000000000E+00  0.00000000000E+00  0.45593999997E+02  0.45594000000E+02  0.51100000000E-03 0.  1.
         11   -1    0    0    0    0 -0.00000000000E+00 -0.00000000000E+00 -0.45593999997E+02  0.45594000000E+02  0.51100000000E-03 0. -1.
    9900012    2    1    2    0    0  0.19748245350E+01  0.22705553864E+02  0.22299769742E+02  0.59301924062E+02  0.49999963587E+02 0.  0.
         12    1    1    2    0    0 -0.19748245350E+01 -0.22705553864E+02 -0.22299769742E+02  0.31886075938E+02  0.00000000000E+00 0. -1.
         11    1    3    3    0    0 -0.10565879133E+02 -0.10754019551E+02  0.14762354991E+02  0.21100091552E+02  0.51100000000E-03 0. -1.
        -11    1    3    3    0    0  0.67177916348E+01  0.14777088070E+02 -0.21364064820E+01  0.16372394119E+02  0.51100000000E-03 0.  1.
        -12    1    3    3    0    0  0.58229120328E+01  0.18682485345E+02  0.96738212327E+01  0.21829438391E+02  0.00000000000E+00 0.  1.
</event>
<event>
 7    1  0.7749294E-012  0.5930195E+02  0.7816164E-02  0.1266605E+00
        -11   -1    0    0    0    0  0.00000000000E+00  0.00000000000E+00  0.45593999997E+02  0.45594000000E+02  0.51100000000E-03 0.  1.
         11   -1    0    0    0    0 -0.00000000000E+00 -0.00000000000E+00 -0.45593999997E+02  0.45594000000E+02  0.51100000000E-03 0. -1.
    9900012    2    1    2    0    0  0.30121560684E+02 -0.10074727411E+02 -0.28127905114E+01  0.59301947549E+02  0.50000006421E+02 0.  0.
         12    1    1    2    0    0 -0.30121560684E+02  0.10074727411E+02  0.28127905114E+01  0.31886052451E+02  0.00000000000E+00 0. -1.
         11    1    3    3    0    0  0.13003021784E+02 -0.20855655069E+01 -0.11154254298E+02  0.17258202345E+02  0.51100000000E-03 0. -1.
        -11    1    3    3    0    0  0.21833949770E+02 -0.29797770020E+01  0.19174622172E+02  0.29210726955E+02  0.51100000000E-03 0.  1.
        -12    1    3    3    0    0 -0.47154108695E+01 -0.50093849025E+01 -0.10833158385E+02  0.12833018248E+02  0.00000000000E+00 0.  1.
</event>
<event>
 7    1  0.7749294E-012  0.5930184E+02  0.7816164E-02  0.1266605E+00
        -11   -1    0    0    0    0  0.00000000000E+00  0.00000000000E+00  0.45593999997E+02  0.45594000000E+02  0.51100000000E-03 0. -1.
         11   -1    0    0    0    0 -0.00000000000E+00 -0.00000000000E+00 -0.45593999997E+02  0.45594000000E+02  0.51100000000E-03 0.  1.
    9900012    2    1    2    0    0 -0.83372502451E+01  0.13952620310E+02 -0.27432499528E+02  0.59301837084E+02  0.49999804960E+02 0.  0.
         12    1    1    2    0    0  0.83372502451E+01 -0.13952620310E+02  0.27432499528E+02  0.31886162916E+02  0.00000000000E+00 0. -1.
         11    1    3    3    0    0  0.65011790259E+01 -0.11212189794E+02  0.53673839763E+00  0.12971762296E+02  0.51100000000E-03 0. -1.
        -11    1    3    3    0    0 -0.12903019238E+02  0.79640340183E+01 -0.22504967805E+01  0.15329007773E+02  0.51100000000E-03 0.  1.
         12    1    3    3    0    0 -0.19354100334E+01  0.17200776086E+02 -0.25718741145E+02  0.31001067014E+02  0.00000000000E+00 0. -1.
</event>
<event>
 7    1  0.7749294E-012  0.5930195E+02  0.7816164E-02  0.1266605E+00
        -11   -1    0    0    0    0  0.00000000000E+00  0.00000000000E+00  0.45593999997E+02  0.45594000000E+02  0.51100000000E-03 0. -1.
         11   -1    0    0    0    0 -0.00000000000E+00 -0.00000000000E+00 -0.45593999997E+02  0.45594000000E+02  0.51100000000E-03 0.  1.
    9900012    2    1    2    0    0 -0.25229801360E+02  0.16746057382E+02  0.99873444625E+01  0.59301947188E+02  0.50000005763E+02 0.  0.
         12    1    1    2    0    0  0.25229801360E+02 -0.16746057382E+02 -0.99873444625E+01  0.31886052812E+02  0.00000000000E+00 0. -1.
         11    1    3    3    0    0  0.52730168684E+01  0.14354046667E+02  0.15621919699E+02  0.21860643585E+02  0.51100000000E-03 0. -1.
        -11    1    3    3    0    0 -0.23916851703E+02  0.52582281822E+01  0.46213988523E+01  0.24920314737E+02  0.51100000000E-03 0.  1.
         12    1    3    3    0    0 -0.65859665260E+01 -0.28662174677E+01 -0.10255974089E+02  0.12520988865E+02  0.00000000000E+00 0. -1.
</event>
<event>
 7    1  0.7749294E-012  0.5930194E+02  0.7816164E-02  0.1266605E+00
        -11   -1    0    0    0    0  0.00000000000E+00  0.00000000000E+00  0.45593999997E+02  0.45594000000E+02  0.51100000000E-03 0. -1.
         11   -1    0    0    0    0 -0.00000000000E+00 -0.00000000000E+00 -0.45593999997E+02  0.45594000000E+02  0.51100000000E-03 0.  1.
    9900012    2    1    2    0    0 -0.21195723346E+02  0.19879741225E+02  0.13124709570E+02  0.59301940340E+02  0.49999993275E+02 0.  0.
         12    1    1    2    0    0  0.21195723346E+02 -0.19879741225E+02 -0.13124709570E+02  0.31886059660E+02  0.00000000000E+00 0. -1.
         11    1    3    3    0    0 -0.32281566058E+01 -0.10214047809E+02  0.81903060889E+00  0.10743303920E+02  0.51100000000E-03 0. -1.
        -11    1    3    3    0    0 -0.84787325737E+00  0.27866011869E+02  0.14027336383E+02  0.31208967826E+02  0.51100000000E-03 0.  1.
        -12    1    3    3    0    0 -0.17119693483E+02  0.22277771658E+01 -0.17216574212E+01  0.17349668594E+02  0.00000000000E+00 0.  1.
</event>
<event>
 7    1  0.7749294E-012  0.5930196E+02  0.7816164E-02  0.1266605E+00
        -11   -1    0    0    0    0  0.00000000000E+00  0.00000000000E+00  0.45593999997E+02  0.45594000000E+02  0.51100000000E-03 0. -1.
         11   -1    0    0    0    0 -0.00000000000E+00 -0.00000000000E+00 -0.45593999997E+02  0.45594000000E+02  0.51100000000E-03 0.  1.
    9900012    2    1    2    0    0  0.25506779077E+02 -0.16144610947E+02  0.10270113487E+02  0.59301961166E+02  0.50000031256E+02 0.  0.
         12    1    1    2    0    0 -0.25506779077E+02  0.16144610947E+02 -0.10270113487E+02  0.31886038834E+02  0.00000000000E+00 0. -1.
         11    1    3    3    0    0  0.26305804865E+02 -0.22689681547E+02  0.16487203080E+02  0.38453151808E+02  0.51100000000E-03 0. -1.
        -11    1    3    3    0    0  0.80302059033E+01  0.70773587932E+01 -0.14527024140E+01  0.10802016428E+02  0.51100000000E-03 0.  1.
         12    1    3    3    0    0 -0.88292316917E+01 -0.53228819354E+00 -0.47643871793E+01  0.10046792930E+02  0.00000000000E+00 0. -1.
</event>
<event>
 7    1  0.7749294E-012  0.5930198E+02  0.7816164E-02  0.1266605E+00
        -11   -1    0    0    0    0  0.00000000000E+00  0.00000000000E+00  0.45593999997E+02  0.45594000000E+02  0.51100000000E-03 0.  1.
         11   -1    0    0    0    0 -0.00000000000E+00 -0.00000000000E+00 -0.45593999997E+02  0.45594000000E+02  0.51100000000E-03 0. -1.
    9900012    2    1    2    0    0 -0.27073082435E+02 -0.37825981297E+01  0.16415182554E+02  0.59301983324E+02  0.50000071667E+02 0.  0.
         12    1    1    2    0    0  0.27073082435E+02  0.37825981297E+01 -0.16415182554E+02  0.31886016676E+02  0.00000000000E+00 0. -1.
         11    1    3    3    0    0  0.41051842209E+01  0.77491869595E+01  0.81522019444E+01  0.11973338416E+02  0.51100000000E-03 0. -1.
        -11    1    3    3    0    0 -0.34620061251E+02 -0.12578064363E+02  0.14936439353E+02  0.39747371799E+02  0.51100000000E-03 0.  1.
        -12    1    3    3    0    0  0.34417945948E+01  0.10462792736E+01 -0.66734587437E+01  0.75812731091E+01  0.00000000000E+00 0.  1.
</event>
<event>
 7    1  0.7749294E-012  0.5930194E+02  0.7816164E-02  0.1266605E+00
        -11   -1    0    0    0    0  0.00000000000E+00  0.00000000000E+00  0.45593999997E+02  0.45594000000E+02  0.51100000000E-03 0. -1.
         11   -1    0    0    0    0 -0.00000000000E+00 -0.00000000000E+00 -0.45593999997E+02  0.45594000000E+02  0.51100000000E-03 0.  1.
    9900012    2    1    2    0    0  0.16925544476E+02 -0.13319488726E+02 -0.23512506548E+02  0.59301940352E+02  0.49999993296E+02 0.  0.
         12    1    1    2    0    0 -0.16925544476E+02  0.13319488726E+02  0.23512506548E+02  0.31886059648E+02  0.00000000000E+00 0. -1.
         11    1    3    3    0    0  0.30590592831E+02 -0.11021256739E+02 -0.21313226358E+02  0.38878092648E+02  0.51100000000E-03 0. -1.
        -11    1    3    3    0    0 -0.13500184015E+02  0.62360911141E+00 -0.66774606034E+01  0.15074227580E+02  0.51100000000E-03 0.  1.
         12    1    3    3    0    0 -0.16486434011E+00 -0.29218410986E+01  0.44781804135E+01  0.53496201240E+01  0.00000000000E+00 0. -1.
</event>
<event>
 7    1  0.7749294E-012  0.5930195E+02  0.7816164E-02  0.1266605E+00
        -11   -1    0    0    0    0  0.00000000000E+00  0.00000000000E+00  0.45593999997E+02  0.45594000000E+02  0.51100000000E-03 0. -1.
         11   -1    0    0    0    0 -0.00000000000E+00 -0.00000000000E+00 -0.45593999997E+02  0.45594000000E+02  0.51100000000E-03 0.  1.
    9900012    2    1    2    0    0 -0.16389217797E+02  0.26544660574E+02 -0.65950481957E+01  0.59301950924E+02  0.50000012577E+02 0.  0.
         12    1    1    2    0    0  0.16389217797E+02 -0.26544660574E+02  0.65950481957E+01  0.31886049076E+02  0.00000000000E+00 0. -1.
         11    1    3    3    0    0  0.98331717685E+01 -0.40752428178E+01  0.22932881734E+01  0.10888436158E+02  0.51100000000E-03 0. -1.
        -11    1    3    3    0    0 -0.18143159498E+02  0.61658824084E+01 -0.11786334102E+02  0.22496888991E+02  0.51100000000E-03 0.  1.
        -12    1    3    3    0    0 -0.80792300673E+01  0.24454020983E+02  0.28979977331E+01  0.25916625775E+02  0.00000000000E+00 0.  1.
</event>
<event>
 7    1  0.7749294E-012  0.5930193E+02  0.7816164E-02  0.1266605E+00
        -11   -1    0    0    0    0  0.00000000000E+00  0.00000000000E+00  0.45593999997E+02  0.45594000000E+02  0.51100000000E-03 0. -1.
         11   -1    0    0    0    0 -0.00000000000E+00 -0.00000000000E+00 -0.45593999997E+02  0.45594000000E+02  0.51100000000E-03 0.  1.
    9900012    2    1    2    0    0  0.21136692525E+02 -0.21209558052E+02 -0.10959758813E+02  0.59301930363E+02  0.49999975079E+02 0.  0.
         12    1    1    2    0    0 -0.21136692525E+02  0.21209558052E+02  0.10959758813E+02  0.31886069637E+02  0.00000000000E+00 0. -1.
         11    1    3    3    0    0  0.17673653392E+02 -0.23404856691E+02  0.13485118575E+02  0.32279928194E+02  0.51100000000E-03 0. -1.
        -11    1    3    3    0    0  0.71559100593E+01  0.20753882712E+01 -0.19296592322E+02  0.20685085466E+02  0.51100000000E-03 0.  1.
        -12    1    3    3    0    0 -0.36928709268E+01  0.11991036750E+00 -0.51482850665E+01  0.63369167032E+01  0.00000000000E+00 0.  1.
</event>
<event>
 7    1  0.7749294E-012  0.5930195E+02  0.7816164E-02  0.1266605E+00
        -11   -1    0    0    0    0  0.00000000000E+00  0.00000000000E+00  0.45593999997E+02  0.45594000000E+02  0.51100000000E-03 0.  1.
         11   -1    0    0    0    0 -0.00000000000E+00 -0.00000000000E+00 -0.45593999997E+02  0.45594000000E+02  0.51100000000E-03 0. -1.
    9900012    2    1    2    0    0 -0.93617988000E+01  0.28581373622E+02  0.10591604873E+02  0.59301948368E+02  0.50000007916E+02 0.  0.
         12    1    1    2    0    0  0.93617988000E+01 -0.28581373622E+02 -0.10591604873E+02  0.31886051632E+02  0.00000000000E+00 0. -1.
         11    1    3    3    0    0 -0.39388560329E+01  0.19116192966E+02 -0.19593339433E+01  0.19615871384E+02  0.51100000000E-03 0.  1.
        -11    1    3    3    0    0 -0.54291000562E+01  0.17149935861E+02  0.21406337206E+02  0.27961164144E+02  0.51100000000E-03 0. -1.
         12    1    3    3    0    0  0.61572891100E-02 -0.76847552053E+01 -0.88553983898E+01  0.11724912841E+02  0.00000000000E+00 0. -1.
</event>
<event>
 7    1  0.7749294E-012  0.5930194E+02  0.7816164E-02  0.1266605E+00
        -11   -1    0    0    0    0  0.00000000000E+00  0.00000000000E+00  0.45593999997E+02  0.45594000000E+02  0.51100000000E-03 0.  1.
         11   -1    0    0    0    0 -0.00000000000E+00 -0.00000000000E+00 -0.45593999997E+02  0.45594000000E+02  0.51100000000E-03 0. -1.
    9900012    2    1    2    0    0  0.23252644903E+01  0.18221352114E+02  0.26063312451E+02  0.59301940605E+02  0.49999993759E+02 0.  0.
         12    1    1    2    0    0 -0.23252644903E+01 -0.18221352114E+02 -0.26063312451E+02  0.31886059395E+02  0.00000000000E+00 0. -1.
         11    1    3    3    0    0 -0.18167720846E+02  0.74682195609E+01  0.23047822473E+02  0.30282709673E+02  0.51100000000E-03 0. -1.
        -11    1    3    3    0    0  0.10902158690E+01 -0.27356864671E+01 -0.34342745360E+01  0.45240239762E+01  0.51100000000E-03 0.  1.
         12    1    3    3    0    0  0.19402769467E+02  0.13488819020E+02  0.64497645138E+01  0.24495206956E+02  0.00000000000E+00 0. -1.
</event>
<event>
 7    1  0.7749294E-012  0.5930192E+02  0.7816164E-02  0.1266605E+00
        -11   -1    0    0    0    0  0.00000000000E+00  0.00000000000E+00  0.45593999997E+02  0.45594000000E+02  0.51100000000E-03 0. -1.
         11   -1    0    0    0    0 -0.00000000000E+00 -0.00000000000E+00 -0.45593999997E+02  0.45594000000E+02  0.51100000000E-03 0.  1.
    9900012    2    1    2    0    0  0.19237967033E+02 -0.16444134711E+01 -0.25375557490E+02  0.59301915430E+02  0.49999947845E+02 0.  0.
         12    1    1    2    0    0 -0.19237967033E+02  0.16444134711E+01  0.25375557490E+02  0.31886084570E+02  0.00000000000E+00 0. -1.
         11    1    3    3    0    0  0.89279937133E+01  0.46652597383E+01 -0.20519254675E+02  0.22858554916E+02  0.51100000000E-03 0. -1.
        -11    1    3    3    0    0  0.14166244992E+02 -0.15541263736E+02  0.58125874609E+01  0.21817413892E+02  0.51100000000E-03 0.  1.
        -12    1    3    3    0    0 -0.38562716722E+01  0.92315905267E+01 -0.10668890277E+02  0.14625946622E+02  0.00000000000E+00 0.  1.
</event>
<event>
 7    1  0.7749294E-012  0.5930177E+02  0.7816164E-02  0.1266605E+00
        -11   -1    0    0    0    0  0.00000000000E+00  0.00000000000E+00  0.45593999997E+02  0.45594000000E+02  0.51100000000E-03 0. -1.
         11   -1    0    0    0    0 -0.00000000000E+00 -0.00000000000E+00 -0.45593999997E+02  0.45594000000E+02  0.51100000000E-03 0.  1.
    9900012    2    1    2    0    0  0.22001876396E+02 -0.17946081689E+02 -0.14511623923E+02  0.59301770342E+02  0.49999683238E+02 0.  0.
         12    1    1    2    0    0 -0.22001876396E+02  0.17946081689E+02  0.14511623923E+02  0.31886229658E+02  0.00000000000E+00 0. -1.
         11    1    3    3    0    0  0.34677606766E+01 -0.29334718103E+02 -0.30552907804E+01  0.29696562971E+02  0.51100000000E-03 0.  1.
        -11    1    3    3    0    0  0.14184935102E+02  0.15640626850E+02 -0.78066032677E+01  0.22511877908E+02  0.51100000000E-03 0. -1.
        -12    1    3    3    0    0  0.43491806171E+01 -0.42519904357E+01 -0.36497298749E+01  0.70933294626E+01  0.00000000000E+00 0.  1.
</event>
<event>
 7    1  0.7749294E-012  0.5930195E+02  0.7816164E-02  0.1266605E+00
        -11   -1    0    0    0    0  0.00000000000E+00  0.00000000000E+00  0.45593999997E+02  0.45594000000E+02  0.51100000000E-03 0. -1.
         11   -1    0    0    0    0 -0.00000000000E+00 -0.00000000000E+00 -0.45593999997E+02  0.45594000000E+02  0.51100000000E-03 0.  1.
    9900012    2    1    2    0    0  0.21404345645E+02 -0.12592847739E+02 -0.19999863902E+02  0.59301946893E+02  0.50000005226E+02 0.  0.
         12    1    1    2    0    0 -0.21404345645E+02  0.12592847739E+02  0.19999863902E+02  0.31886053107E+02  0.00000000000E+00 0. -1.
         11    1    3    3    0    0  0.10335637075E+02 -0.30636443921E+01  0.15173954191E+02  0.18613441293E+02  0.51100000000E-03 0. -1.
        -11    1    3    3    0    0  0.60708738924E+01 -0.12910428766E+02 -0.22338333826E+02  0.26505392642E+02  0.51100000000E-03 0.  1.
         12    1    3    3    0    0  0.49978346769E+01  0.33812254191E+01 -0.12835484267E+02  0.14183112957E+02  0.00000000000E+00 0. -1.
</event>
<event>
 7    1  0.7749294E-012  0.5930207E+02  0.7816164E-02  0.1266604E+00
        -11   -1    0    0    0    0  0.00000000000E+00  0.00000000000E+00  0.45593999997E+02  0.45594000000E+02  0.51100000000E-03 0. -1.
         11   -1    0    0    0    0 -0.00000000000E+00 -0.00000000000E+00 -0.45593999997E+02  0.45594000000E+02  0.51100000000E-03 0.  1.
    9900012    2    1    2    0    0  0.20006321914E+02 -0.13620083085E+02 -0.20759406912E+02  0.59302069637E+02  0.50000229081E+02 0.  0.
         12    1    1    2    0    0 -0.20006321914E+02  0.13620083085E+02  0.20759406912E+02  0.31885930363E+02  0.00000000000E+00 0. -1.
         11    1    3    3    0    0  0.32245117929E+00 -0.76421671041E+01  0.13291366799E+01  0.77635879196E+01  0.51100000000E-03 0. -1.
        -11    1    3    3    0    0  0.97283607288E+01  0.17105840234E+02 -0.16742612760E+02  0.25837295812E+02  0.51100000000E-03 0.  1.
        -12    1    3    3    0    0  0.99555100059E+01 -0.23083756215E+02 -0.53459308323E+01  0.25701185906E+02  0.00000000000E+00 0.  1.
</event>
<event>
 7    1  0.7749294E-012  0.5930195E+02  0.7816164E-02  0.1266605E+00
        -11   -1    0    0    0    0  0.00000000000E+00  0.00000000000E+00  0.45593999997E+02  0.45594000000E+02  0.51100000000E-03 0.  1.
         11   -1    0    0    0    0 -0.00000000000E+00 -0.00000000000E+00 -0.45593999997E+02  0.45594000000E+02  0.51100000000E-03 0. -1.
    9900012    2    1    2    0    0 -0.26204326611E+02  0.12066202891E+02  0.13581616527E+02  0.59301948302E+02  0.50000007796E+02 0.  0.
         12    1    1    2    0    0  0.26204326611E+02 -0.12066202891E+02 -0.13581616527E+02  0.31886051698E+02  0.00000000000E+00 0. -1.
         11    1    3    3    0    0  0.39862579306E+01 -0.91548180692E+01  0.15618996069E+02  0.18537906695E+02  0.51100000000E-03 0.  1.
        -11    1    3    3    0    0 -0.26025751638E+02  0.15174617219E+02 -0.81512084299E+01  0.31209789413E+02  0.51100000000E-03 0. -1.
        -12    1    3    3    0    0 -0.41648329038E+01  0.60464037411E+01  0.61138288880E+01  0.95542521942E+01  0.00000000000E+00 0.  1.
</event>
<event>
 7    1  0.7749294E-012  0.5930195E+02  0.7816164E-02  0.1266605E+00
        -11   -1    0    0    0    0  0.00000000000E+00  0.00000000000E+00  0.45593999997E+02  0.45594000000E+02  0.51100000000E-03 0.  1.
         11   -1    0    0    0    0 -0.00000000000E+00 -0.00000000000E+00 -0.45593999997E+02  0.45594000000E+02  0.51100000000E-03 0. -1.
    9900012    2    1    2    0    0  0.69627082459E+01  0.95549838335E+00  0.31101894728E+02  0.59301950716E+02  0.50000012198E+02 0.  0.
         12    1    1    2    0    0 -0.69627082459E+01 -0.95549838335E+00 -0.31101894728E+02  0.31886049284E+02  0.00000000000E+00 0. -1.
         11    1    3    3    0    0  0.53711259993E+01 -0.12661943782E+02 -0.48711479878E+01  0.14591158207E+02  0.51100000000E-03 0. -1.
        -11    1    3    3    0    0  0.78787400761E+01  0.17459508607E+02  0.25031005372E+02  0.31519203927E+02  0.51100000000E-03 0.  1.
         12    1    3    3    0    0 -0.62871578295E+01 -0.38420664415E+01  0.10942037343E+02  0.13191588583E+02  0.00000000000E+00 0. -1.
</event>
<event>
 7    1  0.7749294E-012  0.5930198E+02  0.7816164E-02  0.1266605E+00
        -11   -1    0    0    0    0  0.00000000000E+00  0.00000000000E+00  0.45593999997E+02  0.45594000000E+02  0.51100000000E-03 0. -1.
         11   -1    0    0    0    0 -0.00000000000E+00 -0.00000000000E+00 -0.45593999997E+02  0.45594000000E+02  0.51100000000E-03 0.  1.
    9900012    2    1    2    0    0  0.17746567603E+02  0.21355337201E+02 -0.15675695410E+02  0.59301976177E+02  0.50000058632E+02 0.  0.
         12    1    1    2    0    0 -0.17746567603E+02 -0.21355337201E+02  0.15675695410E+02  0.31886023823E+02  0.00000000000E+00 0. -1.
         11    1    3    3    0    0  0.15762766824E+02 -0.85306763328E+01 -0.25740067636E+01  0.18106981187E+02  0.51100000000E-03 0. -1.
        -11    1    3    3    0    0  0.99250622337E+01  0.14014805949E+02 -0.15688356769E+02  0.23260399491E+02  0.51100000000E-03 0.  1.
         12    1    3    3    0    0 -0.79412614551E+01  0.15871207585E+02  0.25866681224E+01  0.17934595498E+02  0.00000000000E+00 0. -1.
</event>
<event>
 7    1  0.7749294E-012  0.5930193E+02  0.7816164E-02  0.1266605E+00
        -11   -1    0    0    0    0  0.00000000000E+00  0.00000000000E+00  0.45593999997E+02  0.45594000000E+02  0.51100000000E-03 0. -1.
         11   -1    0    0    0    0 -0.00000000000E+00 -0.00000000000E+00 -0.45593999997E+02  0.45594000000E+02  0.51100000000E-03 0.  1.
    9900012    2    1    2    0    0 -0.31808593742E+02  0.22200903894E+01  0.77251252977E-01  0.59301930864E+02  0.49999975993E+02 0.  0.
         12    1    1    2    0    0  0.31808593742E+02 -0.22200903894E+01 -0.77251252977E-01  0.31886069136E+02  0.00000000000E+00 0. -1.
         11    1    3    3    0    0  0.73071661176E+01  0.73713808791E+01  0.15232963390E+00  0.10380517199E+02  0.51100000000E-03 0. -1.
        -11    1    3    3    0    0 -0.15429267921E+02 -0.15376533516E+02  0.56299973683E+01  0.22498821351E+02  0.51100000000E-03 0.  1.
         12    1    3    3    0    0 -0.23686491938E+02  0.10225243026E+02 -0.57050757492E+01  0.26422592314E+02  0.00000000000E+00 0. -1.
</event>
<event>
 7    1  0.7749294E-012  0.5930196E+02  0.7816164E-02  0.1266605E+00
        -11   -1    0    0    0    0  0.00000000000E+00  0.00000000000E+00  0.45593999997E+02  0.45594000000E+02  0.51100000000E-03 0. -1.
         11   -1    0    0    0    0 -0.00000000000E+00 -0.00000000000E+00 -0.45593999997E+02  0.45594000000E+02  0.51100000000E-03 0.  1.
    9900012    2    1    2    0    0 -0.22257981651E+02  0.49571856458E+01 -0.22287400317E+02  0.59301958390E+02  0.50000026193E+02 0.  0.
         12    1    1    2    0    0  0.22257981651E+02 -0.49571856458E+01  0.22287400317E+02  0.31886041610E+02  0.00000000000E+00 0. -1.
         11    1    3    3    0    0 -0.71850445464E+01  0.50591919426E+01  0.11090306101E+02  0.14149741267E+02  0.51100000000E-03 0. -1.
        -11    1    3    3    0    0 -0.12727426043E+02  0.83429906365E+01 -0.33045466241E+02  0.36381254868E+02  0.51100000000E-03 0.  1.
        -12    1    3    3    0    0 -0.23455110614E+01 -0.84449969333E+01 -0.33224017668E+00  0.87709622550E+01  0.00000000000E+00 0.  1.
</event>
<event>
 7    1  0.7749294E-012  0.5930194E+02  0.7816164E-02  0.1266605E+00
        -11   -1    0    0    0    0  0.00000000000E+00  0.00000000000E+00  0.45593999997E+02  0.45594000000E+02  0.51100000000E-03 0.  1.
         11   -1    0    0    0    0 -0.00000000000E+00 -0.00000000000E+00 -0.45593999997E+02  0.45594000000E+02  0.51100000000E-03 0. -1.
    9900012    2    1    2    0    0 -0.30250121813E+02 -0.69178014200E+01 -0.73345236824E+01  0.59301935900E+02  0.49999985177E+02 0.  0.
         12    1    1    2    0    0  0.30250121813E+02  0.69178014200E+01  0.73345236824E+01  0.31886064100E+02  0.00000000000E+00 0. -1.
         11    1    3    3    0    0  0.10813733409E+02  0.39969486712E+01 -0.72737713879E+01  0.13631587559E+02  0.51100000000E-03 0. -1.
        -11    1    3    3    0    0 -0.35973969007E+02 -0.28365272903E+01 -0.79256288435E+00  0.36094327662E+02  0.51100000000E-03 0.  1.
         12    1    3    3    0    0 -0.50898862146E+01 -0.80782228009E+01  0.73181058980E+00  0.95760206786E+01  0.00000000000E+00 0. -1.
</event>
<event>
 7    1  0.7749294E-012  0.5930200E+02  0.7816164E-02  0.1266605E+00
        -11   -1    0    0    0    0  0.00000000000E+00  0.00000000000E+00  0.45593999997E+02  0.45594000000E+02  0.51100000000E-03 0.  1.
         11   -1    0    0    0    0 -0.00000000000E+00 -0.00000000000E+00 -0.45593999997E+02  0.45594000000E+02  0.51100000000E-03 0. -1.
    9900012    2    1    2    0    0 -0.87823389504E+01 -0.51378888318E+01  0.30219031623E+02  0.59301995996E+02  0.50000094778E+02 0.  0.
         12    1    1    2    0    0  0.87823389504E+01  0.51378888318E+01 -0.30219031623E+02  0.31886004004E+02  0.00000000000E+00 0. -1.
         11    1    3    3    0    0 -0.70780485149E+01  0.88231858438E+01 -0.95442443834E+01  0.14799999335E+02  0.51100000000E-03 0. -1.
        -11    1    3    3    0    0  0.50403986185E+01 -0.85385094179E+00  0.12582353434E+02  0.13581248023E+02  0.51100000000E-03 0.  1.
         12    1    3    3    0    0 -0.67446890541E+01 -0.13107223734E+02  0.27180922573E+02  0.30920748638E+02  0.00000000000E+00 0. -1.
</event>
<event>
 7    1  0.7749294E-012  0.5930206E+02  0.7816164E-02  0.1266604E+00
        -11   -1    0    0    0    0  0.00000000000E+00  0.00000000000E+00  0.45593999997E+02  0.45594000000E+02  0.51100000000E-03 0. -1.
         11   -1    0    0    0    0 -0.00000000000E+00 -0.00000000000E+00 -0.45593999997E+02  0.45594000000E+02  0.51100000000E-03 0.  1.
    9900012    2    1    2    0    0 -0.60026574654E+00 -0.15912316161E+02 -0.27625186163E+02  0.59302062110E+02  0.50000215353E+02 0.  0.
         12    1    1    2    0    0  0.60026574654E+00  0.15912316161E+02  0.27625186163E+02  0.31885937890E+02  0.00000000000E+00 0. -1.
         11    1    3    3    0    0  0.20538666044E+01  0.74048171425E+00 -0.20248089223E+01  0.29776723511E+01  0.51100000000E-03 0. -1.
        -11    1    3    3    0    0  0.20057409386E+01 -0.20761706630E+02  0.78614810329E+01  0.22290678392E+02  0.51100000000E-03 0.  1.
        -12    1    3    3    0    0 -0.46598732895E+01  0.41089087542E+01 -0.33461858274E+02  0.34033711366E+02  0.00000000000E+00 0.  1.
</event>
<event>
 7    1  0.7749294E-012  0.5930188E+02  0.7816164E-02  0.1266605E+00
        -11   -1    0    0    0    0  0.00000000000E+00  0.00000000000E+00  0.45593999997E+02  0.45594000000E+02  0.51100000000E-03 0. -1.
         11   -1    0    0    0    0 -0.00000000000E+00 -0.00000000000E+00 -0.45593999997E+02  0.45594000000E+02  0.51100000000E-03 0.  1.
    9900012    2    1    2    0    0 -0.21283710767E+02  0.17843435351E+02 -0.15663333214E+02  0.59301881758E+02  0.49999886435E+02 0.  0.
         12    1    1    2    0    0  0.21283710767E+02 -0.17843435351E+02  0.15663333214E+02  0.31886118242E+02  0.00000000000E+00 0. -1.
         11    1    3    3    0    0 -0.25029726195E+02  0.50051321104E+01  0.55268808250E+00  0.25531235874E+02  0.51100000000E-03 0. -1.
        -11    1    3    3    0    0  0.70806148260E+01  0.12155048501E+02  0.28925179653E+01  0.14361301153E+02  0.51100000000E-03 0.  1.
        -12    1    3    3    0    0 -0.33345993976E+01  0.68325474038E+00 -0.19108539262E+02  0.19409344732E+02  0.00000000000E+00 0.  1.
</event>
<event>
 7    1  0.7749294E-012  0.5930195E+02  0.7816164E-02  0.1266605E+00
        -11   -1    0    0    0    0  0.00000000000E+00  0.00000000000E+00  0.45593999997E+02  0.45594000000E+02  0.51100000000E-03 0.  1.
         11   -1    0    0    0    0 -0.00000000000E+00 -0.00000000000E+00 -0.45593999997E+02  0.45594000000E+02  0.51100000000E-03 0. -1.
    9900012    2    1    2    0    0 -0.34747176176E+01 -0.20383138013E+02  0.24272906459E+02  0.59301953432E+02  0.50000017151E+02 0.  0.
         12    1    1    2    0    0  0.34747176176E+01  0.20383138013E+02 -0.24272906459E+02  0.31886046568E+02  0.00000000000E+00 0. -1.
         11    1    3    3    0    0  0.10183411077E+01 -0.66995336112E+01 -0.13850431898E+02  0.15419313644E+02  0.51100000000E-03 0. -1.
        -11    1    3    3    0    0 -0.52733895562E+01 -0.14351549847E+02  0.17519198098E+02  0.23252912133E+02  0.51100000000E-03 0.  1.
         12    1    3    3    0    0  0.78033083096E+00  0.66794544481E+00  0.20604140259E+02  0.20629727655E+02  0.00000000000E+00 0. -1.
</event>
<event>
 7    1  0.7749294E-012  0.5930191E+02  0.7816164E-02  0.1266605E+00
        -11   -1    0    0    0    0  0.00000000000E+00  0.00000000000E+00  0.45593999997E+02  0.45594000000E+02  0.51100000000E-03 0. -1.
         11   -1    0    0    0    0 -0.00000000000E+00 -0.00000000000E+00 -0.45593999997E+02  0.45594000000E+02  0.51100000000E-03 0.  1.
    9900012    2    1    2    0    0 -0.19557038167E+02  0.68524074588E+01 -0.24234055823E+02  0.59301910690E+02  0.49999939200E+02 0.  0.
         12    1    1    2    0    0  0.19557038167E+02 -0.68524074588E+01  0.24234055823E+02  0.31886089310E+02  0.00000000000E+00 0. -1.
         11    1    3    3    0    0 -0.18250699284E+02  0.18614553820E+02  0.26847998898E+00  0.26070322592E+02  0.51100000000E-03 0. -1.
        -11    1    3    3    0    0 -0.97130152608E+01 -0.27435273186E+01 -0.11842435001E+02  0.15559976691E+02  0.51100000000E-03 0.  1.
         12    1    3    3    0    0  0.84066763782E+01 -0.90186190431E+01 -0.12660100811E+02  0.17671611407E+02  0.00000000000E+00 0. -1.
</event>
<event>
 7    1  0.7749294E-012  0.5930195E+02  0.7816164E-02  0.1266605E+00
        -11   -1    0    0    0    0  0.00000000000E+00  0.00000000000E+00  0.45593999997E+02  0.45594000000E+02  0.51100000000E-03 0. -1.
         11   -1    0    0    0    0 -0.00000000000E+00 -0.00000000000E+00 -0.45593999997E+02  0.45594000000E+02  0.51100000000E-03 0.  1.
    9900012    2    1    2    0    0 -0.99398754814E+01  0.28270151621E+02 -0.10895772677E+02  0.59301945689E+02  0.50000003030E+02 0.  0.
         12    1    1    2    0    0  0.99398754814E+01 -0.28270151621E+02  0.10895772677E+02  0.31886054311E+02  0.00000000000E+00 0. -1.
         11    1    3    3    0    0 -0.14960148421E+02  0.29519030404E+00 -0.17491222892E+02  0.23018167968E+02  0.51100000000E-03 0. -1.
        -11    1    3    3    0    0 -0.56886191413E+01  0.14830634339E+02  0.10297239781E+02  0.18929903592E+02  0.51100000000E-03 0.  1.
         12    1    3    3    0    0  0.10708892080E+02  0.13144326978E+02 -0.37017895665E+01  0.17353874129E+02  0.00000000000E+00 0. -1.
</event>
<event>
 7    1  0.7749294E-012  0.5930193E+02  0.7816164E-02  0.1266605E+00
        -11   -1    0    0    0    0  0.00000000000E+00  0.00000000000E+00  0.45593999997E+02  0.45594000000E+02  0.51100000000E-03 0. -1.
         11   -1    0    0    0    0 -0.00000000000E+00 -0.00000000000E+00 -0.45593999997E+02  0.45594000000E+02  0.51100000000E-03 0.  1.
    9900012    2    1    2    0    0  0.18897841942E+02 -0.11229373589E+02 -0.23097500191E+02  0.59301925040E+02  0.49999965372E+02 0.  0.
         12    1    1    2    0    0 -0.18897841942E+02  0.11229373589E+02  0.23097500191E+02  0.31886074960E+02  0.00000000000E+00 0. -1.
         11    1    3    3    0    0 -0.48324231190E+01  0.37806624530E+01 -0.20462971644E+02  0.21363027186E+02  0.51100000000E-03 0. -1.
        -11    1    3    3    0    0  0.27319097441E+02 -0.62073843255E+01 -0.41221555335E+01  0.28317077386E+02  0.51100000000E-03 0.  1.
        -12    1    3    3    0    0 -0.35888323802E+01 -0.88026517160E+01  0.14876269864E+01  0.96218204690E+01  0.00000000000E+00 0.  1.
</event>
<event>
 7    1  0.7749294E-012  0.5930196E+02  0.7816164E-02  0.1266605E+00
        -11   -1    0    0    0    0  0.00000000000E+00  0.00000000000E+00  0.45593999997E+02  0.45594000000E+02  0.51100000000E-03 0. -1.
         11   -1    0    0    0    0 -0.00000000000E+00 -0.00000000000E+00 -0.45593999997E+02  0.45594000000E+02  0.51100000000E-03 0.  1.
    9900012    2    1    2    0    0 -0.23221773810E+02  0.20648015397E+02 -0.71504069714E+01  0.59301958562E+02  0.50000026507E+02 0.  0.
         12    1    1    2    0    0  0.23221773810E+02 -0.20648015397E+02  0.71504069714E+01  0.31886041438E+02  0.00000000000E+00 0. -1.
         11    1    3    3    0    0 -0.22109031405E+02  0.59056061787E+01  0.94498366163E+01  0.24758531183E+02  0.51100000000E-03 0. -1.
        -11    1    3    3    0    0  0.63088624408E+01  0.66800773796E+01 -0.20854103223E+02  0.22788567322E+02  0.51100000000E-03 0.  1.
        -12    1    3    3    0    0 -0.74216048460E+01  0.80623318390E+01  0.42538596350E+01  0.11754860057E+02  0.00000000000E+00 0.  1.
</event>
<event>
 7    1  0.7749294E-012  0.5930185E+02  0.7816164E-02  0.1266605E+00
        -11   -1    0    0    0    0  0.00000000000E+00  0.00000000000E+00  0.45593999997E+02  0.45594000000E+02  0.51100000000E-03 0.  1.
         11   -1    0    0    0    0 -0.00000000000E+00 -0.00000000000E+00 -0.45593999997E+02  0.45594000000E+02  0.51100000000E-03 0. -1.
    9900012    2    1    2    0    0 -0.21367863841E+02 -0.16997894959E+01  0.23606180144E+02  0.59301848924E+02  0.49999826553E+02 0.  0.
         12    1    1    2    0    0  0.21367863841E+02  0.16997894959E+01 -0.23606180144E+02  0.31886151076E+02  0.00000000000E+00 0. -1.
         11    1    3    3    0    0 -0.22539659643E+02 -0.14955995807E+02  0.99660826158E+01  0.28827779491E+02  0.51100000000E-03 0. -1.
        -11    1    3    3    0    0  0.89788658534E+01  0.74573542478E+01  0.16614301524E+02  0.20304363565E+02  0.51100000000E-03 0.  1.
         12    1    3    3    0    0 -0.78070700515E+01  0.57988520629E+01 -0.29742039961E+01  0.10169705868E+02  0.00000000000E+00 0. -1.
</event>
<event>
 7    1  0.7749294E-012  0.5930187E+02  0.7816164E-02  0.1266605E+00
        -11   -1    0    0    0    0  0.00000000000E+00  0.00000000000E+00  0.45593999997E+02  0.45594000000E+02  0.51100000000E-03 0.  1.
         11   -1    0    0    0    0 -0.00000000000E+00 -0.00000000000E+00 -0.45593999997E+02  0.45594000000E+02  0.51100000000E-03 0. -1.
    9900012    2    1    2    0    0 -0.18548280539E+02 -0.12467476338E+02  0.22743104616E+02  0.59301866889E+02  0.49999859318E+02 0.  0.
         12    1    1    2    0    0  0.18548280539E+02  0.12467476338E+02 -0.22743104616E+02  0.31886133111E+02  0.00000000000E+00 0. -1.
         11    1    3    3    0    0 -0.55395725109E+01 -0.10139407637E+02 -0.90746361189E+01  0.14691612293E+02  0.51100000000E-03 0. -1.
        -11    1    3    3    0    0  0.78947793133E-01 -0.13634954507E+02  0.17313371658E+02  0.22037945812E+02  0.51100000000E-03 0.  1.
         12    1    3    3    0    0 -0.13087655821E+02  0.11306885806E+02  0.14504369076E+02  0.22572308784E+02  0.00000000000E+00 0. -1.
</event>
<event>
 7    1  0.7749294E-012  0.5930193E+02  0.7816164E-02  0.1266605E+00
        -11   -1    0    0    0    0  0.00000000000E+00  0.00000000000E+00  0.45593999997E+02  0.45594000000E+02  0.51100000000E-03 0. -1.
         11   -1    0    0    0    0 -0.00000000000E+00 -0.00000000000E+00 -0.45593999997E+02  0.45594000000E+02  0.51100000000E-03 0.  1.
    9900012    2    1    2    0    0  0.86459201233E+01  0.24379352395E+02  0.18644480625E+02  0.59301930694E+02  0.49999975683E+02 0.  0.
         12    1    1    2    0    0 -0.86459201233E+01 -0.24379352395E+02 -0.18644480625E+02  0.31886069306E+02  0.00000000000E+00 0. -1.
         11    1    3    3    0    0 -0.31026175711E+01  0.14474239725E+02  0.36942040863E+01  0.15257031019E+02  0.51100000000E-03 0. -1.
        -11    1    3    3    0    0  0.89739709349E+01 -0.50072554123E+01  0.24191161764E+02  0.26283399112E+02  0.51100000000E-03 0.  1.
        -12    1    3    3    0    0  0.27745667595E+01  0.14912368082E+02 -0.92408852251E+01  0.17761500564E+02  0.00000000000E+00 0.  1.
</event>
<event>
 7    1  0.7749294E-012  0.5930195E+02  0.7816164E-02  0.1266605E+00
        -11   -1    0    0    0    0  0.00000000000E+00  0.00000000000E+00  0.45593999997E+02  0.45594000000E+02  0.51100000000E-03 0. -1.
         11   -1    0    0    0    0 -0.00000000000E+00 -0.00000000000E+00 -0.45593999997E+02  0.45594000000E+02  0.51100000000E-03 0.  1.
    9900012    2    1    2    0    0 -0.73649855908E+01 -0.15247659107E+02 -0.27018258768E+02  0.59301946186E+02  0.50000003936E+02 0.  0.
         12    1    1    2    0    0  0.73649855908E+01  0.15247659107E+02  0.27018258768E+02  0.31886053814E+02  0.00000000000E+00 0. -1.
         11    1    3    3    0    0 -0.93351418574E+01 -0.16159173967E+02 -0.16899081207E+02  0.25176233290E+02  0.51100000000E-03 0. -1.
        -11    1    3    3    0    0 -0.93779289204E+01  0.12967897707E+02 -0.42374660249E+01  0.16555000463E+02  0.51100000000E-03 0.  1.
        -12    1    3    3    0    0  0.11348085187E+02 -0.12056382848E+02 -0.58817115358E+01  0.17570712432E+02  0.00000000000E+00 0.  1.
</event>
<event>
 7    1  0.7749294E-012  0.5930193E+02  0.7816164E-02  0.1266605E+00
        -11   -1    0    0    0    0  0.00000000000E+00  0.00000000000E+00  0.45593999997E+02  0.45594000000E+02  0.51100000000E-03 0. -1.
         11   -1    0    0    0    0 -0.00000000000E+00 -0.00000000000E+00 -0.45593999997E+02  0.45594000000E+02  0.51100000000E-03 0.  1.
    9900012    2    1    2    0    0  0.31879097813E+02  0.40257249051E+00 -0.53128485751E+00  0.59301933991E+02  0.49999981695E+02 0.  0.
         12    1    1    2    0    0 -0.31879097813E+02 -0.40257249051E+00  0.53128485751E+00  0.31886066009E+02  0.00000000000E+00 0. -1.
         11    1    3    3    0    0  0.60754052754E+01 -0.11782049692E+02  0.17754687149E+02  0.22157530553E+02  0.51100000000E-03 0. -1.
        -11    1    3    3    0    0  0.42221249362E+01  0.21503131814E+01 -0.11434951815E+02  0.12377734406E+02  0.51100000000E-03 0.  1.
        -12    1    3    3    0    0  0.21581567601E+02  0.10034309001E+02 -0.68510201909E+01  0.24766669031E+02  0.00000000000E+00 0.  1.
</event>
<event>
 7    1  0.7749294E-012  0.5930198E+02  0.7816164E-02  0.1266605E+00
        -11   -1    0    0    0    0  0.00000000000E+00  0.00000000000E+00  0.45593999997E+02  0.45594000000E+02  0.51100000000E-03 0.  1.
         11   -1    0    0    0    0 -0.00000000000E+00 -0.00000000000E+00 -0.45593999997E+02  0.45594000000E+02  0.51100000000E-03 0. -1.
    9900012    2    1    2    0    0  0.74694039658E+01  0.21955879326E+02 -0.21882993970E+02  0.59301983352E+02  0.50000071718E+02 0.  0.
         12    1    1    2    0    0 -0.74694039658E+01 -0.21955879326E+02  0.21882993970E+02  0.31886016648E+02  0.00000000000E+00 0. -1.
         11    1    3    3    0    0 -0.82134568791E+01  0.20052865177E+02 -0.90965932303E+01  0.23501623015E+02  0.51100000000E-03 0. -1.
        -11    1    3    3    0    0  0.64592266795E+01 -0.11755303889E+02  0.21183722390E+01  0.13579259185E+02  0.51100000000E-03 0.  1.
        -12    1    3    3    0    0  0.92236341655E+01  0.13658318038E+02 -0.14904772978E+02  0.22221101152E+02  0.00000000000E+00 0.  1.
</event>
<event>
 7    1  0.7749294E-012  0.5930190E+02  0.7816164E-02  0.1266605E+00
        -11   -1    0    0    0    0  0.00000000000E+00  0.00000000000E+00  0.45593999997E+02  0.45594000000E+02  0.51100000000E-03 0.  1.
         11   -1    0    0    0    0 -0.00000000000E+00 -0.00000000000E+00 -0.45593999997E+02  0.45594000000E+02  0.51100000000E-03 0. -1.
    9900012    2    1    2    0    0 -0.89878244734E+01 -0.25205769357E+02  0.17338146405E+02  0.59301903996E+02  0.49999926991E+02 0.  0.
         12    1    1    2    0    0  0.89878244734E+01  0.25205769357E+02 -0.17338146405E+02  0.31886096004E+02  0.00000000000E+00 0. -1.
         11    1    3    3    0    0 -0.68440762258E+01 -0.30761586517E+01 -0.16578571266E+01  0.76845703815E+01  0.51100000000E-03 0. -1.
        -11    1    3    3    0    0  0.71852889729E+01  0.84477180579E+01  0.16055804474E+02  0.19513615134E+02  0.51100000000E-03 0.  1.
        -12    1    3    3    0    0 -0.93290372205E+01 -0.30577328763E+02  0.29401990569E+01  0.32103718480E+02  0.00000000000E+00 0.  1.
</event>
<event>
 7    1  0.7749294E-012  0.5930192E+02  0.7816164E-02  0.1266605E+00
        -11   -1    0    0    0    0  0.00000000000E+00  0.00000000000E+00  0.45593999997E+02  0.45594000000E+02  0.51100000000E-03 0.  1.
         11   -1    0    0    0    0 -0.00000000000E+00 -0.00000000000E+00 -0.45593999997E+02  0.45594000000E+02  0.51100000000E-03 0. -1.
    9900012    2    1    2    0    0  0.24550619893E+02  0.17898915135E+01  0.20267841780E+02  0.59301920605E+02  0.49999957282E+02 0.  0.
         12    1    1    2    0    0 -0.24550619893E+02 -0.17898915135E+01 -0.20267841780E+02  0.31886079395E+02  0.00000000000E+00 0. -1.
         11    1    3    3    0    0 -0.94784136486E+01  0.75300930900E+00 -0.24101578046E+01  0.98089861463E+01  0.51100000000E-03 0. -1.
        -11    1    3    3    0    0  0.21269723696E+02 -0.12633044283E+02  0.16752743287E+02  0.29877238190E+02  0.51100000000E-03 0.  1.
        -12    1    3    3    0    0  0.12759309845E+02  0.13669926487E+02  0.59252562978E+01  0.19615696268E+02  0.00000000000E+00 0.  1.
</event>
<event>
 7    1  0.7749294E-012  0.5930195E+02  0.7816164E-02  0.1266605E+00
        -11   -1    0    0    0    0  0.00000000000E+00  0.00000000000E+00  0.45593999997E+02  0.45594000000E+02  0.51100000000E-03 0.  1.
         11   -1    0    0    0    0 -0.00000000000E+00 -0.00000000000E+00 -0.45593999997E+02  0.45594000000E+02  0.51100000000E-03 0. -1.
    9900012    2    1    2    0    0  0.15689951233E+02 -0.28610748609E+01  0.27610866284E+02  0.59301948881E+02  0.50000008851E+02 0.  0.
         12    1    1    2    0    0 -0.15689951233E+02  0.28610748609E+01 -0.27610866284E+02  0.31886051119E+02  0.00000000000E+00 0. -1.
         11    1    3    3    0    0  0.10954754481E+01  0.37811046251E+01 -0.51561445515E+01  0.64871138067E+01  0.51100000000E-03 0. -1.
        -11    1    3    3    0    0  0.11912761117E+02 -0.22384366062E+02  0.18342914082E+02  0.31295945723E+02  0.51100000000E-03 0.  1.
        -12    1    3    3    0    0  0.26817146672E+01  0.15742186576E+02  0.14424096753E+02  0.21518889351E+02  0.00000000000E+00 0.  1.
</event>
<event>
 7    1  0.7749294E-012  0.5930195E+02  0.7816164E-02  0.1266605E+00
        -11   -1    0    0    0    0  0.00000000000E+00  0.00000000000E+00  0.45593999997E+02  0.45594000000E+02  0.51100000000E-03 0.  1.
         11   -1    0    0    0    0 -0.00000000000E+00 -0.00000000000E+00 -0.45593999997E+02  0.45594000000E+02  0.51100000000E-03 0. -1.
    9900012    2    1    2    0    0 -0.29389291325E+02  0.85896922434E+01  0.88998451541E+01  0.59301945036E+02  0.50000001838E+02 0.  0.
         12    1    1    2    0    0  0.29389291325E+02 -0.85896922434E+01 -0.88998451541E+01  0.31886054964E+02  0.00000000000E+00 0. -1.
         11    1    3    3    0    0 -0.10730128791E+02 -0.64070835902E+01  0.85656531837E+01  0.15151131929E+02  0.51100000000E-03 0.  1.
        -11    1    3    3    0    0 -0.38087818596E+01  0.75170809696E+01 -0.17710587155E+02  0.19613215524E+02  0.51100000000E-03 0. -1.
        -12    1    3    3    0    0 -0.14850380674E+02  0.74796948640E+01  0.18044779125E+02  0.24537597582E+02  0.00000000000E+00 0.  1.
</event>
<event>
 7    1  0.7749294E-012  0.5930194E+02  0.7816164E-02  0.1266605E+00
        -11   -1    0    0    0    0  0.00000000000E+00  0.00000000000E+00  0.45593999997E+02  0.45594000000E+02  0.51100000000E-03 0.  1.
         11   -1    0    0    0    0 -0.00000000000E+00 -0.00000000000E+00 -0.45593999997E+02  0.45594000000E+02  0.51100000000E-03 0. -1.
    9900012    2    1    2    0    0 -0.19534876193E+02 -0.38323881327E+01  0.24908279396E+02  0.59301937697E+02  0.49999988455E+02 0.  0.
         12    1    1    2    0    0  0.19534876193E+02  0.38323881327E+01 -0.24908279396E+02  0.31886062303E+02  0.00000000000E+00 0. -1.
         11    1    3    3    0    0  0.83950940567E+01 -0.16309653665E+02 -0.18323198175E+01  0.18434744453E+02  0.51100000000E-03 0. -1.
        -11    1    3    3    0    0 -0.12736988737E+02  0.48457196813E+01  0.92218294624E+01  0.16454604833E+02  0.51100000000E-03 0.  1.
         12    1    3    3    0    0 -0.15192981513E+02  0.76315458508E+01  0.17518769751E+02  0.24412588411E+02  0.00000000000E+00 0. -1.
</event>
<event>
 7    1  0.7749294E-012  0.5930192E+02  0.7816164E-02  0.1266605E+00
        -11   -1    0    0    0    0  0.00000000000E+00  0.00000000000E+00  0.45593999997E+02  0.45594000000E+02  0.51100000000E-03 0. -1.
         11   -1    0    0    0    0 -0.00000000000E+00 -0.00000000000E+00 -0.45593999997E+02  0.45594000000E+02  0.51100000000E-03 0.  1.
    9900012    2    1    2    0    0  0.22400263867E+02  0.12243188174E+02 -0.19106397892E+02  0.59301922813E+02  0.49999961309E+02 0.  0.
         12    1    1    2    0    0 -0.22400263867E+02 -0.12243188174E+02  0.19106397892E+02  0.31886077187E+02  0.00000000000E+00 0. -1.
         11    1    3    3    0    0  0.38192533700E+00 -0.93602196873E+01  0.85724783629E+01  0.12698305600E+02  0.51100000000E-03 0. -1.
        -11    1    3    3    0    0  0.17545854475E+02  0.30316533670E+01 -0.17466471082E+02  0.24942444622E+02  0.51100000000E-03 0.  1.
         12    1    3    3    0    0  0.44724840548E+01  0.18571754494E+02 -0.10212405173E+02  0.21661172592E+02  0.00000000000E+00 0. -1.
</event>
<event>
 7    1  0.7749294E-012  0.5930193E+02  0.7816164E-02  0.1266605E+00
        -11   -1    0    0    0    0  0.00000000000E+00  0.00000000000E+00  0.45593999997E+02  0.45594000000E+02  0.51100000000E-03 0. -1.
         11   -1    0    0    0    0 -0.00000000000E+00 -0.00000000000E+00 -0.45593999997E+02  0.45594000000E+02  0.51100000000E-03 0.  1.
    9900012    2    1    2    0    0  0.18685905406E+02  0.25835096261E+02  0.32628534475E+00  0.59301925896E+02  0.49999966932E+02 0.  0.
         12    1    1    2    0    0 -0.18685905406E+02 -0.25835096261E+02 -0.32628534475E+00  0.31886074104E+02  0.00000000000E+00 0. -1.
         11    1    3    3    0    0  0.16848551981E+02 -0.32451880433E+01 -0.16542745998E+02  0.23834164443E+02  0.51100000000E-03 0. -1.
        -11    1    3    3    0    0  0.47904226925E+00  0.13969835297E+02  0.18156607040E+01  0.14095474585E+02  0.51100000000E-03 0.  1.
         12    1    3    3    0    0  0.13583111557E+01  0.15110449007E+02  0.15053370638E+02  0.21372286868E+02  0.00000000000E+00 0. -1.
</event>
<event>
 7    1  0.7749294E-012  0.5930193E+02  0.7816164E-02  0.1266605E+00
        -11   -1    0    0    0    0  0.00000000000E+00  0.00000000000E+00  0.45593999997E+02  0.45594000000E+02  0.51100000000E-03 0. -1.
         11   -1    0    0    0    0 -0.00000000000E+00 -0.00000000000E+00 -0.45593999997E+02  0.45594000000E+02  0.51100000000E-03 0.  1.
    9900012    2    1    2    0    0 -0.18622545020E+01  0.36622761041E+01 -0.31620263210E+02  0.59301932454E+02  0.49999978892E+02 0.  0.
         12    1    1    2    0    0  0.18622545020E+01 -0.36622761041E+01  0.31620263210E+02  0.31886067546E+02  0.00000000000E+00 0. -1.
         11    1    3    3    0    0 -0.18363335513E+02  0.11521231414E+02 -0.28532528194E+01  0.21865313086E+02  0.51100000000E-03 0. -1.
        -11    1    3    3    0    0  0.14565296505E+02 -0.48891839296E+00 -0.24996868235E+02  0.28934932613E+02  0.51100000000E-03 0.  1.
         12    1    3    3    0    0  0.19357845053E+01 -0.73700369165E+01 -0.37701421552E+01  0.85016867545E+01  0.00000000000E+00 0. -1.
</event>
<event>
 7    1  0.7749294E-012  0.5930194E+02  0.7816164E-02  0.1266605E+00
        -11   -1    0    0    0    0  0.00000000000E+00  0.00000000000E+00  0.45593999997E+02  0.45594000000E+02  0.51100000000E-03 0.  1.
         11   -1    0    0    0    0 -0.00000000000E+00 -0.00000000000E+00 -0.45593999997E+02  0.45594000000E+02  0.51100000000E-03 0. -1.
    9900012    2    1    2    0    0  0.11038652856E+02  0.17330163524E+02  0.24383072303E+02  0.59301942866E+02  0.49999997882E+02 0.  0.
         12    1    1    2    0    0 -0.11038652856E+02 -0.17330163524E+02 -0.24383072303E+02  0.31886057134E+02  0.00000000000E+00 0. -1.
         11    1    3    3    0    0  0.78445564167E+01  0.40876350418E+00 -0.98436544854E+01  0.12593716166E+02  0.51100000000E-03 0. -1.
        -11    1    3    3    0    0  0.72876321979E+01  0.22757848919E+02  0.21617966612E+02  0.32223683079E+02  0.51100000000E-03 0.  1.
        -12    1    3    3    0    0 -0.40935357591E+01 -0.58364488988E+01  0.12608760176E+02  0.14484543621E+02  0.00000000000E+00 0.  1.
</event>
<event>
 7    1  0.7749294E-012  0.5930197E+02  0.7816164E-02  0.1266605E+00
        -11   -1    0    0    0    0  0.00000000000E+00  0.00000000000E+00  0.45593999997E+02  0.45594000000E+02  0.51100000000E-03 0.  1.
         11   -1    0    0    0    0 -0.00000000000E+00 -0.00000000000E+00 -0.45593999997E+02  0.45594000000E+02  0.51100000000E-03 0. -1.
    9900012    2    1    2    0    0 -0.16335713383E+00  0.23916305368E+02  0.21087979253E+02  0.59301965173E+02  0.50000038564E+02 0.  0.
         12    1    1    2    0    0  0.16335713383E+00 -0.23916305368E+02 -0.21087979253E+02  0.31886034827E+02  0.00000000000E+00 0. -1.
         11    1    3    3    0    0  0.36579740213E+01  0.12448590213E+02 -0.10855013240E+02  0.16916840276E+02  0.51100000000E-03 0. -1.
        -11    1    3    3    0    0  0.33698271829E+01  0.17836293302E+02  0.22575060630E+02  0.28967610477E+02  0.51100000000E-03 0.  1.
        -12    1    3    3    0    0 -0.71911583380E+01 -0.63685781468E+01  0.93679318620E+01  0.13417514421E+02  0.00000000000E+00 0.  1.
</event>
<event>
 7    1  0.7749294E-012  0.5930195E+02  0.7816164E-02  0.1266605E+00
        -11   -1    0    0    0    0  0.00000000000E+00  0.00000000000E+00  0.45593999997E+02  0.45594000000E+02  0.51100000000E-03 0. -1.
         11   -1    0    0    0    0 -0.00000000000E+00 -0.00000000000E+00 -0.45593999997E+02  0.45594000000E+02  0.51100000000E-03 0.  1.
    9900012    2    1    2    0    0  0.31127240208E+02 -0.62249316522E+01 -0.30108635111E+01  0.59301950446E+02  0.50000011706E+02 0.  0.
         12    1    1    2    0    0 -0.31127240208E+02  0.62249316522E+01  0.30108635111E+01  0.31886049554E+02  0.00000000000E+00 0. -1.
         11    1    3    3    0    0  0.60466218973E+01 -0.66287522590E+01  0.15303081195E+02  0.17739399291E+02  0.51100000000E-03 0. -1.
        -11    1    3    3    0    0  0.13103817865E+02  0.12288750745E+02 -0.16843408433E+02  0.24625674517E+02  0.51100000000E-03 0.  1.
        -12    1    3    3    0    0  0.11976800446E+02 -0.11884930138E+02 -0.14705362730E+01  0.16936876638E+02  0.00000000000E+00 0.  1.
</event>
<event>
 7    1  0.7749294E-012  0.5930198E+02  0.7816164E-02  0.1266605E+00
        -11   -1    0    0    0    0  0.00000000000E+00  0.00000000000E+00  0.45593999997E+02  0.45594000000E+02  0.51100000000E-03 0.  1.
         11   -1    0    0    0    0 -0.00000000000E+00 -0.00000000000E+00 -0.45593999997E+02  0.45594000000E+02  0.51100000000E-03 0. -1.
    9900012    2    1    2    0    0 -0.21062136246E+02 -0.14154985658E+01  0.23897720340E+02  0.59301980229E+02  0.50000066022E+02 0.  0.
         12    1    1    2    0    0  0.21062136246E+02  0.14154985658E+01 -0.23897720340E+02  0.31886019771E+02  0.00000000000E+00 0. -1.
         11    1    3    3    0    0 -0.20608210234E+02 -0.16126223498E+02 -0.33825666401E+01  0.26385510620E+02  0.51100000000E-03 0. -1.
        -11    1    3    3    0    0  0.46521938404E+01  0.29154715738E+01  0.95818135963E+01  0.11043280042E+02  0.51100000000E-03 0.  1.
         12    1    3    3    0    0 -0.51061198524E+01  0.11795253358E+02  0.17698473383E+02  0.21873189567E+02  0.00000000000E+00 0. -1.
</event>
<event>
 7    1  0.7749294E-012  0.5930188E+02  0.7816164E-02  0.1266605E+00
        -11   -1    0    0    0    0  0.00000000000E+00  0.00000000000E+00  0.45593999997E+02  0.45594000000E+02  0.51100000000E-03 0. -1.
         11   -1    0    0    0    0 -0.00000000000E+00 -0.00000000000E+00 -0.45593999997E+02  0.45594000000E+02  0.51100000000E-03 0.  1.
    9900012    2    1    2    0    0  0.35436123080E+01  0.31368426448E+02 -0.44932676412E+01  0.59301877312E+02  0.49999878326E+02 0.  0.
         12    1    1    2    0    0 -0.35436123080E+01 -0.31368426448E+02  0.44932676412E+01  0.31886122688E+02  0.00000000000E+00 0. -1.
         11    1    3    3    0    0  0.77082899054E+00 -0.33064918381E+01  0.11636301843E+01  0.35890250870E+01  0.51100000000E-03 0. -1.
        -11    1    3    3    0    0 -0.37286379329E+01  0.31159263575E+02 -0.21629218990E+02  0.38113325251E+02  0.51100000000E-03 0.  1.
        -12    1    3    3    0    0  0.65014212504E+01  0.35156547108E+01  0.15972321164E+02  0.17599526973E+02  0.00000000000E+00 0.  1.
</event>
<event>
 7    1  0.7749294E-012  0.5930173E+02  0.7816164E-02  0.1266605E+00
        -11   -1    0    0    0    0  0.00000000000E+00  0.00000000000E+00  0.45593999997E+02  0.45594000000E+02  0.51100000000E-03 0. -1.
         11   -1    0    0    0    0 -0.00000000000E+00 -0.00000000000E+00 -0.45593999997E+02  0.45594000000E+02  0.51100000000E-03 0.  1.
    9900012    2    1    2    0    0  0.15719896319E+02 -0.26469508233E+02 -0.83056623060E+01  0.59301732851E+02  0.49999614863E+02 0.  0.
         12    1    1    2    0    0 -0.15719896319E+02  0.26469508233E+02  0.83056623060E+01  0.31886267149E+02  0.00000000000E+00 0. -1.
         11    1    3    3    0    0  0.15116766584E+01  0.67345481904E+01 -0.12062684767E+00  0.69031772935E+01  0.51100000000E-03 0. -1.
        -11    1    3    3    0    0  0.23108001733E+00 -0.34289330014E+02  0.30604000553E+01  0.34426408461E+02  0.51100000000E-03 0.  1.
         12    1    3    3    0    0  0.13977139643E+02  0.10852735908E+01 -0.11245435514E+02  0.17972147096E+02  0.00000000000E+00 0. -1.
</event>
<event>
 7    1  0.9346393E-012  0.5930188E+02  0.7816164E-02  0.1266605E+00
        -11   -1    0    0    0    0  0.00000000000E+00  0.00000000000E+00  0.45593999997E+02  0.45594000000E+02  0.51100000000E-03 0.  1.
         11   -1    0    0    0    0 -0.00000000000E+00 -0.00000000000E+00 -0.45593999997E+02  0.45594000000E+02  0.51100000000E-03 0. -1.
    9900012    2    1    2    0    0  0.10138924418E+02 -0.29575211944E+02 -0.62636607235E+01  0.59301883969E+02  0.49999890467E+02 0.  0.
         12    1    1    2    0    0 -0.10138924418E+02  0.29575211944E+02  0.62636607235E+01  0.31886116031E+02  0.00000000000E+00 0. -1.
         11    1    3    3    0    0  0.18830528560E+01  0.29179615928E+01  0.13011059348E+02  0.13466553143E+02  0.51100000000E-03 0. -1.
        -11    1    3    3    0    0  0.66400379471E+01 -0.10258931372E+02 -0.20104350177E+02  0.23527020065E+02  0.51100000000E-03 0.  1.
        -12    1    3    3    0    0  0.16158336147E+01 -0.22234242165E+02  0.82963010473E+00  0.22308310761E+02  0.00000000000E+00 0.  1.
</event>
<event>
 7    1  0.7749294E-012  0.5930194E+02  0.7816164E-02  0.1266605E+00
        -11   -1    0    0    0    0  0.00000000000E+00  0.00000000000E+00  0.45593999997E+02  0.45594000000E+02  0.51100000000E-03 0.  1.
         11   -1    0    0    0    0 -0.00000000000E+00 -0.00000000000E+00 -0.45593999997E+02  0.45594000000E+02  0.51100000000E-03 0. -1.
    9900012    2    1    2    0    0  0.21794788393E+02  0.71710998333E+01  0.22142341370E+02  0.59301941051E+02  0.49999994571E+02 0.  0.
         12    1    1    2    0    0 -0.21794788393E+02 -0.71710998333E+01 -0.22142341370E+02  0.31886058949E+02  0.00000000000E+00 0. -1.
         11    1    3    3    0    0  0.26241249086E+02  0.58208863727E+01  0.15128664062E+02  0.30844162306E+02  0.51100000000E-03 0. -1.
        -11    1    3    3    0    0 -0.46576698130E+01  0.11733665283E+02 -0.40743731690E+01  0.13265493057E+02  0.51100000000E-03 0.  1.
        -12    1    3    3    0    0  0.21120911974E+00 -0.10383451823E+02  0.11088050478E+02  0.15192285689E+02  0.00000000000E+00 0.  1.
</event>
<event>
 7    1  0.7749294E-012  0.5930194E+02  0.7816164E-02  0.1266605E+00
        -11   -1    0    0    0    0  0.00000000000E+00  0.00000000000E+00  0.45593999997E+02  0.45594000000E+02  0.51100000000E-03 0.  1.
         11   -1    0    0    0    0 -0.00000000000E+00 -0.00000000000E+00 -0.45593999997E+02  0.45594000000E+02  0.51100000000E-03 0. -1.
    9900012    2    1    2    0    0  0.22033409030E+02  0.14502371891E+02  0.17914541838E+02  0.59301941711E+02  0.49999995774E+02 0.  0.
         12    1    1    2    0    0 -0.22033409030E+02 -0.14502371891E+02 -0.17914541838E+02  0.31886058289E+02  0.00000000000E+00 0. -1.
         11    1    3    3    0    0 -0.15175589313E+02  0.35299648216E+01 -0.20597696799E+00  0.15582091946E+02  0.51100000000E-03 0. -1.
        -11    1    3    3    0    0  0.10417896704E+02  0.69540241112E+01  0.76442528631E+01  0.14673977824E+02  0.51100000000E-03 0.  1.
         12    1    3    3    0    0  0.26791101640E+02  0.40183829586E+01  0.10476265942E+02  0.29045871941E+02  0.00000000000E+00 0. -1.
</event>
<event>
 7    1  0.7749294E-012  0.5930197E+02  0.7816164E-02  0.1266605E+00
        -11   -1    0    0    0    0  0.00000000000E+00  0.00000000000E+00  0.45593999997E+02  0.45594000000E+02  0.51100000000E-03 0.  1.
         11   -1    0    0    0    0 -0.00000000000E+00 -0.00000000000E+00 -0.45593999997E+02  0.45594000000E+02  0.51100000000E-03 0. -1.
    9900012    2    1    2    0    0 -0.30133889715E+02  0.10349848143E+02 -0.12443327002E+01  0.59301968108E+02  0.50000043916E+02 0.  0.
         12    1    1    2    0    0  0.30133889715E+02 -0.10349848143E+02  0.12443327002E+01  0.31886031892E+02  0.00000000000E+00 0. -1.
         11    1    3    3    0    0  0.15693351638E+01  0.23715235322E+02 -0.20719422505E+01  0.23857245109E+02  0.51100000000E-03 0. -1.
        -11    1    3    3    0    0 -0.20756516129E+02 -0.94083705612E+01  0.45199625564E+01  0.23233175853E+02  0.51100000000E-03 0.  1.
         12    1    3    3    0    0 -0.10946708750E+02 -0.39570166178E+01 -0.36923530061E+01  0.12211547146E+02  0.00000000000E+00 0. -1.
</event>
<event>
 7    1  0.7749294E-012  0.5930193E+02  0.7816164E-02  0.1266605E+00
        -11   -1    0    0    0    0  0.00000000000E+00  0.00000000000E+00  0.45593999997E+02  0.45594000000E+02  0.51100000000E-03 0.  1.
         11   -1    0    0    0    0 -0.00000000000E+00 -0.00000000000E+00 -0.45593999997E+02  0.45594000000E+02  0.51100000000E-03 0. -1.
    9900012    2    1    2    0    0 -0.19017506285E+02  0.26073002820E+01  0.25460914693E+02  0.59301925656E+02  0.49999966494E+02 0.  0.
         12    1    1    2    0    0  0.19017506285E+02 -0.26073002820E+01 -0.25460914693E+02  0.31886074344E+02  0.00000000000E+00 0. -1.
         11    1    3    3    0    0  0.64892033660E+01  0.17552428718E+01  0.69739283245E+00  0.67584757814E+01  0.51100000000E-03 0. -1.
        -11    1    3    3    0    0 -0.31288397879E+02 -0.10771574603E+01  0.30833678567E+02  0.43941322741E+02  0.51100000000E-03 0.  1.
        -12    1    3    3    0    0  0.57816882275E+01  0.19292148704E+01 -0.60701567063E+01  0.86021271332E+01  0.00000000000E+00 0.  1.
</event>
<event>
 7    1  0.7749294E-012  0.5930194E+02  0.7816164E-02  0.1266605E+00
        -11   -1    0    0    0    0  0.00000000000E+00  0.00000000000E+00  0.45593999997E+02  0.45594000000E+02  0.51100000000E-03 0. -1.
         11   -1    0    0    0    0 -0.00000000000E+00 -0.00000000000E+00 -0.45593999997E+02  0.45594000000E+02  0.51100000000E-03 0.  1.
    9900012    2    1    2    0    0  0.25288260598E+02  0.17681635079E+02 -0.80364366330E+01  0.59301942594E+02  0.49999997385E+02 0.  0.
         12    1    1    2    0    0 -0.25288260598E+02 -0.17681635079E+02  0.80364366330E+01  0.31886057406E+02  0.00000000000E+00 0. -1.
         11    1    3    3    0    0  0.12416188992E+02  0.24117340906E+02  0.53849959228E+01  0.27655127243E+02  0.51100000000E-03 0. -1.
        -11    1    3    3    0    0  0.16278370858E+02 -0.95402133939E+01 -0.17318573294E+02  0.25611208691E+02  0.51100000000E-03 0.  1.
         12    1    3    3    0    0 -0.34062992520E+01  0.31045075667E+01  0.38971407381E+01  0.60356066603E+01  0.00000000000E+00 0. -1.
</event>
<event>
 7    1  0.7749294E-012  0.5930194E+02  0.7816164E-02  0.1266605E+00
        -11   -1    0    0    0    0  0.00000000000E+00  0.00000000000E+00  0.45593999997E+02  0.45594000000E+02  0.51100000000E-03 0.  1.
         11   -1    0    0    0    0 -0.00000000000E+00 -0.00000000000E+00 -0.45593999997E+02  0.45594000000E+02  0.51100000000E-03 0. -1.
    9900012    2    1    2    0    0 -0.16459522962E+02  0.56705456852E+01  0.26714228689E+02  0.59301937230E+02  0.49999987603E+02 0.  0.
         12    1    1    2    0    0  0.16459522962E+02 -0.56705456852E+01 -0.26714228689E+02  0.31886062770E+02  0.00000000000E+00 0. -1.
         11    1    3    3    0    0 -0.20559660927E+02  0.47871809083E+01 -0.88615638537E+01  0.22894192990E+02  0.51100000000E-03 0. -1.
        -11    1    3    3    0    0 -0.11314397076E+00 -0.23888084373E+01  0.11989661278E+02  0.12225840877E+02  0.51100000000E-03 0.  1.
         12    1    3    3    0    0  0.42132819363E+01  0.32721732142E+01  0.23586131265E+02  0.24181903363E+02  0.00000000000E+00 0. -1.
</event>
<event>
 7    1  0.7749294E-012  0.5930196E+02  0.7816164E-02  0.1266605E+00
        -11   -1    0    0    0    0  0.00000000000E+00  0.00000000000E+00  0.45593999997E+02  0.45594000000E+02  0.51100000000E-03 0. -1.
         11   -1    0    0    0    0 -0.00000000000E+00 -0.00000000000E+00 -0.45593999997E+02  0.45594000000E+02  0.51100000000E-03 0.  1.
    9900012    2    1    2    0    0 -0.66985604028E+01  0.31069218434E+02 -0.25597712609E+01  0.59301961136E+02  0.50000031201E+02 0.  0.
         12    1    1    2    0    0  0.66985604028E+01 -0.31069218434E+02  0.25597712609E+01  0.31886038864E+02  0.00000000000E+00 0. -1.
         11    1    3    3    0    0  0.63948119828E+01  0.15846216620E+02 -0.26079155636E+01  0.17285757875E+02  0.51100000000E-03 0. -1.
        -11    1    3    3    0    0 -0.15044277167E+02 -0.12957301191E+01  0.13783260566E+02  0.20444741723E+02  0.51100000000E-03 0.  1.
        -12    1    3    3    0    0  0.19509047812E+01  0.16518731933E+02 -0.13735116263E+02  0.21571461538E+02  0.00000000000E+00 0.  1.
</event>
<event>
 7    1  0.7749294E-012  0.5930198E+02  0.7816164E-02  0.1266605E+00
        -11   -1    0    0    0    0  0.00000000000E+00  0.00000000000E+00  0.45593999997E+02  0.45594000000E+02  0.51100000000E-03 0.  1.
         11   -1    0    0    0    0 -0.00000000000E+00 -0.00000000000E+00 -0.45593999997E+02  0.45594000000E+02  0.51100000000E-03 0. -1.
    9900012    2    1    2    0    0  0.29333459155E+02 -0.11442812545E+02  0.50327324387E+01  0.59301981422E+02  0.50000068198E+02 0.  0.
         12    1    1    2    0    0 -0.29333459155E+02  0.11442812545E+02 -0.50327324387E+01  0.31886018578E+02  0.00000000000E+00 0. -1.
         11    1    3    3    0    0  0.19122824679E+02 -0.22708795212E+02  0.10683429448E+00  0.29688098920E+02  0.51100000000E-03 0. -1.
        -11    1    3    3    0    0  0.15552583342E+02  0.12755378720E+02  0.96680537616E+01  0.22317118960E+02  0.51100000000E-03 0.  1.
         12    1    3    3    0    0 -0.53419488652E+01 -0.14893960528E+01 -0.47421556174E+01  0.72967635414E+01  0.00000000000E+00 0. -1.
</event>
<event>
 7    1  0.7749294E-012  0.5930194E+02  0.7816164E-02  0.1266605E+00
        -11   -1    0    0    0    0  0.00000000000E+00  0.00000000000E+00  0.45593999997E+02  0.45594000000E+02  0.51100000000E-03 0. -1.
         11   -1    0    0    0    0 -0.00000000000E+00 -0.00000000000E+00 -0.45593999997E+02  0.45594000000E+02  0.51100000000E-03 0.  1.
    9900012    2    1    2    0    0 -0.15167593904E+02 -0.43398404514E+01 -0.27709761854E+02  0.59301936869E+02  0.49999986945E+02 0.  0.
         12    1    1    2    0    0  0.15167593904E+02  0.43398404514E+01  0.27709761854E+02  0.31886063131E+02  0.00000000000E+00 0. -1.
         11    1    3    3    0    0 -0.49778215985E+01  0.18842893564E+02 -0.12667841508E+02  0.23244516654E+02  0.51100000000E-03 0. -1.
        -11    1    3    3    0    0 -0.11349109760E+02 -0.20640229827E+02 -0.19645637243E+02  0.30672013996E+02  0.51100000000E-03 0.  1.
        -12    1    3    3    0    0  0.11593374545E+01 -0.25425041884E+01  0.46037168972E+01  0.53854062197E+01  0.00000000000E+00 0.  1.
</event>
<event>
 7    1  0.7749294E-012  0.5930196E+02  0.7816164E-02  0.1266605E+00
        -11   -1    0    0    0    0  0.00000000000E+00  0.00000000000E+00  0.45593999997E+02  0.45594000000E+02  0.51100000000E-03 0. -1.
         11   -1    0    0    0    0 -0.00000000000E+00 -0.00000000000E+00 -0.45593999997E+02  0.45594000000E+02  0.51100000000E-03 0.  1.
    9900012    2    1    2    0    0  0.12261419324E+02  0.10403853224E+02 -0.27534282892E+02  0.59301963869E+02  0.50000036186E+02 0.  0.
         12    1    1    2    0    0 -0.12261419324E+02 -0.10403853224E+02  0.27534282892E+02  0.31886036131E+02  0.00000000000E+00 0. -1.
         11    1    3    3    0    0 -0.56994108969E+01 -0.66315733016E+01  0.61993113319E+01  0.10718792389E+02  0.51100000000E-03 0. -1.
        -11    1    3    3    0    0  0.19364779154E+02  0.33377190477E+01 -0.12544385396E+02  0.23313014506E+02  0.51100000000E-03 0.  1.
         12    1    3    3    0    0 -0.14039489326E+01  0.13697707478E+02 -0.21189208828E+02  0.25270156974E+02  0.00000000000E+00 0. -1.
</event>
<event>
 7    1  0.7749294E-012  0.5930194E+02  0.7816164E-02  0.1266605E+00
        -11   -1    0    0    0    0  0.00000000000E+00  0.00000000000E+00  0.45593999997E+02  0.45594000000E+02  0.51100000000E-03 0. -1.
         11   -1    0    0    0    0 -0.00000000000E+00 -0.00000000000E+00 -0.45593999997E+02  0.45594000000E+02  0.51100000000E-03 0.  1.
    9900012    2    1    2    0    0 -0.23091741400E+02  0.12631992583E+02 -0.17997914701E+02  0.59301942058E+02  0.49999996407E+02 0.  0.
         12    1    1    2    0    0  0.23091741400E+02 -0.12631992583E+02  0.17997914701E+02  0.31886057942E+02  0.00000000000E+00 0. -1.
         11    1    3    3    0    0 -0.73147578818E+01  0.17407545449E+02 -0.22884658347E+02  0.29668769933E+02  0.51100000000E-03 0. -1.
        -11    1    3    3    0    0 -0.44550757283E+01 -0.13956566523E+02  0.23617968539E+01  0.14839526054E+02  0.51100000000E-03 0.  1.
         12    1    3    3    0    0 -0.11321907790E+02  0.91810136570E+01  0.25249467919E+01  0.14793646071E+02  0.00000000000E+00 0. -1.
</event>
<event>
 7    1  0.7749294E-012  0.5930193E+02  0.7816164E-02  0.1266605E+00
        -11   -1    0    0    0    0  0.00000000000E+00  0.00000000000E+00  0.45593999997E+02  0.45594000000E+02  0.51100000000E-03 0. -1.
         11   -1    0    0    0    0 -0.00000000000E+00 -0.00000000000E+00 -0.45593999997E+02  0.45594000000E+02  0.51100000000E-03 0.  1.
    9900012    2    1    2    0    0  0.21790187626E+02  0.23220930091E+02  0.16423435437E+01  0.59301934652E+02  0.49999982901E+02 0.  0.
         12    1    1    2    0    0 -0.21790187626E+02 -0.23220930091E+02 -0.16423435437E+01  0.31886065348E+02  0.00000000000E+00 0. -1.
         11    1    3    3    0    0 -0.33560075419E+01 -0.48390911685E+01 -0.85036394169E+01  0.10343668283E+02  0.51100000000E-03 0. -1.
        -11    1    3    3    0    0  0.18191526972E+02  0.33674388822E+02  0.11393010392E+02  0.39933655006E+02  0.51100000000E-03 0.  1.
        -12    1    3    3    0    0  0.69546681960E+01 -0.56143675622E+01 -0.12470274309E+01  0.90246113630E+01  0.00000000000E+00 0.  1.
</event>
<event>
 7    1  0.7749294E-012  0.5930191E+02  0.7816164E-02  0.1266605E+00
        -11   -1    0    0    0    0  0.00000000000E+00  0.00000000000E+00  0.45593999997E+02  0.45594000000E+02  0.51100000000E-03 0. -1.
         11   -1    0    0    0    0 -0.00000000000E+00 -0.00000000000E+00 -0.45593999997E+02  0.45594000000E+02  0.51100000000E-03 0.  1.
    9900012    2    1    2    0    0 -0.10051622120E+02 -0.21612016678E+01 -0.30183056981E+02  0.59301908539E+02  0.49999935278E+02 0.  0.
         12    1    1    2    0    0  0.10051622120E+02  0.21612016678E+01  0.30183056981E+02  0.31886091461E+02  0.00000000000E+00 0. -1.
         11    1    3    3    0    0 -0.95456658878E+01  0.12093468787E+02  0.66836814284E+01  0.16794145475E+02  0.51100000000E-03 0. -1.
        -11    1    3    3    0    0  0.43740694975E+01  0.14771503087E+01 -0.66895692787E+01  0.81280252459E+01  0.51100000000E-03 0.  1.
         12    1    3    3    0    0 -0.48800257294E+01 -0.15731820764E+02 -0.30177169131E+02  0.34379737818E+02  0.00000000000E+00 0. -1.
</event>
<event>
 7    1  0.7749294E-012  0.5930196E+02  0.7816164E-02  0.1266605E+00
        -11   -1    0    0    0    0  0.00000000000E+00  0.00000000000E+00  0.45593999997E+02  0.45594000000E+02  0.51100000000E-03 0.  1.
         11   -1    0    0    0    0 -0.00000000000E+00 -0.00000000000E+00 -0.45593999997E+02  0.45594000000E+02  0.51100000000E-03 0. -1.
    9900012    2    1    2    0    0  0.20259325164E+02  0.32367412278E+01  0.24409072288E+02  0.59301959797E+02  0.50000028759E+02 0.  0.
         12    1    1    2    0    0 -0.20259325164E+02 -0.32367412278E+01 -0.24409072288E+02  0.31886040203E+02  0.00000000000E+00 0. -1.
         11    1    3    3    0    0 -0.70041960893E+00 -0.40718769894E+01 -0.24868899102E+00  0.41391564745E+01  0.51100000000E-03 0. -1.
        -11    1    3    3    0    0  0.86342230972E+01  0.25434996176E+02  0.94099909398E+01  0.28461144895E+02  0.51100000000E-03 0.  1.
        -12    1    3    3    0    0  0.12325521675E+02 -0.18126377959E+02  0.15247770339E+02  0.26701658428E+02  0.00000000000E+00 0.  1.
</event>
<event>
 7    1  0.7749294E-012  0.5930193E+02  0.7816164E-02  0.1266605E+00
        -11   -1    0    0    0    0  0.00000000000E+00  0.00000000000E+00  0.45593999997E+02  0.45594000000E+02  0.51100000000E-03 0. -1.
         11   -1    0    0    0    0 -0.00000000000E+00 -0.00000000000E+00 -0.45593999997E+02  0.45594000000E+02  0.51100000000E-03 0.  1.
    9900012    2    1    2    0    0  0.27816375629E+01  0.31163333199E+02  0.61506547261E+01  0.59301930986E+02  0.49999976215E+02 0.  0.
         12    1    1    2    0    0 -0.27816375629E+01 -0.31163333199E+02 -0.61506547261E+01  0.31886069014E+02  0.00000000000E+00 0. -1.
         11    1    3    3    0    0 -0.15573680005E+02  0.30304546164E+02  0.65726385448E+00  0.34078395255E+02  0.51100000000E-03 0. -1.
        -11    1    3    3    0    0  0.14235663725E+02 -0.40822223873E+01 -0.24405963663E+01  0.15009169604E+02  0.51100000000E-03 0.  1.
        -12    1    3    3    0    0  0.41196538426E+01  0.49410094225E+01  0.79339872379E+01  0.10214366128E+02  0.00000000000E+00 0.  1.
</event>
<event>
 7    1  0.7749294E-012  0.5930196E+02  0.7816164E-02  0.1266605E+00
        -11   -1    0    0    0    0  0.00000000000E+00  0.00000000000E+00  0.45593999997E+02  0.45594000000E+02  0.51100000000E-03 0. -1.
         11   -1    0    0    0    0 -0.00000000000E+00 -0.00000000000E+00 -0.45593999997E+02  0.45594000000E+02  0.51100000000E-03 0.  1.
    9900012    2    1    2    0    0  0.35378180319E+01  0.22473622709E+02 -0.22341430985E+02  0.59301962106E+02  0.50000032971E+02 0.  0.
         12    1    1    2    0    0 -0.35378180319E+01 -0.22473622709E+02  0.22341430985E+02  0.31886037894E+02  0.00000000000E+00 0. -1.
         11    1    3    3    0    0  0.42064702904E+01 -0.39324560760E+01 -0.21568167551E+02  0.22323629966E+02  0.51100000000E-03 0. -1.
        -11    1    3    3    0    0 -0.11575367892E+02  0.10915948884E+02  0.57864153353E+01  0.16930141304E+02  0.51100000000E-03 0.  1.
        -12    1    3    3    0    0  0.10906715634E+02  0.15490129901E+02 -0.65596787693E+01  0.20048190837E+02  0.00000000000E+00 0.  1.
</event>
<event>
 7    1  0.7749294E-012  0.5930194E+02  0.7816164E-02  0.1266605E+00
        -11   -1    0    0    0    0  0.00000000000E+00  0.00000000000E+00  0.45593999997E+02  0.45594000000E+02  0.51100000000E-03 0. -1.
         11   -1    0    0    0    0 -0.00000000000E+00 -0.00000000000E+00 -0.45593999997E+02  0.45594000000E+02  0.51100000000E-03 0.  1.
    9900012    2    1    2    0    0  0.13731645330E+01 -0.31110978501E+02 -0.68514566577E+01  0.59301936862E+02  0.49999986931E+02 0.  0.
         12    1    1    2    0    0 -0.13731645330E+01  0.31110978501E+02  0.68514566577E+01  0.31886063138E+02  0.00000000000E+00 0. -1.
         11    1    3    3    0    0  0.20587048086E+01 -0.11022388519E+02 -0.25366046740E+02  0.27733871739E+02  0.51100000000E-03 0. -1.
        -11    1    3    3    0    0  0.15437597936E+01 -0.15531565121E+02  0.38857053109E+01  0.16084508554E+02  0.51100000000E-03 0.  1.
         12    1    3    3    0    0 -0.22293000692E+01 -0.45570248612E+01  0.14628884771E+02  0.15483556569E+02  0.00000000000E+00 0. -1.
</event>
<event>
 7    1  0.7749294E-012  0.5930195E+02  0.7816164E-02  0.1266605E+00
        -11   -1    0    0    0    0  0.00000000000E+00  0.00000000000E+00  0.45593999997E+02  0.45594000000E+02  0.51100000000E-03 0. -1.
         11   -1    0    0    0    0 -0.00000000000E+00 -0.00000000000E+00 -0.45593999997E+02  0.45594000000E+02  0.51100000000E-03 0.  1.
    9900012    2    1    2    0    0 -0.20801792509E+02 -0.24084111602E+02  0.19903336282E+01  0.59301946133E+02  0.50000003839E+02 0.  0.
         12    1    1    2    0    0  0.20801792509E+02  0.24084111602E+02 -0.19903336282E+01  0.31886053867E+02  0.00000000000E+00 0. -1.
         11    1    3    3    0    0 -0.20789235923E+02 -0.18542664516E+02  0.18428825465E+02  0.33401262639E+02  0.51100000000E-03 0. -1.
        -11    1    3    3    0    0 -0.48038143060E+00  0.46171049322E+01  0.18322257161E+01  0.49905386092E+01  0.51100000000E-03 0.  1.
         12    1    3    3    0    0  0.46782484426E+00 -0.10158552019E+02 -0.18270717553E+02  0.20910144885E+02  0.00000000000E+00 0. -1.
</event>
<event>
 7    1  0.7749294E-012  0.5930195E+02  0.7816164E-02  0.1266605E+00
        -11   -1    0    0    0    0  0.00000000000E+00  0.00000000000E+00  0.45593999997E+02  0.45594000000E+02  0.51100000000E-03 0. -1.
         11   -1    0    0    0    0 -0.00000000000E+00 -0.00000000000E+00 -0.45593999997E+02  0.45594000000E+02  0.51100000000E-03 0.  1.
    9900012    2    1    2    0    0  0.28743673300E+02 -0.13591365181E+02 -0.24075452562E+01  0.59301949187E+02  0.50000009410E+02 0.  0.
         12    1    1    2    0    0 -0.28743673300E+02  0.13591365181E+02  0.24075452562E+01  0.31886050813E+02  0.00000000000E+00 0. -1.
         11    1    3    3    0    0 -0.70277765196E+01  0.28436110289E+01  0.14453062383E+02  0.16320746889E+02  0.51100000000E-03 0. -1.
        -11    1    3    3    0    0  0.17931532780E+02 -0.84893310234E+01 -0.65220326545E+01  0.20884097282E+02  0.51100000000E-03 0.  1.
         12    1    3    3    0    0  0.17839917040E+02 -0.79456451862E+01 -0.10338574985E+02  0.22097105017E+02  0.00000000000E+00 0. -1.
</event>
<event>
 7    1  0.7749294E-012  0.5930194E+02  0.7816164E-02  0.1266605E+00
        -11   -1    0    0    0    0  0.00000000000E+00  0.00000000000E+00  0.45593999997E+02  0.45594000000E+02  0.51100000000E-03 0.  1.
         11   -1    0    0    0    0 -0.00000000000E+00 -0.00000000000E+00 -0.45593999997E+02  0.45594000000E+02  0.51100000000E-03 0. -1.
    9900012    2    1    2    0    0 -0.20270815231E+02  0.17631057893E+02  0.17174420784E+02  0.59301939067E+02  0.49999990952E+02 0.  0.
         12    1    1    2    0    0  0.20270815231E+02 -0.17631057893E+02 -0.17174420784E+02  0.31886060933E+02  0.00000000000E+00 0. -1.
         11    1    3    3    0    0  0.90670859921E+01  0.12502919198E+02 -0.57141356477E+01  0.16467737650E+02  0.51100000000E-03 0. -1.
        -11    1    3    3    0    0 -0.21269203130E+02  0.12360012380E+02  0.11636092996E+02  0.27213003661E+02  0.51100000000E-03 0.  1.
         12    1    3    3    0    0 -0.80686980939E+01 -0.72318736848E+01  0.11252463436E+02  0.15621197755E+02  0.00000000000E+00 0. -1.
</event>
<event>
 7    1  0.7749294E-012  0.5930191E+02  0.7816164E-02  0.1266605E+00
        -11   -1    0    0    0    0  0.00000000000E+00  0.00000000000E+00  0.45593999997E+02  0.45594000000E+02  0.51100000000E-03 0.  1.
         11   -1    0    0    0    0 -0.00000000000E+00 -0.00000000000E+00 -0.45593999997E+02  0.45594000000E+02  0.51100000000E-03 0. -1.
    9900012    2    1    2    0    0  0.11888393364E+02  0.14871237942E+02  0.25578014435E+02  0.59301914679E+02  0.49999946474E+02 0.  0.
         12    1    1    2    0    0 -0.11888393364E+02 -0.14871237942E+02 -0.25578014435E+02  0.31886085321E+02  0.00000000000E+00 0. -1.
         11    1    3    3    0    0  0.22120028820E+02  0.21096332255E+02  0.53276566104E+01  0.31027968591E+02  0.51100000000E-03 0. -1.
        -11    1    3    3    0    0 -0.95664536515E+01 -0.10116449126E+02  0.95909639760E+01  0.16906985794E+02  0.51100000000E-03 0.  1.
         12    1    3    3    0    0 -0.66518180510E+00  0.38913548126E+01  0.10659393848E+02  0.11366960294E+02  0.00000000000E+00 0. -1.
</event>
<event>
 7    1  0.7749294E-012  0.5930199E+02  0.7816164E-02  0.1266605E+00
        -11   -1    0    0    0    0  0.00000000000E+00  0.00000000000E+00  0.45593999997E+02  0.45594000000E+02  0.51100000000E-03 0.  1.
         11   -1    0    0    0    0 -0.00000000000E+00 -0.00000000000E+00 -0.45593999997E+02  0.45594000000E+02  0.51100000000E-03 0. -1.
    9900012    2    1    2    0    0 -0.21009561128E+02 -0.21728361837E+02  0.10158470355E+02  0.59301986031E+02  0.50000076603E+02 0.  0.
         12    1    1    2    0    0  0.21009561128E+02  0.21728361837E+02 -0.10158470355E+02  0.31886013969E+02  0.00000000000E+00 0. -1.
         11    1    3    3    0    0 -0.18715103642E+01  0.18689176370E+01 -0.83720855964E+01  0.87799328967E+01  0.51100000000E-03 0. -1.
        -11    1    3    3    0    0 -0.24424807247E+02 -0.27120488344E+02  0.67202354083E+01  0.37111368356E+02  0.51100000000E-03 0.  1.
        -12    1    3    3    0    0  0.52867564836E+01  0.35232088700E+01  0.11810320543E+02  0.13410684777E+02  0.00000000000E+00 0.  1.
</event>
<event>
 7    1  0.7749294E-012  0.5930194E+02  0.7816164E-02  0.1266605E+00
        -11   -1    0    0    0    0  0.00000000000E+00  0.00000000000E+00  0.45593999997E+02  0.45594000000E+02  0.51100000000E-03 0.  1.
         11   -1    0    0    0    0 -0.00000000000E+00 -0.00000000000E+00 -0.45593999997E+02  0.45594000000E+02  0.51100000000E-03 0. -1.
    9900012    2    1    2    0    0  0.23910011682E+02  0.17956508261E+02  0.11072315112E+02  0.59301937065E+02  0.49999987302E+02 0.  0.
         12    1    1    2    0    0 -0.23910011682E+02 -0.17956508261E+02 -0.11072315112E+02  0.31886062935E+02  0.00000000000E+00 0. -1.
         11    1    3    3    0    0  0.62649475528E+01  0.50825881908E+01 -0.34359496278E+01  0.87685814510E+01  0.51100000000E-03 0. -1.
        -11    1    3    3    0    0  0.27082829101E+02  0.18549619092E+01  0.21308522409E+02  0.34510485990E+02  0.51100000000E-03 0.  1.
        -12    1    3    3    0    0 -0.94377649720E+01  0.11018958161E+02 -0.68002576690E+01  0.16022869624E+02  0.00000000000E+00 0.  1.
</event>
<event>
 7    1  0.7749294E-012  0.5930193E+02  0.7816164E-02  0.1266605E+00
        -11   -1    0    0    0    0  0.00000000000E+00  0.00000000000E+00  0.45593999997E+02  0.45594000000E+02  0.51100000000E-03 0.  1.
         11   -1    0    0    0    0 -0.00000000000E+00 -0.00000000000E+00 -0.45593999997E+02  0.45594000000E+02  0.51100000000E-03 0. -1.
    9900012    2    1    2    0    0 -0.25135857852E+02 -0.11205015638E+02 -0.16104586805E+02  0.59301930289E+02  0.49999974945E+02 0.  0.
         12    1    1    2    0    0  0.25135857852E+02  0.11205015638E+02  0.16104586805E+02  0.31886069711E+02  0.00000000000E+00 0. -1.
         11    1    3    3    0    0 -0.37131806224E+02 -0.12575630587E+02 -0.60100320730E+01  0.39661543136E+02  0.51100000000E-03 0. -1.
        -11    1    3    3    0    0  0.52560478038E+01  0.64979659787E+01 -0.45174880652E+01  0.95003841531E+01  0.51100000000E-03 0.  1.
         12    1    3    3    0    0  0.67399005680E+01 -0.51273510293E+01 -0.55770666669E+01  0.10140003001E+02  0.00000000000E+00 0. -1.
</event>
<event>
 7    1  0.7749294E-012  0.5930196E+02  0.7816164E-02  0.1266605E+00
        -11   -1    0    0    0    0  0.00000000000E+00  0.00000000000E+00  0.45593999997E+02  0.45594000000E+02  0.51100000000E-03 0.  1.
         11   -1    0    0    0    0 -0.00000000000E+00 -0.00000000000E+00 -0.45593999997E+02  0.45594000000E+02  0.51100000000E-03 0. -1.
    9900012    2    1    2    0    0  0.20073508826E+02 -0.24077790637E+02  0.58338314654E+01  0.59301963117E+02  0.50000034815E+02 0.  0.
         12    1    1    2    0    0 -0.20073508826E+02  0.24077790637E+02 -0.58338314654E+01  0.31886036883E+02  0.00000000000E+00 0. -1.
         11    1    3    3    0    0 -0.36746574515E-01 -0.10931788261E+01 -0.10010885196E+02  0.10070462398E+02  0.51100000000E-03 0. -1.
        -11    1    3    3    0    0  0.20747887383E+02 -0.31315181253E+02  0.95192963172E+01  0.38752192330E+02  0.51100000000E-03 0.  1.
        -12    1    3    3    0    0 -0.63763198301E+00  0.83305694424E+01  0.63254203439E+01  0.10479308389E+02  0.00000000000E+00 0.  1.
</event>
<event>
 7    1  0.7749294E-012  0.5930195E+02  0.7816164E-02  0.1266605E+00
        -11   -1    0    0    0    0  0.00000000000E+00  0.00000000000E+00  0.45593999997E+02  0.45594000000E+02  0.51100000000E-03 0. -1.
         11   -1    0    0    0    0 -0.00000000000E+00 -0.00000000000E+00 -0.45593999997E+02  0.45594000000E+02  0.51100000000E-03 0.  1.
    9900012    2    1    2    0    0  0.29557796875E+02 -0.66414628121E+01 -0.99472538278E+01  0.59301949083E+02  0.50000009219E+02 0.  0.
         12    1    1    2    0    0 -0.29557796875E+02  0.66414628121E+01  0.99472538278E+01  0.31886050917E+02  0.00000000000E+00 0. -1.
         11    1    3    3    0    0 -0.60200913167E+01 -0.81489396343E+00 -0.12352378262E+02  0.13765420466E+02  0.51100000000E-03 0. -1.
        -11    1    3    3    0    0  0.25592395054E+02 -0.99009680733E+01 -0.99019180345E+01  0.29172724151E+02  0.51100000000E-03 0.  1.
         12    1    3    3    0    0  0.99854931376E+01  0.40743992247E+01  0.12307042468E+02  0.16363804465E+02  0.00000000000E+00 0. -1.
</event>
<event>
 7    1  0.7749294E-012  0.5930195E+02  0.7816164E-02  0.1266605E+00
        -11   -1    0    0    0    0  0.00000000000E+00  0.00000000000E+00  0.45593999997E+02  0.45594000000E+02  0.51100000000E-03 0.  1.
         11   -1    0    0    0    0 -0.00000000000E+00 -0.00000000000E+00 -0.45593999997E+02  0.45594000000E+02  0.51100000000E-03 0. -1.
    9900012    2    1    2    0    0  0.94707782264E+01 -0.12794674983E+01  0.30420186759E+02  0.59301945999E+02  0.50000003596E+02 0.  0.
         12    1    1    2    0    0 -0.94707782264E+01  0.12794674983E+01 -0.30420186759E+02  0.31886054001E+02  0.00000000000E+00 0. -1.
         11    1    3    3    0    0 -0.76428866836E+01  0.85675870408E+01  0.23899219465E+00  0.11483657174E+02  0.51100000000E-03 0. -1.
        -11    1    3    3    0    0  0.72744200000E+01 -0.95456273744E+01 -0.36817681105E+01  0.12553549498E+02  0.51100000000E-03 0.  1.
        -12    1    3    3    0    0  0.98392449101E+01 -0.30142716475E+00  0.33862962675E+02  0.35264739328E+02  0.00000000000E+00 0.  1.
</event>
<event>
 7    1  0.7749294E-012  0.5930193E+02  0.7816164E-02  0.1266605E+00
        -11   -1    0    0    0    0  0.00000000000E+00  0.00000000000E+00  0.45593999997E+02  0.45594000000E+02  0.51100000000E-03 0.  1.
         11   -1    0    0    0    0 -0.00000000000E+00 -0.00000000000E+00 -0.45593999997E+02  0.45594000000E+02  0.51100000000E-03 0. -1.
    9900012    2    1    2    0    0 -0.16103588999E+02 -0.13123831469E+02  0.24190098730E+02  0.59301930822E+02  0.49999975916E+02 0.  0.
         12    1    1    2    0    0  0.16103588999E+02  0.13123831469E+02 -0.24190098730E+02  0.31886069178E+02  0.00000000000E+00 0. -1.
         11    1    3    3    0    0 -0.12461682028E+02 -0.71253372379E+01 -0.11132075238E+02  0.18165545659E+02  0.51100000000E-03 0. -1.
        -11    1    3    3    0    0 -0.76145091820E+01  0.40269066652E+01  0.24006970697E+02  0.25505516456E+02  0.51100000000E-03 0.  1.
         12    1    3    3    0    0  0.39726022117E+01 -0.10025400896E+02  0.11315203271E+02  0.15630868707E+02  0.00000000000E+00 0. -1.
</event>
<event>
 7    1  0.7749294E-012  0.5930203E+02  0.7816164E-02  0.1266604E+00
        -11   -1    0    0    0    0  0.00000000000E+00  0.00000000000E+00  0.45593999997E+02  0.45594000000E+02  0.51100000000E-03 0.  1.
         11   -1    0    0    0    0 -0.00000000000E+00 -0.00000000000E+00 -0.45593999997E+02  0.45594000000E+02  0.51100000000E-03 0. -1.
    9900012    2    1    2    0    0  0.70892737559E+01  0.20977804016E+02  0.22943162650E+02  0.59302034810E+02  0.50000165565E+02 0.  0.
         12    1    1    2    0    0 -0.70892737559E+01 -0.20977804016E+02 -0.22943162650E+02  0.31885965190E+02  0.00000000000E+00 0. -1.
         11    1    3    3    0    0  0.17219209876E+02  0.31478266108E+01 -0.39892556527E+00  0.17509115996E+02  0.51100000000E-03 0. -1.
        -11    1    3    3    0    0 -0.11290890197E+01  0.23791817340E+02  0.14987439701E+02  0.28141584237E+02  0.51100000000E-03 0.  1.
         12    1    3    3    0    0 -0.90008471000E+01 -0.59618399345E+01  0.83546485139E+01  0.13651334576E+02  0.00000000000E+00 0. -1.
</event>
<event>
 7    1  0.7749294E-012  0.5930195E+02  0.7816164E-02  0.1266605E+00
        -11   -1    0    0    0    0  0.00000000000E+00  0.00000000000E+00  0.45593999997E+02  0.45594000000E+02  0.51100000000E-03 0.  1.
         11   -1    0    0    0    0 -0.00000000000E+00 -0.00000000000E+00 -0.45593999997E+02  0.45594000000E+02  0.51100000000E-03 0. -1.
    9900012    2    1    2    0    0  0.75734454632E+01  0.18117068896E+02  0.25122403522E+02  0.59301946305E+02  0.50000004153E+02 0.  0.
         12    1    1    2    0    0 -0.75734454632E+01 -0.18117068896E+02 -0.25122403522E+02  0.31886053695E+02  0.00000000000E+00 0. -1.
         11    1    3    3    0    0  0.20127749258E+01  0.20384854194E+02  0.21640617198E+02  0.29797816302E+02  0.51100000000E-03 0.  1.
        -11    1    3    3    0    0 -0.11202356325E+02 -0.35995224001E+01 -0.17440147742E+01  0.11894996281E+02  0.51100000000E-03 0. -1.
        -12    1    3    3    0    0  0.16763026862E+02  0.13317371022E+01  0.52258010981E+01  0.17609133721E+02  0.00000000000E+00 0.  1.
</event>
<event>
 7    1  0.7749294E-012  0.5930201E+02  0.7816164E-02  0.1266605E+00
        -11   -1    0    0    0    0  0.00000000000E+00  0.00000000000E+00  0.45593999997E+02  0.45594000000E+02  0.51100000000E-03 0. -1.
         11   -1    0    0    0    0 -0.00000000000E+00 -0.00000000000E+00 -0.45593999997E+02  0.45594000000E+02  0.51100000000E-03 0.  1.
    9900012    2    1    2    0    0  0.76195141179E+01  0.85837699577E+01 -0.29748578755E+02  0.59302014990E+02  0.50000129419E+02 0.  0.
         12    1    1    2    0    0 -0.76195141179E+01 -0.85837699577E+01  0.29748578755E+02  0.31885985010E+02  0.00000000000E+00 0. -1.
         11    1    3    3    0    0  0.23505223517E+02  0.18827223205E+02 -0.22947006944E+02  0.37861920106E+02  0.51100000000E-03 0. -1.
        -11    1    3    3    0    0 -0.10372084552E+02 -0.48515310821E+01 -0.75132048044E+01  0.13695464157E+02  0.51100000000E-03 0.  1.
         12    1    3    3    0    0 -0.55136248467E+01 -0.53919221649E+01  0.71163299326E+00  0.77446307272E+01  0.00000000000E+00 0. -1.
</event>
<event>
 7    1  0.7749294E-012  0.5930196E+02  0.7816164E-02  0.1266605E+00
        -11   -1    0    0    0    0  0.00000000000E+00  0.00000000000E+00  0.45593999997E+02  0.45594000000E+02  0.51100000000E-03 0.  1.
         11   -1    0    0    0    0 -0.00000000000E+00 -0.00000000000E+00 -0.45593999997E+02  0.45594000000E+02  0.51100000000E-03 0. -1.
    9900012    2    1    2    0    0 -0.46218190736E+01 -0.12140506049E+02  0.29119859572E+02  0.59301963555E+02  0.50000035614E+02 0.  0.
         12    1    1    2    0    0  0.46218190736E+01  0.12140506049E+02 -0.29119859572E+02  0.31886036445E+02  0.00000000000E+00 0. -1.
         11    1    3    3    0    0 -0.64794874628E+00  0.14423672830E+01 -0.90534253850E+01  0.91904718279E+01  0.51100000000E-03 0. -1.
        -11    1    3    3    0    0 -0.13413173461E+02 -0.17418229672E+02  0.29081744051E+02  0.36456217365E+02  0.51100000000E-03 0.  1.
        -12    1    3    3    0    0  0.94393031335E+01  0.38353563396E+01  0.90915409051E+01  0.13655274363E+02  0.00000000000E+00 0.  1.
</event>
<event>
 7    1  0.7749294E-012  0.5930197E+02  0.7816164E-02  0.1266605E+00
        -11   -1    0    0    0    0  0.00000000000E+00  0.00000000000E+00  0.45593999997E+02  0.45594000000E+02  0.51100000000E-03 0. -1.
         11   -1    0    0    0    0 -0.00000000000E+00 -0.00000000000E+00 -0.45593999997E+02  0.45594000000E+02  0.51100000000E-03 0.  1.
    9900012    2    1    2    0    0  0.26762812312E+01  0.66119360968E+01 -0.31077945371E+02  0.59301970635E+02  0.50000048525E+02 0.  0.
         12    1    1    2    0    0 -0.26762812312E+01 -0.66119360968E+01  0.31077945371E+02  0.31886029365E+02  0.00000000000E+00 0. -1.
         11    1    3    3    0    0 -0.78811939031E+01 -0.16192661836E+01 -0.43698982147E+01  0.91559407479E+01  0.51100000000E-03 0. -1.
        -11    1    3    3    0    0  0.16829053577E+02 -0.51564441360E+01  0.21395067794E+01  0.17730861512E+02  0.51100000000E-03 0.  1.
        -12    1    3    3    0    0 -0.62715784426E+01  0.13387646416E+02 -0.28847553936E+02  0.32415168376E+02  0.00000000000E+00 0.  1.
</event>
<event>
 7    1  0.7749294E-012  0.5930192E+02  0.7816164E-02  0.1266605E+00
        -11   -1    0    0    0    0  0.00000000000E+00  0.00000000000E+00  0.45593999997E+02  0.45594000000E+02  0.51100000000E-03 0.  1.
         11   -1    0    0    0    0 -0.00000000000E+00 -0.00000000000E+00 -0.45593999997E+02  0.45594000000E+02  0.51100000000E-03 0. -1.
    9900012    2    1    2    0    0 -0.11587512750E+02  0.19512586875E+02  0.22398890829E+02  0.59301924534E+02  0.49999964447E+02 0.  0.
         12    1    1    2    0    0  0.11587512750E+02 -0.19512586875E+02 -0.22398890829E+02  0.31886075466E+02  0.00000000000E+00 0. -1.
         11    1    3    3    0    0 -0.20778930932E+02  0.15176632868E+02  0.25797563014E+02  0.36436361147E+02  0.51100000000E-03 0. -1.
        -11    1    3    3    0    0  0.50770971577E+01  0.37915958240E+01 -0.11856948835E+02  0.13443970782E+02  0.51100000000E-03 0.  1.
         12    1    3    3    0    0  0.41143210247E+01  0.54435818359E+00  0.84582766502E+01  0.94215926051E+01  0.00000000000E+00 0. -1.
</event>
<event>
 7    1  0.7749294E-012  0.5930194E+02  0.7816164E-02  0.1266605E+00
        -11   -1    0    0    0    0  0.00000000000E+00  0.00000000000E+00  0.45593999997E+02  0.45594000000E+02  0.51100000000E-03 0.  1.
         11   -1    0    0    0    0 -0.00000000000E+00 -0.00000000000E+00 -0.45593999997E+02  0.45594000000E+02  0.51100000000E-03 0. -1.
    9900012    2    1    2    0    0  0.73356251747E+01 -0.29839060280E+02  0.85170353536E+01  0.59301940251E+02  0.49999993113E+02 0.  0.
         12    1    1    2    0    0 -0.73356251747E+01  0.29839060280E+02 -0.85170353536E+01  0.31886059749E+02  0.00000000000E+00 0. -1.
         11    1    3    3    0    0  0.13469053249E+02 -0.28131409963E+02  0.99340957832E+01  0.32733436746E+02  0.51100000000E-03 0. -1.
        -11    1    3    3    0    0 -0.59903732725E+01 -0.13393276208E+02  0.71414889872E+00  0.14689262352E+02  0.51100000000E-03 0.  1.
         12    1    3    3    0    0 -0.14305480131E+00  0.11685625892E+02 -0.21312093283E+01  0.11879241153E+02  0.00000000000E+00 0. -1.
</event>
<event>
 7    1  0.7749294E-012  0.5930193E+02  0.7816164E-02  0.1266605E+00
        -11   -1    0    0    0    0  0.00000000000E+00  0.00000000000E+00  0.45593999997E+02  0.45594000000E+02  0.51100000000E-03 0. -1.
         11   -1    0    0    0    0 -0.00000000000E+00 -0.00000000000E+00 -0.45593999997E+02  0.45594000000E+02  0.51100000000E-03 0.  1.
    9900012    2    1    2    0    0 -0.20918191433E+01 -0.73162038433E+01 -0.30964796568E+02  0.59301934509E+02  0.49999982641E+02 0.  0.
         12    1    1    2    0    0  0.20918191433E+01  0.73162038433E+01  0.30964796568E+02  0.31886065491E+02  0.00000000000E+00 0. -1.
         11    1    3    3    0    0 -0.10258010295E+02  0.28423049790E+01  0.94241560784E+01  0.14216898074E+02  0.51100000000E-03 0. -1.
        -11    1    3    3    0    0  0.11353259441E+02 -0.10487616881E+02 -0.25203346370E+02  0.29565102339E+02  0.51100000000E-03 0.  1.
        -12    1    3    3    0    0 -0.31870682897E+01  0.32910805871E+00 -0.15185606276E+02  0.15519934096E+02  0.00000000000E+00 0.  1.
</event>
<event>
 7    1  0.7749294E-012  0.5930194E+02  0.7816164E-02  0.1266605E+00
        -11   -1    0    0    0    0  0.00000000000E+00  0.00000000000E+00  0.45593999997E+02  0.45594000000E+02  0.51100000000E-03 0. -1.
         11   -1    0    0    0    0 -0.00000000000E+00 -0.00000000000E+00 -0.45593999997E+02  0.45594000000E+02  0.51100000000E-03 0.  1.
    9900012    2    1    2    0    0 -0.47671932700E+01 -0.29964054368E+02 -0.98056176489E+01  0.59301939985E+02  0.49999992627E+02 0.  0.
         12    1    1    2    0    0  0.47671932700E+01  0.29964054368E+02  0.98056176489E+01  0.31886060015E+02  0.00000000000E+00 0. -1.
         11    1    3    3    0    0 -0.14913404200E+02  0.40583379797E+01 -0.15907665186E+02  0.22179574926E+02  0.51100000000E-03 0. -1.
        -11    1    3    3    0    0  0.49340338491E+01 -0.17562804527E+02  0.76629774455E+01  0.19786814207E+02  0.51100000000E-03 0.  1.
         12    1    3    3    0    0  0.52121770809E+01 -0.16459587820E+02 -0.15609299088E+01  0.17335550851E+02  0.00000000000E+00 0. -1.
</event>
<event>
 7    1  0.7749294E-012  0.5930196E+02  0.7816164E-02  0.1266605E+00
        -11   -1    0    0    0    0  0.00000000000E+00  0.00000000000E+00  0.45593999997E+02  0.45594000000E+02  0.51100000000E-03 0.  1.
         11   -1    0    0    0    0 -0.00000000000E+00 -0.00000000000E+00 -0.45593999997E+02  0.45594000000E+02  0.51100000000E-03 0. -1.
    9900012    2    1    2    0    0  0.11480699448E+02 -0.29302947336E+02 -0.51235149835E+01  0.59301959352E+02  0.50000027949E+02 0.  0.
         12    1    1    2    0    0 -0.11480699448E+02  0.29302947336E+02  0.51235149835E+01  0.31886040648E+02  0.00000000000E+00 0. -1.
         11    1    3    3    0    0  0.73506123324E+01  0.12613864894E+02 -0.85355838819E+01  0.16911454157E+02  0.51100000000E-03 0. -1.
        -11    1    3    3    0    0  0.26228257947E+01 -0.12438169115E+02  0.37100052612E+00  0.12717110825E+02  0.51100000000E-03 0.  1.
         12    1    3    3    0    0  0.15072613204E+01 -0.29478643115E+02  0.30410683723E+01  0.29673394370E+02  0.00000000000E+00 0. -1.
</event>
<event>
 7    1  0.7749294E-012  0.5930191E+02  0.7816164E-02  0.1266605E+00
        -11   -1    0    0    0    0  0.00000000000E+00  0.00000000000E+00  0.45593999997E+02  0.45594000000E+02  0.51100000000E-03 0.  1.
         11   -1    0    0    0    0 -0.00000000000E+00 -0.00000000000E+00 -0.45593999997E+02  0.45594000000E+02  0.51100000000E-03 0. -1.
    9900012    2    1    2    0    0  0.11072644597E+02 -0.28093423860E+02 -0.10241045424E+02  0.59301906889E+02  0.49999932267E+02 0.  0.
         12    1    1    2    0    0 -0.11072644597E+02  0.28093423860E+02  0.10241045424E+02  0.31886093111E+02  0.00000000000E+00 0. -1.
         11    1    3    3    0    0  0.96538744192E+01 -0.49286074341E+01 -0.88505272458E+01  0.13993580504E+02  0.51100000000E-03 0. -1.
        -11    1    3    3    0    0 -0.10039158592E+02  0.49248421002E+01  0.77725261062E+01  0.13618037204E+02  0.51100000000E-03 0.  1.
        -12    1    3    3    0    0  0.11457928770E+02 -0.28089658526E+02 -0.91630442840E+01  0.31690289181E+02  0.00000000000E+00 0.  1.
</event>
<event>
 7    1  0.7749294E-012  0.5930193E+02  0.7816164E-02  0.1266605E+00
        -11   -1    0    0    0    0  0.00000000000E+00  0.00000000000E+00  0.45593999997E+02  0.45594000000E+02  0.51100000000E-03 0.  1.
         11   -1    0    0    0    0 -0.00000000000E+00 -0.00000000000E+00 -0.45593999997E+02  0.45594000000E+02  0.51100000000E-03 0. -1.
    9900012    2    1    2    0    0 -0.15050925906E+02  0.26733138577E+02 -0.86908057084E+01  0.59301934506E+02  0.49999982635E+02 0.  0.
         12    1    1    2    0    0  0.15050925906E+02 -0.26733138577E+02  0.86908057084E+01  0.31886065494E+02  0.00000000000E+00 0. -1.
         11    1    3    3    0    0 -0.24617317496E+02  0.26224667629E+02 -0.22095820168E+02  0.42213395766E+02  0.51100000000E-03 0. -1.
        -11    1    3    3    0    0  0.91465709282E+01  0.12276592437E+01  0.10104478461E+02  0.13684567665E+02  0.51100000000E-03 0.  1.
         12    1    3    3    0    0  0.41982066191E+00 -0.71918829518E+00  0.33005359992E+01  0.34039710742E+01  0.00000000000E+00 0. -1.
</event>
<event>
 7    1  0.7749294E-012  0.5930194E+02  0.7816164E-02  0.1266605E+00
        -11   -1    0    0    0    0  0.00000000000E+00  0.00000000000E+00  0.45593999997E+02  0.45594000000E+02  0.51100000000E-03 0.  1.
         11   -1    0    0    0    0 -0.00000000000E+00 -0.00000000000E+00 -0.45593999997E+02  0.45594000000E+02  0.51100000000E-03 0. -1.
    9900012    2    1    2    0    0  0.26965290865E+02  0.75214075307E+01  0.15265062042E+02  0.59301943457E+02  0.49999998960E+02 0.  0.
         12    1    1    2    0    0 -0.26965290865E+02 -0.75214075307E+01 -0.15265062042E+02  0.31886056543E+02  0.00000000000E+00 0. -1.
         11    1    3    3    0    0 -0.43170911106E+01 -0.28789329410E+00 -0.98190738021E+01  0.10730068443E+02  0.51100000000E-03 0. -1.
        -11    1    3    3    0    0  0.10460255439E+02  0.88198007893E+01  0.24086531524E+02  0.27701386805E+02  0.51100000000E-03 0.  1.
        -12    1    3    3    0    0  0.20822126537E+02 -0.10104999645E+01  0.99760432011E+00  0.20870488209E+02  0.00000000000E+00 0.  1.
</event>
<event>
 7    1  0.7749294E-012  0.5930194E+02  0.7816164E-02  0.1266605E+00
        -11   -1    0    0    0    0  0.00000000000E+00  0.00000000000E+00  0.45593999997E+02  0.45594000000E+02  0.51100000000E-03 0. -1.
         11   -1    0    0    0    0 -0.00000000000E+00 -0.00000000000E+00 -0.45593999997E+02  0.45594000000E+02  0.51100000000E-03 0.  1.
    9900012    2    1    2    0    0 -0.11376705563E+02 -0.21441004650E+02  0.20677882189E+02  0.59301938442E+02  0.49999989813E+02 0.  0.
         12    1    1    2    0    0  0.11376705563E+02  0.21441004650E+02 -0.20677882189E+02  0.31886061558E+02  0.00000000000E+00 0. -1.
         11    1    3    3    0    0  0.10591101299E+02 -0.32170088206E+01 -0.29962656457E+01  0.11467265609E+02  0.51100000000E-03 0. -1.
        -11    1    3    3    0    0 -0.25096249043E+02 -0.47702510665E+01  0.76234301415E+01  0.26658839034E+02  0.51100000000E-03 0.  1.
        -12    1    3    3    0    0  0.31284421816E+01 -0.13453744763E+02  0.16050717693E+02  0.21175833799E+02  0.00000000000E+00 0.  1.
</event>
<event>
 7    1  0.7749294E-012  0.5930194E+02  0.7816164E-02  0.1266605E+00
        -11   -1    0    0    0    0  0.00000000000E+00  0.00000000000E+00  0.45593999997E+02  0.45594000000E+02  0.51100000000E-03 0.  1.
         11   -1    0    0    0    0 -0.00000000000E+00 -0.00000000000E+00 -0.45593999997E+02  0.45594000000E+02  0.51100000000E-03 0. -1.
    9900012    2    1    2    0    0 -0.22642526893E+02  0.26575875833E+01  0.22292915605E+02  0.59301939064E+02  0.49999990947E+02 0.  0.
         12    1    1    2    0    0  0.22642526893E+02 -0.26575875833E+01 -0.22292915605E+02  0.31886060936E+02  0.00000000000E+00 0. -1.
         11    1    3    3    0    0 -0.24451918103E+02 -0.71265703159E+01  0.16487782959E+02  0.30340258577E+02  0.51100000000E-03 0. -1.
        -11    1    3    3    0    0  0.44782062772E+00  0.45008923474E+01 -0.10679384062E+02  0.11597750620E+02  0.51100000000E-03 0.  1.
        -12    1    3    3    0    0  0.13615705822E+01  0.52832655517E+01  0.16484516707E+02  0.17363929867E+02  0.00000000000E+00 0.  1.
</event>
<event>
 7    1  0.7749294E-012  0.5930194E+02  0.7816164E-02  0.1266605E+00
        -11   -1    0    0    0    0  0.00000000000E+00  0.00000000000E+00  0.45593999997E+02  0.45594000000E+02  0.51100000000E-03 0.  1.
         11   -1    0    0    0    0 -0.00000000000E+00 -0.00000000000E+00 -0.45593999997E+02  0.45594000000E+02  0.51100000000E-03 0. -1.
    9900012    2    1    2    0    0  0.23501737366E+02  0.18487016143E+01  0.21470249282E+02  0.59301937824E+02  0.49999988685E+02 0.  0.
         12    1    1    2    0    0 -0.23501737366E+02 -0.18487016143E+01 -0.21470249282E+02  0.31886062176E+02  0.00000000000E+00 0. -1.
         11    1    3    3    0    0  0.13375422077E+02 -0.15340267455E+02  0.15773952905E+02  0.25749627412E+02  0.51100000000E-03 0.  1.
        -11    1    3    3    0    0 -0.18820253714E+01  0.34016259606E+01 -0.91877412573E+01  0.99763554641E+01  0.51100000000E-03 0. -1.
        -12    1    3    3    0    0  0.12008340661E+02  0.13787343109E+02  0.14884037634E+02  0.23575954948E+02  0.00000000000E+00 0.  1.
</event>
<event>
 7    1  0.7749294E-012  0.5930197E+02  0.7816164E-02  0.1266605E+00
        -11   -1    0    0    0    0  0.00000000000E+00  0.00000000000E+00  0.45593999997E+02  0.45594000000E+02  0.51100000000E-03 0.  1.
         11   -1    0    0    0    0 -0.00000000000E+00 -0.00000000000E+00 -0.45593999997E+02  0.45594000000E+02  0.51100000000E-03 0. -1.
    9900012    2    1    2    0    0 -0.15862498355E+02  0.10837702048E+02 -0.25448859961E+02  0.59301966803E+02  0.50000041536E+02 0.  0.
         12    1    1    2    0    0  0.15862498355E+02 -0.10837702048E+02  0.25448859961E+02  0.31886033197E+02  0.00000000000E+00 0. -1.
         11    1    3    3    0    0  0.72673916346E+01  0.26357081691E+01  0.36980745461E+00  0.77394248196E+01  0.51100000000E-03 0.  1.
        -11    1    3    3    0    0 -0.27185380208E+02 -0.73084316745E+01 -0.12863108357E+02  0.30950244385E+02  0.51100000000E-03 0. -1.
         12    1    3    3    0    0  0.40554902184E+01  0.15510425554E+02 -0.12955559059E+02  0.20612297599E+02  0.00000000000E+00 0. -1.
</event>
<event>
 7    1  0.7749294E-012  0.5930173E+02  0.7816164E-02  0.1266606E+00
        -11   -1    0    0    0    0  0.00000000000E+00  0.00000000000E+00  0.45593999997E+02  0.45594000000E+02  0.51100000000E-03 0.  1.
         11   -1    0    0    0    0 -0.00000000000E+00 -0.00000000000E+00 -0.45593999997E+02  0.45594000000E+02  0.51100000000E-03 0. -1.
    9900012    2    1    2    0    0 -0.38407206963E+01 -0.26127616300E+02  0.17869831002E+02  0.59301728204E+02  0.49999606388E+02 0.  0.
         12    1    1    2    0    0  0.38407206963E+01  0.26127616300E+02 -0.17869831002E+02  0.31886271796E+02  0.00000000000E+00 0. -1.
         11    1    3    3    0    0 -0.81368599652E-01  0.11738296514E+02 -0.63894758834E+01  0.13364865439E+02  0.51100000000E-03 0. -1.
        -11    1    3    3    0    0  0.24918399517E+01 -0.58242239130E+01  0.45972974461E+01  0.78272597122E+01  0.51100000000E-03 0.  1.
         12    1    3    3    0    0 -0.62511920483E+01 -0.32041688900E+02  0.19662009440E+02  0.38109603053E+02  0.00000000000E+00 0. -1.
</event>
<event>
 7    1  0.7749294E-012  0.5930194E+02  0.7816164E-02  0.1266605E+00
        -11   -1    0    0    0    0  0.00000000000E+00  0.00000000000E+00  0.45593999997E+02  0.45594000000E+02  0.51100000000E-03 0.  1.
         11   -1    0    0    0    0 -0.00000000000E+00 -0.00000000000E+00 -0.45593999997E+02  0.45594000000E+02  0.51100000000E-03 0. -1.
    9900012    2    1    2    0    0 -0.35696672278E+00 -0.16269451799E+02  0.27420770274E+02  0.59301935183E+02  0.49999983870E+02 0.  0.
         12    1    1    2    0    0  0.35696672278E+00  0.16269451799E+02 -0.27420770274E+02  0.31886064817E+02  0.00000000000E+00 0. -1.
         11    1    3    3    0    0 -0.42254978877E+01  0.12141003801E+02  0.12970595102E+02  0.18261849393E+02  0.51100000000E-03 0. -1.
        -11    1    3    3    0    0 -0.10181360396E+02 -0.18398669053E+02  0.96244165737E+01  0.23125754411E+02  0.51100000000E-03 0.  1.
         12    1    3    3    0    0  0.14049891561E+02 -0.10011786546E+02  0.48257585982E+01  0.17914331379E+02  0.00000000000E+00 0. -1.
</event>
<event>
 7    1  0.7749294E-012  0.5930195E+02  0.7816164E-02  0.1266605E+00
        -11   -1    0    0    0    0  0.00000000000E+00  0.00000000000E+00  0.45593999997E+02  0.45594000000E+02  0.51100000000E-03 0.  1.
         11   -1    0    0    0    0 -0.00000000000E+00 -0.00000000000E+00 -0.45593999997E+02  0.45594000000E+02  0.51100000000E-03 0. -1.
    9900012    2    1    2    0    0 -0.16731755116E+02 -0.17607080712E+02  0.20658150463E+02  0.59301951311E+02  0.50000013283E+02 0.  0.
         12    1    1    2    0    0  0.16731755116E+02  0.17607080712E+02 -0.20658150463E+02  0.31886048689E+02  0.00000000000E+00 0. -1.
         11    1    3    3    0    0  0.13631305411E+02 -0.12961788862E+02  0.69225042437E+00  0.18822849642E+02  0.51100000000E-03 0. -1.
        -11    1    3    3    0    0 -0.22554612147E+02 -0.70795339731E+01  0.21732687951E+02  0.32111369578E+02  0.51100000000E-03 0.  1.
         12    1    3    3    0    0 -0.78084483805E+01  0.24342421233E+01 -0.17667879122E+01  0.83677320913E+01  0.00000000000E+00 0. -1.
</event>
<event>
 7    1  0.7749294E-012  0.5930192E+02  0.7816164E-02  0.1266605E+00
        -11   -1    0    0    0    0  0.00000000000E+00  0.00000000000E+00  0.45593999997E+02  0.45594000000E+02  0.51100000000E-03 0. -1.
         11   -1    0    0    0    0 -0.00000000000E+00 -0.00000000000E+00 -0.45593999997E+02  0.45594000000E+02  0.51100000000E-03 0.  1.
    9900012    2    1    2    0    0 -0.81924486790E+00  0.17583101513E+02 -0.26587321432E+02  0.59301917112E+02  0.49999950913E+02 0.  0.
         12    1    1    2    0    0  0.81924486790E+00 -0.17583101513E+02  0.26587321432E+02  0.31886082888E+02  0.00000000000E+00 0. -1.
         11    1    3    3    0    0  0.15294306076E+02  0.16432305880E+02 -0.85401792250E+01  0.24018141817E+02  0.51100000000E-03 0. -1.
        -11    1    3    3    0    0 -0.20740088697E+02  0.51833510010E+01 -0.67346485860E+01  0.22413698905E+02  0.51100000000E-03 0.  1.
        -12    1    3    3    0    0  0.46265377530E+01 -0.40325553676E+01 -0.11312493621E+02  0.12870076391E+02  0.00000000000E+00 0.  1.
</event>
<event>
 7    1  0.7749294E-012  0.5930194E+02  0.7816164E-02  0.1266605E+00
        -11   -1    0    0    0    0  0.00000000000E+00  0.00000000000E+00  0.45593999997E+02  0.45594000000E+02  0.51100000000E-03 0.  1.
         11   -1    0    0    0    0 -0.00000000000E+00 -0.00000000000E+00 -0.45593999997E+02  0.45594000000E+02  0.51100000000E-03 0. -1.
    9900012    2    1    2    0    0 -0.23852958791E+02  0.18281519883E+02  0.10655674879E+02  0.59301936909E+02  0.49999987017E+02 0.  0.
         12    1    1    2    0    0  0.23852958791E+02 -0.18281519883E+02 -0.10655674879E+02  0.31886063091E+02  0.00000000000E+00 0. -1.
         11    1    3    3    0    0 -0.19925242352E+01  0.48205998091E+01 -0.17795699659E+02  0.18544413228E+02  0.51100000000E-03 0. -1.
        -11    1    3    3    0    0 -0.42311791548E+01  0.98437351335E+01  0.71960434580E+01  0.12906782718E+02  0.51100000000E-03 0.  1.
         12    1    3    3    0    0 -0.17629255401E+02  0.36171849402E+01  0.21255331080E+02  0.27850740963E+02  0.00000000000E+00 0. -1.
</event>
<event>
 7    1  0.7749294E-012  0.5930196E+02  0.7816164E-02  0.1266605E+00
        -11   -1    0    0    0    0  0.00000000000E+00  0.00000000000E+00  0.45593999997E+02  0.45594000000E+02  0.51100000000E-03 0. -1.
         11   -1    0    0    0    0 -0.00000000000E+00 -0.00000000000E+00 -0.45593999997E+02  0.45594000000E+02  0.51100000000E-03 0.  1.
    9900012    2    1    2    0    0  0.11239702575E+02  0.23519018719E+02 -0.18364223575E+02  0.59301955043E+02  0.50000020090E+02 0.  0.
         12    1    1    2    0    0 -0.11239702575E+02 -0.23519018719E+02  0.18364223575E+02  0.31886044957E+02  0.00000000000E+00 0. -1.
         11    1    3    3    0    0 -0.45618880216E+01  0.20901899436E+02 -0.82306999147E+01  0.22922579342E+02  0.51100000000E-03 0. -1.
        -11    1    3    3    0    0  0.21113813742E+02 -0.20765213107E+01  0.30276056376E+01  0.21430619861E+02  0.51100000000E-03 0.  1.
        -12    1    3    3    0    0 -0.53122231455E+01  0.46936405943E+01 -0.13161129298E+02  0.14948755840E+02  0.00000000000E+00 0.  1.
</event>
<event>
 7    1  0.7749294E-012  0.5930195E+02  0.7816164E-02  0.1266605E+00
        -11   -1    0    0    0    0  0.00000000000E+00  0.00000000000E+00  0.45593999997E+02  0.45594000000E+02  0.51100000000E-03 0.  1.
         11   -1    0    0    0    0 -0.00000000000E+00 -0.00000000000E+00 -0.45593999997E+02  0.45594000000E+02  0.51100000000E-03 0. -1.
    9900012    2    1    2    0    0  0.31696398845E+02 -0.31678565997E+01 -0.14223942611E+01  0.59301949435E+02  0.50000009861E+02 0.  0.
         12    1    1    2    0    0 -0.31696398845E+02  0.31678565997E+01  0.14223942611E+01  0.31886050565E+02  0.00000000000E+00 0. -1.
         11    1    3    3    0    0  0.31036284292E+02  0.34622902621E+01 -0.16784211458E+02  0.35453464584E+02  0.51100000000E-03 0. -1.
        -11    1    3    3    0    0 -0.78386226609E+01 -0.46635008078E+01  0.53694208999E+01  0.10584088344E+02  0.51100000000E-03 0.  1.
        -12    1    3    3    0    0  0.84987372143E+01 -0.19666460539E+01  0.99923962968E+01  0.13264396507E+02  0.00000000000E+00 0.  1.
</event>
<event>
 7    1  0.7749294E-012  0.5930199E+02  0.7816164E-02  0.1266605E+00
        -11   -1    0    0    0    0  0.00000000000E+00  0.00000000000E+00  0.45593999997E+02  0.45594000000E+02  0.51100000000E-03 0.  1.
         11   -1    0    0    0    0 -0.00000000000E+00 -0.00000000000E+00 -0.45593999997E+02  0.45594000000E+02  0.51100000000E-03 0. -1.
    9900012    2    1    2    0    0  0.26656997140E+02  0.76246616853E+01  0.15747584318E+02  0.59301994070E+02  0.50000091265E+02 0.  0.
         12    1    1    2    0    0 -0.26656997140E+02 -0.76246616853E+01 -0.15747584318E+02  0.31886005930E+02  0.00000000000E+00 0. -1.
         11    1    3    3    0    0  0.19433822321E+02  0.25320179570E+02  0.20846306364E+02  0.38122872829E+02  0.51100000000E-03 0. -1.
        -11    1    3    3    0    0  0.45394181501E+00 -0.10104793804E+02 -0.42551611557E+01  0.10973573608E+02  0.51100000000E-03 0.  1.
         12    1    3    3    0    0  0.67692330031E+01 -0.75907240803E+01 -0.84356089007E+00  0.10205547633E+02  0.00000000000E+00 0. -1.
</event>
<event>
 7    1  0.7749294E-012  0.5930195E+02  0.7816164E-02  0.1266605E+00
        -11   -1    0    0    0    0  0.00000000000E+00  0.00000000000E+00  0.45593999997E+02  0.45594000000E+02  0.51100000000E-03 0. -1.
         11   -1    0    0    0    0 -0.00000000000E+00 -0.00000000000E+00 -0.45593999997E+02  0.45594000000E+02  0.51100000000E-03 0.  1.
    9900012    2    1    2    0    0 -0.50179683571E+01  0.31427665386E+02  0.19601819217E+01  0.59301945506E+02  0.50000002696E+02 0.  0.
         12    1    1    2    0    0  0.50179683571E+01 -0.31427665386E+02 -0.19601819217E+01  0.31886054494E+02  0.00000000000E+00 0. -1.
         11    1    3    3    0    0 -0.16565982282E+02  0.10713687641E+02  0.15776361872E+02  0.25260808894E+02  0.51100000000E-03 0. -1.
        -11    1    3    3    0    0  0.97938518717E+01 -0.48332058502E+00 -0.51239286518E+01  0.11063804877E+02  0.51100000000E-03 0.  1.
         12    1    3    3    0    0  0.17541620531E+01  0.21197298330E+02 -0.86922512981E+01  0.22977331734E+02  0.00000000000E+00 0. -1.
</event>
<event>
 7    1  0.7749294E-012  0.5930196E+02  0.7816164E-02  0.1266605E+00
        -11   -1    0    0    0    0  0.00000000000E+00  0.00000000000E+00  0.45593999997E+02  0.45594000000E+02  0.51100000000E-03 0. -1.
         11   -1    0    0    0    0 -0.00000000000E+00 -0.00000000000E+00 -0.45593999997E+02  0.45594000000E+02  0.51100000000E-03 0.  1.
    9900012    2    1    2    0    0 -0.49833341812E+01  0.19646227103E+02 -0.24615277964E+02  0.59301956530E+02  0.50000022801E+02 0.  0.
         12    1    1    2    0    0  0.49833341812E+01 -0.19646227103E+02  0.24615277964E+02  0.31886043470E+02  0.00000000000E+00 0. -1.
         11    1    3    3    0    0  0.11882150523E+02  0.11174909667E+02 -0.38247990130E+01  0.16753900885E+02  0.51100000000E-03 0. -1.
        -11    1    3    3    0    0 -0.14304453924E+02  0.16773481585E+02 -0.24625404880E+02  0.33051136929E+02  0.51100000000E-03 0.  1.
        -12    1    3    3    0    0 -0.25610307801E+01 -0.83021641490E+01  0.38349259288E+01  0.94969187158E+01  0.00000000000E+00 0.  1.
</event>
<event>
 7    1  0.7749294E-012  0.5930195E+02  0.7816164E-02  0.1266605E+00
        -11   -1    0    0    0    0  0.00000000000E+00  0.00000000000E+00  0.45593999997E+02  0.45594000000E+02  0.51100000000E-03 0.  1.
         11   -1    0    0    0    0 -0.00000000000E+00 -0.00000000000E+00 -0.45593999997E+02  0.45594000000E+02  0.51100000000E-03 0. -1.
    9900012    2    1    2    0    0  0.16536975935E+02 -0.26761204165E+02  0.52044857367E+01  0.59301948297E+02  0.50000007786E+02 0.  0.
         12    1    1    2    0    0 -0.16536975935E+02  0.26761204165E+02 -0.52044857367E+01  0.31886051703E+02  0.00000000000E+00 0. -1.
         11    1    3    3    0    0 -0.79773043000E+01  0.76839725758E+01  0.92178763110E+01  0.14410068091E+02  0.51100000000E-03 0. -1.
        -11    1    3    3    0    0  0.13508112348E+02 -0.27523121281E+02 -0.72251691896E+01  0.31499117040E+02  0.51100000000E-03 0.  1.
         12    1    3    3    0    0  0.11006167887E+02 -0.69220554600E+01  0.32117786154E+01  0.13392763166E+02  0.00000000000E+00 0. -1.
</event>
<event>
 7    1  0.7749294E-012  0.5930196E+02  0.7816164E-02  0.1266605E+00
        -11   -1    0    0    0    0  0.00000000000E+00  0.00000000000E+00  0.45593999997E+02  0.45594000000E+02  0.51100000000E-03 0.  1.
         11   -1    0    0    0    0 -0.00000000000E+00 -0.00000000000E+00 -0.45593999997E+02  0.45594000000E+02  0.51100000000E-03 0. -1.
    9900012    2    1    2    0    0 -0.18627679882E+02  0.25387641783E+02  0.50196369127E+01  0.59301959672E+02  0.50000028531E+02 0.  0.
         12    1    1    2    0    0  0.18627679882E+02 -0.25387641783E+02 -0.50196369127E+01  0.31886040328E+02  0.00000000000E+00 0. -1.
         11    1    3    3    0    0  0.56745738151E+00  0.25889684771E+02 -0.11723485151E+02  0.28426007278E+02  0.51100000000E-03 0. -1.
        -11    1    3    3    0    0 -0.22249598619E+02  0.66008989612E+00  0.12529344163E+02  0.25543390981E+02  0.51100000000E-03 0.  1.
         12    1    3    3    0    0  0.30544613561E+01 -0.11621328847E+01  0.42137779008E+01  0.53325614122E+01  0.00000000000E+00 0. -1.
</event>
<event>
 7    1  0.7749294E-012  0.5930194E+02  0.7816164E-02  0.1266605E+00
        -11   -1    0    0    0    0  0.00000000000E+00  0.00000000000E+00  0.45593999997E+02  0.45594000000E+02  0.51100000000E-03 0.  1.
         11   -1    0    0    0    0 -0.00000000000E+00 -0.00000000000E+00 -0.45593999997E+02  0.45594000000E+02  0.51100000000E-03 0. -1.
    9900012    2    1    2    0    0 -0.10683027268E+02 -0.16692555760E+02  0.24979036738E+02  0.59301940887E+02  0.49999994272E+02 0.  0.
         12    1    1    2    0    0  0.10683027268E+02  0.16692555760E+02 -0.24979036738E+02  0.31886059113E+02  0.00000000000E+00 0. -1.
         11    1    3    3    0    0  0.81107080596E+01 -0.37355205291E+01 -0.12220073821E+02  0.15134989373E+02  0.51100000000E-03 0. -1.
        -11    1    3    3    0    0 -0.17146838501E+02 -0.96106165067E+01  0.27733319211E+02  0.33992867118E+02  0.51100000000E-03 0.  1.
         12    1    3    3    0    0 -0.16468968268E+01 -0.33464187242E+01  0.94657913489E+01  0.10174084396E+02  0.00000000000E+00 0. -1.
</event>
<event>
 7    1  0.7749294E-012  0.5930198E+02  0.7816164E-02  0.1266605E+00
        -11   -1    0    0    0    0  0.00000000000E+00  0.00000000000E+00  0.45593999997E+02  0.45594000000E+02  0.51100000000E-03 0.  1.
         11   -1    0    0    0    0 -0.00000000000E+00 -0.00000000000E+00 -0.45593999997E+02  0.45594000000E+02  0.51100000000E-03 0. -1.
    9900012    2    1    2    0    0 -0.27387023565E+02 -0.13376416441E+02 -0.93669872172E+01  0.59301983847E+02  0.50000072621E+02 0.  0.
         12    1    1    2    0    0  0.27387023565E+02  0.13376416441E+02  0.93669872172E+01  0.31886016153E+02  0.00000000000E+00 0. -1.
         11    1    3    3    0    0 -0.73158325656E+00  0.12153302814E+02 -0.10466041240E+01  0.12220203100E+02  0.51100000000E-03 0. -1.
        -11    1    3    3    0    0 -0.31825284466E+02 -0.18741293372E+02 -0.30652889982E+01  0.37060501960E+02  0.51100000000E-03 0.  1.
         12    1    3    3    0    0  0.51698441575E+01 -0.67884258828E+01 -0.52550940950E+01  0.10021278787E+02  0.00000000000E+00 0. -1.
</event>
<event>
 7    1  0.7749294E-012  0.5930193E+02  0.7816164E-02  0.1266605E+00
        -11   -1    0    0    0    0  0.00000000000E+00  0.00000000000E+00  0.45593999997E+02  0.45594000000E+02  0.51100000000E-03 0.  1.
         11   -1    0    0    0    0 -0.00000000000E+00 -0.00000000000E+00 -0.45593999997E+02  0.45594000000E+02  0.51100000000E-03 0. -1.
    9900012    2    1    2    0    0 -0.56079546437E+00 -0.12364833983E+02  0.29385673331E+02  0.59301930814E+02  0.49999975902E+02 0.  0.
         12    1    1    2    0    0  0.56079546437E+00  0.12364833983E+02 -0.29385673331E+02  0.31886069186E+02  0.00000000000E+00 0. -1.
         11    1    3    3    0    0  0.27773381092E+01 -0.47158424815E+01 -0.23542809363E+01  0.59578029735E+01  0.51100000000E-03 0. -1.
        -11    1    3    3    0    0 -0.14151682815E+02  0.25193302369E+01  0.35270083169E+02  0.38086689517E+02  0.51100000000E-03 0.  1.
        -12    1    3    3    0    0  0.10813549241E+02 -0.10168321738E+02 -0.35301289015E+01  0.15257438324E+02  0.00000000000E+00 0.  1.
</event>
<event>
 7    1  0.7749294E-012  0.5930193E+02  0.7816164E-02  0.1266605E+00
        -11   -1    0    0    0    0  0.00000000000E+00  0.00000000000E+00  0.45593999997E+02  0.45594000000E+02  0.51100000000E-03 0. -1.
         11   -1    0    0    0    0 -0.00000000000E+00 -0.00000000000E+00 -0.45593999997E+02  0.45594000000E+02  0.51100000000E-03 0.  1.
    9900012    2    1    2    0    0  0.43157166739E+01  0.12138830668E+02 -0.29167528408E+02  0.59301931979E+02  0.49999978026E+02 0.  0.
         12    1    1    2    0    0 -0.43157166739E+01 -0.12138830668E+02  0.29167528408E+02  0.31886068021E+02  0.00000000000E+00 0. -1.
         11    1    3    3    0    0 -0.20522337925E+02  0.15815599862E+02 -0.10868704112E+02  0.28096766402E+02  0.51100000000E-03 0. -1.
        -11    1    3    3    0    0  0.12038921827E+02 -0.23137460903E+01 -0.10603290548E+02  0.16208603593E+02  0.51100000000E-03 0.  1.
         12    1    3    3    0    0  0.12799132772E+02 -0.13630231036E+01 -0.76955337475E+01  0.14996561984E+02  0.00000000000E+00 0. -1.
</event>
<event>
 7    1  0.7749294E-012  0.5930193E+02  0.7816164E-02  0.1266605E+00
        -11   -1    0    0    0    0  0.00000000000E+00  0.00000000000E+00  0.45593999997E+02  0.45594000000E+02  0.51100000000E-03 0.  1.
         11   -1    0    0    0    0 -0.00000000000E+00 -0.00000000000E+00 -0.45593999997E+02  0.45594000000E+02  0.51100000000E-03 0. -1.
    9900012    2    1    2    0    0  0.14445475656E+02 -0.26732008585E+02 -0.96669158809E+01  0.59301932313E+02  0.49999978635E+02 0.  0.
         12    1    1    2    0    0 -0.14445475656E+02  0.26732008585E+02  0.96669158809E+01  0.31886067687E+02  0.00000000000E+00 0. -1.
         11    1    3    3    0    0 -0.79792512379E+01 -0.37411977124E+01  0.12577993547E+02  0.15358090134E+02  0.51100000000E-03 0. -1.
        -11    1    3    3    0    0  0.12036158052E+02 -0.24505007216E+02 -0.14626817654E+02  0.30972702082E+02  0.51100000000E-03 0.  1.
         12    1    3    3    0    0  0.10388568841E+02  0.15141963441E+01 -0.76180917738E+01  0.12971140097E+02  0.00000000000E+00 0. -1.
</event>
<event>
 7    1  0.7749294E-012  0.5930195E+02  0.7816164E-02  0.1266605E+00
        -11   -1    0    0    0    0  0.00000000000E+00  0.00000000000E+00  0.45593999997E+02  0.45594000000E+02  0.51100000000E-03 0. -1.
         11   -1    0    0    0    0 -0.00000000000E+00 -0.00000000000E+00 -0.45593999997E+02  0.45594000000E+02  0.51100000000E-03 0.  1.
    9900012    2    1    2    0    0 -0.12007834796E+02  0.25142500338E+02 -0.15504418745E+02  0.59301946303E+02  0.50000004150E+02 0.  0.
         12    1    1    2    0    0  0.12007834796E+02 -0.25142500338E+02  0.15504418745E+02  0.31886053697E+02  0.00000000000E+00 0. -1.
         11    1    3    3    0    0  0.59872368939E+01  0.13732617893E+02  0.77854867333E+01  0.16883293629E+02  0.51100000000E-03 0. -1.
        -11    1    3    3    0    0 -0.23140295516E+02  0.16258262227E+02 -0.19883976132E+02  0.34571330237E+02  0.51100000000E-03 0.  1.
         12    1    3    3    0    0  0.51452238269E+01 -0.48483797819E+01 -0.34059293454E+01  0.78473224379E+01  0.00000000000E+00 0. -1.
</event>
<event>
 7    1  0.7749294E-012  0.5930194E+02  0.7816164E-02  0.1266605E+00
        -11   -1    0    0    0    0  0.00000000000E+00  0.00000000000E+00  0.45593999997E+02  0.45594000000E+02  0.51100000000E-03 0.  1.
         11   -1    0    0    0    0 -0.00000000000E+00 -0.00000000000E+00 -0.45593999997E+02  0.45594000000E+02  0.51100000000E-03 0. -1.
    9900012    2    1    2    0    0 -0.11085163749E+02  0.13020627849E+02  0.26912878611E+02  0.59301942858E+02  0.49999997866E+02 0.  0.
         12    1    1    2    0    0  0.11085163749E+02 -0.13020627849E+02 -0.26912878611E+02  0.31886057142E+02  0.00000000000E+00 0. -1.
         11    1    3    3    0    0 -0.23780238327E+01  0.27445490743E+02  0.18951978292E+02  0.33437814536E+02  0.51100000000E-03 0. -1.
        -11    1    3    3    0    0 -0.66956248647E+01 -0.31818341003E+01  0.11695916973E+02  0.13847380065E+02  0.51100000000E-03 0.  1.
         12    1    3    3    0    0 -0.20115150521E+01 -0.11243028794E+02 -0.37350166533E+01  0.12016748257E+02  0.00000000000E+00 0. -1.
</event>
<event>
 7    1  0.7749294E-012  0.5930196E+02  0.7816164E-02  0.1266605E+00
        -11   -1    0    0    0    0  0.00000000000E+00  0.00000000000E+00  0.45593999997E+02  0.45594000000E+02  0.51100000000E-03 0.  1.
         11   -1    0    0    0    0 -0.00000000000E+00 -0.00000000000E+00 -0.45593999997E+02  0.45594000000E+02  0.51100000000E-03 0. -1.
    9900012    2    1    2    0    0  0.21596501422E+02  0.22810560495E+02  0.54762398007E+01  0.59301956875E+02  0.50000023431E+02 0.  0.
         12    1    1    2    0    0 -0.21596501422E+02 -0.22810560495E+02 -0.54762398007E+01  0.31886043125E+02  0.00000000000E+00 0. -1.
         11    1    3    3    0    0  0.46868648725E+01 -0.10286172876E+02 -0.68233981067E+01  0.13203439580E+02  0.51100000000E-03 0. -1.
        -11    1    3    3    0    0 -0.34594275276E+01  0.19519611667E+02  0.72204478431E+01  0.21097813768E+02  0.51100000000E-03 0.  1.
        -12    1    3    3    0    0  0.20369064077E+02  0.13577121704E+02  0.50791900643E+01  0.25000703527E+02  0.00000000000E+00 0.  1.
</event>
<event>
 7    1  0.7749294E-012  0.5930195E+02  0.7816164E-02  0.1266605E+00
        -11   -1    0    0    0    0  0.00000000000E+00  0.00000000000E+00  0.45593999997E+02  0.45594000000E+02  0.51100000000E-03 0.  1.
         11   -1    0    0    0    0 -0.00000000000E+00 -0.00000000000E+00 -0.45593999997E+02  0.45594000000E+02  0.51100000000E-03 0. -1.
    9900012    2    1    2    0    0 -0.11233477078E+02 -0.29689049767E+02  0.30149077314E+01  0.59301947376E+02  0.50000006106E+02 0.  0.
         12    1    1    2    0    0  0.11233477078E+02  0.29689049767E+02 -0.30149077314E+01  0.31886052624E+02  0.00000000000E+00 0. -1.
         11    1    3    3    0    0 -0.12938023006E+02 -0.41390937417E+02 -0.63775941105E+01  0.43832360722E+02  0.51100000000E-03 0.  1.
        -11    1    3    3    0    0  0.23182874727E+00  0.10132167334E+02  0.75842198930E+01  0.12658394491E+02  0.51100000000E-03 0. -1.
        -12    1    3    3    0    0  0.14727171806E+01  0.15697203165E+01  0.18082819489E+01  0.28111921622E+01  0.00000000000E+00 0.  1.
</event>
<event>
 7    1  0.7749294E-012  0.5930194E+02  0.7816164E-02  0.1266605E+00
        -11   -1    0    0    0    0  0.00000000000E+00  0.00000000000E+00  0.45593999997E+02  0.45594000000E+02  0.51100000000E-03 0.  1.
         11   -1    0    0    0    0 -0.00000000000E+00 -0.00000000000E+00 -0.45593999997E+02  0.45594000000E+02  0.51100000000E-03 0. -1.
    9900012    2    1    2    0    0 -0.17157347544E+01 -0.28054239647E+02  0.15057769036E+02  0.59301944800E+02  0.50000001408E+02 0.  0.
         12    1    1    2    0    0  0.17157347544E+01  0.28054239647E+02 -0.15057769036E+02  0.31886055200E+02  0.00000000000E+00 0. -1.
         11    1    3    3    0    0 -0.41033557728E+01 -0.58370278309E+01 -0.15690169428E+02  0.17236294249E+02  0.51100000000E-03 0. -1.
        -11    1    3    3    0    0 -0.68683548214E+01 -0.16366798522E+02  0.18550680426E+02  0.25674386776E+02  0.51100000000E-03 0.  1.
        -12    1    3    3    0    0  0.92559758398E+01 -0.58504132934E+01  0.12197258039E+02  0.16391263774E+02  0.00000000000E+00 0.  1.
</event>
<event>
 7    1  0.7749294E-012  0.5930197E+02  0.7816164E-02  0.1266605E+00
        -11   -1    0    0    0    0  0.00000000000E+00  0.00000000000E+00  0.45593999997E+02  0.45594000000E+02  0.51100000000E-03 0.  1.
         11   -1    0    0    0    0 -0.00000000000E+00 -0.00000000000E+00 -0.45593999997E+02  0.45594000000E+02  0.51100000000E-03 0. -1.
    9900012    2    1    2    0    0 -0.25442555398E+02 -0.18270977860E+02  0.59637681943E+01  0.59301971896E+02  0.50000050826E+02 0.  0.
         12    1    1    2    0    0  0.25442555398E+02  0.18270977860E+02 -0.59637681943E+01  0.31886028104E+02  0.00000000000E+00 0. -1.
         11    1    3    3    0    0 -0.14552883177E+01  0.78641626187E+01 -0.11602805457E+02  0.14092125905E+02  0.51100000000E-03 0.  1.
        -11    1    3    3    0    0 -0.22866077010E+02 -0.18648674395E+02  0.41388563920E+01  0.29795312836E+02  0.51100000000E-03 0. -1.
        -12    1    3    3    0    0 -0.11211900706E+01 -0.74864660837E+01  0.13427717260E+02  0.15414533155E+02  0.00000000000E+00 0.  1.
</event>
<event>
 7    1  0.7749294E-012  0.5930194E+02  0.7816164E-02  0.1266605E+00
        -11   -1    0    0    0    0  0.00000000000E+00  0.00000000000E+00  0.45593999997E+02  0.45594000000E+02  0.51100000000E-03 0.  1.
         11   -1    0    0    0    0 -0.00000000000E+00 -0.00000000000E+00 -0.45593999997E+02  0.45594000000E+02  0.51100000000E-03 0. -1.
    9900012    2    1    2    0    0 -0.91638627041E+01  0.27436296799E+02  0.13416190375E+02  0.59301938376E+02  0.49999989693E+02 0.  0.
         12    1    1    2    0    0  0.91638627041E+01 -0.27436296799E+02 -0.13416190375E+02  0.31886061624E+02  0.00000000000E+00 0. -1.
         11    1    3    3    0    0  0.14440893899E+02 -0.32862699989E+01 -0.49147648681E+01  0.15604291111E+02  0.51100000000E-03 0. -1.
        -11    1    3    3    0    0 -0.15565395529E+02  0.13540595467E+02  0.10810552490E+02  0.23291571629E+02  0.51100000000E-03 0.  1.
         12    1    3    3    0    0 -0.80393610747E+01  0.17181971331E+02  0.75204027528E+01  0.20406075636E+02  0.00000000000E+00 0. -1.
</event>
<event>
 7    1  0.7749294E-012  0.5930196E+02  0.7816164E-02  0.1266605E+00
        -11   -1    0    0    0    0  0.00000000000E+00  0.00000000000E+00  0.45593999997E+02  0.45594000000E+02  0.51100000000E-03 0. -1.
         11   -1    0    0    0    0 -0.00000000000E+00 -0.00000000000E+00 -0.45593999997E+02  0.45594000000E+02  0.51100000000E-03 0.  1.
    9900012    2    1    2    0    0 -0.22065069147E+02  0.14444979020E+02  0.17921915950E+02  0.59301956554E+02  0.50000022844E+02 0.  0.
         12    1    1    2    0    0  0.22065069147E+02 -0.14444979020E+02 -0.17921915950E+02  0.31886043446E+02  0.00000000000E+00 0. -1.
         11    1    3    3    0    0  0.11482268962E+02  0.61544436415E+01  0.52150383200E+01  0.14032686912E+02  0.51100000000E-03 0. -1.
        -11    1    3    3    0    0 -0.27681588558E+02  0.17318496449E+02  0.88205886906E+01  0.33823120043E+02  0.51100000000E-03 0.  1.
        -12    1    3    3    0    0 -0.58657495505E+01 -0.90279610711E+01  0.38862889396E+01  0.11446149598E+02  0.00000000000E+00 0.  1.
</event>
<event>
 7    1  0.7749294E-012  0.5930194E+02  0.7816164E-02  0.1266605E+00
        -11   -1    0    0    0    0  0.00000000000E+00  0.00000000000E+00  0.45593999997E+02  0.45594000000E+02  0.51100000000E-03 0.  1.
         11   -1    0    0    0    0 -0.00000000000E+00 -0.00000000000E+00 -0.45593999997E+02  0.45594000000E+02  0.51100000000E-03 0. -1.
    9900012    2    1    2    0    0 -0.28414086785E+02  0.85217745568E+01  0.11693595009E+02  0.59301935118E+02  0.49999983751E+02 0.  0.
         12    1    1    2    0    0  0.28414086785E+02 -0.85217745568E+01 -0.11693595009E+02  0.31886064882E+02  0.00000000000E+00 0. -1.
         11    1    3    3    0    0  0.34688251015E+00 -0.96905634466E+01  0.89058441582E+00  0.97375812320E+01  0.51100000000E-03 0. -1.
        -11    1    3    3    0    0 -0.76364403017E+01  0.24889517834E+02  0.36842658228E+01  0.26294051293E+02  0.51100000000E-03 0.  1.
        -12    1    3    3    0    0 -0.21124528993E+02 -0.66771798305E+01  0.71187447703E+01  0.23270302593E+02  0.00000000000E+00 0.  1.
</event>
<event>
 7    1  0.7749294E-012  0.5930194E+02  0.7816164E-02  0.1266605E+00
        -11   -1    0    0    0    0  0.00000000000E+00  0.00000000000E+00  0.45593999997E+02  0.45594000000E+02  0.51100000000E-03 0. -1.
         11   -1    0    0    0    0 -0.00000000000E+00 -0.00000000000E+00 -0.45593999997E+02  0.45594000000E+02  0.51100000000E-03 0.  1.
    9900012    2    1    2    0    0 -0.14505701980E+02 -0.24934260507E+02 -0.13586310037E+02  0.59301944154E+02  0.50000000231E+02 0.  0.
         12    1    1    2    0    0  0.14505701980E+02  0.24934260507E+02  0.13586310037E+02  0.31886055846E+02  0.00000000000E+00 0. -1.
         11    1    3    3    0    0 -0.19782540108E+02 -0.12724919045E+02  0.19513094400E+01  0.23602543647E+02  0.51100000000E-03 0. -1.
        -11    1    3    3    0    0 -0.93100865550E+01  0.12741193486E+01 -0.12447804215E+02  0.15596439395E+02  0.51100000000E-03 0.  1.
         12    1    3    3    0    0  0.14586924682E+02 -0.13483460811E+02 -0.30898152618E+01  0.20102961112E+02  0.00000000000E+00 0. -1.
</event>
<event>
 7    1  0.7749294E-012  0.5930194E+02  0.7816164E-02  0.1266605E+00
        -11   -1    0    0    0    0  0.00000000000E+00  0.00000000000E+00  0.45593999997E+02  0.45594000000E+02  0.51100000000E-03 0.  1.
         11   -1    0    0    0    0 -0.00000000000E+00 -0.00000000000E+00 -0.45593999997E+02  0.45594000000E+02  0.51100000000E-03 0. -1.
    9900012    2    1    2    0    0 -0.28374914802E+02 -0.81095197144E+01 -0.12075624382E+02  0.59301940284E+02  0.49999993172E+02 0.  0.
         12    1    1    2    0    0  0.28374914802E+02  0.81095197144E+01  0.12075624382E+02  0.31886059716E+02  0.00000000000E+00 0. -1.
         11    1    3    3    0    0  0.72901405891E+01 -0.98814916952E+01 -0.53799387300E+01  0.13406482347E+02  0.51100000000E-03 0. -1.
        -11    1    3    3    0    0 -0.13779220122E+02  0.26557903463E+01  0.10924806883E+02  0.17784024720E+02  0.51100000000E-03 0.  1.
         12    1    3    3    0    0 -0.21885835269E+02 -0.88381836549E+00 -0.17620492535E+02  0.28111433217E+02  0.00000000000E+00 0. -1.
</event>
<event>
 7    1  0.7749294E-012  0.5930191E+02  0.7816164E-02  0.1266605E+00
        -11   -1    0    0    0    0  0.00000000000E+00  0.00000000000E+00  0.45593999997E+02  0.45594000000E+02  0.51100000000E-03 0. -1.
         11   -1    0    0    0    0 -0.00000000000E+00 -0.00000000000E+00 -0.45593999997E+02  0.45594000000E+02  0.51100000000E-03 0.  1.
    9900012    2    1    2    0    0  0.17527860903E+02 -0.15719086170E+02 -0.21503649001E+02  0.59301913721E+02  0.49999944728E+02 0.  0.
         12    1    1    2    0    0 -0.17527860903E+02  0.15719086170E+02  0.21503649001E+02  0.31886086279E+02  0.00000000000E+00 0. -1.
         11    1    3    3    0    0  0.73819543942E+01  0.14750158268E+02 -0.18182449951E+01  0.16594168697E+02  0.51100000000E-03 0. -1.
        -11    1    3    3    0    0  0.44617886718E+01 -0.24271074241E+02 -0.22936907675E+02  0.33691161110E+02  0.51100000000E-03 0.  1.
         12    1    3    3    0    0  0.56841178372E+01 -0.61981701968E+01  0.32515036694E+01  0.90165839145E+01  0.00000000000E+00 0. -1.
</event>
<event>
 7    1  0.7749294E-012  0.5930195E+02  0.7816164E-02  0.1266605E+00
        -11   -1    0    0    0    0  0.00000000000E+00  0.00000000000E+00  0.45593999997E+02  0.45594000000E+02  0.51100000000E-03 0. -1.
         11   -1    0    0    0    0 -0.00000000000E+00 -0.00000000000E+00 -0.45593999997E+02  0.45594000000E+02  0.51100000000E-03 0.  1.
    9900012    2    1    2    0    0  0.17932850964E+02 -0.16422841480E+02  0.20625790307E+02  0.59301951456E+02  0.50000013547E+02 0.  0.
         12    1    1    2    0    0 -0.17932850964E+02  0.16422841480E+02 -0.20625790307E+02  0.31886048544E+02  0.00000000000E+00 0. -1.
         11    1    3    3    0    0  0.92968880944E+01  0.62917296284E+01  0.24906140523E+01  0.11498745522E+02  0.51100000000E-03 0. -1.
        -11    1    3    3    0    0 -0.10041988784E+02 -0.27690014108E+01  0.17624576421E+02  0.20472777091E+02  0.51100000000E-03 0.  1.
        -12    1    3    3    0    0  0.18677951654E+02 -0.19945569697E+02  0.51059983376E+00  0.27330428843E+02  0.00000000000E+00 0.  1.
</event>
<event>
 7    1  0.7749294E-012  0.5930194E+02  0.7816164E-02  0.1266605E+00
        -11   -1    0    0    0    0  0.00000000000E+00  0.00000000000E+00  0.45593999997E+02  0.45594000000E+02  0.51100000000E-03 0. -1.
         11   -1    0    0    0    0 -0.00000000000E+00 -0.00000000000E+00 -0.45593999997E+02  0.45594000000E+02  0.51100000000E-03 0.  1.
    9900012    2    1    2    0    0  0.22262735061E+02 -0.13514804341E+02 -0.18396776781E+02  0.59301941844E+02  0.49999996018E+02 0.  0.
         12    1    1    2    0    0 -0.22262735061E+02  0.13514804341E+02  0.18396776781E+02  0.31886058156E+02  0.00000000000E+00 0. -1.
         11    1    3    3    0    0  0.47607866363E+01  0.19716454897E+01  0.99818466331E+01  0.11233420574E+02  0.51100000000E-03 0. -1.
        -11    1    3    3    0    0 -0.49554777861E+01  0.20924011096E+01 -0.16178408317E+02  0.17049216945E+02  0.51100000000E-03 0.  1.
        -12    1    3    3    0    0  0.22457426211E+02 -0.17578850940E+02 -0.12200215097E+02  0.31019304325E+02  0.00000000000E+00 0.  1.
</event>
<event>
 7    1  0.7749294E-012  0.5930175E+02  0.7816164E-02  0.1266605E+00
        -11   -1    0    0    0    0  0.00000000000E+00  0.00000000000E+00  0.45593999997E+02  0.45594000000E+02  0.51100000000E-03 0. -1.
         11   -1    0    0    0    0 -0.00000000000E+00 -0.00000000000E+00 -0.45593999997E+02  0.45594000000E+02  0.51100000000E-03 0.  1.
    9900012    2    1    2    0    0  0.42409366378E+01 -0.25926042242E+02 -0.18071746218E+02  0.59301745575E+02  0.49999638068E+02 0.  0.
         12    1    1    2    0    0 -0.42409366378E+01  0.25926042242E+02  0.18071746218E+02  0.31886254425E+02  0.00000000000E+00 0. -1.
         11    1    3    3    0    0 -0.69145272362E+01 -0.14880348543E+02 -0.51008708461E+01  0.17182966662E+02  0.51100000000E-03 0. -1.
        -11    1    3    3    0    0  0.18889582232E+02 -0.13311660781E+02  0.38870827227E+01  0.23433438544E+02  0.51100000000E-03 0.  1.
        -12    1    3    3    0    0 -0.77341183575E+01  0.22659670819E+01 -0.16857958095E+02  0.18685340369E+02  0.00000000000E+00 0.  1.
</event>
<event>
 7    1  0.7749294E-012  0.5930196E+02  0.7816164E-02  0.1266605E+00
        -11   -1    0    0    0    0  0.00000000000E+00  0.00000000000E+00  0.45593999997E+02  0.45594000000E+02  0.51100000000E-03 0. -1.
         11   -1    0    0    0    0 -0.00000000000E+00 -0.00000000000E+00 -0.45593999997E+02  0.45594000000E+02  0.51100000000E-03 0.  1.
    9900012    2    1    2    0    0 -0.57363041255E+00 -0.29493364691E+02 -0.12105049017E+02  0.59301955649E+02  0.50000021195E+02 0.  0.
         12    1    1    2    0    0  0.57363041255E+00  0.29493364691E+02  0.12105049017E+02  0.31886044351E+02  0.00000000000E+00 0. -1.
         11    1    3    3    0    0 -0.15423408002E+01 -0.35816686600E+02  0.70871837134E+01  0.36543700242E+02  0.51100000000E-03 0. -1.
        -11    1    3    3    0    0 -0.12107345267E+01  0.34593169480E+01 -0.47214939792E+00  0.36953588670E+01  0.51100000000E-03 0.  1.
         12    1    3    3    0    0  0.21794449144E+01  0.28640049608E+01 -0.18720083332E+02  0.19062896540E+02  0.00000000000E+00 0. -1.
</event>
<event>
 7    1  0.7749294E-012  0.5930207E+02  0.7816164E-02  0.1266604E+00
        -11   -1    0    0    0    0  0.00000000000E+00  0.00000000000E+00  0.45593999997E+02  0.45594000000E+02  0.51100000000E-03 0. -1.
         11   -1    0    0    0    0 -0.00000000000E+00 -0.00000000000E+00 -0.45593999997E+02  0.45594000000E+02  0.51100000000E-03 0.  1.
    9900012    2    1    2    0    0  0.21826944969E+02  0.86093170291E+01  0.21591124220E+02  0.59302070322E+02  0.50000230329E+02 0.  0.
         12    1    1    2    0    0 -0.21826944969E+02 -0.86093170291E+01 -0.21591124220E+02  0.31885929678E+02  0.00000000000E+00 0. -1.
         11    1    3    3    0    0 -0.38266704052E+00  0.24416963890E+02  0.14246522184E+02  0.28271857991E+02  0.51100000000E-03 0. -1.
        -11    1    3    3    0    0  0.22181859612E+01 -0.12395207112E+01 -0.32458112685E+01  0.41221416283E+01  0.51100000000E-03 0.  1.
         12    1    3    3    0    0  0.19991426048E+02 -0.14568126150E+02  0.10590413304E+02  0.26908070702E+02  0.00000000000E+00 0. -1.
</event>
<event>
 7    1  0.7749294E-012  0.5930194E+02  0.7816164E-02  0.1266605E+00
        -11   -1    0    0    0    0  0.00000000000E+00  0.00000000000E+00  0.45593999997E+02  0.45594000000E+02  0.51100000000E-03 0. -1.
         11   -1    0    0    0    0 -0.00000000000E+00 -0.00000000000E+00 -0.45593999997E+02  0.45594000000E+02  0.51100000000E-03 0.  1.
    9900012    2    1    2    0    0 -0.12558908726E+02 -0.28944703616E+02 -0.46042150097E+01  0.59301939540E+02  0.49999991815E+02 0.  0.
         12    1    1    2    0    0  0.12558908726E+02  0.28944703616E+02  0.46042150097E+01  0.31886060460E+02  0.00000000000E+00 0. -1.
         11    1    3    3    0    0  0.83261102738E+01 -0.22233955229E+02  0.15327192313E+02  0.28259435625E+02  0.51100000000E-03 0. -1.
        -11    1    3    3    0    0 -0.10568903852E+02  0.11892886600E+01 -0.71453727685E+01  0.12812981246E+02  0.51100000000E-03 0.  1.
         12    1    3    3    0    0 -0.10316115148E+02 -0.79000370473E+01 -0.12786034554E+02  0.18229522668E+02  0.00000000000E+00 0. -1.
</event>
<event>
 7    1  0.7749294E-012  0.5930193E+02  0.7816164E-02  0.1266605E+00
        -11   -1    0    0    0    0  0.00000000000E+00  0.00000000000E+00  0.45593999997E+02  0.45594000000E+02  0.51100000000E-03 0. -1.
         11   -1    0    0    0    0 -0.00000000000E+00 -0.00000000000E+00 -0.45593999997E+02  0.45594000000E+02  0.51100000000E-03 0.  1.
    9900012    2    1    2    0    0  0.18673770007E+02  0.15476019292E+02 -0.20700353781E+02  0.59301929279E+02  0.49999973101E+02 0.  0.
         12    1    1    2    0    0 -0.18673770007E+02 -0.15476019292E+02  0.20700353781E+02  0.31886070721E+02  0.00000000000E+00 0. -1.
         11    1    3    3    0    0 -0.45903911725E+01 -0.92515731270E+01 -0.20992693529E+02  0.23395650841E+02  0.51100000000E-03 0. -1.
        -11    1    3    3    0    0  0.17602473099E+02  0.24304538963E+02 -0.12090603174E+01  0.30033639481E+02  0.51100000000E-03 0.  1.
         12    1    3    3    0    0  0.56616880807E+01  0.42305345649E+00  0.15014000653E+01  0.58726389559E+01  0.00000000000E+00 0. -1.
</event>
<event>
 7    1  0.7749294E-012  0.5930194E+02  0.7816164E-02  0.1266605E+00
        -11   -1    0    0    0    0  0.00000000000E+00  0.00000000000E+00  0.45593999997E+02  0.45594000000E+02  0.51100000000E-03 0.  1.
         11   -1    0    0    0    0 -0.00000000000E+00 -0.00000000000E+00 -0.45593999997E+02  0.45594000000E+02  0.51100000000E-03 0. -1.
    9900012    2    1    2    0    0  0.31843777636E+02  0.32009916338E-01  0.16412450345E+01  0.59301939033E+02  0.49999990891E+02 0.  0.
         12    1    1    2    0    0 -0.31843777636E+02 -0.32009916338E-01 -0.16412450345E+01  0.31886060967E+02  0.00000000000E+00 0. -1.
         11    1    3    3    0    0 -0.52752427750E+01 -0.15132776890E+02  0.28632277746E+01  0.16279655902E+02  0.51100000000E-03 0. -1.
        -11    1    3    3    0    0  0.32672630290E+02  0.66961507354E+01  0.19912229085E+00  0.33352344066E+02  0.51100000000E-03 0.  1.
         12    1    3    3    0    0  0.44463901202E+01  0.84686360710E+01 -0.14211050309E+01  0.96699390646E+01  0.00000000000E+00 0. -1.
</event>
<event>
 7    1  0.7749294E-012  0.5930194E+02  0.7816164E-02  0.1266605E+00
        -11   -1    0    0    0    0  0.00000000000E+00  0.00000000000E+00  0.45593999997E+02  0.45594000000E+02  0.51100000000E-03 0.  1.
         11   -1    0    0    0    0 -0.00000000000E+00 -0.00000000000E+00 -0.45593999997E+02  0.45594000000E+02  0.51100000000E-03 0. -1.
    9900012    2    1    2    0    0 -0.22151528179E+02  0.15917380426E+02 -0.16512653792E+02  0.59301938225E+02  0.49999989417E+02 0.  0.
         12    1    1    2    0    0  0.22151528179E+02 -0.15917380426E+02  0.16512653792E+02  0.31886061775E+02  0.00000000000E+00 0. -1.
         11    1    3    3    0    0 -0.67764557361E-01 -0.42564007242E+01 -0.17866144679E+02  0.18366291545E+02  0.51100000000E-03 0. -1.
        -11    1    3    3    0    0 -0.39215443952E+01  0.18147626675E+02  0.95824640815E+01  0.20893503356E+02  0.51100000000E-03 0.  1.
         12    1    3    3    0    0 -0.18162219226E+02  0.20261544753E+01 -0.82289731949E+01  0.20042143324E+02  0.00000000000E+00 0. -1.
</event>
<event>
 7    1  0.7749294E-012  0.5930192E+02  0.7816164E-02  0.1266605E+00
        -11   -1    0    0    0    0  0.00000000000E+00  0.00000000000E+00  0.45593999997E+02  0.45594000000E+02  0.51100000000E-03 0. -1.
         11   -1    0    0    0    0 -0.00000000000E+00 -0.00000000000E+00 -0.45593999997E+02  0.45594000000E+02  0.51100000000E-03 0.  1.
    9900012    2    1    2    0    0  0.29463810100E+02 -0.47378787281E+01 -0.11232039745E+02  0.59301916558E+02  0.49999949902E+02 0.  0.
         12    1    1    2    0    0 -0.29463810100E+02  0.47378787281E+01  0.11232039745E+02  0.31886083442E+02  0.00000000000E+00 0. -1.
         11    1    3    3    0    0  0.71162144402E+01  0.10567241876E+02 -0.58389380092E+00  0.12753354110E+02  0.51100000000E-03 0. -1.
        -11    1    3    3    0    0  0.30542857023E+02 -0.19223531287E+02 -0.99630503093E+01  0.37438918815E+02  0.51100000000E-03 0.  1.
        -12    1    3    3    0    0 -0.81952613635E+01  0.39184106838E+01 -0.68509563446E+00  0.91096436336E+01  0.00000000000E+00 0.  1.
</event>
<event>
 7    1  0.7749294E-012  0.5930200E+02  0.7816164E-02  0.1266605E+00
        -11   -1    0    0    0    0  0.00000000000E+00  0.00000000000E+00  0.45593999997E+02  0.45594000000E+02  0.51100000000E-03 0. -1.
         11   -1    0    0    0    0 -0.00000000000E+00 -0.00000000000E+00 -0.45593999997E+02  0.45594000000E+02  0.51100000000E-03 0.  1.
    9900012    2    1    2    0    0  0.18944895445E+02  0.69429527159E+01 -0.24690142883E+02  0.59302002894E+02  0.50000107357E+02 0.  0.
         12    1    1    2    0    0 -0.18944895445E+02 -0.69429527159E+01  0.24690142883E+02  0.31885997106E+02  0.00000000000E+00 0. -1.
         11    1    3    3    0    0 -0.27874894437E+01  0.11608190603E+01  0.52271314560E+01  0.60365968731E+01  0.51100000000E-03 0. -1.
        -11    1    3    3    0    0  0.18634007523E+02 -0.90879794497E+01 -0.31798363685E+02  0.37959893837E+02  0.51100000000E-03 0.  1.
        -12    1    3    3    0    0  0.30983773667E+01  0.14870113105E+02  0.18810893457E+01  0.15305512183E+02  0.00000000000E+00 0.  1.
</event>
<event>
 7    1  0.7749294E-012  0.5930194E+02  0.7816164E-02  0.1266605E+00
        -11   -1    0    0    0    0  0.00000000000E+00  0.00000000000E+00  0.45593999997E+02  0.45594000000E+02  0.51100000000E-03 0.  1.
         11   -1    0    0    0    0 -0.00000000000E+00 -0.00000000000E+00 -0.45593999997E+02  0.45594000000E+02  0.51100000000E-03 0. -1.
    9900012    2    1    2    0    0  0.19241369734E+02  0.23369738573E+02  0.10017268357E+02  0.59301942615E+02  0.49999997424E+02 0.  0.
         12    1    1    2    0    0 -0.19241369734E+02 -0.23369738573E+02 -0.10017268357E+02  0.31886057385E+02  0.00000000000E+00 0. -1.
         11    1    3    3    0    0  0.11969047860E+02  0.34862168790E-01 -0.57641902978E+01  0.13284773694E+02  0.51100000000E-03 0. -1.
        -11    1    3    3    0    0 -0.11341023052E+01  0.30602373406E+01  0.22754836682E+02  0.22987688733E+02  0.51100000000E-03 0.  1.
        -12    1    3    3    0    0  0.84064241787E+01  0.20274639064E+02 -0.69733780270E+01  0.23029480188E+02  0.00000000000E+00 0.  1.
</event>
<event>
 7    1  0.7749294E-012  0.5930199E+02  0.7816164E-02  0.1266605E+00
        -11   -1    0    0    0    0  0.00000000000E+00  0.00000000000E+00  0.45593999997E+02  0.45594000000E+02  0.51100000000E-03 0.  1.
         11   -1    0    0    0    0 -0.00000000000E+00 -0.00000000000E+00 -0.45593999997E+02  0.45594000000E+02  0.51100000000E-03 0. -1.
    9900012    2    1    2    0    0  0.91703514187E+01 -0.10183239145E+02  0.28791043297E+02  0.59301986158E+02  0.50000076835E+02 0.  0.
         12    1    1    2    0    0 -0.91703514187E+01  0.10183239145E+02 -0.28791043297E+02  0.31886013842E+02  0.00000000000E+00 0. -1.
         11    1    3    3    0    0 -0.16334475777E+02 -0.10163021742E+02 -0.29934013489E-01  0.19238061393E+02  0.51100000000E-03 0. -1.
        -11    1    3    3    0    0  0.19062666986E+02 -0.49760314148E+01  0.20434348287E+02  0.28385009273E+02  0.51100000000E-03 0.  1.
         12    1    3    3    0    0  0.64421602099E+01  0.49558140117E+01  0.83866290238E+01  0.11678915492E+02  0.00000000000E+00 0. -1.
</event>
<event>
 7    1  0.7749294E-012  0.5930194E+02  0.7816164E-02  0.1266605E+00
        -11   -1    0    0    0    0  0.00000000000E+00  0.00000000000E+00  0.45593999997E+02  0.45594000000E+02  0.51100000000E-03 0.  1.
         11   -1    0    0    0    0 -0.00000000000E+00 -0.00000000000E+00 -0.45593999997E+02  0.45594000000E+02  0.51100000000E-03 0. -1.
    9900012    2    1    2    0    0 -0.17084088336E+02  0.75915885409E+01  0.25830645746E+02  0.59301944262E+02  0.50000000427E+02 0.  0.
         12    1    1    2    0    0  0.17084088336E+02 -0.75915885409E+01 -0.25830645746E+02  0.31886055738E+02  0.00000000000E+00 0. -1.
         11    1    3    3    0    0 -0.15810304441E+02  0.26274616401E+02  0.76807048311E+01  0.31611934780E+02  0.51100000000E-03 0. -1.
        -11    1    3    3    0    0 -0.13629582098E+01 -0.42580467724E+01  0.10387552824E+02  0.11308840406E+02  0.51100000000E-03 0.  1.
         12    1    3    3    0    0  0.89174314722E-01 -0.14424981088E+02  0.77623880913E+01  0.16381169077E+02  0.00000000000E+00 0. -1.
</event>
<event>
 7    1  0.7749294E-012  0.5930193E+02  0.7816164E-02  0.1266605E+00
        -11   -1    0    0    0    0  0.00000000000E+00  0.00000000000E+00  0.45593999997E+02  0.45594000000E+02  0.51100000000E-03 0.  1.
         11   -1    0    0    0    0 -0.00000000000E+00 -0.00000000000E+00 -0.45593999997E+02  0.45594000000E+02  0.51100000000E-03 0. -1.
    9900012    2    1    2    0    0 -0.24860946634E+02  0.12253658965E+02  0.15763968865E+02  0.59301928748E+02  0.49999972133E+02 0.  0.
         12    1    1    2    0    0  0.24860946634E+02 -0.12253658965E+02 -0.15763968865E+02  0.31886071252E+02  0.00000000000E+00 0. -1.
         11    1    3    3    0    0 -0.61086241225E+01 -0.97181729306E+01  0.91169708852E+01  0.14658694763E+02  0.51100000000E-03 0. -1.
        -11    1    3    3    0    0 -0.18465394917E+02  0.19761841635E+02 -0.92549199882E+01  0.28585918535E+02  0.51100000000E-03 0.  1.
        -12    1    3    3    0    0 -0.28692759426E+00  0.22099902603E+01  0.15901917968E+02  0.16057315450E+02  0.00000000000E+00 0.  1.
</event>
<event>
 7    1  0.7749294E-012  0.5930219E+02  0.7816164E-02  0.1266604E+00
        -11   -1    0    0    0    0  0.00000000000E+00  0.00000000000E+00  0.45593999997E+02  0.45594000000E+02  0.51100000000E-03 0. -1.
         11   -1    0    0    0    0 -0.00000000000E+00 -0.00000000000E+00 -0.45593999997E+02  0.45594000000E+02  0.51100000000E-03 0.  1.
    9900012    2    1    2    0    0 -0.23429262532E+02 -0.16448850582E+01 -0.21565450395E+02  0.59302193748E+02  0.50000455427E+02 0.  0.
         12    1    1    2    0    0  0.23429262532E+02  0.16448850582E+01  0.21565450395E+02  0.31885806252E+02  0.00000000000E+00 0. -1.
         11    1    3    3    0    0 -0.43808418595E+01 -0.16627895241E+02 -0.16154948187E+01  0.17271030639E+02  0.51100000000E-03 0. -1.
        -11    1    3    3    0    0  0.29071062458E+01  0.14706270549E+02 -0.70621021085E+01  0.16571027326E+02  0.51100000000E-03 0.  1.
         12    1    3    3    0    0 -0.21955526918E+02  0.27673963361E+00 -0.12887853468E+02  0.25460135783E+02  0.00000000000E+00 0. -1.
</event>
<event>
 7    1  0.7749294E-012  0.5930193E+02  0.7816164E-02  0.1266605E+00
        -11   -1    0    0    0    0  0.00000000000E+00  0.00000000000E+00  0.45593999997E+02  0.45594000000E+02  0.51100000000E-03 0.  1.
         11   -1    0    0    0    0 -0.00000000000E+00 -0.00000000000E+00 -0.45593999997E+02  0.45594000000E+02  0.51100000000E-03 0. -1.
    9900012    2    1    2    0    0 -0.20743289014E+02  0.18425353025E+02  0.15714449118E+02  0.59301928052E+02  0.49999970864E+02 0.  0.
         12    1    1    2    0    0  0.20743289014E+02 -0.18425353025E+02 -0.15714449118E+02  0.31886071948E+02  0.00000000000E+00 0. -1.
         11    1    3    3    0    0 -0.23929716329E+02  0.13862813605E+01 -0.26841368399E+01  0.24119653614E+02  0.51100000000E-03 0. -1.
        -11    1    3    3    0    0 -0.40587805993E+01  0.20217522619E+02  0.17812285564E+02  0.27248842876E+02  0.51100000000E-03 0.  1.
        -12    1    3    3    0    0  0.72452079148E+01 -0.31784509545E+01  0.58630039361E+00  0.79334315621E+01  0.00000000000E+00 0.  1.
</event>
<event>
 7    1  0.7749294E-012  0.5930192E+02  0.7816164E-02  0.1266605E+00
        -11   -1    0    0    0    0  0.00000000000E+00  0.00000000000E+00  0.45593999997E+02  0.45594000000E+02  0.51100000000E-03 0. -1.
         11   -1    0    0    0    0 -0.00000000000E+00 -0.00000000000E+00 -0.45593999997E+02  0.45594000000E+02  0.51100000000E-03 0.  1.
    9900012    2    1    2    0    0  0.21018508332E+02  0.13505454423E+02 -0.19812802623E+02  0.59301919346E+02  0.49999954987E+02 0.  0.
         12    1    1    2    0    0 -0.21018508332E+02 -0.13505454423E+02  0.19812802623E+02  0.31886080654E+02  0.00000000000E+00 0. -1.
         11    1    3    3    0    0  0.47929509741E+01  0.25963156638E+02 -0.25430966941E+02  0.36657768092E+02  0.51100000000E-03 0. -1.
        -11    1    3    3    0    0  0.15253764636E+02 -0.77867088424E+01  0.38321583158E+01  0.17549803640E+02  0.51100000000E-03 0.  1.
         12    1    3    3    0    0  0.97179272153E+00 -0.46709933728E+01  0.17860060019E+01  0.50943476149E+01  0.00000000000E+00 0. -1.
</event>
<event>
 7    1  0.7749294E-012  0.5930193E+02  0.7816164E-02  0.1266605E+00
        -11   -1    0    0    0    0  0.00000000000E+00  0.00000000000E+00  0.45593999997E+02  0.45594000000E+02  0.51100000000E-03 0.  1.
         11   -1    0    0    0    0 -0.00000000000E+00 -0.00000000000E+00 -0.45593999997E+02  0.45594000000E+02  0.51100000000E-03 0. -1.
    9900012    2    1    2    0    0 -0.23259908894E+02  0.11021991860E+01  0.21782630897E+02  0.59301933864E+02  0.49999981465E+02 0.  0.
         12    1    1    2    0    0  0.23259908894E+02 -0.11021991860E+01 -0.21782630897E+02  0.31886066136E+02  0.00000000000E+00 0. -1.
         11    1    3    3    0    0 -0.34856900869E+02  0.57881722879E+01  0.13249006418E+02  0.37736489609E+02  0.51100000000E-03 0. -1.
        -11    1    3    3    0    0  0.13895016295E+02 -0.77993691656E+01  0.69621536174E+01  0.17388882094E+02  0.51100000000E-03 0.  1.
        -12    1    3    3    0    0 -0.22980243199E+01  0.31133960637E+01  0.15714708610E+01  0.41765621618E+01  0.00000000000E+00 0.  1.
</event>
<event>
 7    1  0.7749294E-012  0.5930194E+02  0.7816164E-02  0.1266605E+00
        -11   -1    0    0    0    0  0.00000000000E+00  0.00000000000E+00  0.45593999997E+02  0.45594000000E+02  0.51100000000E-03 0.  1.
         11   -1    0    0    0    0 -0.00000000000E+00 -0.00000000000E+00 -0.45593999997E+02  0.45594000000E+02  0.51100000000E-03 0. -1.
    9900012    2    1    2    0    0  0.15495440715E+02 -0.20551571002E+02  0.18821400597E+02  0.59301939190E+02  0.49999991176E+02 0.  0.
         12    1    1    2    0    0 -0.15495440715E+02  0.20551571002E+02 -0.18821400597E+02  0.31886060810E+02  0.00000000000E+00 0. -1.
         11    1    3    3    0    0  0.44548529499E+01 -0.66188662624E+01  0.26603724339E+02  0.27774327253E+02  0.51100000000E-03 0. -1.
        -11    1    3    3    0    0  0.72352868567E+01 -0.16835479887E+02  0.40477075915E+01  0.18766104975E+02  0.51100000000E-03 0.  1.
         12    1    3    3    0    0  0.38053009081E+01  0.29027751474E+01 -0.11830031334E+02  0.12761506961E+02  0.00000000000E+00 0. -1.
</event>
<event>
 7    1  0.7749294E-012  0.5930193E+02  0.7816164E-02  0.1266605E+00
        -11   -1    0    0    0    0  0.00000000000E+00  0.00000000000E+00  0.45593999997E+02  0.45594000000E+02  0.51100000000E-03 0.  1.
         11   -1    0    0    0    0 -0.00000000000E+00 -0.00000000000E+00 -0.45593999997E+02  0.45594000000E+02  0.51100000000E-03 0. -1.
    9900012    2    1    2    0    0 -0.30738319837E+02 -0.23440518199E+01 -0.81475431181E+01  0.59301931817E+02  0.49999977731E+02 0.  0.
         12    1    1    2    0    0  0.30738319837E+02  0.23440518199E+01  0.81475431181E+01  0.31886068183E+02  0.00000000000E+00 0. -1.
         11    1    3    3    0    0 -0.23498825578E+02 -0.52408367785E+01 -0.26942729910E+02  0.36132698058E+02  0.51100000000E-03 0. -1.
        -11    1    3    3    0    0 -0.69300257971E+01  0.44624915290E+01  0.19685671631E+02  0.21341620276E+02  0.51100000000E-03 0.  1.
        -12    1    3    3    0    0 -0.30946846185E+00 -0.15657065705E+01 -0.89048483870E+00  0.18276134826E+01  0.00000000000E+00 0.  1.
</event>
<event>
 7    1  0.7749294E-012  0.5930194E+02  0.7816164E-02  0.1266605E+00
        -11   -1    0    0    0    0  0.00000000000E+00  0.00000000000E+00  0.45593999997E+02  0.45594000000E+02  0.51100000000E-03 0.  1.
         11   -1    0    0    0    0 -0.00000000000E+00 -0.00000000000E+00 -0.45593999997E+02  0.45594000000E+02  0.51100000000E-03 0. -1.
    9900012    2    1    2    0    0  0.81404898791E-01 -0.70383039907E+01  0.31099461769E+02  0.59301939219E+02  0.49999991229E+02 0.  0.
         12    1    1    2    0    0 -0.81404898791E-01  0.70383039907E+01 -0.31099461769E+02  0.31886060781E+02  0.00000000000E+00 0. -1.
         11    1    3    3    0    0  0.80933364794E+01  0.46081078267E+01 -0.61726045639E+00  0.93336897229E+01  0.51100000000E-03 0. -1.
        -11    1    3    3    0    0 -0.72423042874E+01  0.26465844261E+01  0.34530213443E+02  0.35380658858E+02  0.51100000000E-03 0.  1.
        -12    1    3    3    0    0 -0.76962729324E+00 -0.14292996244E+02 -0.28134912177E+01  0.14587590638E+02  0.00000000000E+00 0.  1.
</event>
<event>
 7    1  0.7749294E-012  0.5930193E+02  0.7816164E-02  0.1266605E+00
        -11   -1    0    0    0    0  0.00000000000E+00  0.00000000000E+00  0.45593999997E+02  0.45594000000E+02  0.51100000000E-03 0. -1.
         11   -1    0    0    0    0 -0.00000000000E+00 -0.00000000000E+00 -0.45593999997E+02  0.45594000000E+02  0.51100000000E-03 0.  1.
    9900012    2    1    2    0    0  0.20725696982E+02  0.97068325704E+01  0.22202353704E+02  0.59301927430E+02  0.49999969730E+02 0.  0.
         12    1    1    2    0    0 -0.20725696982E+02 -0.97068325704E+01 -0.22202353704E+02  0.31886072570E+02  0.00000000000E+00 0. -1.
         11    1    3    3    0    0  0.43932062322E+01 -0.19100214845E+02  0.47118050831E+01  0.20157370253E+02  0.51100000000E-03 0. -1.
        -11    1    3    3    0    0  0.13672748883E+02  0.23355497856E+02  0.86287592625E+01  0.28405612629E+02  0.51100000000E-03 0.  1.
        -12    1    3    3    0    0  0.26597418665E+01  0.54515495587E+01  0.88617893583E+01  0.10738944549E+02  0.00000000000E+00 0.  1.
</event>
<event>
 7    1  0.7749294E-012  0.5930184E+02  0.7816164E-02  0.1266605E+00
        -11   -1    0    0    0    0  0.00000000000E+00  0.00000000000E+00  0.45593999997E+02  0.45594000000E+02  0.51100000000E-03 0.  1.
         11   -1    0    0    0    0 -0.00000000000E+00 -0.00000000000E+00 -0.45593999997E+02  0.45594000000E+02  0.51100000000E-03 0. -1.
    9900012    2    1    2    0    0  0.62726430118E+01 -0.26693909484E+02  0.16273186703E+02  0.59301835926E+02  0.49999802848E+02 0.  0.
         12    1    1    2    0    0 -0.62726430118E+01  0.26693909484E+02 -0.16273186703E+02  0.31886164074E+02  0.00000000000E+00 0. -1.
         11    1    3    3    0    0  0.12224550528E+02  0.75670800872E+01  0.16842091460E+02  0.22143991999E+02  0.51100000000E-03 0. -1.
        -11    1    3    3    0    0 -0.10076855882E+02 -0.21544750761E+02 -0.32463591994E+00  0.23787069987E+02  0.51100000000E-03 0.  1.
         12    1    3    3    0    0  0.41249483661E+01 -0.12716238810E+02 -0.24426883695E+00  0.13370773940E+02  0.00000000000E+00 0. -1.
</event>
<event>
 7    1  0.7749294E-012  0.5930190E+02  0.7816164E-02  0.1266605E+00
        -11   -1    0    0    0    0  0.00000000000E+00  0.00000000000E+00  0.45593999997E+02  0.45594000000E+02  0.51100000000E-03 0. -1.
         11   -1    0    0    0    0 -0.00000000000E+00 -0.00000000000E+00 -0.45593999997E+02  0.45594000000E+02  0.51100000000E-03 0.  1.
    9900012    2    1    2    0    0 -0.22656577513E+01  0.26551561167E+02 -0.17510134499E+02  0.59301899335E+02  0.49999918491E+02 0.  0.
         12    1    1    2    0    0  0.22656577513E+01 -0.26551561167E+02  0.17510134499E+02  0.31886100665E+02  0.00000000000E+00 0. -1.
         11    1    3    3    0    0 -0.36619684330E+01  0.96929664702E+01  0.40942172773E+01  0.11141195051E+02  0.51100000000E-03 0. -1.
        -11    1    3    3    0    0  0.11375964171E+02  0.18017592717E+02 -0.28783526336E+02  0.35812534073E+02  0.51100000000E-03 0.  1.
        -12    1    3    3    0    0 -0.99796534891E+01 -0.11589980197E+01  0.71791745603E+01  0.12348170210E+02  0.00000000000E+00 0.  1.
</event>
<event>
 7    1  0.7749294E-012  0.5930192E+02  0.7816164E-02  0.1266605E+00
        -11   -1    0    0    0    0  0.00000000000E+00  0.00000000000E+00  0.45593999997E+02  0.45594000000E+02  0.51100000000E-03 0. -1.
         11   -1    0    0    0    0 -0.00000000000E+00 -0.00000000000E+00 -0.45593999997E+02  0.45594000000E+02  0.51100000000E-03 0.  1.
    9900012    2    1    2    0    0  0.29033052596E+02  0.67812840757E+01  0.11305657847E+02  0.59301923790E+02  0.49999963090E+02 0.  0.
         12    1    1    2    0    0 -0.29033052596E+02 -0.67812840757E+01 -0.11305657847E+02  0.31886076210E+02  0.00000000000E+00 0. -1.
         11    1    3    3    0    0  0.31163247319E+02  0.11838845056E+01  0.23200357677E+02  0.38869090067E+02  0.51100000000E-03 0. -1.
        -11    1    3    3    0    0 -0.59109997388E+01  0.48181521144E+01 -0.14068624689E+02  0.16002521945E+02  0.51100000000E-03 0.  1.
        -12    1    3    3    0    0  0.37808050152E+01  0.77924745574E+00  0.21739248585E+01  0.44303117780E+01  0.00000000000E+00 0.  1.
</event>
<event>
 7    1  0.7749294E-012  0.5930195E+02  0.7816164E-02  0.1266605E+00
        -11   -1    0    0    0    0  0.00000000000E+00  0.00000000000E+00  0.45593999997E+02  0.45594000000E+02  0.51100000000E-03 0.  1.
         11   -1    0    0    0    0 -0.00000000000E+00 -0.00000000000E+00 -0.45593999997E+02  0.45594000000E+02  0.51100000000E-03 0. -1.
    9900012    2    1    2    0    0 -0.18815174102E+02  0.93997357449E+01  0.23965696331E+02  0.59301946478E+02  0.50000004469E+02 0.  0.
         12    1    1    2    0    0  0.18815174102E+02 -0.93997357449E+01 -0.23965696331E+02  0.31886053522E+02  0.00000000000E+00 0. -1.
         11    1    3    3    0    0 -0.17696672374E+02  0.21159027567E+02  0.71391198081E+01  0.28492870909E+02  0.51100000000E-03 0. -1.
        -11    1    3    3    0    0  0.45902045980E+01 -0.12152502547E+02  0.20310618889E+02  0.24109635757E+02  0.51100000000E-03 0.  1.
        -12    1    3    3    0    0 -0.57087063262E+01  0.39321072446E+00 -0.34840423666E+01  0.66994398128E+01  0.00000000000E+00 0.  1.
</event>
<event>
 7    1  0.7749294E-012  0.5930195E+02  0.7816164E-02  0.1266605E+00
        -11   -1    0    0    0    0  0.00000000000E+00  0.00000000000E+00  0.45593999997E+02  0.45594000000E+02  0.51100000000E-03 0.  1.
         11   -1    0    0    0    0 -0.00000000000E+00 -0.00000000000E+00 -0.45593999997E+02  0.45594000000E+02  0.51100000000E-03 0. -1.
    9900012    2    1    2    0    0  0.28827826049E+02 -0.30203075886E+01 -0.13287364531E+02  0.59301954952E+02  0.50000019923E+02 0.  0.
         12    1    1    2    0    0 -0.28827826049E+02  0.30203075886E+01  0.13287364531E+02  0.31886045048E+02  0.00000000000E+00 0. -1.
         11    1    3    3    0    0  0.39585022864E+01  0.66134447132E+01 -0.22802821777E+02  0.24070232084E+02  0.51100000000E-03 0. -1.
        -11    1    3    3    0    0  0.26124043227E+02 -0.20457201180E+01  0.79445359230E+01  0.27381859992E+02  0.51100000000E-03 0.  1.
        -12    1    3    3    0    0 -0.12547194646E+01 -0.75880321839E+01  0.15709213234E+01  0.78498628754E+01  0.00000000000E+00 0.  1.
</event>
<event>
 7    1  0.7749294E-012  0.5930194E+02  0.7816164E-02  0.1266605E+00
        -11   -1    0    0    0    0  0.00000000000E+00  0.00000000000E+00  0.45593999997E+02  0.45594000000E+02  0.51100000000E-03 0.  1.
         11   -1    0    0    0    0 -0.00000000000E+00 -0.00000000000E+00 -0.45593999997E+02  0.45594000000E+02  0.51100000000E-03 0. -1.
    9900012    2    1    2    0    0 -0.68736972094E+01  0.14283260487E+02  0.27666974974E+02  0.59301941171E+02  0.49999994789E+02 0.  0.
         12    1    1    2    0    0  0.68736972094E+01 -0.14283260487E+02 -0.27666974974E+02  0.31886058829E+02  0.00000000000E+00 0. -1.
         11    1    3    3    0    0  0.29057516986E+01  0.98144401848E+01  0.25804327389E+01  0.10555816522E+02  0.51100000000E-03 0. -1.
        -11    1    3    3    0    0 -0.14778723316E+02  0.10821161850E+02  0.32803146529E+02  0.37570661813E+02  0.51100000000E-03 0.  1.
        -12    1    3    3    0    0  0.49992744083E+01 -0.63523415478E+01 -0.77166042938E+01  0.11175462835E+02  0.00000000000E+00 0.  1.
</event>
<event>
 7    1  0.7749294E-012  0.5930215E+02  0.7816164E-02  0.1266604E+00
        -11   -1    0    0    0    0  0.00000000000E+00  0.00000000000E+00  0.45593999997E+02  0.45594000000E+02  0.51100000000E-03 0.  1.
         11   -1    0    0    0    0 -0.00000000000E+00 -0.00000000000E+00 -0.45593999997E+02  0.45594000000E+02  0.51100000000E-03 0. -1.
    9900012    2    1    2    0    0 -0.19841825289E+02 -0.11419348314E+02  0.22194768103E+02  0.59302152389E+02  0.50000380000E+02 0.  0.
         12    1    1    2    0    0  0.19841825289E+02  0.11419348314E+02 -0.22194768103E+02  0.31885847611E+02  0.00000000000E+00 0. -1.
         11    1    3    3    0    0  0.32014402723E+01  0.45151493990E+00  0.24630615087E+02  0.24841905832E+02  0.51100000000E-03 0.  1.
        -11    1    3    3    0    0 -0.19255614422E+01 -0.89728915029E+01 -0.82774415512E+01  0.12358665287E+02  0.51100000000E-03 0. -1.
         12    1    3    3    0    0 -0.21117704119E+02 -0.28979717513E+01  0.58415945672E+01  0.22101581270E+02  0.00000000000E+00 0. -1.
</event>
<event>
 7    1  0.7749294E-012  0.5930194E+02  0.7816164E-02  0.1266605E+00
        -11   -1    0    0    0    0  0.00000000000E+00  0.00000000000E+00  0.45593999997E+02  0.45594000000E+02  0.51100000000E-03 0. -1.
         11   -1    0    0    0    0 -0.00000000000E+00 -0.00000000000E+00 -0.45593999997E+02  0.45594000000E+02  0.51100000000E-03 0.  1.
    9900012    2    1    2    0    0 -0.17824414071E+02 -0.90594445603E+01 -0.24838230793E+02  0.59301937502E+02  0.49999988098E+02 0.  0.
         12    1    1    2    0    0  0.17824414071E+02  0.90594445603E+01  0.24838230793E+02  0.31886062498E+02  0.00000000000E+00 0. -1.
         11    1    3    3    0    0  0.11977871907E+01 -0.22681843613E+00  0.92588042227E+01  0.93387149358E+01  0.51100000000E-03 0. -1.
        -11    1    3    3    0    0 -0.24524629632E+02 -0.10467074731E+02 -0.35157966600E+02  0.44125952995E+02  0.51100000000E-03 0.  1.
        -12    1    3    3    0    0  0.55024283702E+01  0.16344486066E+01  0.10609315847E+01  0.58372695709E+01  0.00000000000E+00 0.  1.
</event>
<event>
 7    1  0.7749294E-012  0.5930196E+02  0.7816164E-02  0.1266605E+00
        -11   -1    0    0    0    0  0.00000000000E+00  0.00000000000E+00  0.45593999997E+02  0.45594000000E+02  0.51100000000E-03 0.  1.
         11   -1    0    0    0    0 -0.00000000000E+00 -0.00000000000E+00 -0.45593999997E+02  0.45594000000E+02  0.51100000000E-03 0. -1.
    9900012    2    1    2    0    0 -0.65852928718E+01 -0.28658638811E+02  0.12330282396E+02  0.59301960349E+02  0.50000029765E+02 0.  0.
         12    1    1    2    0    0  0.65852928718E+01  0.28658638811E+02 -0.12330282396E+02  0.31886039651E+02  0.00000000000E+00 0. -1.
         11    1    3    3    0    0 -0.22391584431E+01  0.50532688636E+01 -0.73980999612E+01  0.92347842442E+01  0.51100000000E-03 0. -1.
        -11    1    3    3    0    0  0.75869639371E+01 -0.70368078524E+01  0.18038431288E+02  0.20795761350E+02  0.51100000000E-03 0.  1.
        -12    1    3    3    0    0 -0.11933098366E+02 -0.26675099822E+02  0.16899510691E+01  0.29271414755E+02  0.00000000000E+00 0.  1.
</event>
<event>
 7    1  0.7749294E-012  0.5930191E+02  0.7816164E-02  0.1266605E+00
        -11   -1    0    0    0    0  0.00000000000E+00  0.00000000000E+00  0.45593999997E+02  0.45594000000E+02  0.51100000000E-03 0. -1.
         11   -1    0    0    0    0 -0.00000000000E+00 -0.00000000000E+00 -0.45593999997E+02  0.45594000000E+02  0.51100000000E-03 0.  1.
    9900012    2    1    2    0    0 -0.25001530382E+01  0.22599910488E+02 -0.22354328607E+02  0.59301910137E+02  0.49999938191E+02 0.  0.
         12    1    1    2    0    0  0.25001530382E+01 -0.22599910488E+02  0.22354328607E+02  0.31886089863E+02  0.00000000000E+00 0. -1.
         11    1    3    3    0    0  0.11014140725E+02  0.15797260894E+02  0.82952718851E+01  0.20968459256E+02  0.51100000000E-03 0. -1.
        -11    1    3    3    0    0 -0.15963727052E+02  0.84601950785E+01 -0.18615812232E+02  0.25941548671E+02  0.51100000000E-03 0.  1.
         12    1    3    3    0    0  0.24494332895E+01 -0.16575454842E+01 -0.12033788261E+02  0.12391902210E+02  0.00000000000E+00 0. -1.
</event>
<event>
 7    1  0.7749294E-012  0.5930191E+02  0.7816164E-02  0.1266605E+00
        -11   -1    0    0    0    0  0.00000000000E+00  0.00000000000E+00  0.45593999997E+02  0.45594000000E+02  0.51100000000E-03 0. -1.
         11   -1    0    0    0    0 -0.00000000000E+00 -0.00000000000E+00 -0.45593999997E+02  0.45594000000E+02  0.51100000000E-03 0.  1.
    9900012    2    1    2    0    0 -0.16166686764E+02 -0.50477280481E+01 -0.27016316217E+02  0.59301911163E+02  0.49999940063E+02 0.  0.
         12    1    1    2    0    0  0.16166686764E+02  0.50477280481E+01  0.27016316217E+02  0.31886088837E+02  0.00000000000E+00 0. -1.
         11    1    3    3    0    0 -0.18799010964E+02  0.45625765850E+01 -0.38258194912E+01  0.19719452664E+02  0.51100000000E-03 0. -1.
        -11    1    3    3    0    0  0.34033926576E+01 -0.17550681865E+02 -0.25621885133E+02  0.31242447304E+02  0.51100000000E-03 0.  1.
         12    1    3    3    0    0 -0.77106845773E+00  0.79403772321E+01  0.24313884068E+01  0.83400111954E+01  0.00000000000E+00 0. -1.
</event>
<event>
 7    1  0.7749294E-012  0.5930194E+02  0.7816164E-02  0.1266605E+00
        -11   -1    0    0    0    0  0.00000000000E+00  0.00000000000E+00  0.45593999997E+02  0.45594000000E+02  0.51100000000E-03 0.  1.
         11   -1    0    0    0    0 -0.00000000000E+00 -0.00000000000E+00 -0.45593999997E+02  0.45594000000E+02  0.51100000000E-03 0. -1.
    9900012    2    1    2    0    0 -0.65289469415E+01 -0.31138424365E+02 -0.21194916695E+01  0.59301939330E+02  0.49999991433E+02 0.  0.
         12    1    1    2    0    0  0.65289469415E+01  0.31138424365E+02  0.21194916695E+01  0.31886060670E+02  0.00000000000E+00 0. -1.
         11    1    3    3    0    0 -0.84193961349E+01 -0.35099513122E+01 -0.14787303481E+02  0.17374416077E+02  0.51100000000E-03 0. -1.
        -11    1    3    3    0    0  0.11017870257E+02 -0.47144922549E+01  0.12423133026E+02  0.17261348054E+02  0.51100000000E-03 0.  1.
         12    1    3    3    0    0 -0.91274210634E+01 -0.22913980798E+02  0.24467878626E+00  0.24666175200E+02  0.00000000000E+00 0. -1.
</event>
<event>
 7    1  0.7749294E-012  0.5930195E+02  0.7816164E-02  0.1266605E+00
        -11   -1    0    0    0    0  0.00000000000E+00  0.00000000000E+00  0.45593999997E+02  0.45594000000E+02  0.51100000000E-03 0. -1.
         11   -1    0    0    0    0 -0.00000000000E+00 -0.00000000000E+00 -0.45593999997E+02  0.45594000000E+02  0.51100000000E-03 0.  1.
    9900012    2    1    2    0    0  0.29906831420E+02 -0.68948605148E+01 -0.86465436950E+01  0.59301946858E+02  0.50000005161E+02 0.  0.
         12    1    1    2    0    0 -0.29906831420E+02  0.68948605148E+01  0.86465436950E+01  0.31886053142E+02  0.00000000000E+00 0. -1.
         11    1    3    3    0    0 -0.11011578245E+02 -0.76432715771E+01 -0.59345412878E-01  0.13404401441E+02  0.51100000000E-03 0. -1.
        -11    1    3    3    0    0  0.33027479222E+02 -0.61923403633E+01 -0.23684435290E+01  0.33686332361E+02  0.51100000000E-03 0.  1.
         12    1    3    3    0    0  0.78909304438E+01  0.69407514255E+01 -0.62187547531E+01  0.12211213056E+02  0.00000000000E+00 0. -1.
</event>
<event>
 7    1  0.7749294E-012  0.5930204E+02  0.7816164E-02  0.1266604E+00
        -11   -1    0    0    0    0  0.00000000000E+00  0.00000000000E+00  0.45593999997E+02  0.45594000000E+02  0.51100000000E-03 0. -1.
         11   -1    0    0    0    0 -0.00000000000E+00 -0.00000000000E+00 -0.45593999997E+02  0.45594000000E+02  0.51100000000E-03 0.  1.
    9900012    2    1    2    0    0  0.11085602305E+02 -0.24304025394E+02 -0.17410860946E+02  0.59302042155E+02  0.50000178960E+02 0.  0.
         12    1    1    2    0    0 -0.11085602305E+02  0.24304025394E+02  0.17410860946E+02  0.31885957845E+02  0.00000000000E+00 0. -1.
         11    1    3    3    0    0  0.48490666753E+00  0.11341026241E+02 -0.16019936514E+02  0.19633959785E+02  0.51100000000E-03 0. -1.
        -11    1    3    3    0    0  0.36896881617E+01 -0.13726233591E+02 -0.72424692037E+01  0.15952324212E+02  0.51100000000E-03 0.  1.
         12    1    3    3    0    0  0.69110074754E+01 -0.21918818044E+02  0.58515447719E+01  0.23715758158E+02  0.00000000000E+00 0. -1.
</event>
<event>
 7    1  0.7749294E-012  0.5930183E+02  0.7816164E-02  0.1266605E+00
        -11   -1    0    0    0    0  0.00000000000E+00  0.00000000000E+00  0.45593999997E+02  0.45594000000E+02  0.51100000000E-03 0. -1.
         11   -1    0    0    0    0 -0.00000000000E+00 -0.00000000000E+00 -0.45593999997E+02  0.45594000000E+02  0.51100000000E-03 0.  1.
    9900012    2    1    2    0    0  0.19777467094E+02 -0.19875509173E+02 -0.15183666345E+02  0.59301830690E+02  0.49999793300E+02 0.  0.
         12    1    1    2    0    0 -0.19777467094E+02  0.19875509173E+02  0.15183666345E+02  0.31886169310E+02  0.00000000000E+00 0. -1.
         11    1    3    3    0    0  0.10915739063E+02 -0.32890368946E+01  0.12513160263E+02  0.16927796756E+02  0.51100000000E-03 0. -1.
        -11    1    3    3    0    0  0.11808362488E+02 -0.20489519905E+02 -0.28895243839E+02  0.37338893494E+02  0.51100000000E-03 0.  1.
        -12    1    3    3    0    0 -0.29466344566E+01  0.39030476268E+01  0.11984172308E+01  0.50351404406E+01  0.00000000000E+00 0.  1.
</event>
<event>
 7    1  0.7749294E-012  0.5930192E+02  0.7816164E-02  0.1266605E+00
        -11   -1    0    0    0    0  0.00000000000E+00  0.00000000000E+00  0.45593999997E+02  0.45594000000E+02  0.51100000000E-03 0. -1.
         11   -1    0    0    0    0 -0.00000000000E+00 -0.00000000000E+00 -0.45593999997E+02  0.45594000000E+02  0.51100000000E-03 0.  1.
    9900012    2    1    2    0    0  0.51625227157E+01  0.31420758037E+02 -0.16752933613E+01  0.59301917075E+02  0.49999950845E+02 0.  0.
         12    1    1    2    0    0 -0.51625227157E+01 -0.31420758037E+02  0.16752933613E+01  0.31886082925E+02  0.00000000000E+00 0. -1.
         11    1    3    3    0    0 -0.12512451459E+01 -0.69139649426E+01  0.41194666042E+01  0.81448468989E+01  0.51100000000E-03 0. -1.
        -11    1    3    3    0    0 -0.41317086118E-02  0.42013513856E+02 -0.42423692263E+00  0.42015655901E+02  0.51100000000E-03 0.  1.
        -12    1    3    3    0    0  0.64178995703E+01 -0.36787908756E+01 -0.53705230429E+01  0.91414142754E+01  0.00000000000E+00 0.  1.
</event>
<event>
 7    1  0.7749294E-012  0.5930190E+02  0.7816164E-02  0.1266605E+00
        -11   -1    0    0    0    0  0.00000000000E+00  0.00000000000E+00  0.45593999997E+02  0.45594000000E+02  0.51100000000E-03 0. -1.
         11   -1    0    0    0    0 -0.00000000000E+00 -0.00000000000E+00 -0.45593999997E+02  0.45594000000E+02  0.51100000000E-03 0.  1.
    9900012    2    1    2    0    0  0.10291066138E+01 -0.91235808811E+01 -0.30535626725E+02  0.59301901336E+02  0.49999922141E+02 0.  0.
         12    1    1    2    0    0 -0.10291066138E+01  0.91235808811E+01  0.30535626725E+02  0.31886098664E+02  0.00000000000E+00 0. -1.
         11    1    3    3    0    0  0.12891868822E+02 -0.81038980099E+01 -0.12727193739E+00  0.15227923138E+02  0.51100000000E-03 0. -1.
        -11    1    3    3    0    0 -0.14898742441E+02  0.11536201482E+02 -0.20063603352E+02  0.27524618992E+02  0.51100000000E-03 0.  1.
        -12    1    3    3    0    0  0.30359802320E+01 -0.12555884353E+02 -0.10344751436E+02  0.16549359206E+02  0.00000000000E+00 0.  1.
</event>
<event>
 7    1  0.7749294E-012  0.5930194E+02  0.7816164E-02  0.1266605E+00
        -11   -1    0    0    0    0  0.00000000000E+00  0.00000000000E+00  0.45593999997E+02  0.45594000000E+02  0.51100000000E-03 0. -1.
         11   -1    0    0    0    0 -0.00000000000E+00 -0.00000000000E+00 -0.45593999997E+02  0.45594000000E+02  0.51100000000E-03 0.  1.
    9900012    2    1    2    0    0 -0.21077785654E+02  0.16665389949E+02 -0.17167186678E+02  0.59301943977E+02  0.49999999908E+02 0.  0.
         12    1    1    2    0    0  0.21077785654E+02 -0.16665389949E+02  0.17167186678E+02  0.31886056023E+02  0.00000000000E+00 0. -1.
         11    1    3    3    0    0  0.17499982145E+01 -0.96985317761E+01 -0.10607839354E+01  0.99120772385E+01  0.51100000000E-03 0. -1.
        -11    1    3    3    0    0 -0.24789714067E+02  0.80400647648E+01 -0.16698485250E+02  0.30951768526E+02  0.51100000000E-03 0.  1.
        -12    1    3    3    0    0  0.19619301985E+01  0.18323856961E+02  0.59208250765E+00  0.18438098213E+02  0.00000000000E+00 0.  1.
</event>
<event>
 7    1  0.7749294E-012  0.5930190E+02  0.7816164E-02  0.1266605E+00
        -11   -1    0    0    0    0  0.00000000000E+00  0.00000000000E+00  0.45593999997E+02  0.45594000000E+02  0.51100000000E-03 0. -1.
         11   -1    0    0    0    0 -0.00000000000E+00 -0.00000000000E+00 -0.45593999997E+02  0.45594000000E+02  0.51100000000E-03 0.  1.
    9900012    2    1    2    0    0 -0.25825449259E+02  0.85415283253E+01 -0.16637669246E+02  0.59301896859E+02  0.49999913975E+02 0.  0.
         12    1    1    2    0    0  0.25825449259E+02 -0.85415283253E+01  0.16637669246E+02  0.31886103141E+02  0.00000000000E+00 0. -1.
         11    1    3    3    0    0  0.62817426985E+01  0.11453697319E+02  0.66194085054E+00  0.13079970931E+02  0.51100000000E-03 0. -1.
        -11    1    3    3    0    0 -0.19060699353E+02  0.79870475962E+01 -0.20288832093E+02  0.28961006493E+02  0.51100000000E-03 0.  1.
         12    1    3    3    0    0 -0.13046492605E+02 -0.10899216590E+02  0.29892219963E+01  0.17260919434E+02  0.00000000000E+00 0. -1.
</event>
<event>
 7    1  0.7749294E-012  0.5930199E+02  0.7816164E-02  0.1266605E+00
        -11   -1    0    0    0    0  0.00000000000E+00  0.00000000000E+00  0.45593999997E+02  0.45594000000E+02  0.51100000000E-03 0.  1.
         11   -1    0    0    0    0 -0.00000000000E+00 -0.00000000000E+00 -0.45593999997E+02  0.45594000000E+02  0.51100000000E-03 0. -1.
    9900012    2    1    2    0    0  0.29267785442E+01 -0.25109617813E+02  0.19433443751E+02  0.59301989347E+02  0.50000082651E+02 0.  0.
         12    1    1    2    0    0 -0.29267785442E+01  0.25109617813E+02 -0.19433443751E+02  0.31886010653E+02  0.00000000000E+00 0. -1.
         11    1    3    3    0    0 -0.18671462050E+00  0.62399642879E+01 -0.99901465930E+01  0.11780282080E+02  0.51100000000E-03 0. -1.
        -11    1    3    3    0    0  0.85982544411E+01 -0.11069081094E+02  0.20177588847E+02  0.24568061129E+02  0.51100000000E-03 0.  1.
        -12    1    3    3    0    0 -0.54847612764E+01 -0.20280501007E+02  0.92460014963E+01  0.22953646138E+02  0.00000000000E+00 0.  1.
</event>
<event>
 7    1  0.7749294E-012  0.5930191E+02  0.7816164E-02  0.1266605E+00
        -11   -1    0    0    0    0  0.00000000000E+00  0.00000000000E+00  0.45593999997E+02  0.45594000000E+02  0.51100000000E-03 0.  1.
         11   -1    0    0    0    0 -0.00000000000E+00 -0.00000000000E+00 -0.45593999997E+02  0.45594000000E+02  0.51100000000E-03 0. -1.
    9900012    2    1    2    0    0 -0.25550674957E+02  0.46631640329E+01  0.18497050683E+02  0.59301906267E+02  0.49999931134E+02 0.  0.
         12    1    1    2    0    0  0.25550674957E+02 -0.46631640329E+01 -0.18497050683E+02  0.31886093733E+02  0.00000000000E+00 0. -1.
         11    1    3    3    0    0 -0.68950945398E+01 -0.70723804644E+01 -0.12400616854E+02  0.15853586117E+02  0.51100000000E-03 0. -1.
        -11    1    3    3    0    0 -0.60666184138E+01 -0.38144450174E+01  0.18675912605E+02  0.20003588719E+02  0.51100000000E-03 0.  1.
         12    1    3    3    0    0 -0.12588962004E+02  0.15549989515E+02  0.12221754932E+02  0.23444731431E+02  0.00000000000E+00 0. -1.
</event>
<event>
 7    1  0.7749294E-012  0.5930193E+02  0.7816164E-02  0.1266605E+00
        -11   -1    0    0    0    0  0.00000000000E+00  0.00000000000E+00  0.45593999997E+02  0.45594000000E+02  0.51100000000E-03 0. -1.
         11   -1    0    0    0    0 -0.00000000000E+00 -0.00000000000E+00 -0.45593999997E+02  0.45594000000E+02  0.51100000000E-03 0.  1.
    9900012    2    1    2    0    0 -0.13815801335E+02  0.23194939053E+02 -0.16965838197E+02  0.59301933609E+02  0.49999980998E+02 0.  0.
         12    1    1    2    0    0  0.13815801335E+02 -0.23194939053E+02  0.16965838197E+02  0.31886066391E+02  0.00000000000E+00 0. -1.
         11    1    3    3    0    0 -0.36453568027E+01  0.15329441947E+02  0.15850235774E+01  0.15836436362E+02  0.51100000000E-03 0. -1.
        -11    1    3    3    0    0  0.19796095451E+01 -0.12563437801E+02 -0.14612808604E+02  0.19372480453E+02  0.51100000000E-03 0.  1.
        -12    1    3    3    0    0 -0.12150054077E+02  0.20428934906E+02 -0.39380531695E+01  0.24093016794E+02  0.00000000000E+00 0.  1.
</event>
<event>
 7    1  0.7749294E-012  0.5930192E+02  0.7816164E-02  0.1266605E+00
        -11   -1    0    0    0    0  0.00000000000E+00  0.00000000000E+00  0.45593999997E+02  0.45594000000E+02  0.51100000000E-03 0.  1.
         11   -1    0    0    0    0 -0.00000000000E+00 -0.00000000000E+00 -0.45593999997E+02  0.45594000000E+02  0.51100000000E-03 0. -1.
    9900012    2    1    2    0    0  0.22481909144E+02 -0.21149399778E+02  0.79992833180E+01  0.59301923363E+02  0.49999962312E+02 0.  0.
         12    1    1    2    0    0 -0.22481909144E+02  0.21149399778E+02 -0.79992833180E+01  0.31886076637E+02  0.00000000000E+00 0. -1.
         11    1    3    3    0    0  0.11578742222E+02 -0.16864572799E+02  0.12668238273E+02  0.24061698783E+02  0.51100000000E-03 0.  1.
        -11    1    3    3    0    0 -0.10653186632E+02 -0.36288970627E+01 -0.74479239772E+01  0.13495586358E+02  0.51100000000E-03 0. -1.
        -12    1    3    3    0    0  0.21556353553E+02 -0.65592991617E+00  0.27789690219E+01  0.21744638222E+02  0.00000000000E+00 0.  1.
</event>
<event>
 7    1  0.7749294E-012  0.5930193E+02  0.7816164E-02  0.1266605E+00
        -11   -1    0    0    0    0  0.00000000000E+00  0.00000000000E+00  0.45593999997E+02  0.45594000000E+02  0.51100000000E-03 0.  1.
         11   -1    0    0    0    0 -0.00000000000E+00 -0.00000000000E+00 -0.45593999997E+02  0.45594000000E+02  0.51100000000E-03 0. -1.
    9900012    2    1    2    0    0 -0.28390566966E+02  0.14509531117E+02  0.41286686036E+00  0.59301933373E+02  0.49999980568E+02 0.  0.
         12    1    1    2    0    0  0.28390566966E+02 -0.14509531117E+02 -0.41286686036E+00  0.31886066627E+02  0.00000000000E+00 0. -1.
         11    1    3    3    0    0 -0.80473695691E+01 -0.11304656508E+02 -0.11545868405E+02  0.18051661786E+02  0.51100000000E-03 0. -1.
        -11    1    3    3    0    0 -0.21229821289E+02  0.97609754722E+01  0.62309000162E+01  0.24182763891E+02  0.51100000000E-03 0.  1.
        -12    1    3    3    0    0  0.88662389162E+00  0.16053212152E+02  0.57278352493E+01  0.17067507696E+02  0.00000000000E+00 0.  1.
</event>
<event>
 7    1  0.7749294E-012  0.5930196E+02  0.7816164E-02  0.1266605E+00
        -11   -1    0    0    0    0  0.00000000000E+00  0.00000000000E+00  0.45593999997E+02  0.45594000000E+02  0.51100000000E-03 0.  1.
         11   -1    0    0    0    0 -0.00000000000E+00 -0.00000000000E+00 -0.45593999997E+02  0.45594000000E+02  0.51100000000E-03 0. -1.
    9900012    2    1    2    0    0 -0.21417420705E+02  0.23591170713E+02 -0.12126585358E+01  0.59301956251E+02  0.50000022292E+02 0.  0.
         12    1    1    2    0    0  0.21417420705E+02 -0.23591170713E+02  0.12126585358E+01  0.31886043749E+02  0.00000000000E+00 0. -1.
         11    1    3    3    0    0 -0.23428472127E+02  0.71527308184E+01 -0.59089738661E+01  0.25198627676E+02  0.51100000000E-03 0. -1.
        -11    1    3    3    0    0  0.88776647014E+01  0.20893920712E+02  0.95034848960E+01  0.24610670017E+02  0.51100000000E-03 0.  1.
        -12    1    3    3    0    0 -0.68666132796E+01 -0.44554808176E+01 -0.48071695657E+01  0.94926585571E+01  0.00000000000E+00 0.  1.
</event>
<event>
 7    1  0.7749294E-012  0.5930194E+02  0.7816164E-02  0.1266605E+00
        -11   -1    0    0    0    0  0.00000000000E+00  0.00000000000E+00  0.45593999997E+02  0.45594000000E+02  0.51100000000E-03 0.  1.
         11   -1    0    0    0    0 -0.00000000000E+00 -0.00000000000E+00 -0.45593999997E+02  0.45594000000E+02  0.51100000000E-03 0. -1.
    9900012    2    1    2    0    0 -0.19500909388E+02  0.59466521222E+01  0.24516786023E+02  0.59301938228E+02  0.49999989424E+02 0.  0.
         12    1    1    2    0    0  0.19500909388E+02 -0.59466521222E+01 -0.24516786023E+02  0.31886061772E+02  0.00000000000E+00 0. -1.
         11    1    3    3    0    0  0.58703117852E+01  0.17866790001E+02  0.12475585037E+02  0.22568184856E+02  0.51100000000E-03 0. -1.
        -11    1    3    3    0    0 -0.19064704839E+02 -0.12946773645E+02  0.17007187816E+02  0.28641339984E+02  0.51100000000E-03 0.  1.
         12    1    3    3    0    0 -0.63065163340E+01  0.10266357661E+01 -0.49659868299E+01  0.80924133892E+01  0.00000000000E+00 0. -1.
</event>
<event>
 7    1  0.7749294E-012  0.5930183E+02  0.7816164E-02  0.1266605E+00
        -11   -1    0    0    0    0  0.00000000000E+00  0.00000000000E+00  0.45593999997E+02  0.45594000000E+02  0.51100000000E-03 0.  1.
         11   -1    0    0    0    0 -0.00000000000E+00 -0.00000000000E+00 -0.45593999997E+02  0.45594000000E+02  0.51100000000E-03 0. -1.
    9900012    2    1    2    0    0  0.17989823233E+02 -0.76903830487E+01  0.25178406531E+02  0.59301829223E+02  0.49999790623E+02 0.  0.
         12    1    1    2    0    0 -0.17989823233E+02  0.76903830487E+01 -0.25178406531E+02  0.31886170777E+02  0.00000000000E+00 0. -1.
         11    1    3    3    0    0  0.16811387154E+02 -0.22991494572E+02  0.20563705619E+02  0.35129724590E+02  0.51100000000E-03 0.  1.
        -11    1    3    3    0    0  0.69922307506E+01  0.82694702457E+01 -0.40765369443E+01  0.11571239464E+02  0.51100000000E-03 0. -1.
         12    1    3    3    0    0 -0.58137946718E+01  0.70316412775E+01  0.86912378563E+01  0.12600865169E+02  0.00000000000E+00 0. -1.
</event>
<event>
 7    1  0.7749294E-012  0.5930188E+02  0.7816164E-02  0.1266605E+00
        -11   -1    0    0    0    0  0.00000000000E+00  0.00000000000E+00  0.45593999997E+02  0.45594000000E+02  0.51100000000E-03 0.  1.
         11   -1    0    0    0    0 -0.00000000000E+00 -0.00000000000E+00 -0.45593999997E+02  0.45594000000E+02  0.51100000000E-03 0. -1.
    9900012    2    1    2    0    0 -0.17739745735E+02 -0.22297099035E+02  0.14313115044E+02  0.59301882859E+02  0.49999888442E+02 0.  0.
         12    1    1    2    0    0  0.17739745735E+02  0.22297099035E+02 -0.14313115044E+02  0.31886117141E+02  0.00000000000E+00 0. -1.
         11    1    3    3    0    0  0.11544716791E+02 -0.59448684379E+01  0.53192971880E+01  0.14032707129E+02  0.51100000000E-03 0. -1.
        -11    1    3    3    0    0 -0.31232815396E+02 -0.52024099261E+01  0.11480985239E+02  0.33680362956E+02  0.51100000000E-03 0.  1.
        -12    1    3    3    0    0  0.19483528695E+01 -0.11149820671E+02 -0.24871673824E+01  0.11588812773E+02  0.00000000000E+00 0.  1.
</event>
<event>
 7    1  0.7749294E-012  0.5930192E+02  0.7816164E-02  0.1266605E+00
        -11   -1    0    0    0    0  0.00000000000E+00  0.00000000000E+00  0.45593999997E+02  0.45594000000E+02  0.51100000000E-03 0. -1.
         11   -1    0    0    0    0 -0.00000000000E+00 -0.00000000000E+00 -0.45593999997E+02  0.45594000000E+02  0.51100000000E-03 0.  1.
    9900012    2    1    2    0    0 -0.30311427921E+02  0.96484445559E+01 -0.22015185843E+01  0.59301924214E+02  0.49999963865E+02 0.  0.
         12    1    1    2    0    0  0.30311427921E+02 -0.96484445559E+01  0.22015185843E+01  0.31886075786E+02  0.00000000000E+00 0. -1.
         11    1    3    3    0    0 -0.22945673743E+01  0.12387933919E+02  0.27627293517E+01  0.12898008371E+02  0.51100000000E-03 0. -1.
        -11    1    3    3    0    0 -0.28154649910E+02 -0.11185596193E+02  0.76279797681E+01  0.31240805837E+02  0.51100000000E-03 0.  1.
        -12    1    3    3    0    0  0.13778936330E+00  0.84461068304E+01 -0.12592227704E+02  0.15163110006E+02  0.00000000000E+00 0.  1.
</event>
<event>
 7    1  0.7749294E-012  0.5930195E+02  0.7816164E-02  0.1266605E+00
        -11   -1    0    0    0    0  0.00000000000E+00  0.00000000000E+00  0.45593999997E+02  0.45594000000E+02  0.51100000000E-03 0.  1.
         11   -1    0    0    0    0 -0.00000000000E+00 -0.00000000000E+00 -0.45593999997E+02  0.45594000000E+02  0.51100000000E-03 0. -1.
    9900012    2    1    2    0    0  0.14254293810E+02 -0.24548874850E+02  0.14521986355E+02  0.59301949193E+02  0.50000009420E+02 0.  0.
         12    1    1    2    0    0 -0.14254293810E+02  0.24548874850E+02 -0.14521986355E+02  0.31886050807E+02  0.00000000000E+00 0. -1.
         11    1    3    3    0    0 -0.10938858553E+02 -0.62497394119E+01 -0.38848592384E+00  0.12604316354E+02  0.51100000000E-03 0. -1.
        -11    1    3    3    0    0  0.15334178270E+02 -0.18478615628E+02 -0.49560904678E+01  0.24518545873E+02  0.51100000000E-03 0.  1.
        -12    1    3    3    0    0  0.98589740927E+01  0.17948019035E+00  0.19866562746E+02  0.22179086966E+02  0.00000000000E+00 0.  1.
</event>
<event>
 7    1  0.7749294E-012  0.5930194E+02  0.7816164E-02  0.1266605E+00
        -11   -1    0    0    0    0  0.00000000000E+00  0.00000000000E+00  0.45593999997E+02  0.45594000000E+02  0.51100000000E-03 0. -1.
         11   -1    0    0    0    0 -0.00000000000E+00 -0.00000000000E+00 -0.45593999997E+02  0.45594000000E+02  0.51100000000E-03 0.  1.
    9900012    2    1    2    0    0 -0.11106333106E+02 -0.92671767256E+01 -0.28416360275E+02  0.59301941435E+02  0.49999995271E+02 0.  0.
         12    1    1    2    0    0  0.11106333106E+02  0.92671767256E+01  0.28416360275E+02  0.31886058565E+02  0.00000000000E+00 0. -1.
         11    1    3    3    0    0  0.32347109471E+01 -0.15414204653E+02  0.42121598060E+01  0.16303476638E+02  0.51100000000E-03 0. -1.
        -11    1    3    3    0    0 -0.26160655435E+01  0.98917406653E+01 -0.28063788144E+02  0.29870830882E+02  0.51100000000E-03 0.  1.
         12    1    3    3    0    0 -0.11724978510E+02 -0.37447127379E+01 -0.45647319368E+01  0.13127633915E+02  0.00000000000E+00 0. -1.
</event>
<event>
 7    1  0.7749294E-012  0.5930194E+02  0.7816164E-02  0.1266605E+00
        -11   -1    0    0    0    0  0.00000000000E+00  0.00000000000E+00  0.45593999997E+02  0.45594000000E+02  0.51100000000E-03 0.  1.
         11   -1    0    0    0    0 -0.00000000000E+00 -0.00000000000E+00 -0.45593999997E+02  0.45594000000E+02  0.51100000000E-03 0. -1.
    9900012    2    1    2    0    0 -0.31723962786E+02  0.26071999489E+01  0.18745054725E+01  0.59301936004E+02  0.49999985366E+02 0.  0.
         12    1    1    2    0    0  0.31723962786E+02 -0.26071999489E+01 -0.18745054725E+01  0.31886063996E+02  0.00000000000E+00 0. -1.
         11    1    3    3    0    0 -0.61423662593E+01  0.53617856559E+01 -0.18960848858E+02  0.20639554219E+02  0.51100000000E-03 0. -1.
        -11    1    3    3    0    0 -0.27001934470E+02 -0.54623912368E+01  0.22135147811E+02  0.35339877646E+02  0.51100000000E-03 0.  1.
        -12    1    3    3    0    0  0.14203379436E+01  0.27078055297E+01 -0.12997934799E+01  0.33225041386E+01  0.00000000000E+00 0.  1.
</event>
<event>
 7    1  0.7749294E-012  0.5930235E+02  0.7816164E-02  0.1266603E+00
        -11   -1    0    0    0    0  0.00000000000E+00  0.00000000000E+00  0.45593999997E+02  0.45594000000E+02  0.51100000000E-03 0.  1.
         11   -1    0    0    0    0 -0.00000000000E+00 -0.00000000000E+00 -0.45593999997E+02  0.45594000000E+02  0.51100000000E-03 0. -1.
    9900012    2    1    2    0    0 -0.57219320669E+01 -0.30363982681E+02  0.78729083251E+01  0.59302350621E+02  0.50000741522E+02 0.  0.
         12    1    1    2    0    0  0.57219320669E+01  0.30363982681E+02 -0.78729083251E+01  0.31885649379E+02  0.00000000000E+00 0. -1.
         11    1    3    3    0    0 -0.18154346962E+02 -0.10881035908E+02 -0.57950801409E+01  0.21944480175E+02  0.51100000000E-03 0. -1.
        -11    1    3    3    0    0  0.14552089062E+01  0.19995428333E+01  0.12990455256E+02  0.13223756369E+02  0.51100000000E-03 0.  1.
         12    1    3    3    0    0  0.10977205989E+02 -0.21482489607E+02  0.67753321041E+00  0.24134114077E+02  0.00000000000E+00 0. -1.
</event>
<event>
 7    1  0.7749294E-012  0.5930196E+02  0.7816164E-02  0.1266605E+00
        -11   -1    0    0    0    0  0.00000000000E+00  0.00000000000E+00  0.45593999997E+02  0.45594000000E+02  0.51100000000E-03 0.  1.
         11   -1    0    0    0    0 -0.00000000000E+00 -0.00000000000E+00 -0.45593999997E+02  0.45594000000E+02  0.51100000000E-03 0. -1.
    9900012    2    1    2    0    0  0.29739738628E+02  0.11445075740E+02  0.11303649276E+01  0.59301960152E+02  0.50000029406E+02 0.  0.
         12    1    1    2    0    0 -0.29739738628E+02 -0.11445075740E+02 -0.11303649276E+01  0.31886039848E+02  0.00000000000E+00 0. -1.
         11    1    3    3    0    0 -0.89825443681E+00  0.67217743689E+01  0.24013385639E+01  0.71941322520E+01  0.51100000000E-03 0. -1.
        -11    1    3    3    0    0  0.30885689930E+02  0.64988308048E+01 -0.17290838486E+02  0.35987966601E+02  0.51100000000E-03 0.  1.
        -12    1    3    3    0    0 -0.24769686522E+00 -0.17755294338E+01  0.16019864849E+02  0.16119861299E+02  0.00000000000E+00 0.  1.
</event>
<event>
 7    1  0.7749294E-012  0.5930194E+02  0.7816164E-02  0.1266605E+00
        -11   -1    0    0    0    0  0.00000000000E+00  0.00000000000E+00  0.45593999997E+02  0.45594000000E+02  0.51100000000E-03 0. -1.
         11   -1    0    0    0    0 -0.00000000000E+00 -0.00000000000E+00 -0.45593999997E+02  0.45594000000E+02  0.51100000000E-03 0.  1.
    9900012    2    1    2    0    0  0.20171964790E+02 -0.24135877442E+02 -0.52222692918E+01  0.59301939724E+02  0.49999992151E+02 0.  0.
         12    1    1    2    0    0 -0.20171964790E+02  0.24135877442E+02  0.52222692918E+01  0.31886060276E+02  0.00000000000E+00 0. -1.
         11    1    3    3    0    0 -0.14416219027E+02 -0.61786901490E+01 -0.30247803093E+01  0.15973505538E+02  0.51100000000E-03 0. -1.
        -11    1    3    3    0    0  0.14015883168E+02 -0.69160121277E+00 -0.75616701663E+01  0.15940581834E+02  0.51100000000E-03 0.  1.
         12    1    3    3    0    0  0.20572300649E+02 -0.17265586080E+02  0.53641811838E+01  0.27387852352E+02  0.00000000000E+00 0. -1.
</event>
<event>
 7    1  0.7749294E-012  0.5930196E+02  0.7816164E-02  0.1266605E+00
        -11   -1    0    0    0    0  0.00000000000E+00  0.00000000000E+00  0.45593999997E+02  0.45594000000E+02  0.51100000000E-03 0. -1.
         11   -1    0    0    0    0 -0.00000000000E+00 -0.00000000000E+00 -0.45593999997E+02  0.45594000000E+02  0.51100000000E-03 0.  1.
    9900012    2    1    2    0    0 -0.18961854611E+02 -0.27040562706E+01 -0.25492267935E+02  0.59301959557E+02  0.50000028323E+02 0.  0.
         12    1    1    2    0    0  0.18961854611E+02  0.27040562706E+01  0.25492267935E+02  0.31886040443E+02  0.00000000000E+00 0. -1.
         11    1    3    3    0    0 -0.16287460078E+02  0.19258704623E+02 -0.65350116040E+01  0.26055430076E+02  0.51100000000E-03 0. -1.
        -11    1    3    3    0    0 -0.72279920326E+01 -0.31018659885E+01 -0.63350345872E+01  0.10099411117E+02  0.51100000000E-03 0.  1.
         12    1    3    3    0    0  0.45535974996E+01 -0.18860894905E+02 -0.12622221744E+02  0.23147118364E+02  0.00000000000E+00 0. -1.
</event>
<event>
 7    1  0.7749294E-012  0.5930194E+02  0.7816164E-02  0.1266605E+00
        -11   -1    0    0    0    0  0.00000000000E+00  0.00000000000E+00  0.45593999997E+02  0.45594000000E+02  0.51100000000E-03 0. -1.
         11   -1    0    0    0    0 -0.00000000000E+00 -0.00000000000E+00 -0.45593999997E+02  0.45594000000E+02  0.51100000000E-03 0.  1.
    9900012    2    1    2    0    0 -0.40346003100E+01 -0.17497007766E+02 -0.26349527422E+02  0.59301939162E+02  0.49999991125E+02 0.  0.
         12    1    1    2    0    0  0.40346003100E+01  0.17497007766E+02  0.26349527422E+02  0.31886060838E+02  0.00000000000E+00 0. -1.
         11    1    3    3    0    0 -0.46247356921E+01 -0.21289337371E+02 -0.32565849516E+02  0.39181100302E+02  0.51100000000E-03 0. -1.
        -11    1    3    3    0    0  0.87075704213E+00  0.84205921755E+01 -0.36503387946E+01  0.92189784677E+01  0.51100000000E-03 0.  1.
         12    1    3    3    0    0 -0.28062165999E+00 -0.46282625699E+01  0.98666608879E+01  0.10901860392E+02  0.00000000000E+00 0. -1.
</event>
<event>
 7    1  0.7749294E-012  0.5930194E+02  0.7816164E-02  0.1266605E+00
        -11   -1    0    0    0    0  0.00000000000E+00  0.00000000000E+00  0.45593999997E+02  0.45594000000E+02  0.51100000000E-03 0.  1.
         11   -1    0    0    0    0 -0.00000000000E+00 -0.00000000000E+00 -0.45593999997E+02  0.45594000000E+02  0.51100000000E-03 0. -1.
    9900012    2    1    2    0    0  0.78537789689E+01 -0.20779126959E+02  0.22875031788E+02  0.59301936578E+02  0.49999986413E+02 0.  0.
         12    1    1    2    0    0 -0.78537789689E+01  0.20779126959E+02 -0.22875031788E+02  0.31886063422E+02  0.00000000000E+00 0. -1.
         11    1    3    3    0    0 -0.21861908259E+00 -0.84181893826E+00 -0.79891502880E+01  0.80363534027E+01  0.51100000000E-03 0. -1.
        -11    1    3    3    0    0 -0.14511048616E+01 -0.20289850944E+02  0.35309495450E+02  0.40749775776E+02  0.51100000000E-03 0.  1.
        -12    1    3    3    0    0  0.95235029131E+01  0.35254292306E+00 -0.44453133738E+01  0.10515807398E+02  0.00000000000E+00 0.  1.
</event>
<event>
 7    1  0.7749294E-012  0.5930191E+02  0.7816164E-02  0.1266605E+00
        -11   -1    0    0    0    0  0.00000000000E+00  0.00000000000E+00  0.45593999997E+02  0.45594000000E+02  0.51100000000E-03 0. -1.
         11   -1    0    0    0    0 -0.00000000000E+00 -0.00000000000E+00 -0.45593999997E+02  0.45594000000E+02  0.51100000000E-03 0.  1.
    9900012    2    1    2    0    0 -0.18407161156E+02  0.22073442307E+02  0.13808049094E+02  0.59301911233E+02  0.49999940190E+02 0.  0.
         12    1    1    2    0    0  0.18407161156E+02 -0.22073442307E+02 -0.13808049094E+02  0.31886088767E+02  0.00000000000E+00 0. -1.
         11    1    3    3    0    0  0.95149610676E+01  0.10796202874E+02  0.18896572170E+02  0.23752324531E+02  0.51100000000E-03 0. -1.
        -11    1    3    3    0    0 -0.11191172892E+02  0.12975523027E+02  0.20952093495E+01  0.17262573707E+02  0.51100000000E-03 0.  1.
         12    1    3    3    0    0 -0.16730949332E+02 -0.16982835945E+01 -0.71837324250E+01  0.18287012994E+02  0.00000000000E+00 0. -1.
</event>
<event>
 7    1  0.7749294E-012  0.5930195E+02  0.7816164E-02  0.1266605E+00
        -11   -1    0    0    0    0  0.00000000000E+00  0.00000000000E+00  0.45593999997E+02  0.45594000000E+02  0.51100000000E-03 0.  1.
         11   -1    0    0    0    0 -0.00000000000E+00 -0.00000000000E+00 -0.45593999997E+02  0.45594000000E+02  0.51100000000E-03 0. -1.
    9900012    2    1    2    0    0  0.60536934324E+01 -0.13929489501E+02  0.28036449031E+02  0.59301947309E+02  0.50000005984E+02 0.  0.
         12    1    1    2    0    0 -0.60536934324E+01  0.13929489501E+02 -0.28036449031E+02  0.31886052691E+02  0.00000000000E+00 0. -1.
         11    1    3    3    0    0  0.27873191319E+01  0.14840631960E+02  0.64775138589E+01  0.16430815286E+02  0.51100000000E-03 0. -1.
        -11    1    3    3    0    0  0.12344346155E+02 -0.14910726076E+02  0.16806056370E+02  0.25635057345E+02  0.51100000000E-03 0.  1.
         12    1    3    3    0    0 -0.90779718543E+01 -0.13859395384E+02  0.47528788030E+01  0.17236074679E+02  0.00000000000E+00 0. -1.
</event>
<event>
 7    1  0.7749294E-012  0.5930194E+02  0.7816164E-02  0.1266605E+00
        -11   -1    0    0    0    0  0.00000000000E+00  0.00000000000E+00  0.45593999997E+02  0.45594000000E+02  0.51100000000E-03 0.  1.
         11   -1    0    0    0    0 -0.00000000000E+00 -0.00000000000E+00 -0.45593999997E+02  0.45594000000E+02  0.51100000000E-03 0. -1.
    9900012    2    1    2    0    0  0.24536702315E+02  0.16394084026E+02 -0.12079127869E+02  0.59301935934E+02  0.49999985239E+02 0.  0.
         12    1    1    2    0    0 -0.24536702315E+02 -0.16394084026E+02  0.12079127869E+02  0.31886064066E+02  0.00000000000E+00 0. -1.
         11    1    3    3    0    0  0.12291124490E+02  0.11822070588E+01 -0.83851347051E+01  0.14925811168E+02  0.51100000000E-03 0. -1.
        -11    1    3    3    0    0 -0.61891981874E+01  0.44763179299E+01  0.14467102280E+02  0.16359726314E+02  0.51100000000E-03 0.  1.
        -12    1    3    3    0    0  0.18434776013E+02  0.10735559037E+02 -0.18161095444E+02  0.28016398452E+02  0.00000000000E+00 0.  1.
</event>
<event>
 7    1  0.7749294E-012  0.5930198E+02  0.7816164E-02  0.1266605E+00
        -11   -1    0    0    0    0  0.00000000000E+00  0.00000000000E+00  0.45593999997E+02  0.45594000000E+02  0.51100000000E-03 0. -1.
         11   -1    0    0    0    0 -0.00000000000E+00 -0.00000000000E+00 -0.45593999997E+02  0.45594000000E+02  0.51100000000E-03 0.  1.
    9900012    2    1    2    0    0 -0.28009333096E+02  0.14068119212E+02 -0.58552347575E+01  0.59301976530E+02  0.50000059277E+02 0.  0.
         12    1    1    2    0    0  0.28009333096E+02 -0.14068119212E+02  0.58552347575E+01  0.31886023470E+02  0.00000000000E+00 0. -1.
         11    1    3    3    0    0  0.77627195226E+01  0.13169100339E+02  0.39422807597E+01  0.15786912173E+02  0.51100000000E-03 0. -1.
        -11    1    3    3    0    0 -0.17651370046E+02 -0.12027455801E+01 -0.16390796812E+02  0.24117953516E+02  0.51100000000E-03 0.  1.
         12    1    3    3    0    0 -0.18120682573E+02  0.21017644533E+01  0.65932812947E+01  0.19397110840E+02  0.00000000000E+00 0. -1.
</event>
<event>
 7    1  0.7749294E-012  0.5930195E+02  0.7816164E-02  0.1266605E+00
        -11   -1    0    0    0    0  0.00000000000E+00  0.00000000000E+00  0.45593999997E+02  0.45594000000E+02  0.51100000000E-03 0.  1.
         11   -1    0    0    0    0 -0.00000000000E+00 -0.00000000000E+00 -0.45593999997E+02  0.45594000000E+02  0.51100000000E-03 0. -1.
    9900012    2    1    2    0    0  0.27220547610E+02  0.16647298299E+01 -0.16522420951E+02  0.59301953966E+02  0.50000018125E+02 0.  0.
         12    1    1    2    0    0 -0.27220547610E+02 -0.16647298299E+01  0.16522420951E+02  0.31886046034E+02  0.00000000000E+00 0. -1.
         11    1    3    3    0    0  0.17940069761E+02  0.13874367285E+02 -0.24551675120E+02  0.33423478605E+02  0.51100000000E-03 0.  1.
        -11    1    3    3    0    0  0.43114936246E+01 -0.17046599174E+02  0.67066248107E+01  0.18818988743E+02  0.51100000000E-03 0. -1.
        -12    1    3    3    0    0  0.49689842240E+01  0.48369617189E+01  0.13226293582E+01  0.70594866179E+01  0.00000000000E+00 0.  1.
</event>
<event>
 7    1  0.7749294E-012  0.5930195E+02  0.7816164E-02  0.1266605E+00
        -11   -1    0    0    0    0  0.00000000000E+00  0.00000000000E+00  0.45593999997E+02  0.45594000000E+02  0.51100000000E-03 0.  1.
         11   -1    0    0    0    0 -0.00000000000E+00 -0.00000000000E+00 -0.45593999997E+02  0.45594000000E+02  0.51100000000E-03 0. -1.
    9900012    2    1    2    0    0 -0.20297370056E+02 -0.21231494215E+02  0.12408080703E+02  0.59301952197E+02  0.50000014898E+02 0.  0.
         12    1    1    2    0    0  0.20297370056E+02  0.21231494215E+02 -0.12408080703E+02  0.31886047803E+02  0.00000000000E+00 0. -1.
         11    1    3    3    0    0 -0.14648753739E+02 -0.44073991634E+01  0.48791490076E+01  0.16056688600E+02  0.51100000000E-03 0. -1.
        -11    1    3    3    0    0  0.18183109284E+00 -0.24268754806E+02 -0.75761546030E+01  0.25424469340E+02  0.51100000000E-03 0.  1.
        -12    1    3    3    0    0 -0.58304474101E+01  0.74446597546E+01  0.15105086299E+02  0.17820794257E+02  0.00000000000E+00 0.  1.
</event>
<event>
 7    1  0.7749294E-012  0.5930194E+02  0.7816164E-02  0.1266605E+00
        -11   -1    0    0    0    0  0.00000000000E+00  0.00000000000E+00  0.45593999997E+02  0.45594000000E+02  0.51100000000E-03 0.  1.
         11   -1    0    0    0    0 -0.00000000000E+00 -0.00000000000E+00 -0.45593999997E+02  0.45594000000E+02  0.51100000000E-03 0. -1.
    9900012    2    1    2    0    0  0.19330670441E+02  0.19889090849E+01  0.25280228994E+02  0.59301944160E+02  0.50000000241E+02 0.  0.
         12    1    1    2    0    0 -0.19330670441E+02 -0.19889090849E+01 -0.25280228994E+02  0.31886055840E+02  0.00000000000E+00 0. -1.
         11    1    3    3    0    0  0.71788913316E+01 -0.12316979229E+02 -0.22592599021E+01  0.14434289510E+02  0.51100000000E-03 0. -1.
        -11    1    3    3    0    0  0.39332538770E+01  0.21775107275E+02  0.25167479459E+02  0.33511607026E+02  0.51100000000E-03 0.  1.
        -12    1    3    3    0    0  0.82185252323E+01 -0.74692189604E+01  0.23720094374E+01  0.11356047624E+02  0.00000000000E+00 0.  1.
</event>
<event>
 7    1  0.7749294E-012  0.5930197E+02  0.7816164E-02  0.1266605E+00
        -11   -1    0    0    0    0  0.00000000000E+00  0.00000000000E+00  0.45593999997E+02  0.45594000000E+02  0.51100000000E-03 0.  1.
         11   -1    0    0    0    0 -0.00000000000E+00 -0.00000000000E+00 -0.45593999997E+02  0.45594000000E+02  0.51100000000E-03 0. -1.
    9900012    2    1    2    0    0 -0.26268343482E+01 -0.17829358633E+02  0.26304615682E+02  0.59301967099E+02  0.50000042077E+02 0.  0.
         12    1    1    2    0    0  0.26268343482E+01  0.17829358633E+02 -0.26304615682E+02  0.31886032901E+02  0.00000000000E+00 0. -1.
         11    1    3    3    0    0  0.22434664110E+02 -0.28308045348E+01  0.10300018425E+02  0.24847897051E+02  0.51100000000E-03 0. -1.
        -11    1    3    3    0    0 -0.81998765717E+00 -0.24443061237E+00  0.32147423597E+01  0.33266642125E+01  0.51100000000E-03 0.  1.
         12    1    3    3    0    0 -0.24241510801E+02 -0.14754123486E+02  0.12789854897E+02  0.31127405836E+02  0.00000000000E+00 0. -1.
</event>
<event>
 7    1  0.7749294E-012  0.5930194E+02  0.7816164E-02  0.1266605E+00
        -11   -1    0    0    0    0  0.00000000000E+00  0.00000000000E+00  0.45593999997E+02  0.45594000000E+02  0.51100000000E-03 0. -1.
         11   -1    0    0    0    0 -0.00000000000E+00 -0.00000000000E+00 -0.45593999997E+02  0.45594000000E+02  0.51100000000E-03 0.  1.
    9900012    2    1    2    0    0  0.63026302944E+01  0.23132822998E+02 -0.21020708198E+02  0.59301940010E+02  0.49999992673E+02 0.  0.
         12    1    1    2    0    0 -0.63026302944E+01 -0.23132822998E+02  0.21020708198E+02  0.31886059990E+02  0.00000000000E+00 0. -1.
         11    1    3    3    0    0 -0.18392836800E+02  0.85490097488E+01 -0.18242842279E+02  0.27279723384E+02  0.51100000000E-03 0.  1.
        -11    1    3    3    0    0  0.26399184064E+02  0.14388063019E+02 -0.32576141879E+01  0.30241450480E+02  0.51100000000E-03 0. -1.
        -12    1    3    3    0    0 -0.17037169699E+01  0.19575023051E+00  0.47974826864E+00  0.17807661462E+01  0.00000000000E+00 0.  1.
</event>
<event>
 7    1  0.7749294E-012  0.5930195E+02  0.7816164E-02  0.1266605E+00
        -11   -1    0    0    0    0  0.00000000000E+00  0.00000000000E+00  0.45593999997E+02  0.45594000000E+02  0.51100000000E-03 0. -1.
         11   -1    0    0    0    0 -0.00000000000E+00 -0.00000000000E+00 -0.45593999997E+02  0.45594000000E+02  0.51100000000E-03 0.  1.
    9900012    2    1    2    0    0 -0.11287487007E+02 -0.17318943970E+02 -0.24276879196E+02  0.59301952163E+02  0.50000014837E+02 0.  0.
         12    1    1    2    0    0  0.11287487007E+02  0.17318943970E+02  0.24276879196E+02  0.31886047837E+02  0.00000000000E+00 0. -1.
         11    1    3    3    0    0 -0.41124606580E+01 -0.25130614582E+02 -0.19171749535E+02  0.31875007489E+02  0.51100000000E-03 0. -1.
        -11    1    3    3    0    0 -0.15684544628E+02  0.11850665418E+01 -0.60634273507E+00  0.15740933094E+02  0.51100000000E-03 0.  1.
         12    1    3    3    0    0  0.85095182796E+01  0.66266040702E+01 -0.44987869258E+01  0.11686011580E+02  0.00000000000E+00 0. -1.
</event>
<event>
 7    1  0.7749294E-012  0.5930195E+02  0.7816164E-02  0.1266605E+00
        -11   -1    0    0    0    0  0.00000000000E+00  0.00000000000E+00  0.45593999997E+02  0.45594000000E+02  0.51100000000E-03 0.  1.
         11   -1    0    0    0    0 -0.00000000000E+00 -0.00000000000E+00 -0.45593999997E+02  0.45594000000E+02  0.51100000000E-03 0. -1.
    9900012    2    1    2    0    0  0.27648774246E+02  0.11849114180E+01  0.15838602713E+02  0.59301951824E+02  0.50000014219E+02 0.  0.
         12    1    1    2    0    0 -0.27648774246E+02 -0.11849114180E+01 -0.15838602713E+02  0.31886048176E+02  0.00000000000E+00 0. -1.
         11    1    3    3    0    0 -0.53369548289E+01 -0.95236978646E+01  0.90120144209E+00  0.10954271868E+02  0.51100000000E-03 0. -1.
        -11    1    3    3    0    0  0.15344607170E+02  0.89063247407E+01  0.22850180631E+02  0.28929402772E+02  0.51100000000E-03 0.  1.
        -12    1    3    3    0    0  0.17641121905E+02  0.18022845418E+01 -0.79127793596E+01  0.19418277185E+02  0.00000000000E+00 0.  1.
</event>
<event>
 7    1  0.7749294E-012  0.5930192E+02  0.7816164E-02  0.1266605E+00
        -11   -1    0    0    0    0  0.00000000000E+00  0.00000000000E+00  0.45593999997E+02  0.45594000000E+02  0.51100000000E-03 0.  1.
         11   -1    0    0    0    0 -0.00000000000E+00 -0.00000000000E+00 -0.45593999997E+02  0.45594000000E+02  0.51100000000E-03 0. -1.
    9900012    2    1    2    0    0  0.28387837429E+02 -0.14451549142E+02 -0.14162638139E+01  0.59301915423E+02  0.49999947831E+02 0.  0.
         12    1    1    2    0    0 -0.28387837429E+02  0.14451549142E+02  0.14162638139E+01  0.31886084577E+02  0.00000000000E+00 0. -1.
         11    1    3    3    0    0 -0.25180800179E+01 -0.15285639930E+01  0.35941567522E+01  0.46470633606E+01  0.51100000000E-03 0. -1.
        -11    1    3    3    0    0  0.39592516517E+02 -0.18829821397E+02 -0.51932741316E+01  0.44148608523E+02  0.51100000000E-03 0.  1.
        -12    1    3    3    0    0 -0.86865990708E+01  0.59068362478E+01  0.18285356555E+00  0.10506243539E+02  0.00000000000E+00 0.  1.
</event>
<event>
 7    1  0.7749294E-012  0.5930189E+02  0.7816164E-02  0.1266605E+00
        -11   -1    0    0    0    0  0.00000000000E+00  0.00000000000E+00  0.45593999997E+02  0.45594000000E+02  0.51100000000E-03 0. -1.
         11   -1    0    0    0    0 -0.00000000000E+00 -0.00000000000E+00 -0.45593999997E+02  0.45594000000E+02  0.51100000000E-03 0.  1.
    9900012    2    1    2    0    0 -0.30039236512E+02 -0.28755233078E+01 -0.10300457003E+02  0.59301893637E+02  0.49999908100E+02 0.  0.
         12    1    1    2    0    0  0.30039236512E+02  0.28755233078E+01  0.10300457003E+02  0.31886106363E+02  0.00000000000E+00 0. -1.
         11    1    3    3    0    0  0.45667107110E+01  0.10336081748E+02 -0.42937759023E+01  0.12088256465E+02  0.51100000000E-03 0. -1.
        -11    1    3    3    0    0 -0.27647550527E+02 -0.14658321734E+02 -0.15845663024E+02  0.35076181136E+02  0.51100000000E-03 0.  1.
        -12    1    3    3    0    0 -0.69583966961E+01  0.14467166782E+01  0.98389819234E+01  0.12137456036E+02  0.00000000000E+00 0.  1.
</event>
<event>
 7    1  0.7749294E-012  0.5930195E+02  0.7816164E-02  0.1266605E+00
        -11   -1    0    0    0    0  0.00000000000E+00  0.00000000000E+00  0.45593999997E+02  0.45594000000E+02  0.51100000000E-03 0. -1.
         11   -1    0    0    0    0 -0.00000000000E+00 -0.00000000000E+00 -0.45593999997E+02  0.45594000000E+02  0.51100000000E-03 0.  1.
    9900012    2    1    2    0    0 -0.30426559982E+02  0.13664885391E+01  0.94380839833E+01  0.59301948621E+02  0.50000008377E+02 0.  0.
         12    1    1    2    0    0  0.30426559982E+02 -0.13664885391E+01 -0.94380839833E+01  0.31886051379E+02  0.00000000000E+00 0. -1.
         11    1    3    3    0    0  0.37462871147E+01 -0.66017704679E+01 -0.37184706351E+01  0.84525182390E+01  0.51100000000E-03 0. -1.
        -11    1    3    3    0    0 -0.35987184961E+02  0.13664476177E+01  0.19979129439E+02  0.41183859386E+02  0.51100000000E-03 0.  1.
        -12    1    3    3    0    0  0.18143378641E+01  0.66018113892E+01 -0.68225748207E+01  0.96655709965E+01  0.00000000000E+00 0.  1.
</event>
<event>
 7    1  0.7749294E-012  0.5930195E+02  0.7816164E-02  0.1266605E+00
        -11   -1    0    0    0    0  0.00000000000E+00  0.00000000000E+00  0.45593999997E+02  0.45594000000E+02  0.51100000000E-03 0. -1.
         11   -1    0    0    0    0 -0.00000000000E+00 -0.00000000000E+00 -0.45593999997E+02  0.45594000000E+02  0.51100000000E-03 0.  1.
    9900012    2    1    2    0    0 -0.87949630987E+01  0.21517885809E+02 -0.21825433691E+02  0.59301947541E+02  0.50000006407E+02 0.  0.
         12    1    1    2    0    0  0.87949630987E+01 -0.21517885809E+02  0.21825433691E+02  0.31886052459E+02  0.00000000000E+00 0. -1.
         11    1    3    3    0    0 -0.14618704620E+02  0.70073543265E+00  0.16211387218E+01  0.14725000711E+02  0.51100000000E-03 0. -1.
        -11    1    3    3    0    0  0.10338204421E+02  0.13301485968E+02 -0.29466162077E+02  0.33942049252E+02  0.51100000000E-03 0.  1.
        -12    1    3    3    0    0 -0.45144628997E+01  0.75156644088E+01  0.60195896636E+01  0.10634897578E+02  0.00000000000E+00 0.  1.
</event>
<event>
 7    1  0.7749294E-012  0.5930194E+02  0.7816164E-02  0.1266605E+00
        -11   -1    0    0    0    0  0.00000000000E+00  0.00000000000E+00  0.45593999997E+02  0.45594000000E+02  0.51100000000E-03 0. -1.
         11   -1    0    0    0    0 -0.00000000000E+00 -0.00000000000E+00 -0.45593999997E+02  0.45594000000E+02  0.51100000000E-03 0.  1.
    9900012    2    1    2    0    0 -0.24003666308E+02 -0.62082612733E+01 -0.20049996500E+02  0.59301939348E+02  0.49999991465E+02 0.  0.
         12    1    1    2    0    0  0.24003666308E+02  0.62082612733E+01  0.20049996500E+02  0.31886060652E+02  0.00000000000E+00 0. -1.
         11    1    3    3    0    0 -0.80583712514E+01  0.55200684946E-02  0.11440820289E+02  0.13993918209E+02  0.51100000000E-03 0. -1.
        -11    1    3    3    0    0 -0.11925585861E+02  0.63433233357E+01 -0.28858096122E+02  0.31862941815E+02  0.51100000000E-03 0.  1.
        -12    1    3    3    0    0 -0.40197091959E+01 -0.12557104677E+02 -0.26327206675E+01  0.13445079323E+02  0.00000000000E+00 0.  1.
</event>
<event>
 7    1  0.7749294E-012  0.5930194E+02  0.7816164E-02  0.1266605E+00
        -11   -1    0    0    0    0  0.00000000000E+00  0.00000000000E+00  0.45593999997E+02  0.45594000000E+02  0.51100000000E-03 0.  1.
         11   -1    0    0    0    0 -0.00000000000E+00 -0.00000000000E+00 -0.45593999997E+02  0.45594000000E+02  0.51100000000E-03 0. -1.
    9900012    2    1    2    0    0  0.16586505727E+02 -0.60166247299E+01  0.26559533897E+02  0.59301940567E+02  0.49999993688E+02 0.  0.
         12    1    1    2    0    0 -0.16586505727E+02  0.60166247299E+01 -0.26559533897E+02  0.31886059433E+02  0.00000000000E+00 0. -1.
         11    1    3    3    0    0  0.89012306094E+01  0.17575625969E+02  0.13719251779E+02  0.24007340631E+02  0.51100000000E-03 0. -1.
        -11    1    3    3    0    0  0.12308053773E+02 -0.77548352829E+01  0.26433061718E+00  0.14549760441E+02  0.51100000000E-03 0.  1.
         12    1    3    3    0    0 -0.46227786554E+01 -0.15837415416E+02  0.12575951500E+02  0.20744839495E+02  0.00000000000E+00 0. -1.
</event>
<event>
 7    1  0.7749294E-012  0.5930192E+02  0.7816164E-02  0.1266605E+00
        -11   -1    0    0    0    0  0.00000000000E+00  0.00000000000E+00  0.45593999997E+02  0.45594000000E+02  0.51100000000E-03 0. -1.
         11   -1    0    0    0    0 -0.00000000000E+00 -0.00000000000E+00 -0.45593999997E+02  0.45594000000E+02  0.51100000000E-03 0.  1.
    9900012    2    1    2    0    0 -0.23532857862E+02  0.92882126027E+01 -0.19407618317E+02  0.59301922455E+02  0.49999960656E+02 0.  0.
         12    1    1    2    0    0  0.23532857862E+02 -0.92882126027E+01  0.19407618317E+02  0.31886077545E+02  0.00000000000E+00 0. -1.
         11    1    3    3    0    0 -0.83448851885E+01 -0.10457552788E+02 -0.27171058975E+02  0.30286365995E+02  0.51100000000E-03 0. -1.
        -11    1    3    3    0    0 -0.15956168998E+02  0.13722239463E+02  0.29170871854E+01  0.21246378112E+02  0.51100000000E-03 0.  1.
         12    1    3    3    0    0  0.76819632512E+00  0.60235259283E+01  0.48463534730E+01  0.77691783471E+01  0.00000000000E+00 0. -1.
</event>
<event>
 7    1  0.7749294E-012  0.5930194E+02  0.7816164E-02  0.1266605E+00
        -11   -1    0    0    0    0  0.00000000000E+00  0.00000000000E+00  0.45593999997E+02  0.45594000000E+02  0.51100000000E-03 0. -1.
         11   -1    0    0    0    0 -0.00000000000E+00 -0.00000000000E+00 -0.45593999997E+02  0.45594000000E+02  0.51100000000E-03 0.  1.
    9900012    2    1    2    0    0  0.73298219353E+01 -0.29701506813E+02  0.89897233803E+01  0.59301938421E+02  0.49999989775E+02 0.  0.
         12    1    1    2    0    0 -0.73298219353E+01  0.29701506813E+02 -0.89897233803E+01  0.31886061579E+02  0.00000000000E+00 0. -1.
         11    1    3    3    0    0  0.94554332566E+00 -0.14983582943E+02  0.19889483125E+02  0.24919738145E+02  0.51100000000E-03 0. -1.
        -11    1    3    3    0    0 -0.57283209210E+01  0.21002575615E+01 -0.12173769591E+02  0.13617099864E+02  0.51100000000E-03 0.  1.
        -12    1    3    3    0    0  0.12112599531E+02 -0.16818181431E+02  0.12740098462E+01  0.20765100412E+02  0.00000000000E+00 0.  1.
</event>
<event>
 7    1  0.7749294E-012  0.5930195E+02  0.7816164E-02  0.1266605E+00
        -11   -1    0    0    0    0  0.00000000000E+00  0.00000000000E+00  0.45593999997E+02  0.45594000000E+02  0.51100000000E-03 0.  1.
         11   -1    0    0    0    0 -0.00000000000E+00 -0.00000000000E+00 -0.45593999997E+02  0.45594000000E+02  0.51100000000E-03 0. -1.
    9900012    2    1    2    0    0 -0.42205022592E+00 -0.27050645388E+02  0.16876147793E+02  0.59301954359E+02  0.50000018842E+02 0.  0.
         12    1    1    2    0    0  0.42205022592E+00  0.27050645388E+02 -0.16876147793E+02  0.31886045641E+02  0.00000000000E+00 0. -1.
         11    1    3    3    0    0  0.64022934925E+01  0.88422464366E+01 -0.20346421355E+01  0.11104704088E+02  0.51100000000E-03 0. -1.
        -11    1    3    3    0    0 -0.12482589011E+02 -0.30664748970E+02  0.67306199606E+01  0.33785249787E+02  0.51100000000E-03 0.  1.
        -12    1    3    3    0    0  0.56582452930E+01 -0.52281428542E+01  0.12180169968E+02  0.14412000484E+02  0.00000000000E+00 0.  1.
</event>
<event>
 7    1  0.7749294E-012  0.5930210E+02  0.7816164E-02  0.1266604E+00
        -11   -1    0    0    0    0  0.00000000000E+00  0.00000000000E+00  0.45593999997E+02  0.45594000000E+02  0.51100000000E-03 0. -1.
         11   -1    0    0    0    0 -0.00000000000E+00 -0.00000000000E+00 -0.45593999997E+02  0.45594000000E+02  0.51100000000E-03 0.  1.
    9900012    2    1    2    0    0  0.20110348711E+01  0.18965509514E+02 -0.25553389549E+02  0.59302101395E+02  0.50000287000E+02 0.  0.
         12    1    1    2    0    0 -0.20110348711E+01 -0.18965509514E+02  0.25553389549E+02  0.31885898605E+02  0.00000000000E+00 0. -1.
         11    1    3    3    0    0 -0.11018263111E+02  0.14745014141E+02 -0.19664489384E+02  0.26935287393E+02  0.51100000000E-03 0. -1.
        -11    1    3    3    0    0  0.11833866327E+01 -0.35528646180E+01  0.10237139919E+02  0.10900563513E+02  0.51100000000E-03 0.  1.
        -12    1    3    3    0    0  0.11845911349E+02  0.77733599912E+01 -0.16126040085E+02  0.21466250489E+02  0.00000000000E+00 0.  1.
</event>
<event>
 7    1  0.7749294E-012  0.5930196E+02  0.7816164E-02  0.1266605E+00
        -11   -1    0    0    0    0  0.00000000000E+00  0.00000000000E+00  0.45593999997E+02  0.45594000000E+02  0.51100000000E-03 0. -1.
         11   -1    0    0    0    0 -0.00000000000E+00 -0.00000000000E+00 -0.45593999997E+02  0.45594000000E+02  0.51100000000E-03 0.  1.
    9900012    2    1    2    0    0  0.26898846082E+02 -0.10112675248E+02  0.13816852425E+02  0.59301960231E+02  0.50000029551E+02 0.  0.
         12    1    1    2    0    0 -0.26898846082E+02  0.10112675248E+02 -0.13816852425E+02  0.31886039769E+02  0.00000000000E+00 0. -1.
         11    1    3    3    0    0 -0.92502967070E+01 -0.58272921714E-01  0.16922716812E+02  0.19285998275E+02  0.51100000000E-03 0. -1.
        -11    1    3    3    0    0  0.12658436928E+02 -0.21308343811E+01  0.52298715190E+01  0.13861025828E+02  0.51100000000E-03 0.  1.
         12    1    3    3    0    0  0.23490705861E+02 -0.79235679447E+01 -0.83357359051E+01  0.26154936129E+02  0.00000000000E+00 0. -1.
</event>
<event>
 7    1  0.7749294E-012  0.5930196E+02  0.7816164E-02  0.1266605E+00
        -11   -1    0    0    0    0  0.00000000000E+00  0.00000000000E+00  0.45593999997E+02  0.45594000000E+02  0.51100000000E-03 0.  1.
         11   -1    0    0    0    0 -0.00000000000E+00 -0.00000000000E+00 -0.45593999997E+02  0.45594000000E+02  0.51100000000E-03 0. -1.
    9900012    2    1    2    0    0  0.16820630849E+02 -0.11708193640E+02  0.24427522329E+02  0.59301964379E+02  0.50000037117E+02 0.  0.
         12    1    1    2    0    0 -0.16820630849E+02  0.11708193640E+02 -0.24427522329E+02  0.31886035621E+02  0.00000000000E+00 0. -1.
         11    1    3    3    0    0  0.90167562411E+01  0.13046033881E+02  0.28928155125E+01  0.16120461376E+02  0.51100000000E-03 0. -1.
        -11    1    3    3    0    0 -0.83259148714E+01 -0.18207485711E+02  0.11514256169E+02  0.23095702841E+02  0.51100000000E-03 0.  1.
        -12    1    3    3    0    0  0.16129789479E+02 -0.65467418104E+01  0.10020450647E+02  0.20085800162E+02  0.00000000000E+00 0.  1.
</event>
<event>
 7    1  0.7749294E-012  0.5930194E+02  0.7816164E-02  0.1266605E+00
        -11   -1    0    0    0    0  0.00000000000E+00  0.00000000000E+00  0.45593999997E+02  0.45594000000E+02  0.51100000000E-03 0. -1.
         11   -1    0    0    0    0 -0.00000000000E+00 -0.00000000000E+00 -0.45593999997E+02  0.45594000000E+02  0.51100000000E-03 0.  1.
    9900012    2    1    2    0    0 -0.95467625611E+01 -0.29818996720E+02 -0.60338591525E+01  0.59301941964E+02  0.49999996237E+02 0.  0.
         12    1    1    2    0    0  0.95467625611E+01  0.29818996720E+02  0.60338591525E+01  0.31886058036E+02  0.00000000000E+00 0. -1.
         11    1    3    3    0    0 -0.12329647760E+02 -0.62307033928E+01 -0.30830033640E+01  0.14154391144E+02  0.51100000000E-03 0. -1.
        -11    1    3    3    0    0  0.38557412728E+01 -0.12392601938E+02  0.17512263474E+02  0.21797309370E+02  0.51100000000E-03 0.  1.
        -12    1    3    3    0    0 -0.10728560741E+01 -0.11195691389E+02 -0.20463119262E+02  0.23350241450E+02  0.00000000000E+00 0.  1.
</event>
<event>
 7    1  0.7749294E-012  0.5930193E+02  0.7816164E-02  0.1266605E+00
        -11   -1    0    0    0    0  0.00000000000E+00  0.00000000000E+00  0.45593999997E+02  0.45594000000E+02  0.51100000000E-03 0. -1.
         11   -1    0    0    0    0 -0.00000000000E+00 -0.00000000000E+00 -0.45593999997E+02  0.45594000000E+02  0.51100000000E-03 0.  1.
    9900012    2    1    2    0    0 -0.14643628775E+02 -0.32838026937E+01 -0.28133644124E+02  0.59301934775E+02  0.49999983126E+02 0.  0.
         12    1    1    2    0    0  0.14643628775E+02  0.32838026937E+01  0.28133644124E+02  0.31886065225E+02  0.00000000000E+00 0. -1.
         11    1    3    3    0    0 -0.76606269319E+01 -0.97069774580E+01  0.68203212057E+01  0.14121876574E+02  0.51100000000E-03 0. -1.
        -11    1    3    3    0    0  0.59529011395E+01  0.26572868401E+01 -0.30195982778E+02  0.30891674955E+02  0.51100000000E-03 0.  1.
        -12    1    3    3    0    0 -0.12935902983E+02  0.37658879241E+01 -0.47579825516E+01  0.14288383246E+02  0.00000000000E+00 0.  1.
</event>
<event>
 7    1  0.7749294E-012  0.5930196E+02  0.7816164E-02  0.1266605E+00
        -11   -1    0    0    0    0  0.00000000000E+00  0.00000000000E+00  0.45593999997E+02  0.45594000000E+02  0.51100000000E-03 0. -1.
         11   -1    0    0    0    0 -0.00000000000E+00 -0.00000000000E+00 -0.45593999997E+02  0.45594000000E+02  0.51100000000E-03 0.  1.
    9900012    2    1    2    0    0  0.29915095122E+02  0.10990036935E+02 -0.10128748285E+01  0.59301956918E+02  0.50000023509E+02 0.  0.
         12    1    1    2    0    0 -0.29915095122E+02 -0.10990036935E+02  0.10128748285E+01  0.31886043082E+02  0.00000000000E+00 0. -1.
         11    1    3    3    0    0 -0.49897692340E+00 -0.75955019983E+01 -0.14569808898E+02  0.16438368537E+02  0.51100000000E-03 0. -1.
        -11    1    3    3    0    0  0.25324163916E+02  0.50051939370E+01  0.59670348599E+01  0.26494730602E+02  0.51100000000E-03 0.  1.
         12    1    3    3    0    0  0.50899081294E+01  0.13580344996E+02  0.75898992096E+01  0.16368857779E+02  0.00000000000E+00 0. -1.
</event>
<event>
 7    1  0.7749294E-012  0.5930190E+02  0.7816164E-02  0.1266605E+00
        -11   -1    0    0    0    0  0.00000000000E+00  0.00000000000E+00  0.45593999997E+02  0.45594000000E+02  0.51100000000E-03 0. -1.
         11   -1    0    0    0    0 -0.00000000000E+00 -0.00000000000E+00 -0.45593999997E+02  0.45594000000E+02  0.51100000000E-03 0.  1.
    9900012    2    1    2    0    0  0.26329575159E+02  0.85173677364E+01 -0.15840817691E+02  0.59301896658E+02  0.49999913608E+02 0.  0.
         12    1    1    2    0    0 -0.26329575159E+02 -0.85173677364E+01  0.15840817691E+02  0.31886103342E+02  0.00000000000E+00 0. -1.
         11    1    3    3    0    0  0.20704934617E+01  0.12238077234E+02 -0.91277417499E+00  0.12445506600E+02  0.51100000000E-03 0.  1.
        -11    1    3    3    0    0 -0.60930354678E+01  0.13376138873E+01 -0.14826627426E+02  0.16085495740E+02  0.51100000000E-03 0. -1.
        -12    1    3    3    0    0  0.30352117166E+02 -0.50583233852E+01 -0.10141609071E+00  0.30770894318E+02  0.00000000000E+00 0.  1.
</event>
<event>
 7    1  0.7749294E-012  0.5930195E+02  0.7816164E-02  0.1266605E+00
        -11   -1    0    0    0    0  0.00000000000E+00  0.00000000000E+00  0.45593999997E+02  0.45594000000E+02  0.51100000000E-03 0.  1.
         11   -1    0    0    0    0 -0.00000000000E+00 -0.00000000000E+00 -0.45593999997E+02  0.45594000000E+02  0.51100000000E-03 0. -1.
    9900012    2    1    2    0    0  0.18478771891E+02 -0.11729935101E+02 -0.23187583876E+02  0.59301946088E+02  0.50000003758E+02 0.  0.
         12    1    1    2    0    0 -0.18478771891E+02  0.11729935101E+02  0.23187583876E+02  0.31886053912E+02  0.00000000000E+00 0. -1.
         11    1    3    3    0    0  0.20752934724E+02  0.15729528968E+02 -0.79007607601E+01  0.27212578012E+02  0.51100000000E-03 0. -1.
        -11    1    3    3    0    0 -0.41613829852E+01 -0.13509096962E+02 -0.78092259690E+01  0.16149204920E+02  0.51100000000E-03 0.  1.
         12    1    3    3    0    0  0.18872201515E+01 -0.13950367107E+02 -0.74775971473E+01  0.15940163155E+02  0.00000000000E+00 0. -1.
</event>
<event>
 7    1  0.7749294E-012  0.5930193E+02  0.7816164E-02  0.1266605E+00
        -11   -1    0    0    0    0  0.00000000000E+00  0.00000000000E+00  0.45593999997E+02  0.45594000000E+02  0.51100000000E-03 0.  1.
         11   -1    0    0    0    0 -0.00000000000E+00 -0.00000000000E+00 -0.45593999997E+02  0.45594000000E+02  0.51100000000E-03 0. -1.
    9900012    2    1    2    0    0  0.21411443194E+02  0.16755614092E+01  0.23568281321E+02  0.59301932665E+02  0.49999979277E+02 0.  0.
         12    1    1    2    0    0 -0.21411443194E+02 -0.16755614092E+01 -0.23568281321E+02  0.31886067335E+02  0.00000000000E+00 0. -1.
         11    1    3    3    0    0  0.17025304568E+02  0.86957650227E+01  0.28298913830E+02  0.34151220318E+02  0.51100000000E-03 0. -1.
        -11    1    3    3    0    0 -0.95002921550E+01 -0.98718307849E+00 -0.21791126739E+01  0.97968675488E+01  0.51100000000E-03 0.  1.
         12    1    3    3    0    0  0.13886430781E+02 -0.60330205351E+01 -0.25515198360E+01  0.15353844798E+02  0.00000000000E+00 0. -1.
</event>
<event>
 7    1  0.7749294E-012  0.5930191E+02  0.7816164E-02  0.1266605E+00
        -11   -1    0    0    0    0  0.00000000000E+00  0.00000000000E+00  0.45593999997E+02  0.45594000000E+02  0.51100000000E-03 0. -1.
         11   -1    0    0    0    0 -0.00000000000E+00 -0.00000000000E+00 -0.45593999997E+02  0.45594000000E+02  0.51100000000E-03 0.  1.
    9900012    2    1    2    0    0 -0.54086045238E+01 -0.16507314105E+02 -0.26739072699E+02  0.59301914780E+02  0.49999946659E+02 0.  0.
         12    1    1    2    0    0  0.54086045238E+01  0.16507314105E+02  0.26739072699E+02  0.31886085220E+02  0.00000000000E+00 0. -1.
         11    1    3    3    0    0 -0.38436389994E+01 -0.47263520978E+01 -0.56157739012E+01  0.82854620680E+01  0.51100000000E-03 0. -1.
        -11    1    3    3    0    0  0.50400622200E+01 -0.41808956751E+01  0.13475435132E+02  0.14982305166E+02  0.51100000000E-03 0.  1.
        -12    1    3    3    0    0 -0.66050277444E+01 -0.76000663326E+01 -0.34598733930E+02  0.36034147545E+02  0.00000000000E+00 0.  1.
</event>
<event>
 7    1  0.7749294E-012  0.5930196E+02  0.7816164E-02  0.1266605E+00
        -11   -1    0    0    0    0  0.00000000000E+00  0.00000000000E+00  0.45593999997E+02  0.45594000000E+02  0.51100000000E-03 0.  1.
         11   -1    0    0    0    0 -0.00000000000E+00 -0.00000000000E+00 -0.45593999997E+02  0.45594000000E+02  0.51100000000E-03 0. -1.
    9900012    2    1    2    0    0 -0.27171920197E+02  0.14616377148E+02  0.80478414638E+01  0.59301961044E+02  0.50000031033E+02 0.  0.
         12    1    1    2    0    0  0.27171920197E+02 -0.14616377148E+02 -0.80478414638E+01  0.31886038956E+02  0.00000000000E+00 0. -1.
         11    1    3    3    0    0 -0.36449916807E+01 -0.14558492566E+02  0.13743804178E+02  0.20350130803E+02  0.51100000000E-03 0. -1.
        -11    1    3    3    0    0 -0.16078304594E+02  0.23504835898E+02 -0.10403251708E+01  0.28496867651E+02  0.51100000000E-03 0.  1.
        -12    1    3    3    0    0 -0.74486239226E+01  0.56700338155E+01 -0.46556375439E+01  0.10454962590E+02  0.00000000000E+00 0.  1.
</event>
<event>
 7    1  0.7749294E-012  0.5930197E+02  0.7816164E-02  0.1266605E+00
        -11   -1    0    0    0    0  0.00000000000E+00  0.00000000000E+00  0.45593999997E+02  0.45594000000E+02  0.51100000000E-03 0.  1.
         11   -1    0    0    0    0 -0.00000000000E+00 -0.00000000000E+00 -0.45593999997E+02  0.45594000000E+02  0.51100000000E-03 0. -1.
    9900012    2    1    2    0    0  0.98632993080E+01 -0.30321944202E+02  0.11776237059E+00  0.59301971063E+02  0.50000049305E+02 0.  0.
         12    1    1    2    0    0 -0.98632993080E+01  0.30321944202E+02 -0.11776237059E+00  0.31886028937E+02  0.00000000000E+00 0. -1.
         11    1    3    3    0    0 -0.14142568127E+02 -0.10022854672E+02  0.46326579497E+01  0.17942446013E+02  0.51100000000E-03 0. -1.
        -11    1    3    3    0    0  0.23854503752E+02 -0.10358257145E+02 -0.12265223646E+02  0.28753548506E+02  0.51100000000E-03 0.  1.
         12    1    3    3    0    0  0.15136368255E+00 -0.99408323849E+01  0.77503280668E+01  0.12605976543E+02  0.00000000000E+00 0. -1.
</event>
<event>
 7    1  0.7749294E-012  0.5930194E+02  0.7816164E-02  0.1266605E+00
        -11   -1    0    0    0    0  0.00000000000E+00  0.00000000000E+00  0.45593999997E+02  0.45594000000E+02  0.51100000000E-03 0.  1.
         11   -1    0    0    0    0 -0.00000000000E+00 -0.00000000000E+00 -0.45593999997E+02  0.45594000000E+02  0.51100000000E-03 0. -1.
    9900012    2    1    2    0    0 -0.15511782824E+02 -0.26836087980E+02  0.74786130599E+01  0.59301942267E+02  0.49999996789E+02 0.  0.
         12    1    1    2    0    0  0.15511782824E+02  0.26836087980E+02 -0.74786130599E+01  0.31886057733E+02  0.00000000000E+00 0. -1.
         11    1    3    3    0    0  0.97377458067E+01 -0.17187092940E+02 -0.14383429928E+02  0.24435689347E+02  0.51100000000E-03 0. -1.
        -11    1    3    3    0    0 -0.19867007894E+02 -0.72841719010E+01  0.15692557332E+02  0.26344136328E+02  0.51100000000E-03 0.  1.
         12    1    3    3    0    0 -0.53825207366E+01 -0.23648231388E+01  0.61694856553E+01  0.85221165921E+01  0.00000000000E+00 0. -1.
</event>
<event>
 7    1  0.7749294E-012  0.5930157E+02  0.7816164E-02  0.1266606E+00
        -11   -1    0    0    0    0  0.00000000000E+00  0.00000000000E+00  0.45593999997E+02  0.45594000000E+02  0.51100000000E-03 0.  1.
         11   -1    0    0    0    0 -0.00000000000E+00 -0.00000000000E+00 -0.45593999997E+02  0.45594000000E+02  0.51100000000E-03 0. -1.
    9900012    2    1    2    0    0  0.12258460193E+02  0.24982136518E+02  0.15568155983E+02  0.59301569155E+02  0.49999316318E+02 0.  0.
         12    1    1    2    0    0 -0.12258460193E+02 -0.24982136518E+02 -0.15568155983E+02  0.31886430845E+02  0.00000000000E+00 0. -1.
         11    1    3    3    0    0 -0.71701760618E+01  0.68596879947E+01 -0.57972707991E+01  0.11492392837E+02  0.51100000000E-03 0. -1.
        -11    1    3    3    0    0  0.22530056422E+02  0.25931559269E+02  0.16653957188E+02  0.38175954458E+02  0.51100000000E-03 0.  1.
        -12    1    3    3    0    0 -0.31014201665E+01 -0.78091107453E+01  0.47114695938E+01  0.96332218605E+01  0.00000000000E+00 0.  1.
</event>
<event>
 7    1  0.7749294E-012  0.5930201E+02  0.7816164E-02  0.1266605E+00
        -11   -1    0    0    0    0  0.00000000000E+00  0.00000000000E+00  0.45593999997E+02  0.45594000000E+02  0.51100000000E-03 0. -1.
         11   -1    0    0    0    0 -0.00000000000E+00 -0.00000000000E+00 -0.45593999997E+02  0.45594000000E+02  0.51100000000E-03 0.  1.
    9900012    2    1    2    0    0 -0.17814684131E+02  0.22384085832E+01 -0.26350389730E+02  0.59302008050E+02  0.50000116762E+02 0.  0.
         12    1    1    2    0    0  0.17814684131E+02 -0.22384085832E+01  0.26350389730E+02  0.31885991950E+02  0.00000000000E+00 0. -1.
         11    1    3    3    0    0 -0.11626509984E+02 -0.85060813316E+01  0.65881722122E+01  0.15840870159E+02  0.51100000000E-03 0. -1.
        -11    1    3    3    0    0 -0.74328619158E+01 -0.48650878369E+01 -0.23628848823E+02  0.25243593502E+02  0.51100000000E-03 0.  1.
         12    1    3    3    0    0  0.12446877687E+01  0.15609577752E+02 -0.93097131198E+01  0.18217544390E+02  0.00000000000E+00 0. -1.
</event>
<event>
 7    1  0.7749294E-012  0.5930195E+02  0.7816164E-02  0.1266605E+00
        -11   -1    0    0    0    0  0.00000000000E+00  0.00000000000E+00  0.45593999997E+02  0.45594000000E+02  0.51100000000E-03 0.  1.
         11   -1    0    0    0    0 -0.00000000000E+00 -0.00000000000E+00 -0.45593999997E+02  0.45594000000E+02  0.51100000000E-03 0. -1.
    9900012    2    1    2    0    0  0.21274007678E+02  0.16018157568E+01  0.23697488564E+02  0.59301950062E+02  0.50000011006E+02 0.  0.
         12    1    1    2    0    0 -0.21274007678E+02 -0.16018157568E+01 -0.23697488564E+02  0.31886049938E+02  0.00000000000E+00 0. -1.
         11    1    3    3    0    0  0.18815569090E+02 -0.12646565956E+02 -0.42029075358E+01  0.23057009838E+02  0.51100000000E-03 0. -1.
        -11    1    3    3    0    0  0.88298224190E+01  0.74347580828E+01  0.73715506011E+01  0.13696026804E+02  0.51100000000E-03 0.  1.
         12    1    3    3    0    0 -0.63713838316E+01  0.68136236298E+01  0.20528845499E+02  0.22548913420E+02  0.00000000000E+00 0. -1.
</event>
<event>
 7    1  0.7749294E-012  0.5930206E+02  0.7816164E-02  0.1266604E+00
        -11   -1    0    0    0    0  0.00000000000E+00  0.00000000000E+00  0.45593999997E+02  0.45594000000E+02  0.51100000000E-03 0.  1.
         11   -1    0    0    0    0 -0.00000000000E+00 -0.00000000000E+00 -0.45593999997E+02  0.45594000000E+02  0.51100000000E-03 0. -1.
    9900012    2    1    2    0    0  0.27921743724E+02 -0.11330262521E+02  0.10426618366E+02  0.59302062787E+02  0.50000216588E+02 0.  0.
         12    1    1    2    0    0 -0.27921743724E+02  0.11330262521E+02 -0.10426618366E+02  0.31885937213E+02  0.00000000000E+00 0. -1.
         11    1    3    3    0    0  0.21936780199E+01 -0.24885777275E+02  0.12433049734E+02  0.27905104548E+02  0.51100000000E-03 0. -1.
        -11    1    3    3    0    0  0.14680453257E+02  0.11480311759E+02 -0.58246339356E+01  0.19525358554E+02  0.51100000000E-03 0.  1.
         12    1    3    3    0    0  0.11047612447E+02  0.20752029952E+01  0.38182025676E+01  0.11871599686E+02  0.00000000000E+00 0. -1.
</event>
<event>
 7    1  0.7749294E-012  0.5930193E+02  0.7816164E-02  0.1266605E+00
        -11   -1    0    0    0    0  0.00000000000E+00  0.00000000000E+00  0.45593999997E+02  0.45594000000E+02  0.51100000000E-03 0.  1.
         11   -1    0    0    0    0 -0.00000000000E+00 -0.00000000000E+00 -0.45593999997E+02  0.45594000000E+02  0.51100000000E-03 0. -1.
    9900012    2    1    2    0    0  0.21168279135E+02 -0.14615494556E+02  0.18841778781E+02  0.59301931721E+02  0.49999977556E+02 0.  0.
         12    1    1    2    0    0 -0.21168279135E+02  0.14615494556E+02 -0.18841778781E+02  0.31886068279E+02  0.00000000000E+00 0. -1.
         11    1    3    3    0    0  0.65207682032E+01  0.15792819556E+02  0.41265945678E+01  0.17577324895E+02  0.51100000000E-03 0.  1.
        -11    1    3    3    0    0  0.94197373178E+01 -0.32153152871E+02  0.13177741402E+02  0.36002910430E+02  0.51100000000E-03 0. -1.
         12    1    3    3    0    0  0.52277736136E+01  0.17448387598E+01  0.15374428114E+01  0.57216963963E+01  0.00000000000E+00 0. -1.
</event>
<event>
 7    1  0.7749294E-012  0.5930194E+02  0.7816164E-02  0.1266605E+00
        -11   -1    0    0    0    0  0.00000000000E+00  0.00000000000E+00  0.45593999997E+02  0.45594000000E+02  0.51100000000E-03 0.  1.
         11   -1    0    0    0    0 -0.00000000000E+00 -0.00000000000E+00 -0.45593999997E+02  0.45594000000E+02  0.51100000000E-03 0. -1.
    9900012    2    1    2    0    0 -0.24786946646E+02  0.15909863653E+02  0.12214930187E+02  0.59301937135E+02  0.49999987430E+02 0.  0.
         12    1    1    2    0    0  0.24786946646E+02 -0.15909863653E+02 -0.12214930187E+02  0.31886062865E+02  0.00000000000E+00 0. -1.
         11    1    3    3    0    0 -0.84355348644E+01  0.74627547058E+01 -0.81615183260E+01  0.13909037993E+02  0.51100000000E-03 0. -1.
        -11    1    3    3    0    0 -0.37058700377E+01 -0.14171928115E+02  0.73021682920E+01  0.16367610738E+02  0.51100000000E-03 0.  1.
        -12    1    3    3    0    0 -0.12645541744E+02  0.22619037063E+02  0.13074280221E+02  0.29025288404E+02  0.00000000000E+00 0.  1.
</event>
<event>
 7    1  0.7749294E-012  0.5930191E+02  0.7816164E-02  0.1266605E+00
        -11   -1    0    0    0    0  0.00000000000E+00  0.00000000000E+00  0.45593999997E+02  0.45594000000E+02  0.51100000000E-03 0. -1.
         11   -1    0    0    0    0 -0.00000000000E+00 -0.00000000000E+00 -0.45593999997E+02  0.45594000000E+02  0.51100000000E-03 0.  1.
    9900012    2    1    2    0    0  0.28546561463E+02  0.38755275450E+01 -0.13667364351E+02  0.59301910033E+02  0.49999938001E+02 0.  0.
         12    1    1    2    0    0 -0.28546561463E+02 -0.38755275450E+01  0.13667364351E+02  0.31886089967E+02  0.00000000000E+00 0. -1.
         11    1    3    3    0    0  0.40309965762E+01 -0.15152724738E+02  0.72848608332E+01  0.17289395536E+02  0.51100000000E-03 0. -1.
        -11    1    3    3    0    0  0.35694433413E+01  0.14464553461E+02 -0.72380244951E+01  0.16563611666E+02  0.51100000000E-03 0.  1.
         12    1    3    3    0    0  0.20946121545E+02  0.45636988221E+01 -0.13714200690E+02  0.25448902831E+02  0.00000000000E+00 0. -1.
</event>
<event>
 7    1  0.7749294E-012  0.5930200E+02  0.7816164E-02  0.1266605E+00
        -11   -1    0    0    0    0  0.00000000000E+00  0.00000000000E+00  0.45593999997E+02  0.45594000000E+02  0.51100000000E-03 0.  1.
         11   -1    0    0    0    0 -0.00000000000E+00 -0.00000000000E+00 -0.45593999997E+02  0.45594000000E+02  0.51100000000E-03 0. -1.
    9900012    2    1    2    0    0  0.20518061325E+02  0.23905038561E+02  0.49269954656E+01  0.59302000040E+02  0.50000102152E+02 0.  0.
         12    1    1    2    0    0 -0.20518061325E+02 -0.23905038561E+02 -0.49269954656E+01  0.31885999960E+02  0.00000000000E+00 0. -1.
         11    1    3    3    0    0 -0.44712537672E+01  0.44841983794E+00  0.42489189951E+01  0.61843757559E+01  0.51100000000E-03 0. -1.
        -11    1    3    3    0    0  0.11719373426E+02  0.28373910886E+02 -0.13090259270E+02  0.33373304009E+02  0.51100000000E-03 0.  1.
        -12    1    3    3    0    0  0.13269941666E+02 -0.49172921628E+01  0.13768335741E+02  0.19744320275E+02  0.00000000000E+00 0.  1.
</event>
<event>
 7    1  0.7749294E-012  0.5930193E+02  0.7816164E-02  0.1266605E+00
        -11   -1    0    0    0    0  0.00000000000E+00  0.00000000000E+00  0.45593999997E+02  0.45594000000E+02  0.51100000000E-03 0.  1.
         11   -1    0    0    0    0 -0.00000000000E+00 -0.00000000000E+00 -0.45593999997E+02  0.45594000000E+02  0.51100000000E-03 0. -1.
    9900012    2    1    2    0    0  0.18010507431E+01 -0.21523091419E+02  0.23457073738E+02  0.59301928490E+02  0.49999971663E+02 0.  0.
         12    1    1    2    0    0 -0.18010507431E+01  0.21523091419E+02 -0.23457073738E+02  0.31886071510E+02  0.00000000000E+00 0. -1.
         11    1    3    3    0    0  0.67784379806E+01  0.10736390044E+02  0.96491010875E+01  0.15947490232E+02  0.51100000000E-03 0. -1.
        -11    1    3    3    0    0 -0.66244366972E+01 -0.69931206407E+01  0.15201138003E+02  0.17996152219E+02  0.51100000000E-03 0.  1.
         12    1    3    3    0    0  0.16470494597E+01 -0.25266360822E+02 -0.13931653532E+01  0.25358286039E+02  0.00000000000E+00 0. -1.
</event>
<event>
 7    1  0.7749294E-012  0.5930193E+02  0.7816164E-02  0.1266605E+00
        -11   -1    0    0    0    0  0.00000000000E+00  0.00000000000E+00  0.45593999997E+02  0.45594000000E+02  0.51100000000E-03 0.  1.
         11   -1    0    0    0    0 -0.00000000000E+00 -0.00000000000E+00 -0.45593999997E+02  0.45594000000E+02  0.51100000000E-03 0. -1.
    9900012    2    1    2    0    0  0.85371947959E+01  0.11395644386E+02  0.28530285077E+02  0.59301928236E+02  0.49999971200E+02 0.  0.
         12    1    1    2    0    0 -0.85371947959E+01 -0.11395644386E+02 -0.28530285077E+02  0.31886071764E+02  0.00000000000E+00 0. -1.
         11    1    3    3    0    0  0.19132078916E+02  0.61203087842E+00  0.61317232946E+01  0.20099976524E+02  0.51100000000E-03 0. -1.
        -11    1    3    3    0    0 -0.19458966459E+02  0.10399119285E+02  0.10704533665E+02  0.24523052396E+02  0.51100000000E-03 0.  1.
         12    1    3    3    0    0  0.88640823389E+01  0.38449422272E+00  0.11694028118E+02  0.14678899316E+02  0.00000000000E+00 0. -1.
</event>
<event>
 7    1  0.7749294E-012  0.5930195E+02  0.7816164E-02  0.1266605E+00
        -11   -1    0    0    0    0  0.00000000000E+00  0.00000000000E+00  0.45593999997E+02  0.45594000000E+02  0.51100000000E-03 0.  1.
         11   -1    0    0    0    0 -0.00000000000E+00 -0.00000000000E+00 -0.45593999997E+02  0.45594000000E+02  0.51100000000E-03 0. -1.
    9900012    2    1    2    0    0  0.22979579618E+02  0.76901755197E+01  0.20724869290E+02  0.59301951546E+02  0.50000013711E+02 0.  0.
         12    1    1    2    0    0 -0.22979579618E+02 -0.76901755197E+01 -0.20724869290E+02  0.31886048454E+02  0.00000000000E+00 0. -1.
         11    1    3    3    0    0  0.74063478247E+01 -0.30027289917E+01 -0.50918785830E+01  0.94761594152E+01  0.51100000000E-03 0. -1.
        -11    1    3    3    0    0 -0.88257721582E+01  0.11484999130E+02  0.20062766622E+02  0.24744980582E+02  0.51100000000E-03 0.  1.
        -12    1    3    3    0    0  0.24399003951E+02 -0.79209461820E+00  0.57539812511E+01  0.25080811548E+02  0.00000000000E+00 0.  1.
</event>
<event>
 7    1  0.7749294E-012  0.5930197E+02  0.7816164E-02  0.1266605E+00
        -11   -1    0    0    0    0  0.00000000000E+00  0.00000000000E+00  0.45593999997E+02  0.45594000000E+02  0.51100000000E-03 0. -1.
         11   -1    0    0    0    0 -0.00000000000E+00 -0.00000000000E+00 -0.45593999997E+02  0.45594000000E+02  0.51100000000E-03 0.  1.
    9900012    2    1    2    0    0  0.12015576853E+02  0.13820088070E+02 -0.26102677519E+02  0.59301973358E+02  0.50000053491E+02 0.  0.
         12    1    1    2    0    0 -0.12015576853E+02 -0.13820088070E+02  0.26102677519E+02  0.31886026642E+02  0.00000000000E+00 0. -1.
         11    1    3    3    0    0  0.13852250369E+02 -0.84313312162E+00 -0.71267694157E+01  0.15600851140E+02  0.51100000000E-03 0. -1.
        -11    1    3    3    0    0 -0.17060560717E+02  0.98715584018E+01 -0.11061560797E+01  0.19741681256E+02  0.51100000000E-03 0.  1.
        -12    1    3    3    0    0  0.15223887202E+02  0.47916627901E+01 -0.17869752023E+02  0.23959440962E+02  0.00000000000E+00 0.  1.
</event>
<event>
 7    1  0.7749294E-012  0.5930193E+02  0.7816164E-02  0.1266605E+00
        -11   -1    0    0    0    0  0.00000000000E+00  0.00000000000E+00  0.45593999997E+02  0.45594000000E+02  0.51100000000E-03 0.  1.
         11   -1    0    0    0    0 -0.00000000000E+00 -0.00000000000E+00 -0.45593999997E+02  0.45594000000E+02  0.51100000000E-03 0. -1.
    9900012    2    1    2    0    0  0.10537388051E+02 -0.26693213012E+02  0.13898095971E+02  0.59301933459E+02  0.49999980725E+02 0.  0.
         12    1    1    2    0    0 -0.10537388051E+02  0.26693213012E+02 -0.13898095971E+02  0.31886066541E+02  0.00000000000E+00 0. -1.
         11    1    3    3    0    0 -0.95752015204E+00  0.88845574139E+01 -0.20535917983E+01  0.91689391326E+01  0.51100000000E-03 0. -1.
        -11    1    3    3    0    0 -0.17969592398E+00 -0.17318095036E+02  0.21648682783E+02  0.27723891733E+02  0.51100000000E-03 0.  1.
         12    1    3    3    0    0  0.11674604127E+02 -0.18259675390E+02 -0.56969950136E+01  0.22409102594E+02  0.00000000000E+00 0. -1.
</event>
<event>
 7    1  0.7749294E-012  0.5930190E+02  0.7816164E-02  0.1266605E+00
        -11   -1    0    0    0    0  0.00000000000E+00  0.00000000000E+00  0.45593999997E+02  0.45594000000E+02  0.51100000000E-03 0.  1.
         11   -1    0    0    0    0 -0.00000000000E+00 -0.00000000000E+00 -0.45593999997E+02  0.45594000000E+02  0.51100000000E-03 0. -1.
    9900012    2    1    2    0    0  0.18331201143E+02 -0.23268312785E+01  0.25986074826E+02  0.59301903281E+02  0.49999925687E+02 0.  0.
         12    1    1    2    0    0 -0.18331201143E+02  0.23268312785E+01 -0.25986074826E+02  0.31886096719E+02  0.00000000000E+00 0. -1.
         11    1    3    3    0    0  0.27797762451E+02  0.42163167295E+01  0.10847844389E+01  0.28136625270E+02  0.51100000000E-03 0.  1.
        -11    1    3    3    0    0 -0.66347794573E+01 -0.11346461088E+02  0.18139935967E+02  0.22401333774E+02  0.51100000000E-03 0. -1.
         12    1    3    3    0    0 -0.28317818513E+01  0.48033130804E+01  0.67613544197E+01  0.87639442371E+01  0.00000000000E+00 0. -1.
</event>
<event>
 7    1  0.7749294E-012  0.5930195E+02  0.7816164E-02  0.1266605E+00
        -11   -1    0    0    0    0  0.00000000000E+00  0.00000000000E+00  0.45593999997E+02  0.45594000000E+02  0.51100000000E-03 0.  1.
         11   -1    0    0    0    0 -0.00000000000E+00 -0.00000000000E+00 -0.45593999997E+02  0.45594000000E+02  0.51100000000E-03 0. -1.
    9900012    2    1    2    0    0  0.10935473177E+02  0.19604286089E+02  0.22645255850E+02  0.59301949458E+02  0.50000009903E+02 0.  0.
         12    1    1    2    0    0 -0.10935473177E+02 -0.19604286089E+02 -0.22645255850E+02  0.31886050542E+02  0.00000000000E+00 0. -1.
         11    1    3    3    0    0 -0.51782997037E+01  0.43188439469E+01 -0.25862350855E+01  0.72218981603E+01  0.51100000000E-03 0. -1.
        -11    1    3    3    0    0  0.26987227258E+02  0.18635943319E+02  0.12741561020E+02  0.35184601688E+02  0.51100000000E-03 0.  1.
        -12    1    3    3    0    0 -0.10873454377E+02 -0.33505011764E+01  0.12489929915E+02  0.16895449610E+02  0.00000000000E+00 0.  1.
</event>
<event>
 7    1  0.7749294E-012  0.5930212E+02  0.7816164E-02  0.1266604E+00
        -11   -1    0    0    0    0  0.00000000000E+00  0.00000000000E+00  0.45593999997E+02  0.45594000000E+02  0.51100000000E-03 0.  1.
         11   -1    0    0    0    0 -0.00000000000E+00 -0.00000000000E+00 -0.45593999997E+02  0.45594000000E+02  0.51100000000E-03 0. -1.
    9900012    2    1    2    0    0 -0.24560907650E+01 -0.30506585458E+02  0.89456745620E+01  0.59302121754E+02  0.50000324129E+02 0.  0.
         12    1    1    2    0    0  0.24560907650E+01  0.30506585458E+02 -0.89456745620E+01  0.31885878246E+02  0.00000000000E+00 0. -1.
         11    1    3    3    0    0  0.34187159027E+01  0.65597284871E+01 -0.75560240838E+00  0.74356298663E+01  0.51100000000E-03 0. -1.
        -11    1    3    3    0    0  0.78392743076E+01 -0.35874406990E+02  0.10134926987E+02  0.38093884599E+02  0.51100000000E-03 0.  1.
        -12    1    3    3    0    0 -0.13714080975E+02 -0.11919069550E+01 -0.43365001663E+00  0.13772607289E+02  0.00000000000E+00 0.  1.
</event>
<event>
 7    1  0.7749294E-012  0.5930195E+02  0.7816164E-02  0.1266605E+00
        -11   -1    0    0    0    0  0.00000000000E+00  0.00000000000E+00  0.45593999997E+02  0.45594000000E+02  0.51100000000E-03 0.  1.
         11   -1    0    0    0    0 -0.00000000000E+00 -0.00000000000E+00 -0.45593999997E+02  0.45594000000E+02  0.51100000000E-03 0. -1.
    9900012    2    1    2    0    0  0.25838945502E+02  0.16839092414E+02  0.80940743040E+01  0.59301950123E+02  0.50000011116E+02 0.  0.
         12    1    1    2    0    0 -0.25838945502E+02 -0.16839092414E+02 -0.80940743040E+01  0.31886049877E+02  0.00000000000E+00 0. -1.
         11    1    3    3    0    0  0.15880517822E+02 -0.66093600698E+00 -0.14872648146E+02  0.21767483682E+02  0.51100000000E-03 0. -1.
        -11    1    3    3    0    0  0.55259897506E+01  0.21991221429E+02  0.14276477919E+02  0.26794928712E+02  0.51100000000E-03 0.  1.
         12    1    3    3    0    0  0.44324379286E+01 -0.44911930082E+01  0.86902445302E+01  0.10739537729E+02  0.00000000000E+00 0. -1.
</event>
<event>
 7    1  0.7749294E-012  0.5930196E+02  0.7816164E-02  0.1266605E+00
        -11   -1    0    0    0    0  0.00000000000E+00  0.00000000000E+00  0.45593999997E+02  0.45594000000E+02  0.51100000000E-03 0.  1.
         11   -1    0    0    0    0 -0.00000000000E+00 -0.00000000000E+00 -0.45593999997E+02  0.45594000000E+02  0.51100000000E-03 0. -1.
    9900012    2    1    2    0    0  0.14818431610E+02  0.23581673418E+02  0.15525404968E+02  0.59301961739E+02  0.50000032301E+02 0.  0.
         12    1    1    2    0    0 -0.14818431610E+02 -0.23581673418E+02 -0.15525404968E+02  0.31886038261E+02  0.00000000000E+00 0. -1.
         11    1    3    3    0    0 -0.99504137474E+01  0.12520037438E+02  0.14130631306E+02  0.21340965596E+02  0.51100000000E-03 0. -1.
        -11    1    3    3    0    0  0.27263950064E+02  0.16543565474E+02  0.70331606618E+00  0.31898388446E+02  0.51100000000E-03 0.  1.
         12    1    3    3    0    0 -0.24951047060E+01 -0.54819294952E+01  0.69145759540E+00  0.60626076972E+01  0.00000000000E+00 0. -1.
</event>
<event>
 7    1  0.7749294E-012  0.5930196E+02  0.7816164E-02  0.1266605E+00
        -11   -1    0    0    0    0  0.00000000000E+00  0.00000000000E+00  0.45593999997E+02  0.45594000000E+02  0.51100000000E-03 0.  1.
         11   -1    0    0    0    0 -0.00000000000E+00 -0.00000000000E+00 -0.45593999997E+02  0.45594000000E+02  0.51100000000E-03 0. -1.
    9900012    2    1    2    0    0  0.21860410725E+02 -0.17206605153E+02  0.15581228451E+02  0.59301960767E+02  0.50000030528E+02 0.  0.
         12    1    1    2    0    0 -0.21860410725E+02  0.17206605153E+02 -0.15581228451E+02  0.31886039233E+02  0.00000000000E+00 0. -1.
         11    1    3    3    0    0  0.61230255961E+01 -0.28252482459E+02  0.49265041402E+01  0.29325153893E+02  0.51100000000E-03 0. -1.
        -11    1    3    3    0    0  0.13233605698E+02 -0.26526792405E+01  0.21703354850E+01  0.13670237134E+02  0.51100000000E-03 0.  1.
         12    1    3    3    0    0  0.25037794302E+01  0.13698556547E+02  0.84843888261E+01  0.16306569739E+02  0.00000000000E+00 0. -1.
</event>
<event>
 7    1  0.7749294E-012  0.5930188E+02  0.7816164E-02  0.1266605E+00
        -11   -1    0    0    0    0  0.00000000000E+00  0.00000000000E+00  0.45593999997E+02  0.45594000000E+02  0.51100000000E-03 0. -1.
         11   -1    0    0    0    0 -0.00000000000E+00 -0.00000000000E+00 -0.45593999997E+02  0.45594000000E+02  0.51100000000E-03 0.  1.
    9900012    2    1    2    0    0  0.22316408889E+02  0.18396880147E+02 -0.13425991111E+02  0.59301881670E+02  0.49999886275E+02 0.  0.
         12    1    1    2    0    0 -0.22316408889E+02 -0.18396880147E+02  0.13425991111E+02  0.31886118330E+02  0.00000000000E+00 0. -1.
         11    1    3    3    0    0  0.62957780473E+01  0.87871024099E+01  0.10572918043E+02  0.15120733653E+02  0.51100000000E-03 0. -1.
        -11    1    3    3    0    0 -0.41378356361E+01 -0.73323536761E+01 -0.13336826658E+02  0.15772001767E+02  0.51100000000E-03 0.  1.
        -12    1    3    3    0    0  0.20158466477E+02  0.16942131413E+02 -0.10662082496E+02  0.28409146251E+02  0.00000000000E+00 0.  1.
</event>
<event>
 7    1  0.7749294E-012  0.5930190E+02  0.7816164E-02  0.1266605E+00
        -11   -1    0    0    0    0  0.00000000000E+00  0.00000000000E+00  0.45593999997E+02  0.45594000000E+02  0.51100000000E-03 0.  1.
         11   -1    0    0    0    0 -0.00000000000E+00 -0.00000000000E+00 -0.45593999997E+02  0.45594000000E+02  0.51100000000E-03 0. -1.
    9900012    2    1    2    0    0  0.27929392383E+02 -0.12357891048E+02  0.91626831001E+01  0.59301902848E+02  0.49999924897E+02 0.  0.
         12    1    1    2    0    0 -0.27929392383E+02  0.12357891048E+02 -0.91626831001E+01  0.31886097152E+02  0.00000000000E+00 0. -1.
         11    1    3    3    0    0 -0.75449006636E+01  0.28906335496E+00 -0.41531002724E+01  0.86172690443E+01  0.51100000000E-03 0. -1.
        -11    1    3    3    0    0  0.29395407440E+02 -0.12033377370E+02 -0.42875653385E+01  0.32051136739E+02  0.51100000000E-03 0.  1.
        -12    1    3    3    0    0  0.60788856061E+01 -0.61357703332E+00  0.17603348711E+02  0.18633497064E+02  0.00000000000E+00 0.  1.
</event>
<event>
 7    1  0.7749294E-012  0.5930196E+02  0.7816164E-02  0.1266605E+00
        -11   -1    0    0    0    0  0.00000000000E+00  0.00000000000E+00  0.45593999997E+02  0.45594000000E+02  0.51100000000E-03 0. -1.
         11   -1    0    0    0    0 -0.00000000000E+00 -0.00000000000E+00 -0.45593999997E+02  0.45594000000E+02  0.51100000000E-03 0.  1.
    9900012    2    1    2    0    0  0.30715783039E+02  0.76662478628E+01  0.38063895306E+01  0.59301964103E+02  0.50000036612E+02 0.  0.
         12    1    1    2    0    0 -0.30715783039E+02 -0.76662478628E+01 -0.38063895306E+01  0.31886035897E+02  0.00000000000E+00 0. -1.
         11    1    3    3    0    0 -0.37945675319E+01 -0.93973754092E+01  0.12110113806E+02  0.15791271766E+02  0.51100000000E-03 0. -1.
        -11    1    3    3    0    0  0.20392732626E+02 -0.12613676633E+00 -0.26944268248E+01  0.20570352224E+02  0.51100000000E-03 0.  1.
         12    1    3    3    0    0  0.14117617945E+02  0.17189760038E+02 -0.56092974510E+01  0.22940340113E+02  0.00000000000E+00 0. -1.
</event>
<event>
 7    1  0.7749294E-012  0.5930194E+02  0.7816164E-02  0.1266605E+00
        -11   -1    0    0    0    0  0.00000000000E+00  0.00000000000E+00  0.45593999997E+02  0.45594000000E+02  0.51100000000E-03 0. -1.
         11   -1    0    0    0    0 -0.00000000000E+00 -0.00000000000E+00 -0.45593999997E+02  0.45594000000E+02  0.51100000000E-03 0.  1.
    9900012    2    1    2    0    0 -0.98765548409E+01 -0.27312654614E+02 -0.13160303707E+02  0.59301936724E+02  0.49999986679E+02 0.  0.
         12    1    1    2    0    0  0.98765548409E+01  0.27312654614E+02  0.13160303707E+02  0.31886063276E+02  0.00000000000E+00 0. -1.
         11    1    3    3    0    0  0.53132994296E+00 -0.84863582215E+00  0.35261465843E+01  0.36655428332E+01  0.51100000000E-03 0.  1.
        -11    1    3    3    0    0 -0.16091499636E+02 -0.36811807742E+02 -0.79618664910E+01  0.40956524121E+02  0.51100000000E-03 0. -1.
        -12    1    3    3    0    0  0.56836148527E+01  0.10347788950E+02 -0.87245838008E+01  0.14679869769E+02  0.00000000000E+00 0.  1.
</event>
<event>
 7    1  0.7749294E-012  0.5930195E+02  0.7816164E-02  0.1266605E+00
        -11   -1    0    0    0    0  0.00000000000E+00  0.00000000000E+00  0.45593999997E+02  0.45594000000E+02  0.51100000000E-03 0. -1.
         11   -1    0    0    0    0 -0.00000000000E+00 -0.00000000000E+00 -0.45593999997E+02  0.45594000000E+02  0.51100000000E-03 0.  1.
    9900012    2    1    2    0    0 -0.27144732525E+02 -0.12513994671E+02 -0.11103307315E+02  0.59301952898E+02  0.50000016177E+02 0.  0.
         12    1    1    2    0    0  0.27144732525E+02  0.12513994671E+02  0.11103307315E+02  0.31886047102E+02  0.00000000000E+00 0. -1.
         11    1    3    3    0    0 -0.97762249233E+01 -0.13854139541E+02 -0.35304258120E-01  0.16956208386E+02  0.51100000000E-03 0. -1.
        -11    1    3    3    0    0  0.12465032405E+01  0.14241274795E+02 -0.13378818606E+02  0.19579593092E+02  0.51100000000E-03 0.  1.
        -12    1    3    3    0    0 -0.18615010842E+02 -0.12901129924E+02  0.23108155487E+01  0.22766151420E+02  0.00000000000E+00 0.  1.
</event>
<event>
 7    1  0.7749294E-012  0.5930188E+02  0.7816164E-02  0.1266605E+00
        -11   -1    0    0    0    0  0.00000000000E+00  0.00000000000E+00  0.45593999997E+02  0.45594000000E+02  0.51100000000E-03 0. -1.
         11   -1    0    0    0    0 -0.00000000000E+00 -0.00000000000E+00 -0.45593999997E+02  0.45594000000E+02  0.51100000000E-03 0.  1.
    9900012    2    1    2    0    0 -0.31700947418E+02  0.30377381257E+01 -0.15957519723E+01  0.59301884770E+02  0.49999891928E+02 0.  0.
         12    1    1    2    0    0  0.31700947418E+02 -0.30377381257E+01  0.15957519723E+01  0.31886115230E+02  0.00000000000E+00 0. -1.
         11    1    3    3    0    0 -0.80670038290E+01 -0.11753417689E+02  0.18503797115E+02  0.23358293732E+02  0.51100000000E-03 0. -1.
        -11    1    3    3    0    0 -0.22792019850E+02  0.10112969771E+02 -0.15694531989E+02  0.29462971015E+02  0.51100000000E-03 0.  1.
         12    1    3    3    0    0 -0.84192373866E+00  0.46781860435E+01 -0.44050170984E+01  0.64806200225E+01  0.00000000000E+00 0. -1.
</event>
<event>
 7    1  0.7749294E-012  0.5930186E+02  0.7816164E-02  0.1266605E+00
        -11   -1    0    0    0    0  0.00000000000E+00  0.00000000000E+00  0.45593999997E+02  0.45594000000E+02  0.51100000000E-03 0. -1.
         11   -1    0    0    0    0 -0.00000000000E+00 -0.00000000000E+00 -0.45593999997E+02  0.45594000000E+02  0.51100000000E-03 0.  1.
    9900012    2    1    2    0    0 -0.45973743803E+01 -0.14016906205E+02 -0.28268648427E+02  0.59301858894E+02  0.49999844736E+02 0.  0.
         12    1    1    2    0    0  0.45973743803E+01  0.14016906205E+02  0.28268648427E+02  0.31886141106E+02  0.00000000000E+00 0. -1.
         11    1    3    3    0    0 -0.19592533627E+01 -0.21141674718E+02 -0.41986861796E+01  0.21643429707E+02  0.51100000000E-03 0. -1.
        -11    1    3    3    0    0 -0.11003362218E+02  0.78532852371E+00 -0.24794199672E+02  0.27137484383E+02  0.51100000000E-03 0.  1.
        -12    1    3    3    0    0  0.83652412007E+01  0.63394399891E+01  0.72423742418E+00  0.10520944804E+02  0.00000000000E+00 0.  1.
</event>
<event>
 7    1  0.7749294E-012  0.5930193E+02  0.7816164E-02  0.1266605E+00
        -11   -1    0    0    0    0  0.00000000000E+00  0.00000000000E+00  0.45593999997E+02  0.45594000000E+02  0.51100000000E-03 0. -1.
         11   -1    0    0    0    0 -0.00000000000E+00 -0.00000000000E+00 -0.45593999997E+02  0.45594000000E+02  0.51100000000E-03 0.  1.
    9900012    2    1    2    0    0 -0.11452698433E+00 -0.19683089173E+02 -0.25085545061E+02  0.59301926444E+02  0.49999967931E+02 0.  0.
         12    1    1    2    0    0  0.11452698433E+00  0.19683089173E+02  0.25085545061E+02  0.31886073556E+02  0.00000000000E+00 0. -1.
         11    1    3    3    0    0  0.15664347982E+02 -0.16820571200E+02 -0.30395106766E+02  0.38107294954E+02  0.51100000000E-03 0. -1.
        -11    1    3    3    0    0 -0.19503784535E+01  0.31959263156E+01 -0.21895923102E+01  0.43373074450E+01  0.51100000000E-03 0.  1.
         12    1    3    3    0    0 -0.13828496513E+02 -0.60584442886E+01  0.74991540148E+01  0.16857324045E+02  0.00000000000E+00 0. -1.
</event>
<event>
 7    1  0.7749294E-012  0.5930193E+02  0.7816164E-02  0.1266605E+00
        -11   -1    0    0    0    0  0.00000000000E+00  0.00000000000E+00  0.45593999997E+02  0.45594000000E+02  0.51100000000E-03 0.  1.
         11   -1    0    0    0    0 -0.00000000000E+00 -0.00000000000E+00 -0.45593999997E+02  0.45594000000E+02  0.51100000000E-03 0. -1.
    9900012    2    1    2    0    0  0.40192939250E+01 -0.76489201261E+01  0.30693007613E+02  0.59301930643E+02  0.49999975589E+02 0.  0.
         12    1    1    2    0    0 -0.40192939250E+01  0.76489201261E+01 -0.30693007613E+02  0.31886069357E+02  0.00000000000E+00 0. -1.
         11    1    3    3    0    0  0.85692532369E+01 -0.11119900969E+02 -0.32882257931E+01  0.14418624336E+02  0.51100000000E-03 0. -1.
        -11    1    3    3    0    0 -0.15494133643E+02  0.15138326912E+01  0.28529814179E+02  0.32500925589E+02  0.51100000000E-03 0.  1.
         12    1    3    3    0    0  0.10944174331E+02  0.19571481518E+01  0.54514192264E+01  0.12382380719E+02  0.00000000000E+00 0. -1.
</event>
<event>
 7    1  0.7749294E-012  0.5930194E+02  0.7816164E-02  0.1266605E+00
        -11   -1    0    0    0    0  0.00000000000E+00  0.00000000000E+00  0.45593999997E+02  0.45594000000E+02  0.51100000000E-03 0. -1.
         11   -1    0    0    0    0 -0.00000000000E+00 -0.00000000000E+00 -0.45593999997E+02  0.45594000000E+02  0.51100000000E-03 0.  1.
    9900012    2    1    2    0    0 -0.45676268946E+01  0.60593705384E+01 -0.30970011592E+02  0.59301940275E+02  0.49999993156E+02 0.  0.
         12    1    1    2    0    0  0.45676268946E+01 -0.60593705384E+01  0.30970011592E+02  0.31886059725E+02  0.00000000000E+00 0. -1.
         11    1    3    3    0    0  0.22280114337E+00 -0.18327872965E+02 -0.46918199250E+01  0.18920194033E+02  0.51100000000E-03 0. -1.
        -11    1    3    3    0    0 -0.97837429214E+01  0.61146296359E+01 -0.78541475064E+01  0.13957003778E+02  0.51100000000E-03 0.  1.
         12    1    3    3    0    0  0.49933148834E+01  0.18272613868E+02 -0.18424044161E+02  0.26424742464E+02  0.00000000000E+00 0. -1.
</event>
<event>
 7    1  0.7749294E-012  0.5930194E+02  0.7816164E-02  0.1266605E+00
        -11   -1    0    0    0    0  0.00000000000E+00  0.00000000000E+00  0.45593999997E+02  0.45594000000E+02  0.51100000000E-03 0. -1.
         11   -1    0    0    0    0 -0.00000000000E+00 -0.00000000000E+00 -0.45593999997E+02  0.45594000000E+02  0.51100000000E-03 0.  1.
    9900012    2    1    2    0    0 -0.15629644578E+02  0.23535773567E+02 -0.14781825916E+02  0.59301940280E+02  0.49999993166E+02 0.  0.
         12    1    1    2    0    0  0.15629644578E+02 -0.23535773567E+02  0.14781825916E+02  0.31886059720E+02  0.00000000000E+00 0. -1.
         11    1    3    3    0    0 -0.22718344914E+01 -0.78904172756E+01  0.38934665435E+01  0.90872987584E+01  0.51100000000E-03 0.  1.
        -11    1    3    3    0    0  0.20806322060E+01  0.20061511934E+02 -0.22970974609E+02  0.30568921574E+02  0.51100000000E-03 0. -1.
        -12    1    3    3    0    0 -0.15438442293E+02  0.11364678908E+02  0.42956821500E+01  0.19645719948E+02  0.00000000000E+00 0.  1.
</event>
<event>
 7    1  0.7749294E-012  0.5930207E+02  0.7816164E-02  0.1266604E+00
        -11   -1    0    0    0    0  0.00000000000E+00  0.00000000000E+00  0.45593999997E+02  0.45594000000E+02  0.51100000000E-03 0.  1.
         11   -1    0    0    0    0 -0.00000000000E+00 -0.00000000000E+00 -0.45593999997E+02  0.45594000000E+02  0.51100000000E-03 0. -1.
    9900012    2    1    2    0    0 -0.58143679300E+01 -0.26811436320E+02  0.16249686536E+02  0.59302073567E+02  0.50000236248E+02 0.  0.
         12    1    1    2    0    0  0.58143679300E+01  0.26811436320E+02 -0.16249686536E+02  0.31885926433E+02  0.00000000000E+00 0. -1.
         11    1    3    3    0    0 -0.17340272601E+02  0.50779734879E+01  0.68065046591E+01  0.19308013222E+02  0.51100000000E-03 0. -1.
        -11    1    3    3    0    0  0.47156850459E+01 -0.26897049885E+02 -0.25222597832E-01  0.27307317964E+02  0.51100000000E-03 0.  1.
        -12    1    3    3    0    0  0.68102196255E+01 -0.49923599228E+01  0.94684044751E+01  0.12686742381E+02  0.00000000000E+00 0.  1.
</event>
<event>
 7    1  0.7749294E-012  0.5930196E+02  0.7816164E-02  0.1266605E+00
        -11   -1    0    0    0    0  0.00000000000E+00  0.00000000000E+00  0.45593999997E+02  0.45594000000E+02  0.51100000000E-03 0.  1.
         11   -1    0    0    0    0 -0.00000000000E+00 -0.00000000000E+00 -0.45593999997E+02  0.45594000000E+02  0.51100000000E-03 0. -1.
    9900012    2    1    2    0    0 -0.30177084344E+02 -0.91491155085E+01 -0.47283324891E+01  0.59301955056E+02  0.50000020112E+02 0.  0.
         12    1    1    2    0    0  0.30177084344E+02  0.91491155085E+01  0.47283324891E+01  0.31886044944E+02  0.00000000000E+00 0. -1.
         11    1    3    3    0    0 -0.76904933023E+01  0.62856636794E+01  0.67780267549E+01  0.12024762038E+02  0.51100000000E-03 0. -1.
        -11    1    3    3    0    0 -0.31504051125E+02 -0.17229365277E+02 -0.12518812057E+02  0.38027318084E+02  0.51100000000E-03 0.  1.
        -12    1    3    3    0    0  0.90174600833E+01  0.17945860887E+01  0.10124528129E+01  0.92498749333E+01  0.00000000000E+00 0.  1.
</event>
<event>
 7    1  0.7749294E-012  0.5930194E+02  0.7816164E-02  0.1266605E+00
        -11   -1    0    0    0    0  0.00000000000E+00  0.00000000000E+00  0.45593999997E+02  0.45594000000E+02  0.51100000000E-03 0.  1.
         11   -1    0    0    0    0 -0.00000000000E+00 -0.00000000000E+00 -0.45593999997E+02  0.45594000000E+02  0.51100000000E-03 0. -1.
    9900012    2    1    2    0    0 -0.32027982941E+01  0.23101556706E+02  0.21743534551E+02  0.59301935114E+02  0.49999983744E+02 0.  0.
         12    1    1    2    0    0  0.32027982941E+01 -0.23101556706E+02 -0.21743534551E+02  0.31886064886E+02  0.00000000000E+00 0. -1.
         11    1    3    3    0    0  0.37381728825E+01  0.10156381822E+02 -0.90346979949E+01  0.14097935889E+02  0.51100000000E-03 0. -1.
        -11    1    3    3    0    0 -0.10566628851E+02  0.20333670844E+02  0.28680353605E+02  0.36710686434E+02  0.51100000000E-03 0.  1.
        -12    1    3    3    0    0  0.36256576741E+01 -0.73884959601E+01  0.20978789403E+01  0.84933127912E+01  0.00000000000E+00 0.  1.
</event>
<event>
 7    1  0.7749294E-012  0.5930194E+02  0.7816164E-02  0.1266605E+00
        -11   -1    0    0    0    0  0.00000000000E+00  0.00000000000E+00  0.45593999997E+02  0.45594000000E+02  0.51100000000E-03 0.  1.
         11   -1    0    0    0    0 -0.00000000000E+00 -0.00000000000E+00 -0.45593999997E+02  0.45594000000E+02  0.51100000000E-03 0. -1.
    9900012    2    1    2    0    0 -0.21247755879E+02  0.97756151633E+01 -0.21672361652E+02  0.59301936567E+02  0.49999986393E+02 0.  0.
         12    1    1    2    0    0  0.21247755879E+02 -0.97756151633E+01  0.21672361652E+02  0.31886063433E+02  0.00000000000E+00 0. -1.
         11    1    3    3    0    0  0.86302817788E+01  0.40430896411E+01 -0.10326036867E+02  0.14051881549E+02  0.51100000000E-03 0. -1.
        -11    1    3    3    0    0 -0.17431960247E+02  0.18468604630E+02 -0.10319961616E+02  0.27412847409E+02  0.51100000000E-03 0.  1.
         12    1    3    3    0    0 -0.12446077410E+02 -0.12736079108E+02 -0.10263631695E+01  0.17837207609E+02  0.00000000000E+00 0. -1.
</event>
<event>
 7    1  0.7749294E-012  0.5930193E+02  0.7816164E-02  0.1266605E+00
        -11   -1    0    0    0    0  0.00000000000E+00  0.00000000000E+00  0.45593999997E+02  0.45594000000E+02  0.51100000000E-03 0. -1.
         11   -1    0    0    0    0 -0.00000000000E+00 -0.00000000000E+00 -0.45593999997E+02  0.45594000000E+02  0.51100000000E-03 0.  1.
    9900012    2    1    2    0    0  0.22032285688E+02 -0.22970805901E+02 -0.19084639943E+01  0.59301925121E+02  0.49999965520E+02 0.  0.
         12    1    1    2    0    0 -0.22032285688E+02  0.22970805901E+02  0.19084639943E+01  0.31886074879E+02  0.00000000000E+00 0. -1.
         11    1    3    3    0    0  0.11202177233E+02 -0.36286248381E-01  0.18298890181E+02  0.21455523149E+02  0.51100000000E-03 0. -1.
        -11    1    3    3    0    0  0.10298955561E+02 -0.26385571604E+02 -0.16620401498E+02  0.32840594098E+02  0.51100000000E-03 0.  1.
         12    1    3    3    0    0  0.53115289392E+00  0.34510519515E+01 -0.35869526776E+01  0.50058078749E+01  0.00000000000E+00 0. -1.
</event>
<event>
 7    1  0.7749294E-012  0.5930168E+02  0.7816164E-02  0.1266606E+00
        -11   -1    0    0    0    0  0.00000000000E+00  0.00000000000E+00  0.45593999997E+02  0.45594000000E+02  0.51100000000E-03 0.  1.
         11   -1    0    0    0    0 -0.00000000000E+00 -0.00000000000E+00 -0.45593999997E+02  0.45594000000E+02  0.51100000000E-03 0. -1.
    9900012    2    1    2    0    0  0.17546154215E+02  0.26485788972E+02  0.27153524073E+01  0.59301675598E+02  0.49999510445E+02 0.  0.
         12    1    1    2    0    0 -0.17546154215E+02 -0.26485788972E+02 -0.27153524073E+01  0.31886324402E+02  0.00000000000E+00 0. -1.
         11    1    3    3    0    0  0.10877535950E+02  0.26713270548E+02 -0.13932239169E+02  0.32031654660E+02  0.51100000000E-03 0. -1.
        -11    1    3    3    0    0 -0.71114716529E+01  0.24993038346E+01  0.62801581133E+01  0.98112147524E+01  0.51100000000E-03 0.  1.
         12    1    3    3    0    0  0.13780089918E+02 -0.27267854104E+01  0.10367433463E+02  0.17458806186E+02  0.00000000000E+00 0. -1.
</event>
<event>
 7    1  0.7749294E-012  0.5930195E+02  0.7816164E-02  0.1266605E+00
        -11   -1    0    0    0    0  0.00000000000E+00  0.00000000000E+00  0.45593999997E+02  0.45594000000E+02  0.51100000000E-03 0. -1.
         11   -1    0    0    0    0 -0.00000000000E+00 -0.00000000000E+00 -0.45593999997E+02  0.45594000000E+02  0.51100000000E-03 0.  1.
    9900012    2    1    2    0    0 -0.28852963927E+02 -0.42603448823E+01 -0.12887046347E+02  0.59301952433E+02  0.50000015329E+02 0.  0.
         12    1    1    2    0    0  0.28852963927E+02  0.42603448823E+01  0.12887046347E+02  0.31886047567E+02  0.00000000000E+00 0. -1.
         11    1    3    3    0    0 -0.18836633425E+02  0.18868819740E+02 -0.93127031475E+01  0.28241415640E+02  0.51100000000E-03 0. -1.
        -11    1    3    3    0    0 -0.77885268473E+00 -0.15195033722E+02 -0.90564212274E+01  0.17706338612E+02  0.51100000000E-03 0.  1.
        -12    1    3    3    0    0 -0.92374778168E+01 -0.79341309002E+01  0.54820780278E+01  0.13354198181E+02  0.00000000000E+00 0.  1.
</event>
<event>
 7    1  0.7749294E-012  0.5930196E+02  0.7816164E-02  0.1266605E+00
        -11   -1    0    0    0    0  0.00000000000E+00  0.00000000000E+00  0.45593999997E+02  0.45594000000E+02  0.51100000000E-03 0. -1.
         11   -1    0    0    0    0 -0.00000000000E+00 -0.00000000000E+00 -0.45593999997E+02  0.45594000000E+02  0.51100000000E-03 0.  1.
    9900012    2    1    2    0    0 -0.13020081448E+02  0.27993822770E+02 -0.79713668651E+01  0.59301963496E+02  0.50000035506E+02 0.  0.
         12    1    1    2    0    0  0.13020081448E+02 -0.27993822770E+02  0.79713668651E+01  0.31886036504E+02  0.00000000000E+00 0. -1.
         11    1    3    3    0    0 -0.81552381030E+01 -0.61198533122E+01  0.20395169866E+01  0.10398083616E+02  0.51100000000E-03 0. -1.
        -11    1    3    3    0    0  0.72708378662E+01  0.33689061236E+02 -0.23469989202E+01  0.34544555786E+02  0.51100000000E-03 0.  1.
        -12    1    3    3    0    0 -0.12135681211E+02  0.42461484679E+00 -0.76638849315E+01  0.14359324095E+02  0.00000000000E+00 0.  1.
</event>
<event>
 7    1  0.7749294E-012  0.5930194E+02  0.7816164E-02  0.1266605E+00
        -11   -1    0    0    0    0  0.00000000000E+00  0.00000000000E+00  0.45593999997E+02  0.45594000000E+02  0.51100000000E-03 0.  1.
         11   -1    0    0    0    0 -0.00000000000E+00 -0.00000000000E+00 -0.45593999997E+02  0.45594000000E+02  0.51100000000E-03 0. -1.
    9900012    2    1    2    0    0  0.59311735002E+01  0.99935295009E+01 -0.29692951087E+02  0.59301940425E+02  0.49999993429E+02 0.  0.
         12    1    1    2    0    0 -0.59311735002E+01 -0.99935295009E+01  0.29692951087E+02  0.31886059575E+02  0.00000000000E+00 0. -1.
         11    1    3    3    0    0 -0.18124121088E+02  0.18222905717E+01 -0.22962407210E+02  0.29310009439E+02  0.51100000000E-03 0. -1.
        -11    1    3    3    0    0  0.13235908354E+02 -0.77449007698E-01 -0.92598945519E+01  0.16153665704E+02  0.51100000000E-03 0.  1.
         12    1    3    3    0    0  0.10819386235E+02  0.82486879368E+01  0.25293506753E+01  0.13838265282E+02  0.00000000000E+00 0. -1.
</event>
<event>
 7    1  0.7749294E-012  0.5930201E+02  0.7816164E-02  0.1266605E+00
        -11   -1    0    0    0    0  0.00000000000E+00  0.00000000000E+00  0.45593999997E+02  0.45594000000E+02  0.51100000000E-03 0.  1.
         11   -1    0    0    0    0 -0.00000000000E+00 -0.00000000000E+00 -0.45593999997E+02  0.45594000000E+02  0.51100000000E-03 0. -1.
    9900012    2    1    2    0    0  0.17224523938E+02  0.15557260900E+02  0.21863298945E+02  0.59302008839E+02  0.50000118200E+02 0.  0.
         12    1    1    2    0    0 -0.17224523938E+02 -0.15557260900E+02 -0.21863298945E+02  0.31885991161E+02  0.00000000000E+00 0. -1.
         11    1    3    3    0    0  0.51622923892E+01 -0.17601494857E+02  0.59619178190E+01  0.19287466092E+02  0.51100000000E-03 0. -1.
        -11    1    3    3    0    0  0.13023619772E+02  0.22348677938E+02  0.11171579149E+02  0.28175916285E+02  0.51100000000E-03 0.  1.
         12    1    3    3    0    0 -0.96138822345E+00  0.10810077819E+02  0.47298019762E+01  0.11838626462E+02  0.00000000000E+00 0. -1.
</event>
<event>
 7    1  0.7749294E-012  0.5930191E+02  0.7816164E-02  0.1266605E+00
        -11   -1    0    0    0    0  0.00000000000E+00  0.00000000000E+00  0.45593999997E+02  0.45594000000E+02  0.51100000000E-03 0.  1.
         11   -1    0    0    0    0 -0.00000000000E+00 -0.00000000000E+00 -0.45593999997E+02  0.45594000000E+02  0.51100000000E-03 0. -1.
    9900012    2    1    2    0    0 -0.27216992979E+02  0.48661106533E+01  0.15883290516E+02  0.59301911226E+02  0.49999940177E+02 0.  0.
         12    1    1    2    0    0  0.27216992979E+02 -0.48661106533E+01 -0.15883290516E+02  0.31886088774E+02  0.00000000000E+00 0. -1.
         11    1    3    3    0    0  0.30481050323E+01  0.54353242222E+01 -0.13683685951E+02  0.15035855651E+02  0.51100000000E-03 0. -1.
        -11    1    3    3    0    0 -0.37983624320E+01  0.37072196513E+01  0.91073567300E+01  0.10541109125E+02  0.51100000000E-03 0.  1.
         12    1    3    3    0    0 -0.26466735579E+02 -0.42764332202E+01  0.20459619737E+02  0.33724946450E+02  0.00000000000E+00 0. -1.
</event>
<event>
 7    1  0.7749294E-012  0.5930195E+02  0.7816164E-02  0.1266605E+00
        -11   -1    0    0    0    0  0.00000000000E+00  0.00000000000E+00  0.45593999997E+02  0.45594000000E+02  0.51100000000E-03 0. -1.
         11   -1    0    0    0    0 -0.00000000000E+00 -0.00000000000E+00 -0.45593999997E+02  0.45594000000E+02  0.51100000000E-03 0.  1.
    9900012    2    1    2    0    0  0.13328515374E+02 -0.11754336419E+02 -0.26474633190E+02  0.59301953691E+02  0.50000017623E+02 0.  0.
         12    1    1    2    0    0 -0.13328515374E+02  0.11754336419E+02  0.26474633190E+02  0.31886046309E+02  0.00000000000E+00 0. -1.
         11    1    3    3    0    0 -0.10625062323E+01 -0.19248765219E+02  0.71698376257E+00  0.19291395697E+02  0.51100000000E-03 0. -1.
        -11    1    3    3    0    0  0.13553236857E+02  0.15809584069E+02 -0.21281038180E+02  0.29774414587E+02  0.51100000000E-03 0.  1.
        -12    1    3    3    0    0  0.83778474854E+00 -0.83151552679E+01 -0.59105787721E+01  0.10236143406E+02  0.00000000000E+00 0.  1.
</event>
<event>
 7    1  0.7749294E-012  0.5930195E+02  0.7816164E-02  0.1266605E+00
        -11   -1    0    0    0    0  0.00000000000E+00  0.00000000000E+00  0.45593999997E+02  0.45594000000E+02  0.51100000000E-03 0.  1.
         11   -1    0    0    0    0 -0.00000000000E+00 -0.00000000000E+00 -0.45593999997E+02  0.45594000000E+02  0.51100000000E-03 0. -1.
    9900012    2    1    2    0    0  0.33349176210E+01 -0.27729809295E+02 -0.15383642984E+02  0.59301945516E+02  0.50000002714E+02 0.  0.
         12    1    1    2    0    0 -0.33349176210E+01  0.27729809295E+02  0.15383642984E+02  0.31886054484E+02  0.00000000000E+00 0. -1.
         11    1    3    3    0    0  0.93731914941E+00 -0.70879087494E+01 -0.19395216692E+02  0.20671029205E+02  0.51100000000E-03 0. -1.
        -11    1    3    3    0    0  0.15897034161E+02 -0.18848206424E+02  0.41962773449E+01  0.25011583803E+02  0.51100000000E-03 0.  1.
        -12    1    3    3    0    0 -0.13499435689E+02 -0.17936941216E+01 -0.18470363753E+00  0.13619332508E+02  0.00000000000E+00 0.  1.
</event>
<event>
 7    1  0.7749294E-012  0.5930193E+02  0.7816164E-02  0.1266605E+00
        -11   -1    0    0    0    0  0.00000000000E+00  0.00000000000E+00  0.45593999997E+02  0.45594000000E+02  0.51100000000E-03 0.  1.
         11   -1    0    0    0    0 -0.00000000000E+00 -0.00000000000E+00 -0.45593999997E+02  0.45594000000E+02  0.51100000000E-03 0. -1.
    9900012    2    1    2    0    0  0.93228818938E+00  0.24901485523E+02  0.19893933320E+02  0.59301925838E+02  0.49999966827E+02 0.  0.
         12    1    1    2    0    0 -0.93228818938E+00 -0.24901485523E+02 -0.19893933320E+02  0.31886074162E+02  0.00000000000E+00 0. -1.
         11    1    3    3    0    0  0.15006528734E+01  0.30244260374E+01  0.32392606430E+02  0.32568083509E+02  0.51100000000E-03 0.  1.
        -11    1    3    3    0    0  0.20255234083E+01  0.14425609302E+01 -0.34074638071E+01  0.42183571414E+01  0.51100000000E-03 0. -1.
         12    1    3    3    0    0 -0.25938880923E+01  0.20434498555E+02 -0.90912093030E+01  0.22515485188E+02  0.00000000000E+00 0. -1.
</event>
<event>
 7    1  0.7749294E-012  0.5930191E+02  0.7816164E-02  0.1266605E+00
        -11   -1    0    0    0    0  0.00000000000E+00  0.00000000000E+00  0.45593999997E+02  0.45594000000E+02  0.51100000000E-03 0.  1.
         11   -1    0    0    0    0 -0.00000000000E+00 -0.00000000000E+00 -0.45593999997E+02  0.45594000000E+02  0.51100000000E-03 0. -1.
    9900012    2    1    2    0    0 -0.21469949215E+02 -0.13010511265E+02  0.19659358292E+02  0.59301913832E+02  0.49999944930E+02 0.  0.
         12    1    1    2    0    0  0.21469949215E+02  0.13010511265E+02 -0.19659358292E+02  0.31886086168E+02  0.00000000000E+00 0. -1.
         11    1    3    3    0    0  0.77505427010E+00  0.85104503614E+00  0.25374477329E+00  0.11787168643E+01  0.51100000000E-03 0. -1.
        -11    1    3    3    0    0  0.15319960066E+02 -0.50272294749E+01  0.43475080815E+01  0.16699552072E+02  0.51100000000E-03 0.  1.
        -12    1    3    3    0    0 -0.37564963551E+02 -0.88343268267E+01  0.15058105437E+02  0.41423644896E+02  0.00000000000E+00 0.  1.
</event>
<event>
 7    1  0.7749294E-012  0.5930195E+02  0.7816164E-02  0.1266605E+00
        -11   -1    0    0    0    0  0.00000000000E+00  0.00000000000E+00  0.45593999997E+02  0.45594000000E+02  0.51100000000E-03 0.  1.
         11   -1    0    0    0    0 -0.00000000000E+00 -0.00000000000E+00 -0.45593999997E+02  0.45594000000E+02  0.51100000000E-03 0. -1.
    9900012    2    1    2    0    0 -0.27276626355E+02  0.15551362692E+02 -0.55552553860E+01  0.59301951494E+02  0.50000013617E+02 0.  0.
         12    1    1    2    0    0  0.27276626355E+02 -0.15551362692E+02  0.55552553860E+01  0.31886048506E+02  0.00000000000E+00 0. -1.
         11    1    3    3    0    0  0.21183353888E+01  0.16321995495E+02 -0.11755873080E+02  0.20226107730E+02  0.51100000000E-03 0. -1.
        -11    1    3    3    0    0 -0.33796798593E+02  0.10376032726E+01  0.57160197388E+01  0.34292464151E+02  0.51100000000E-03 0.  1.
        -12    1    3    3    0    0  0.44018368487E+01 -0.18082360755E+01  0.48459795468E+00  0.47833796133E+01  0.00000000000E+00 0.  1.
</event>
<event>
 7    1  0.7749294E-012  0.5930192E+02  0.7816164E-02  0.1266605E+00
        -11   -1    0    0    0    0  0.00000000000E+00  0.00000000000E+00  0.45593999997E+02  0.45594000000E+02  0.51100000000E-03 0. -1.
         11   -1    0    0    0    0 -0.00000000000E+00 -0.00000000000E+00 -0.45593999997E+02  0.45594000000E+02  0.51100000000E-03 0.  1.
    9900012    2    1    2    0    0  0.29133360439E+02 -0.63660604597E+01 -0.11289056822E+02  0.59301918081E+02  0.49999952679E+02 0.  0.
         12    1    1    2    0    0 -0.29133360439E+02  0.63660604597E+01  0.11289056822E+02  0.31886081919E+02  0.00000000000E+00 0. -1.
         11    1    3    3    0    0  0.18115295185E+02  0.19556119192E+01  0.18460928856E+02  0.25938277355E+02  0.51100000000E-03 0. -1.
        -11    1    3    3    0    0  0.28776216938E+01  0.19140360775E+00 -0.95966292136E+01  0.10020610484E+02  0.51100000000E-03 0.  1.
         12    1    3    3    0    0  0.81404435595E+01 -0.85130759867E+01 -0.20153356464E+02  0.23343030242E+02  0.00000000000E+00 0. -1.
</event>
<event>
 7    1  0.7749294E-012  0.5930194E+02  0.7816164E-02  0.1266605E+00
        -11   -1    0    0    0    0  0.00000000000E+00  0.00000000000E+00  0.45593999997E+02  0.45594000000E+02  0.51100000000E-03 0.  1.
         11   -1    0    0    0    0 -0.00000000000E+00 -0.00000000000E+00 -0.45593999997E+02  0.45594000000E+02  0.51100000000E-03 0. -1.
    9900012    2    1    2    0    0 -0.80518893979E+01 -0.21507664734E+02  0.22120314422E+02  0.59301939169E+02  0.49999991139E+02 0.  0.
         12    1    1    2    0    0  0.80518893979E+01  0.21507664734E+02 -0.22120314422E+02  0.31886060831E+02  0.00000000000E+00 0. -1.
         11    1    3    3    0    0  0.96101695007E+01  0.78393898213E+01  0.24860382392E+00  0.12404563464E+02  0.51100000000E-03 0. -1.
        -11    1    3    3    0    0 -0.20962864124E+02 -0.30483566752E+02  0.16540853204E+02  0.40525169207E+02  0.51100000000E-03 0.  1.
        -12    1    3    3    0    0  0.33008052257E+01  0.11365121973E+01  0.53308573938E+01  0.63722064990E+01  0.00000000000E+00 0.  1.
</event>
<event>
 7    1  0.7749294E-012  0.5930197E+02  0.7816164E-02  0.1266605E+00
        -11   -1    0    0    0    0  0.00000000000E+00  0.00000000000E+00  0.45593999997E+02  0.45594000000E+02  0.51100000000E-03 0.  1.
         11   -1    0    0    0    0 -0.00000000000E+00 -0.00000000000E+00 -0.45593999997E+02  0.45594000000E+02  0.51100000000E-03 0. -1.
    9900012    2    1    2    0    0  0.30147538286E+02  0.17537626817E+01 -0.10235671922E+02  0.59301972842E+02  0.50000052549E+02 0.  0.
         12    1    1    2    0    0 -0.30147538286E+02 -0.17537626817E+01  0.10235671922E+02  0.31886027158E+02  0.00000000000E+00 0. -1.
         11    1    3    3    0    0 -0.90115119768E+01 -0.85798470262E+01 -0.32997120042E+01  0.12872809432E+02  0.51100000000E-03 0. -1.
        -11    1    3    3    0    0  0.18809858539E+02 -0.15689580072E+01  0.56534251350E+01  0.19703644929E+02  0.51100000000E-03 0.  1.
         12    1    3    3    0    0  0.20349191724E+02  0.11902567715E+02 -0.12589385053E+02  0.26725518480E+02  0.00000000000E+00 0. -1.
</event>
<event>
 7    1  0.7749294E-012  0.5930187E+02  0.7816164E-02  0.1266605E+00
        -11   -1    0    0    0    0  0.00000000000E+00  0.00000000000E+00  0.45593999997E+02  0.45594000000E+02  0.51100000000E-03 0.  1.
         11   -1    0    0    0    0 -0.00000000000E+00 -0.00000000000E+00 -0.45593999997E+02  0.45594000000E+02  0.51100000000E-03 0. -1.
    9900012    2    1    2    0    0 -0.35784764569E+01 -0.21603305550E+02  0.23177938272E+02  0.59301872500E+02  0.49999869550E+02 0.  0.
         12    1    1    2    0    0  0.35784764569E+01  0.21603305550E+02 -0.23177938272E+02  0.31886127500E+02  0.00000000000E+00 0. -1.
         11    1    3    3    0    0 -0.70112264038E+00  0.12639210237E+02 -0.53721456734E+01  0.13751405665E+02  0.51100000000E-03 0. -1.
        -11    1    3    3    0    0 -0.77808738246E+00 -0.32382171238E+02  0.27697491231E+02  0.42618792273E+02  0.51100000000E-03 0.  1.
         12    1    3    3    0    0 -0.20992664341E+01 -0.18603445488E+01  0.85259271347E+00  0.29316745618E+01  0.00000000000E+00 0. -1.
</event>
<event>
 7    1  0.7749294E-012  0.5930195E+02  0.7816164E-02  0.1266605E+00
        -11   -1    0    0    0    0  0.00000000000E+00  0.00000000000E+00  0.45593999997E+02  0.45594000000E+02  0.51100000000E-03 0.  1.
         11   -1    0    0    0    0 -0.00000000000E+00 -0.00000000000E+00 -0.45593999997E+02  0.45594000000E+02  0.51100000000E-03 0. -1.
    9900012    2    1    2    0    0 -0.57191115684E+01  0.23820339281E+02  0.20410857486E+02  0.59301954401E+02  0.50000018919E+02 0.  0.
         12    1    1    2    0    0  0.57191115684E+01 -0.23820339281E+02 -0.20410857486E+02  0.31886045599E+02  0.00000000000E+00 0. -1.
         11    1    3    3    0    0 -0.60570734386E+01 -0.10436741148E+02 -0.18440894222E+01  0.12207144240E+02  0.51100000000E-03 0. -1.
        -11    1    3    3    0    0 -0.11126208932E+02  0.21676314808E+02  0.14844458068E+02  0.28530914539E+02  0.51100000000E-03 0.  1.
         12    1    3    3    0    0  0.11464170802E+02  0.12580765621E+02  0.74104888404E+01  0.18563895622E+02  0.00000000000E+00 0. -1.
</event>
<event>
 7    1  0.7749294E-012  0.5930193E+02  0.7816164E-02  0.1266605E+00
        -11   -1    0    0    0    0  0.00000000000E+00  0.00000000000E+00  0.45593999997E+02  0.45594000000E+02  0.51100000000E-03 0.  1.
         11   -1    0    0    0    0 -0.00000000000E+00 -0.00000000000E+00 -0.45593999997E+02  0.45594000000E+02  0.51100000000E-03 0. -1.
    9900012    2    1    2    0    0  0.14050938331E+02 -0.13313439392E+02  0.25338611398E+02  0.59301925234E+02  0.49999965725E+02 0.  0.
         12    1    1    2    0    0 -0.14050938331E+02  0.13313439392E+02 -0.25338611398E+02  0.31886074766E+02  0.00000000000E+00 0. -1.
         11    1    3    3    0    0  0.47548929988E+01 -0.58785262246E+01  0.92498984695E+01  0.11946828029E+02  0.51100000000E-03 0.  1.
        -11    1    3    3    0    0 -0.10052758444E+02  0.12878085244E+02  0.77940637506E+01  0.18101117698E+02  0.51100000000E-03 0. -1.
        -12    1    3    3    0    0  0.19348803777E+02 -0.20312998411E+02  0.82946491775E+01  0.29253979507E+02  0.00000000000E+00 0.  1.
</event>
<event>
 7    1  0.7749294E-012  0.5930198E+02  0.7816164E-02  0.1266605E+00
        -11   -1    0    0    0    0  0.00000000000E+00  0.00000000000E+00  0.45593999997E+02  0.45594000000E+02  0.51100000000E-03 0.  1.
         11   -1    0    0    0    0 -0.00000000000E+00 -0.00000000000E+00 -0.45593999997E+02  0.45594000000E+02  0.51100000000E-03 0. -1.
    9900012    2    1    2    0    0 -0.21444088179E+02 -0.35352354889E+01  0.23331764401E+02  0.59301983663E+02  0.50000072285E+02 0.  0.
         12    1    1    2    0    0  0.21444088179E+02  0.35352354889E+01 -0.23331764401E+02  0.31886016337E+02  0.00000000000E+00 0. -1.
         11    1    3    3    0    0  0.37297258873E+01 -0.30825788359E+01  0.63433268606E+01  0.79781541346E+01  0.51100000000E-03 0. -1.
        -11    1    3    3    0    0 -0.14920727621E+02 -0.49139227778E+01 -0.12314165546E+02  0.19960296169E+02  0.51100000000E-03 0.  1.
        -12    1    3    3    0    0 -0.10253086445E+02  0.44612661248E+01  0.29302603086E+02  0.31363533359E+02  0.00000000000E+00 0.  1.
</event>
<event>
 7    1  0.7749294E-012  0.5930195E+02  0.7816164E-02  0.1266605E+00
        -11   -1    0    0    0    0  0.00000000000E+00  0.00000000000E+00  0.45593999997E+02  0.45594000000E+02  0.51100000000E-03 0. -1.
         11   -1    0    0    0    0 -0.00000000000E+00 -0.00000000000E+00 -0.45593999997E+02  0.45594000000E+02  0.51100000000E-03 0.  1.
    9900012    2    1    2    0    0  0.23927502821E+02 -0.12530051846E+02 -0.16946764361E+02  0.59301946421E+02  0.50000004365E+02 0.  0.
         12    1    1    2    0    0 -0.23927502821E+02  0.12530051846E+02  0.16946764361E+02  0.31886053579E+02  0.00000000000E+00 0. -1.
         11    1    3    3    0    0 -0.64529485878E+01 -0.28324260791E+01 -0.10258608921E+01  0.71214867690E+01  0.51100000000E-03 0. -1.
        -11    1    3    3    0    0  0.36987330295E+02 -0.15156320738E+02 -0.85496404202E+01  0.40876313584E+02  0.51100000000E-03 0.  1.
        -12    1    3    3    0    0 -0.66068788860E+01  0.54586949710E+01 -0.73712630483E+01  0.11304146068E+02  0.00000000000E+00 0.  1.
</event>
<event>
 7    1  0.7749294E-012  0.5930192E+02  0.7816164E-02  0.1266605E+00
        -11   -1    0    0    0    0  0.00000000000E+00  0.00000000000E+00  0.45593999997E+02  0.45594000000E+02  0.51100000000E-03 0. -1.
         11   -1    0    0    0    0 -0.00000000000E+00 -0.00000000000E+00 -0.45593999997E+02  0.45594000000E+02  0.51100000000E-03 0.  1.
    9900012    2    1    2    0    0  0.80119379905E+01  0.11603917789E+02 -0.28598599226E+02  0.59301922535E+02  0.49999960803E+02 0.  0.
         12    1    1    2    0    0 -0.80119379905E+01 -0.11603917789E+02  0.28598599226E+02  0.31886077465E+02  0.00000000000E+00 0. -1.
         11    1    3    3    0    0 -0.10814630757E+01 -0.57207465057E+01  0.85386178501E+01  0.10334626167E+02  0.51100000000E-03 0. -1.
        -11    1    3    3    0    0 -0.22813759303E+01  0.19491617203E+02 -0.28121112016E+02  0.34291759340E+02  0.51100000000E-03 0.  1.
        -12    1    3    3    0    0  0.11374776997E+02 -0.21669529081E+01 -0.90161050593E+01  0.14675537028E+02  0.00000000000E+00 0.  1.
</event>
<event>
 7    1  0.7749294E-012  0.5930197E+02  0.7816164E-02  0.1266605E+00
        -11   -1    0    0    0    0  0.00000000000E+00  0.00000000000E+00  0.45593999997E+02  0.45594000000E+02  0.51100000000E-03 0.  1.
         11   -1    0    0    0    0 -0.00000000000E+00 -0.00000000000E+00 -0.45593999997E+02  0.45594000000E+02  0.51100000000E-03 0. -1.
    9900012    2    1    2    0    0 -0.22811737382E+02 -0.87792997832E+01  0.20476022066E+02  0.59301969411E+02  0.50000046293E+02 0.  0.
         12    1    1    2    0    0  0.22811737382E+02  0.87792997832E+01 -0.20476022066E+02  0.31886030589E+02  0.00000000000E+00 0. -1.
         11    1    3    3    0    0 -0.20388682543E+02 -0.48873542673E+01 -0.69287648962E+01  0.22081494307E+02  0.51100000000E-03 0. -1.
        -11    1    3    3    0    0  0.61088314492E+01 -0.63864686983E+01  0.26902804565E+02  0.28317233230E+02  0.51100000000E-03 0.  1.
        -12    1    3    3    0    0 -0.85318862881E+01  0.24945231824E+01  0.50198239728E+00  0.89032418740E+01  0.00000000000E+00 0.  1.
</event>
<event>
 7    1  0.7749294E-012  0.5930194E+02  0.7816164E-02  0.1266605E+00
        -11   -1    0    0    0    0  0.00000000000E+00  0.00000000000E+00  0.45593999997E+02  0.45594000000E+02  0.51100000000E-03 0.  1.
         11   -1    0    0    0    0 -0.00000000000E+00 -0.00000000000E+00 -0.45593999997E+02  0.45594000000E+02  0.51100000000E-03 0. -1.
    9900012    2    1    2    0    0 -0.19943335402E+02 -0.79070374827E+01  0.23589469623E+02  0.59301938063E+02  0.49999989123E+02 0.  0.
         12    1    1    2    0    0  0.19943335402E+02  0.79070374827E+01 -0.23589469623E+02  0.31886061937E+02  0.00000000000E+00 0. -1.
         11    1    3    3    0    0  0.29171097737E+01 -0.19328498646E+02  0.19245613161E+02  0.27431624369E+02  0.51100000000E-03 0. -1.
        -11    1    3    3    0    0 -0.12421706960E+02  0.11338906011E+02  0.10426482923E+02  0.19788409227E+02  0.51100000000E-03 0.  1.
        -12    1    3    3    0    0 -0.10438738216E+02  0.82555152189E-01 -0.60826264612E+01  0.12081904467E+02  0.00000000000E+00 0.  1.
</event>
<event>
 7    1  0.7749294E-012  0.5930194E+02  0.7816164E-02  0.1266605E+00
        -11   -1    0    0    0    0  0.00000000000E+00  0.00000000000E+00  0.45593999997E+02  0.45594000000E+02  0.51100000000E-03 0. -1.
         11   -1    0    0    0    0 -0.00000000000E+00 -0.00000000000E+00 -0.45593999997E+02  0.45594000000E+02  0.51100000000E-03 0.  1.
    9900012    2    1    2    0    0 -0.28752482108E+02 -0.13093427345E+02 -0.43101646152E+01  0.59301943705E+02  0.49999999412E+02 0.  0.
         12    1    1    2    0    0  0.28752482108E+02  0.13093427345E+02  0.43101646152E+01  0.31886056295E+02  0.00000000000E+00 0. -1.
         11    1    3    3    0    0 -0.38656671374E+01  0.13786769635E+02  0.36658483757E+01  0.14780285652E+02  0.51100000000E-03 0. -1.
        -11    1    3    3    0    0 -0.22808909190E+02 -0.23760328746E+02  0.28555077603E+01  0.33059847026E+02  0.51100000000E-03 0.  1.
        -12    1    3    3    0    0 -0.20779057807E+01 -0.31198682342E+01 -0.10831520751E+02  0.11461811027E+02  0.00000000000E+00 0.  1.
</event>
<event>
 7    1  0.7749294E-012  0.5930194E+02  0.7816164E-02  0.1266605E+00
        -11   -1    0    0    0    0  0.00000000000E+00  0.00000000000E+00  0.45593999997E+02  0.45594000000E+02  0.51100000000E-03 0. -1.
         11   -1    0    0    0    0 -0.00000000000E+00 -0.00000000000E+00 -0.45593999997E+02  0.45594000000E+02  0.51100000000E-03 0.  1.
    9900012    2    1    2    0    0  0.12198138630E+02  0.26004824752E+02 -0.13844681431E+02  0.59301941913E+02  0.49999996143E+02 0.  0.
         12    1    1    2    0    0 -0.12198138630E+02 -0.26004824752E+02  0.13844681431E+02  0.31886058087E+02  0.00000000000E+00 0. -1.
         11    1    3    3    0    0  0.16102108949E+02  0.26697336957E+02  0.64304294748E+01  0.31833569336E+02  0.51100000000E-03 0. -1.
        -11    1    3    3    0    0 -0.34356916354E+01  0.81084051874E+01 -0.58777856546E+01  0.10587661506E+02  0.51100000000E-03 0.  1.
         12    1    3    3    0    0 -0.46827868429E+00 -0.88009173920E+01 -0.14397325251E+02  0.16880711071E+02  0.00000000000E+00 0. -1.
</event>
<event>
 7    1  0.7749294E-012  0.5930196E+02  0.7816164E-02  0.1266605E+00
        -11   -1    0    0    0    0  0.00000000000E+00  0.00000000000E+00  0.45593999997E+02  0.45594000000E+02  0.51100000000E-03 0.  1.
         11   -1    0    0    0    0 -0.00000000000E+00 -0.00000000000E+00 -0.45593999997E+02  0.45594000000E+02  0.51100000000E-03 0. -1.
    9900012    2    1    2    0    0  0.25564270616E+02  0.12988929421E+02 -0.13945446877E+02  0.59301957470E+02  0.50000024516E+02 0.  0.
         12    1    1    2    0    0 -0.25564270616E+02 -0.12988929421E+02  0.13945446877E+02  0.31886042530E+02  0.00000000000E+00 0. -1.
         11    1    3    3    0    0 -0.37292990239E+01 -0.71702184004E+01  0.14465321454E+01  0.82104907666E+01  0.51100000000E-03 0. -1.
        -11    1    3    3    0    0  0.35887240002E+02  0.11691568538E+02 -0.98250932256E+01  0.39001528522E+02  0.51100000000E-03 0.  1.
        -12    1    3    3    0    0 -0.65936703627E+01  0.84675792832E+01 -0.55668857970E+01  0.12089938182E+02  0.00000000000E+00 0.  1.
</event>
<event>
 7    1  0.7749294E-012  0.5930194E+02  0.7816164E-02  0.1266605E+00
        -11   -1    0    0    0    0  0.00000000000E+00  0.00000000000E+00  0.45593999997E+02  0.45594000000E+02  0.51100000000E-03 0. -1.
         11   -1    0    0    0    0 -0.00000000000E+00 -0.00000000000E+00 -0.45593999997E+02  0.45594000000E+02  0.51100000000E-03 0.  1.
    9900012    2    1    2    0    0  0.12469687597E+02  0.27994918236E+02  0.88040965144E+01  0.59301942369E+02  0.49999996974E+02 0.  0.
         12    1    1    2    0    0 -0.12469687597E+02 -0.27994918236E+02 -0.88040965144E+01  0.31886057631E+02  0.00000000000E+00 0. -1.
         11    1    3    3    0    0  0.57495321302E+01 -0.79903529951E+01 -0.74705673125E+01  0.12357679270E+02  0.51100000000E-03 0. -1.
        -11    1    3    3    0    0 -0.32097191802E+01  0.29569729434E+02  0.41873519215E+01  0.30036729389E+02  0.51100000000E-03 0.  1.
         12    1    3    3    0    0  0.99298746471E+01  0.64155417976E+01  0.12087311905E+02  0.16907533710E+02  0.00000000000E+00 0. -1.
</event>
<event>
 7    1  0.7749294E-012  0.5930196E+02  0.7816164E-02  0.1266605E+00
        -11   -1    0    0    0    0  0.00000000000E+00  0.00000000000E+00  0.45593999997E+02  0.45594000000E+02  0.51100000000E-03 0. -1.
         11   -1    0    0    0    0 -0.00000000000E+00 -0.00000000000E+00 -0.45593999997E+02  0.45594000000E+02  0.51100000000E-03 0.  1.
    9900012    2    1    2    0    0 -0.12894953977E+02 -0.12248404044E+02 -0.26465375536E+02  0.59301963213E+02  0.50000034990E+02 0.  0.
         12    1    1    2    0    0  0.12894953977E+02  0.12248404044E+02  0.26465375536E+02  0.31886036787E+02  0.00000000000E+00 0. -1.
         11    1    3    3    0    0 -0.22347049258E+02 -0.10688259099E+02 -0.30222524001E+02  0.39077236985E+02  0.51100000000E-03 0. -1.
        -11    1    3    3    0    0  0.12666871006E+02 -0.37276824413E+01 -0.19272838820E+01  0.13343899763E+02  0.51100000000E-03 0.  1.
         12    1    3    3    0    0 -0.32147757238E+01  0.21675374964E+01  0.56844323463E+01  0.68808264658E+01  0.00000000000E+00 0. -1.
</event>
<event>
 7    1  0.7749294E-012  0.5930194E+02  0.7816164E-02  0.1266605E+00
        -11   -1    0    0    0    0  0.00000000000E+00  0.00000000000E+00  0.45593999997E+02  0.45594000000E+02  0.51100000000E-03 0. -1.
         11   -1    0    0    0    0 -0.00000000000E+00 -0.00000000000E+00 -0.45593999997E+02  0.45594000000E+02  0.51100000000E-03 0.  1.
    9900012    2    1    2    0    0 -0.59889043386E+01  0.31017196446E+02  0.43344464666E+01  0.59301939147E+02  0.49999991099E+02 0.  0.
         12    1    1    2    0    0  0.59889043386E+01 -0.31017196446E+02 -0.43344464666E+01  0.31886060853E+02  0.00000000000E+00 0. -1.
         11    1    3    3    0    0  0.85500083462E+01  0.12549916746E+02  0.16463401605E+02  0.22397469627E+02  0.51100000000E-03 0. -1.
        -11    1    3    3    0    0 -0.61922608094E+01  0.14385235517E+02 -0.19524101130E+02  0.25029375142E+02  0.51100000000E-03 0.  1.
        -12    1    3    3    0    0 -0.83466518755E+01  0.40820441830E+01  0.73951459916E+01  0.11875094378E+02  0.00000000000E+00 0.  1.
</event>
<event>
 7    1  0.7749294E-012  0.5930195E+02  0.7816164E-02  0.1266605E+00
        -11   -1    0    0    0    0  0.00000000000E+00  0.00000000000E+00  0.45593999997E+02  0.45594000000E+02  0.51100000000E-03 0. -1.
         11   -1    0    0    0    0 -0.00000000000E+00 -0.00000000000E+00 -0.45593999997E+02  0.45594000000E+02  0.51100000000E-03 0.  1.
    9900012    2    1    2    0    0  0.26345653841E+02  0.68004176824E+00 -0.17948937764E+02  0.59301948191E+02  0.50000007592E+02 0.  0.
         12    1    1    2    0    0 -0.26345653841E+02 -0.68004176824E+00  0.17948937764E+02  0.31886051809E+02  0.00000000000E+00 0. -1.
         11    1    3    3    0    0  0.23083817626E+02 -0.13249850905E+02 -0.15059564619E+02  0.30581230713E+02  0.51100000000E-03 0.  1.
        -11    1    3    3    0    0 -0.45338745613E+01  0.17777628841E+02 -0.62765525554E+01  0.19390596123E+02  0.51100000000E-03 0. -1.
         12    1    3    3    0    0  0.77957107768E+01 -0.38477361682E+01  0.33871794103E+01  0.93301213547E+01  0.00000000000E+00 0. -1.
</event>
<event>
 7    1  0.7749294E-012  0.5930195E+02  0.7816164E-02  0.1266605E+00
        -11   -1    0    0    0    0  0.00000000000E+00  0.00000000000E+00  0.45593999997E+02  0.45594000000E+02  0.51100000000E-03 0.  1.
         11   -1    0    0    0    0 -0.00000000000E+00 -0.00000000000E+00 -0.45593999997E+02  0.45594000000E+02  0.51100000000E-03 0. -1.
    9900012    2    1    2    0    0 -0.14369659626E+02  0.27713740964E+02  0.64947285112E+01  0.59301952042E+02  0.50000014615E+02 0.  0.
         12    1    1    2    0    0  0.14369659626E+02 -0.27713740964E+02 -0.64947285112E+01  0.31886047958E+02  0.00000000000E+00 0. -1.
         11    1    3    3    0    0  0.78937054098E+01  0.14430796494E+02  0.18685811076E+02  0.24894136024E+02  0.51100000000E-03 0. -1.
        -11    1    3    3    0    0 -0.15112279483E+02  0.16148499807E+02 -0.28499538130E+01  0.22299714666E+02  0.51100000000E-03 0.  1.
         12    1    3    3    0    0 -0.71510855530E+01 -0.28655553376E+01 -0.93411287519E+01  0.12108101352E+02  0.00000000000E+00 0. -1.
</event>
<event>
 7    1  0.7749294E-012  0.5930196E+02  0.7816164E-02  0.1266605E+00
        -11   -1    0    0    0    0  0.00000000000E+00  0.00000000000E+00  0.45593999997E+02  0.45594000000E+02  0.51100000000E-03 0.  1.
         11   -1    0    0    0    0 -0.00000000000E+00 -0.00000000000E+00 -0.45593999997E+02  0.45594000000E+02  0.51100000000E-03 0. -1.
    9900012    2    1    2    0    0  0.12373766546E+02 -0.16230159481E+02  0.24498807957E+02  0.59301956555E+02  0.50000022846E+02 0.  0.
         12    1    1    2    0    0 -0.12373766546E+02  0.16230159481E+02 -0.24498807957E+02  0.31886043445E+02  0.00000000000E+00 0. -1.
         11    1    3    3    0    0  0.14422817490E+01  0.67252725972E+01  0.15719040217E+02  0.17158021266E+02  0.51100000000E-03 0. -1.
        -11    1    3    3    0    0  0.13278028169E+02 -0.24179566100E+02  0.17742441449E+02  0.32798653595E+02  0.51100000000E-03 0.  1.
        -12    1    3    3    0    0 -0.23465433726E+01  0.12241340214E+01 -0.89626737095E+01  0.93452816932E+01  0.00000000000E+00 0.  1.
</event>
<event>
 7    1  0.7749294E-012  0.5930197E+02  0.7816164E-02  0.1266605E+00
        -11   -1    0    0    0    0  0.00000000000E+00  0.00000000000E+00  0.45593999997E+02  0.45594000000E+02  0.51100000000E-03 0. -1.
         11   -1    0    0    0    0 -0.00000000000E+00 -0.00000000000E+00 -0.45593999997E+02  0.45594000000E+02  0.51100000000E-03 0.  1.
    9900012    2    1    2    0    0  0.14171542533E+02  0.12892045664E+02 -0.25488855619E+02  0.59301965126E+02  0.50000038479E+02 0.  0.
         12    1    1    2    0    0 -0.14171542533E+02 -0.12892045664E+02  0.25488855619E+02  0.31886034874E+02  0.00000000000E+00 0. -1.
         11    1    3    3    0    0  0.13084122147E+02  0.79379185348E+00 -0.13993138877E+02  0.19173739691E+02  0.51100000000E-03 0. -1.
        -11    1    3    3    0    0  0.33059419049E+01  0.19832011997E+01  0.12986154664E+02  0.13546311384E+02  0.51100000000E-03 0.  1.
        -12    1    3    3    0    0 -0.22185215185E+01  0.10115052611E+02 -0.24481871407E+02  0.26581914052E+02  0.00000000000E+00 0.  1.
</event>
<event>
 7    1  0.7749294E-012  0.5930191E+02  0.7816164E-02  0.1266605E+00
        -11   -1    0    0    0    0  0.00000000000E+00  0.00000000000E+00  0.45593999997E+02  0.45594000000E+02  0.51100000000E-03 0. -1.
         11   -1    0    0    0    0 -0.00000000000E+00 -0.00000000000E+00 -0.45593999997E+02  0.45594000000E+02  0.51100000000E-03 0.  1.
    9900012    2    1    2    0    0 -0.17583846110E+02 -0.27969524840E+01 -0.26452001036E+02  0.59301906698E+02  0.49999931920E+02 0.  0.
         12    1    1    2    0    0  0.17583846110E+02  0.27969524840E+01  0.26452001036E+02  0.31886093302E+02  0.00000000000E+00 0. -1.
         11    1    3    3    0    0 -0.92045155440E+01 -0.44061636178E+01  0.13675150159E+02  0.17063033621E+02  0.51100000000E-03 0. -1.
        -11    1    3    3    0    0  0.46923249082E+00  0.19527826557E+01 -0.21717940334E+02  0.21810604573E+02  0.51100000000E-03 0.  1.
         12    1    3    3    0    0 -0.88485630573E+01 -0.34357152196E+00 -0.18409210861E+02  0.20428268505E+02  0.00000000000E+00 0. -1.
</event>
<event>
 7    1  0.7749294E-012  0.5930192E+02  0.7816164E-02  0.1266605E+00
        -11   -1    0    0    0    0  0.00000000000E+00  0.00000000000E+00  0.45593999997E+02  0.45594000000E+02  0.51100000000E-03 0. -1.
         11   -1    0    0    0    0 -0.00000000000E+00 -0.00000000000E+00 -0.45593999997E+02  0.45594000000E+02  0.51100000000E-03 0.  1.
    9900012    2    1    2    0    0  0.13840364133E+02 -0.28662235982E+02 -0.19086004883E+01  0.59301918293E+02  0.49999953065E+02 0.  0.
         12    1    1    2    0    0 -0.13840364133E+02  0.28662235982E+02  0.19086004883E+01  0.31886081707E+02  0.00000000000E+00 0. -1.
         11    1    3    3    0    0 -0.72288851570E+01  0.34454918555E+01  0.11518321721E+02  0.14028539848E+02  0.51100000000E-03 0. -1.
        -11    1    3    3    0    0  0.41343470079E+01 -0.39912240382E+01 -0.10938979414E+02  0.12356535331E+02  0.51100000000E-03 0.  1.
         12    1    3    3    0    0  0.16934902282E+02 -0.28116503799E+02 -0.24879427957E+01  0.32916843113E+02  0.00000000000E+00 0. -1.
</event>
<event>
 7    1  0.7749294E-012  0.5930188E+02  0.7816164E-02  0.1266605E+00
        -11   -1    0    0    0    0  0.00000000000E+00  0.00000000000E+00  0.45593999997E+02  0.45594000000E+02  0.51100000000E-03 0. -1.
         11   -1    0    0    0    0 -0.00000000000E+00 -0.00000000000E+00 -0.45593999997E+02  0.45594000000E+02  0.51100000000E-03 0.  1.
    9900012    2    1    2    0    0  0.28745082597E+02 -0.11284002507E+02 -0.79445724913E+01  0.59301878910E+02  0.49999881241E+02 0.  0.
         12    1    1    2    0    0 -0.28745082597E+02  0.11284002507E+02  0.79445724913E+01  0.31886121090E+02  0.00000000000E+00 0. -1.
         11    1    3    3    0    0  0.27338035121E+02  0.12554924198E+02  0.58784017212E+00  0.30088865751E+02  0.51100000000E-03 0.  1.
        -11    1    3    3    0    0  0.36517044013E+01 -0.24951705536E+02 -0.87639463261E+01  0.26696990648E+02  0.51100000000E-03 0. -1.
         12    1    3    3    0    0 -0.22446569246E+01  0.11127788317E+01  0.23153366267E+00  0.25160225107E+01  0.00000000000E+00 0. -1.
</event>
<event>
 7    1  0.7749294E-012  0.5930195E+02  0.7816164E-02  0.1266605E+00
        -11   -1    0    0    0    0  0.00000000000E+00  0.00000000000E+00  0.45593999997E+02  0.45594000000E+02  0.51100000000E-03 0.  1.
         11   -1    0    0    0    0 -0.00000000000E+00 -0.00000000000E+00 -0.45593999997E+02  0.45594000000E+02  0.51100000000E-03 0. -1.
    9900012    2    1    2    0    0 -0.21936496747E+02 -0.77873312805E+00 -0.23127992511E+02  0.59301947369E+02  0.50000006094E+02 0.  0.
         12    1    1    2    0    0  0.21936496747E+02  0.77873312805E+00  0.23127992511E+02  0.31886052631E+02  0.00000000000E+00 0. -1.
         11    1    3    3    0    0  0.59676544243E+01  0.10399406870E+02 -0.17894485269E+02  0.21540036348E+02  0.51100000000E-03 0. -1.
        -11    1    3    3    0    0 -0.23547938577E+02 -0.36004844564E+01 -0.12032817892E+02  0.26688154793E+02  0.51100000000E-03 0.  1.
         12    1    3    3    0    0 -0.43562125941E+01 -0.75776555421E+01  0.67993106507E+01  0.11073756228E+02  0.00000000000E+00 0. -1.
</event>
<event>
 7    1  0.7749294E-012  0.5930194E+02  0.7816164E-02  0.1266605E+00
        -11   -1    0    0    0    0  0.00000000000E+00  0.00000000000E+00  0.45593999997E+02  0.45594000000E+02  0.51100000000E-03 0.  1.
         11   -1    0    0    0    0 -0.00000000000E+00 -0.00000000000E+00 -0.45593999997E+02  0.45594000000E+02  0.51100000000E-03 0. -1.
    9900012    2    1    2    0    0  0.30954391344E+02  0.57000259554E+01  0.51045227225E+01  0.59301940482E+02  0.49999993534E+02 0.  0.
         12    1    1    2    0    0 -0.30954391344E+02 -0.57000259554E+01 -0.51045227225E+01  0.31886059518E+02  0.00000000000E+00 0. -1.
         11    1    3    3    0    0  0.40190647778E+02  0.50427014514E+01 -0.67804825183E+00  0.40511439822E+02  0.51100000000E-03 0. -1.
        -11    1    3    3    0    0 -0.11735402352E+02  0.46051626367E+01  0.62935169729E+01  0.14090264278E+02  0.51100000000E-03 0.  1.
        -12    1    3    3    0    0  0.24991459171E+01 -0.39478381328E+01 -0.51094599860E+00  0.47002363825E+01  0.00000000000E+00 0.  1.
</event>
<event>
 7    1  0.7749294E-012  0.5930194E+02  0.7816164E-02  0.1266605E+00
        -11   -1    0    0    0    0  0.00000000000E+00  0.00000000000E+00  0.45593999997E+02  0.45594000000E+02  0.51100000000E-03 0.  1.
         11   -1    0    0    0    0 -0.00000000000E+00 -0.00000000000E+00 -0.45593999997E+02  0.45594000000E+02  0.51100000000E-03 0. -1.
    9900012    2    1    2    0    0 -0.31090660335E+02  0.11893836792E+00  0.70765658733E+01  0.59301935788E+02  0.49999984972E+02 0.  0.
         12    1    1    2    0    0  0.31090660335E+02 -0.11893836792E+00 -0.70765658733E+01  0.31886064212E+02  0.00000000000E+00 0. -1.
         11    1    3    3    0    0 -0.62238106729E+01  0.15812615243E+02  0.17702499000E+02  0.24538807860E+02  0.51100000000E-03 0. -1.
        -11    1    3    3    0    0 -0.19455949491E+01 -0.66484212897E+01 -0.70144075679E+01  0.98584359378E+01  0.51100000000E-03 0.  1.
         12    1    3    3    0    0 -0.22921254713E+02 -0.90452555853E+01 -0.36115255585E+01  0.24904691989E+02  0.00000000000E+00 0. -1.
</event>
<event>
 7    1  0.7749294E-012  0.5930193E+02  0.7816164E-02  0.1266605E+00
        -11   -1    0    0    0    0  0.00000000000E+00  0.00000000000E+00  0.45593999997E+02  0.45594000000E+02  0.51100000000E-03 0. -1.
         11   -1    0    0    0    0 -0.00000000000E+00 -0.00000000000E+00 -0.45593999997E+02  0.45594000000E+02  0.51100000000E-03 0.  1.
    9900012    2    1    2    0    0  0.25984584862E+02  0.16336257045E+02 -0.86399940684E+01  0.59301930280E+02  0.49999974928E+02 0.  0.
         12    1    1    2    0    0 -0.25984584862E+02 -0.16336257045E+02  0.86399940684E+01  0.31886069720E+02  0.00000000000E+00 0. -1.
         11    1    3    3    0    0 -0.56777256293E+01  0.38178103985E+01 -0.11863043823E+02  0.13694672452E+02  0.51100000000E-03 0. -1.
        -11    1    3    3    0    0  0.18912479143E+02  0.20147065620E+02  0.98532685849E+01  0.29337229292E+02  0.51100000000E-03 0.  1.
         12    1    3    3    0    0  0.12749831348E+02 -0.76286189732E+01 -0.66302188300E+01  0.16270028536E+02  0.00000000000E+00 0. -1.
</event>
<event>
 7    1  0.7749294E-012  0.5930195E+02  0.7816164E-02  0.1266605E+00
        -11   -1    0    0    0    0  0.00000000000E+00  0.00000000000E+00  0.45593999997E+02  0.45594000000E+02  0.51100000000E-03 0. -1.
         11   -1    0    0    0    0 -0.00000000000E+00 -0.00000000000E+00 -0.45593999997E+02  0.45594000000E+02  0.51100000000E-03 0.  1.
    9900012    2    1    2    0    0  0.27711123736E+02 -0.60906297127E+01 -0.14550524943E+02  0.59301954069E+02  0.50000018312E+02 0.  0.
         12    1    1    2    0    0 -0.27711123736E+02  0.60906297127E+01  0.14550524943E+02  0.31886045931E+02  0.00000000000E+00 0. -1.
         11    1    3    3    0    0  0.35610100807E+02 -0.11183731048E+02  0.26965102885E+01  0.37422269943E+02  0.51100000000E-03 0. -1.
        -11    1    3    3    0    0 -0.99836414402E+01  0.37850233782E+01 -0.15652154879E+02  0.18947016942E+02  0.51100000000E-03 0.  1.
        -12    1    3    3    0    0  0.20846643689E+01  0.13080779571E+01 -0.15948803522E+01  0.29326671838E+01  0.00000000000E+00 0.  1.
</event>
<event>
 7    1  0.7749294E-012  0.5930194E+02  0.7816164E-02  0.1266605E+00
        -11   -1    0    0    0    0  0.00000000000E+00  0.00000000000E+00  0.45593999997E+02  0.45594000000E+02  0.51100000000E-03 0.  1.
         11   -1    0    0    0    0 -0.00000000000E+00 -0.00000000000E+00 -0.45593999997E+02  0.45594000000E+02  0.51100000000E-03 0. -1.
    9900012    2    1    2    0    0  0.54579262555E+01  0.30249706160E+02  0.84786287385E+01  0.59301939926E+02  0.49999992519E+02 0.  0.
         12    1    1    2    0    0 -0.54579262555E+01 -0.30249706160E+02 -0.84786287385E+01  0.31886060074E+02  0.00000000000E+00 0. -1.
         11    1    3    3    0    0  0.71197269637E+01 -0.74125414886E+01  0.61518396836E+00  0.10296345708E+02  0.51100000000E-03 0. -1.
        -11    1    3    3    0    0 -0.11504698201E+02  0.36717175066E+02  0.65408412512E+01  0.39029368815E+02  0.51100000000E-03 0.  1.
        -12    1    3    3    0    0  0.98428974927E+01  0.94507258213E+00  0.13226035190E+01  0.99762254037E+01  0.00000000000E+00 0.  1.
</event>
<event>
 7    1  0.7749294E-012  0.5930195E+02  0.7816164E-02  0.1266605E+00
        -11   -1    0    0    0    0  0.00000000000E+00  0.00000000000E+00  0.45593999997E+02  0.45594000000E+02  0.51100000000E-03 0.  1.
         11   -1    0    0    0    0 -0.00000000000E+00 -0.00000000000E+00 -0.45593999997E+02  0.45594000000E+02  0.51100000000E-03 0. -1.
    9900012    2    1    2    0    0  0.23136721636E+02 -0.12894637045E+01  0.21903181051E+02  0.59301953759E+02  0.50000017748E+02 0.  0.
         12    1    1    2    0    0 -0.23136721636E+02  0.12894637045E+01 -0.21903181051E+02  0.31886046241E+02  0.00000000000E+00 0. -1.
         11    1    3    3    0    0  0.37477979771E+02 -0.25185355567E+01  0.19404535621E+02  0.42278576041E+02  0.51100000000E-03 0.  1.
        -11    1    3    3    0    0 -0.13581424390E+02  0.53408263009E+00  0.48700384465E+01  0.14438061070E+02  0.51100000000E-03 0. -1.
        -12    1    3    3    0    0 -0.75983374536E+00  0.69498922217E+00 -0.23713930159E+01  0.25853166490E+01  0.00000000000E+00 0.  1.
</event>
<event>
 7    1  0.7749294E-012  0.5930192E+02  0.7816164E-02  0.1266605E+00
        -11   -1    0    0    0    0  0.00000000000E+00  0.00000000000E+00  0.45593999997E+02  0.45594000000E+02  0.51100000000E-03 0.  1.
         11   -1    0    0    0    0 -0.00000000000E+00 -0.00000000000E+00 -0.45593999997E+02  0.45594000000E+02  0.51100000000E-03 0. -1.
    9900012    2    1    2    0    0 -0.68015750914E+01  0.37045763728E+01  0.30931164711E+02  0.59301917452E+02  0.49999951533E+02 0.  0.
         12    1    1    2    0    0  0.68015750914E+01 -0.37045763728E+01 -0.30931164711E+02  0.31886082548E+02  0.00000000000E+00 0. -1.
         11    1    3    3    0    0 -0.17071052642E+02 -0.76274934240E+01  0.92784870251E+00  0.18720587537E+02  0.51100000000E-03 0. -1.
        -11    1    3    3    0    0 -0.18655637523E+01 -0.44453687108E+01  0.14710702468E+02  0.15480516738E+02  0.51100000000E-03 0.  1.
         12    1    3    3    0    0  0.12135041303E+02  0.15777438508E+02  0.15292613541E+02  0.25100813178E+02  0.00000000000E+00 0. -1.
</event>
<event>
 7    1  0.7749294E-012  0.5930197E+02  0.7816164E-02  0.1266605E+00
        -11   -1    0    0    0    0  0.00000000000E+00  0.00000000000E+00  0.45593999997E+02  0.45594000000E+02  0.51100000000E-03 0. -1.
         11   -1    0    0    0    0 -0.00000000000E+00 -0.00000000000E+00 -0.45593999997E+02  0.45594000000E+02  0.51100000000E-03 0.  1.
    9900012    2    1    2    0    0 -0.22666486828E+01 -0.29918155626E+02 -0.10792827689E+02  0.59301970743E+02  0.50000048722E+02 0.  0.
         12    1    1    2    0    0  0.22666486828E+01  0.29918155626E+02  0.10792827689E+02  0.31886029257E+02  0.00000000000E+00 0. -1.
         11    1    3    3    0    0 -0.19975733244E+02 -0.13169695119E+01  0.12159390035E+01  0.20055992502E+02  0.51100000000E-03 0. -1.
        -11    1    3    3    0    0  0.77230205675E+01 -0.11262441491E+01 -0.47375958253E+00  0.78190741762E+01  0.51100000000E-03 0.  1.
         12    1    3    3    0    0  0.99860639936E+01 -0.27474941964E+02 -0.11535007110E+02  0.31426904064E+02  0.00000000000E+00 0. -1.
</event>
<event>
 7    1  0.7749294E-012  0.5930198E+02  0.7816164E-02  0.1266605E+00
        -11   -1    0    0    0    0  0.00000000000E+00  0.00000000000E+00  0.45593999997E+02  0.45594000000E+02  0.51100000000E-03 0.  1.
         11   -1    0    0    0    0 -0.00000000000E+00 -0.00000000000E+00 -0.45593999997E+02  0.45594000000E+02  0.51100000000E-03 0. -1.
    9900012    2    1    2    0    0 -0.69039486733E+00 -0.27079685849E+02  0.16820584987E+02  0.59301982531E+02  0.50000070220E+02 0.  0.
         12    1    1    2    0    0  0.69039486733E+00  0.27079685849E+02 -0.16820584987E+02  0.31886017469E+02  0.00000000000E+00 0. -1.
         11    1    3    3    0    0  0.18247224788E+02 -0.24891734300E+02 -0.33088368685E+00  0.30865338702E+02  0.51100000000E-03 0. -1.
        -11    1    3    3    0    0 -0.20153702883E+02 -0.27288496334E+01  0.13147469630E+02  0.24217231844E+02  0.51100000000E-03 0.  1.
        -12    1    3    3    0    0  0.12160832279E+01  0.54089808493E+00  0.40039990435E+01  0.42194119846E+01  0.00000000000E+00 0.  1.
</event>
<event>
 7    1  0.7749294E-012  0.5930194E+02  0.7816164E-02  0.1266605E+00
        -11   -1    0    0    0    0  0.00000000000E+00  0.00000000000E+00  0.45593999997E+02  0.45594000000E+02  0.51100000000E-03 0.  1.
         11   -1    0    0    0    0 -0.00000000000E+00 -0.00000000000E+00 -0.45593999997E+02  0.45594000000E+02  0.51100000000E-03 0. -1.
    9900012    2    1    2    0    0 -0.31674381471E+02  0.15271025898E+01 -0.33349796545E+01  0.59301943906E+02  0.49999999779E+02 0.  0.
         12    1    1    2    0    0  0.31674381471E+02 -0.15271025898E+01  0.33349796545E+01  0.31886056094E+02  0.00000000000E+00 0. -1.
         11    1    3    3    0    0 -0.81976370359E-01 -0.77750217804E+01 -0.11655221721E+02  0.14010777189E+02  0.51100000000E-03 0. -1.
        -11    1    3    3    0    0 -0.98625950622E+00  0.10842421021E+02  0.97473659776E+01  0.14613074460E+02  0.51100000000E-03 0.  1.
        -12    1    3    3    0    0 -0.30606145595E+02 -0.15402966506E+01 -0.14271239115E+01  0.30678092258E+02  0.00000000000E+00 0.  1.
</event>
<event>
 7    1  0.7749294E-012  0.5930194E+02  0.7816164E-02  0.1266605E+00
        -11   -1    0    0    0    0  0.00000000000E+00  0.00000000000E+00  0.45593999997E+02  0.45594000000E+02  0.51100000000E-03 0. -1.
         11   -1    0    0    0    0 -0.00000000000E+00 -0.00000000000E+00 -0.45593999997E+02  0.45594000000E+02  0.51100000000E-03 0.  1.
    9900012    2    1    2    0    0  0.53656564276E+01 -0.25555154844E+02 -0.18299308126E+02  0.59301939004E+02  0.49999990837E+02 0.  0.
         12    1    1    2    0    0 -0.53656564276E+01  0.25555154844E+02  0.18299308126E+02  0.31886060996E+02  0.00000000000E+00 0. -1.
         11    1    3    3    0    0 -0.15352076380E+00 -0.26307624207E+02  0.36646601507E+01  0.26562085655E+02  0.51100000000E-03 0. -1.
        -11    1    3    3    0    0  0.13875921042E+02  0.45080403727E+01 -0.16691880850E+02  0.22169404578E+02  0.51100000000E-03 0.  1.
         12    1    3    3    0    0 -0.83567438507E+01 -0.37555710094E+01 -0.52720874261E+01  0.10570448771E+02  0.00000000000E+00 0. -1.
</event>
<event>
 7    1  0.7749294E-012  0.5930173E+02  0.7816164E-02  0.1266606E+00
        -11   -1    0    0    0    0  0.00000000000E+00  0.00000000000E+00  0.45593999997E+02  0.45594000000E+02  0.51100000000E-03 0. -1.
         11   -1    0    0    0    0 -0.00000000000E+00 -0.00000000000E+00 -0.45593999997E+02  0.45594000000E+02  0.51100000000E-03 0.  1.
    9900012    2    1    2    0    0 -0.15629996631E+02 -0.10290761594E+02 -0.25817389949E+02  0.59301730343E+02  0.49999610289E+02 0.  0.
         12    1    1    2    0    0  0.15629996631E+02  0.10290761594E+02  0.25817389949E+02  0.31886269657E+02  0.00000000000E+00 0. -1.
         11    1    3    3    0    0 -0.16791825225E+02  0.62668869268E+01 -0.15334673869E+02  0.23587952202E+02  0.51100000000E-03 0. -1.
        -11    1    3    3    0    0  0.21401613466E+01 -0.17376658226E+02 -0.19730482937E+02  0.26378409711E+02  0.51100000000E-03 0.  1.
         12    1    3    3    0    0 -0.97833275216E+00  0.81900970479E+00  0.92477668579E+01  0.93353684302E+01  0.00000000000E+00 0. -1.
</event>
<event>
 7    1  0.7749294E-012  0.5930195E+02  0.7816164E-02  0.1266605E+00
        -11   -1    0    0    0    0  0.00000000000E+00  0.00000000000E+00  0.45593999997E+02  0.45594000000E+02  0.51100000000E-03 0.  1.
         11   -1    0    0    0    0 -0.00000000000E+00 -0.00000000000E+00 -0.45593999997E+02  0.45594000000E+02  0.51100000000E-03 0. -1.
    9900012    2    1    2    0    0 -0.29198190986E+01  0.65321091043E+01  0.31072920862E+02  0.59301949698E+02  0.50000010342E+02 0.  0.
         12    1    1    2    0    0  0.29198190986E+01 -0.65321091043E+01 -0.31072920862E+02  0.31886050302E+02  0.00000000000E+00 0. -1.
         11    1    3    3    0    0 -0.11493097768E+02  0.20445828829E+02  0.99507069472E+01  0.25478221716E+02  0.51100000000E-03 0. -1.
        -11    1    3    3    0    0 -0.44943783012E+01 -0.87989914367E+01  0.16156338313E+02  0.18938029321E+02  0.51100000000E-03 0.  1.
         12    1    3    3    0    0  0.13067656970E+02 -0.51147282877E+01  0.49658756021E+01  0.14885698662E+02  0.00000000000E+00 0. -1.
</event>
<event>
 7    1  0.7749294E-012  0.5930187E+02  0.7816164E-02  0.1266605E+00
        -11   -1    0    0    0    0  0.00000000000E+00  0.00000000000E+00  0.45593999997E+02  0.45594000000E+02  0.51100000000E-03 0.  1.
         11   -1    0    0    0    0 -0.00000000000E+00 -0.00000000000E+00 -0.45593999997E+02  0.45594000000E+02  0.51100000000E-03 0. -1.
    9900012    2    1    2    0    0  0.29977735177E+02  0.79236633335E+01  0.74348070780E+01  0.59301868168E+02  0.49999861649E+02 0.  0.
         12    1    1    2    0    0 -0.29977735177E+02 -0.79236633335E+01 -0.74348070780E+01  0.31886131832E+02  0.00000000000E+00 0. -1.
         11    1    3    3    0    0 -0.12786618006E+00  0.12863550650E+02  0.91432997629E+01  0.15782497137E+02  0.51100000000E-03 0. -1.
        -11    1    3    3    0    0  0.30760927872E+02 -0.43052486758E+01  0.93389464976E+01  0.32434330140E+02  0.51100000000E-03 0.  1.
         12    1    3    3    0    0 -0.65532651518E+00 -0.63463864039E+00 -0.11047439182E+02  0.11085040890E+02  0.00000000000E+00 0. -1.
</event>
<event>
 7    1  0.7749294E-012  0.5930191E+02  0.7816164E-02  0.1266605E+00
        -11   -1    0    0    0    0  0.00000000000E+00  0.00000000000E+00  0.45593999997E+02  0.45594000000E+02  0.51100000000E-03 0. -1.
         11   -1    0    0    0    0 -0.00000000000E+00 -0.00000000000E+00 -0.45593999997E+02  0.45594000000E+02  0.51100000000E-03 0.  1.
    9900012    2    1    2    0    0 -0.47098640590E+01 -0.22076605351E+02 -0.22520283701E+02  0.59301913673E+02  0.49999944640E+02 0.  0.
         12    1    1    2    0    0  0.47098640590E+01  0.22076605351E+02  0.22520283701E+02  0.31886086327E+02  0.00000000000E+00 0. -1.
         11    1    3    3    0    0  0.50315618265E+01  0.24542757746E+01  0.52367073089E+01  0.76657150802E+01  0.51100000000E-03 0. -1.
        -11    1    3    3    0    0 -0.37266836024E+01 -0.63618698597E+01 -0.31313529620E+02  0.32169841410E+02  0.51100000000E-03 0.  1.
         12    1    3    3    0    0 -0.60147422830E+01 -0.18169011266E+02  0.35565386101E+01  0.19466357183E+02  0.00000000000E+00 0. -1.
</event>
<event>
 7    1  0.7749294E-012  0.5930193E+02  0.7816164E-02  0.1266605E+00
        -11   -1    0    0    0    0  0.00000000000E+00  0.00000000000E+00  0.45593999997E+02  0.45594000000E+02  0.51100000000E-03 0. -1.
         11   -1    0    0    0    0 -0.00000000000E+00 -0.00000000000E+00 -0.45593999997E+02  0.45594000000E+02  0.51100000000E-03 0.  1.
    9900012    2    1    2    0    0  0.16166223989E+02 -0.25079357478E+02  0.11242801511E+02  0.59301928505E+02  0.49999971691E+02 0.  0.
         12    1    1    2    0    0 -0.16166223989E+02  0.25079357478E+02 -0.11242801511E+02  0.31886071495E+02  0.00000000000E+00 0. -1.
         11    1    3    3    0    0 -0.34846242921E+01 -0.59386944646E+01 -0.12600127547E+02  0.14358757358E+02  0.51100000000E-03 0. -1.
        -11    1    3    3    0    0  0.23424226302E+02 -0.22424998195E+02  0.17447913686E+02  0.36823967931E+02  0.51100000000E-03 0.  1.
        -12    1    3    3    0    0 -0.37733780210E+01  0.32843351817E+01  0.63950153715E+01  0.81192032169E+01  0.00000000000E+00 0.  1.
</event>
<event>
 7    1  0.7749294E-012  0.5930219E+02  0.7816164E-02  0.1266604E+00
        -11   -1    0    0    0    0  0.00000000000E+00  0.00000000000E+00  0.45593999997E+02  0.45594000000E+02  0.51100000000E-03 0.  1.
         11   -1    0    0    0    0 -0.00000000000E+00 -0.00000000000E+00 -0.45593999997E+02  0.45594000000E+02  0.51100000000E-03 0. -1.
    9900012    2    1    2    0    0 -0.22112702865E+02 -0.90887894242E+01  0.21098031911E+02  0.59302193256E+02  0.50000454530E+02 0.  0.
         12    1    1    2    0    0  0.22112702865E+02  0.90887894242E+01 -0.21098031911E+02  0.31885806744E+02  0.00000000000E+00 0. -1.
         11    1    3    3    0    0  0.29491238496E+01 -0.35089477424E+01 -0.13788694138E+02  0.14530592969E+02  0.51100000000E-03 0. -1.
        -11    1    3    3    0    0 -0.10757939928E+02 -0.37725986367E+01  0.24436712182E+02  0.26965138132E+02  0.51100000000E-03 0.  1.
         12    1    3    3    0    0 -0.14303886786E+02 -0.18072430452E+01  0.10450013868E+02  0.17806462154E+02  0.00000000000E+00 0. -1.
</event>
<event>
 7    1  0.7749294E-012  0.5930197E+02  0.7816164E-02  0.1266605E+00
        -11   -1    0    0    0    0  0.00000000000E+00  0.00000000000E+00  0.45593999997E+02  0.45594000000E+02  0.51100000000E-03 0. -1.
         11   -1    0    0    0    0 -0.00000000000E+00 -0.00000000000E+00 -0.45593999997E+02  0.45594000000E+02  0.51100000000E-03 0.  1.
    9900012    2    1    2    0    0  0.22440954848E+02  0.18861353134E+02 -0.12544795795E+02  0.59301968606E+02  0.50000044825E+02 0.  0.
         12    1    1    2    0    0 -0.22440954848E+02 -0.18861353134E+02  0.12544795795E+02  0.31886031394E+02  0.00000000000E+00 0. -1.
         11    1    3    3    0    0  0.15299913482E+02  0.23261170091E+02 -0.12678313509E+02  0.30592630162E+02  0.51100000000E-03 0.  1.
        -11    1    3    3    0    0  0.10903736605E+02  0.72054403293E+01  0.68784300333E+01  0.14768975667E+02  0.51100000000E-03 0. -1.
         12    1    3    3    0    0 -0.37626952385E+01 -0.11605257286E+02 -0.67449123190E+01  0.13940362776E+02  0.00000000000E+00 0. -1.
</event>
<event>
 7    1  0.7749294E-012  0.5930194E+02  0.7816164E-02  0.1266605E+00
        -11   -1    0    0    0    0  0.00000000000E+00  0.00000000000E+00  0.45593999997E+02  0.45594000000E+02  0.51100000000E-03 0. -1.
         11   -1    0    0    0    0 -0.00000000000E+00 -0.00000000000E+00 -0.45593999997E+02  0.45594000000E+02  0.51100000000E-03 0.  1.
    9900012    2    1    2    0    0 -0.15675865620E+02  0.27752497885E+02  0.88707460230E+00  0.59301940301E+02  0.49999993203E+02 0.  0.
         12    1    1    2    0    0  0.15675865620E+02 -0.27752497885E+02 -0.88707460230E+00  0.31886059699E+02  0.00000000000E+00 0. -1.
         11    1    3    3    0    0 -0.15053393518E+02  0.34560936072E+02  0.11903622657E+02  0.39531749154E+02  0.51100000000E-03 0. -1.
        -11    1    3    3    0    0 -0.61317062547E+01 -0.43328546866E+00 -0.93367477348E+01  0.11178569516E+02  0.51100000000E-03 0.  1.
         12    1    3    3    0    0  0.55092341534E+01 -0.63751527181E+01 -0.16798003194E+01  0.85916216309E+01  0.00000000000E+00 0. -1.
</event>
<event>
 7    1  0.7749294E-012  0.5930188E+02  0.7816164E-02  0.1266605E+00
        -11   -1    0    0    0    0  0.00000000000E+00  0.00000000000E+00  0.45593999997E+02  0.45594000000E+02  0.51100000000E-03 0. -1.
         11   -1    0    0    0    0 -0.00000000000E+00 -0.00000000000E+00 -0.45593999997E+02  0.45594000000E+02  0.51100000000E-03 0.  1.
    9900012    2    1    2    0    0  0.23846654174E+02  0.20019496742E+02  0.68761602545E+01  0.59301878490E+02  0.49999880474E+02 0.  0.
         12    1    1    2    0    0 -0.23846654174E+02 -0.20019496742E+02 -0.68761602545E+01  0.31886121510E+02  0.00000000000E+00 0. -1.
         11    1    3    3    0    0  0.12435822512E+02  0.19981870770E+02  0.76684685792E+01  0.24753388689E+02  0.51100000000E-03 0. -1.
        -11    1    3    3    0    0  0.62072004171E+01 -0.79746451731E+01  0.13801441753E+02  0.17105674420E+02  0.51100000000E-03 0.  1.
        -12    1    3    3    0    0  0.52036312454E+01  0.80122711458E+01 -0.14593750078E+02  0.17442815380E+02  0.00000000000E+00 0.  1.
</event>
<event>
 7    1  0.7749294E-012  0.5930193E+02  0.7816164E-02  0.1266605E+00
        -11   -1    0    0    0    0  0.00000000000E+00  0.00000000000E+00  0.45593999997E+02  0.45594000000E+02  0.51100000000E-03 0. -1.
         11   -1    0    0    0    0 -0.00000000000E+00 -0.00000000000E+00 -0.45593999997E+02  0.45594000000E+02  0.51100000000E-03 0.  1.
    9900012    2    1    2    0    0 -0.26768367058E+02  0.13931949330E+02 -0.10299370454E+02  0.59301925942E+02  0.49999967016E+02 0.  0.
         12    1    1    2    0    0  0.26768367058E+02 -0.13931949330E+02  0.10299370454E+02  0.31886074058E+02  0.00000000000E+00 0. -1.
         11    1    3    3    0    0 -0.10709603050E+02 -0.98629371991E+01  0.12794923481E+01  0.14615410655E+02  0.51100000000E-03 0. -1.
        -11    1    3    3    0    0  0.34383411077E+00  0.22601366926E+02  0.28821126696E+01  0.22786982743E+02  0.51100000000E-03 0.  1.
        -12    1    3    3    0    0 -0.16402598119E+02  0.11935196028E+01 -0.14460975471E+02  0.21899532544E+02  0.00000000000E+00 0.  1.
</event>
<event>
 7    1  0.7749294E-012  0.5930178E+02  0.7816164E-02  0.1266605E+00
        -11   -1    0    0    0    0  0.00000000000E+00  0.00000000000E+00  0.45593999997E+02  0.45594000000E+02  0.51100000000E-03 0. -1.
         11   -1    0    0    0    0 -0.00000000000E+00 -0.00000000000E+00 -0.45593999997E+02  0.45594000000E+02  0.51100000000E-03 0.  1.
    9900012    2    1    2    0    0 -0.15939852219E+01 -0.15740867683E+02 -0.27684212131E+02  0.59301775614E+02  0.49999692853E+02 0.  0.
         12    1    1    2    0    0  0.15939852219E+01  0.15740867683E+02  0.27684212131E+02  0.31886224386E+02  0.00000000000E+00 0. -1.
         11    1    3    3    0    0 -0.19632634180E+02 -0.50009115852E+01 -0.10366542034E+02  0.22757737927E+02  0.51100000000E-03 0. -1.
        -11    1    3    3    0    0  0.87254794757E+01 -0.17409400886E+02 -0.15619689815E+02  0.24963892755E+02  0.51100000000E-03 0.  1.
         12    1    3    3    0    0  0.93131694828E+01  0.66694447890E+01 -0.16979802823E+01  0.11580144932E+02  0.00000000000E+00 0. -1.
</event>
<event>
 7    1  0.7749294E-012  0.5930195E+02  0.7816164E-02  0.1266605E+00
        -11   -1    0    0    0    0  0.00000000000E+00  0.00000000000E+00  0.45593999997E+02  0.45594000000E+02  0.51100000000E-03 0. -1.
         11   -1    0    0    0    0 -0.00000000000E+00 -0.00000000000E+00 -0.45593999997E+02  0.45594000000E+02  0.51100000000E-03 0.  1.
    9900012    2    1    2    0    0 -0.13354159122E+02 -0.19390703815E+02 -0.21503193879E+02  0.59301948076E+02  0.50000007383E+02 0.  0.
         12    1    1    2    0    0  0.13354159122E+02  0.19390703815E+02  0.21503193879E+02  0.31886051924E+02  0.00000000000E+00 0. -1.
         11    1    3    3    0    0 -0.16003604150E+02  0.40641127662E+01  0.86961811342E+01  0.18661616354E+02  0.51100000000E-03 0. -1.
        -11    1    3    3    0    0 -0.20200024604E+01 -0.88185475513E+01 -0.20666523517E+02  0.22559973080E+02  0.51100000000E-03 0.  1.
         12    1    3    3    0    0  0.46694474880E+01 -0.14636269030E+02 -0.95328514964E+01  0.18080358642E+02  0.00000000000E+00 0. -1.
</event>
<event>
 7    1  0.7749294E-012  0.5930187E+02  0.7816164E-02  0.1266605E+00
        -11   -1    0    0    0    0  0.00000000000E+00  0.00000000000E+00  0.45593999997E+02  0.45594000000E+02  0.51100000000E-03 0.  1.
         11   -1    0    0    0    0 -0.00000000000E+00 -0.00000000000E+00 -0.45593999997E+02  0.45594000000E+02  0.51100000000E-03 0. -1.
    9900012    2    1    2    0    0 -0.17492646376E+02  0.22923482423E+02  0.13610521923E+02  0.59301874010E+02  0.49999872304E+02 0.  0.
         12    1    1    2    0    0  0.17492646376E+02 -0.22923482423E+02 -0.13610521923E+02  0.31886125990E+02  0.00000000000E+00 0. -1.
         11    1    3    3    0    0 -0.12479516800E+02 -0.88731898762E+00 -0.12089332107E+02  0.17397632759E+02  0.51100000000E-03 0. -1.
        -11    1    3    3    0    0 -0.55503459956E+01  0.27580967820E+02  0.25686313610E+02  0.38095968733E+02  0.51100000000E-03 0.  1.
        -12    1    3    3    0    0  0.53721641900E+00 -0.37701664091E+01  0.13540420094E-01  0.38082725186E+01  0.00000000000E+00 0.  1.
</event>
<event>
 7    1  0.7749294E-012  0.5930188E+02  0.7816164E-02  0.1266605E+00
        -11   -1    0    0    0    0  0.00000000000E+00  0.00000000000E+00  0.45593999997E+02  0.45594000000E+02  0.51100000000E-03 0.  1.
         11   -1    0    0    0    0 -0.00000000000E+00 -0.00000000000E+00 -0.45593999997E+02  0.45594000000E+02  0.51100000000E-03 0. -1.
    9900012    2    1    2    0    0 -0.21932744949E+02  0.12326632424E+02  0.19589115808E+02  0.59301880354E+02  0.49999883875E+02 0.  0.
         12    1    1    2    0    0  0.21932744949E+02 -0.12326632424E+02 -0.19589115808E+02  0.31886119646E+02  0.00000000000E+00 0. -1.
         11    1    3    3    0    0  0.94565631606E+01  0.16181721843E+02  0.15185490215E+02  0.24122060898E+02  0.51100000000E-03 0. -1.
        -11    1    3    3    0    0 -0.61380218094E+01 -0.70260729117E+01 -0.12507004224E+00  0.93304155893E+01  0.51100000000E-03 0.  1.
         12    1    3    3    0    0 -0.25251286300E+02  0.31709834925E+01  0.45286956352E+01  0.25849403867E+02  0.00000000000E+00 0. -1.
</event>
<event>
 7    1  0.7749294E-012  0.5930197E+02  0.7816164E-02  0.1266605E+00
        -11   -1    0    0    0    0  0.00000000000E+00  0.00000000000E+00  0.45593999997E+02  0.45594000000E+02  0.51100000000E-03 0. -1.
         11   -1    0    0    0    0 -0.00000000000E+00 -0.00000000000E+00 -0.45593999997E+02  0.45594000000E+02  0.51100000000E-03 0.  1.
    9900012    2    1    2    0    0 -0.30661957640E+02  0.43921052168E+01 -0.75678624454E+01  0.59301972079E+02  0.50000051160E+02 0.  0.
         12    1    1    2    0    0  0.30661957640E+02 -0.43921052168E+01  0.75678624454E+01  0.31886027921E+02  0.00000000000E+00 0. -1.
         11    1    3    3    0    0  0.36599599454E+01  0.11986128016E+02  0.13329697224E+02  0.18295994096E+02  0.51100000000E-03 0. -1.
        -11    1    3    3    0    0 -0.27382612579E+02 -0.60293848213E+01 -0.18035625110E+02  0.33338337186E+02  0.51100000000E-03 0.  1.
         12    1    3    3    0    0 -0.69393050070E+01 -0.15646379776E+01 -0.28619345595E+01  0.76676407978E+01  0.00000000000E+00 0. -1.
</event>
<event>
 7    1  0.7749294E-012  0.5930194E+02  0.7816164E-02  0.1266605E+00
        -11   -1    0    0    0    0  0.00000000000E+00  0.00000000000E+00  0.45593999997E+02  0.45594000000E+02  0.51100000000E-03 0.  1.
         11   -1    0    0    0    0 -0.00000000000E+00 -0.00000000000E+00 -0.45593999997E+02  0.45594000000E+02  0.51100000000E-03 0. -1.
    9900012    2    1    2    0    0  0.27206504601E+02 -0.14489825808E+02  0.81591511124E+01  0.59301942053E+02  0.49999996398E+02 0.  0.
         12    1    1    2    0    0 -0.27206504601E+02  0.14489825808E+02 -0.81591511124E+01  0.31886057947E+02  0.00000000000E+00 0. -1.
         11    1    3    3    0    0 -0.27996365930E+01 -0.76543251926E+01  0.17488287485E+02  0.19294218270E+02  0.51100000000E-03 0. -1.
        -11    1    3    3    0    0  0.97247045120E+01  0.88885001436E+01 -0.42828633976E+01  0.13853455590E+02  0.51100000000E-03 0.  1.
         12    1    3    3    0    0  0.20281436682E+02 -0.15724000759E+02 -0.50462729753E+01  0.26154268193E+02  0.00000000000E+00 0. -1.
</event>
<event>
 7    1  0.7749294E-012  0.5930194E+02  0.7816164E-02  0.1266605E+00
        -11   -1    0    0    0    0  0.00000000000E+00  0.00000000000E+00  0.45593999997E+02  0.45594000000E+02  0.51100000000E-03 0.  1.
         11   -1    0    0    0    0 -0.00000000000E+00 -0.00000000000E+00 -0.45593999997E+02  0.45594000000E+02  0.51100000000E-03 0. -1.
    9900012    2    1    2    0    0 -0.73272549453E+01  0.28798574077E+02  0.11561771637E+02  0.59301935688E+02  0.49999984790E+02 0.  0.
         12    1    1    2    0    0  0.73272549453E+01 -0.28798574077E+02 -0.11561771637E+02  0.31886064312E+02  0.00000000000E+00 0. -1.
         11    1    3    3    0    0 -0.42609571066E+01  0.12697278939E+02 -0.89409734708E+01  0.16103342969E+02  0.51100000000E-03 0. -1.
        -11    1    3    3    0    0  0.17756154043E+01  0.44090711991E+01  0.28059314207E+02  0.28459055377E+02  0.51100000000E-03 0.  1.
        -12    1    3    3    0    0 -0.48419132430E+01  0.11692223940E+02 -0.75565690995E+01  0.14739537342E+02  0.00000000000E+00 0.  1.
</event>
<event>
 7    1  0.7749294E-012  0.5930196E+02  0.7816164E-02  0.1266605E+00
        -11   -1    0    0    0    0  0.00000000000E+00  0.00000000000E+00  0.45593999997E+02  0.45594000000E+02  0.51100000000E-03 0.  1.
         11   -1    0    0    0    0 -0.00000000000E+00 -0.00000000000E+00 -0.45593999997E+02  0.45594000000E+02  0.51100000000E-03 0. -1.
    9900012    2    1    2    0    0  0.11051039158E+01  0.30176565306E+02  0.10240772491E+02  0.59301956509E+02  0.50000022762E+02 0.  0.
         12    1    1    2    0    0 -0.11051039158E+01 -0.30176565306E+02 -0.10240772491E+02  0.31886043491E+02  0.00000000000E+00 0. -1.
         11    1    3    3    0    0  0.17734249852E+01  0.19145875057E+02  0.88374337941E+01  0.21161517058E+02  0.51100000000E-03 0. -1.
        -11    1    3    3    0    0  0.15033983519E+02  0.59620686008E+01 -0.91229126864E+01  0.18568641808E+02  0.51100000000E-03 0.  1.
        -12    1    3    3    0    0 -0.15702304588E+02  0.50686216482E+01  0.10526251383E+02  0.19571797643E+02  0.00000000000E+00 0.  1.
</event>
<event>
 7    1  0.7749294E-012  0.5930195E+02  0.7816164E-02  0.1266605E+00
        -11   -1    0    0    0    0  0.00000000000E+00  0.00000000000E+00  0.45593999997E+02  0.45594000000E+02  0.51100000000E-03 0.  1.
         11   -1    0    0    0    0 -0.00000000000E+00 -0.00000000000E+00 -0.45593999997E+02  0.45594000000E+02  0.51100000000E-03 0. -1.
    9900012    2    1    2    0    0 -0.18516387307E+02  0.20909384198E+02  0.15383799726E+02  0.59301949124E+02  0.50000009294E+02 0.  0.
         12    1    1    2    0    0  0.18516387307E+02 -0.20909384198E+02 -0.15383799726E+02  0.31886050876E+02  0.00000000000E+00 0. -1.
         11    1    3    3    0    0 -0.28663407756E+02  0.45522149949E+01 -0.67421608582E+01  0.29795475140E+02  0.51100000000E-03 0. -1.
        -11    1    3    3    0    0  0.30405877174E+01  0.44771678235E+01  0.85382905458E+01  0.10109036111E+02  0.51100000000E-03 0.  1.
         12    1    3    3    0    0  0.71064327313E+01  0.11880001379E+02  0.13587670039E+02  0.19397437873E+02  0.00000000000E+00 0. -1.
</event>
<event>
 7    1  0.7749294E-012  0.5930199E+02  0.7816164E-02  0.1266605E+00
        -11   -1    0    0    0    0  0.00000000000E+00  0.00000000000E+00  0.45593999997E+02  0.45594000000E+02  0.51100000000E-03 0.  1.
         11   -1    0    0    0    0 -0.00000000000E+00 -0.00000000000E+00 -0.45593999997E+02  0.45594000000E+02  0.51100000000E-03 0. -1.
    9900012    2    1    2    0    0  0.21544403599E+02 -0.54989235348E+01  0.22854287246E+02  0.59301985323E+02  0.50000075312E+02 0.  0.
         12    1    1    2    0    0 -0.21544403599E+02  0.54989235348E+01 -0.22854287246E+02  0.31886014677E+02  0.00000000000E+00 0. -1.
         11    1    3    3    0    0 -0.29360237536E+01 -0.29054683141E+01 -0.68982363291E+01  0.80403760061E+01  0.51100000000E-03 0. -1.
        -11    1    3    3    0    0  0.10665963826E+02 -0.10749446051E+02  0.31670811177E+02  0.35104895038E+02  0.51100000000E-03 0.  1.
         12    1    3    3    0    0  0.13814463527E+02  0.81559908305E+01 -0.19182876022E+01  0.16156714279E+02  0.00000000000E+00 0. -1.
</event>
<event>
 7    1  0.7749294E-012  0.5930194E+02  0.7816164E-02  0.1266605E+00
        -11   -1    0    0    0    0  0.00000000000E+00  0.00000000000E+00  0.45593999997E+02  0.45594000000E+02  0.51100000000E-03 0.  1.
         11   -1    0    0    0    0 -0.00000000000E+00 -0.00000000000E+00 -0.45593999997E+02  0.45594000000E+02  0.51100000000E-03 0. -1.
    9900012    2    1    2    0    0  0.17991510457E+02 -0.57610120023E+01  0.25687292803E+02  0.59301941615E+02  0.49999995599E+02 0.  0.
         12    1    1    2    0    0 -0.17991510457E+02  0.57610120023E+01 -0.25687292803E+02  0.31886058385E+02  0.00000000000E+00 0. -1.
         11    1    3    3    0    0 -0.11378792960E+02  0.94003779630E+01  0.62663812627E+01  0.16034698920E+02  0.51100000000E-03 0. -1.
        -11    1    3    3    0    0  0.20427970993E+02 -0.12454084952E+02  0.23070722948E+02  0.33236493325E+02  0.51100000000E-03 0.  1.
         12    1    3    3    0    0  0.89423324235E+01 -0.27073050130E+01 -0.36498114082E+01  0.10030749370E+02  0.00000000000E+00 0. -1.
</event>
<event>
 7    1  0.7749294E-012  0.5930193E+02  0.7816164E-02  0.1266605E+00
        -11   -1    0    0    0    0  0.00000000000E+00  0.00000000000E+00  0.45593999997E+02  0.45594000000E+02  0.51100000000E-03 0. -1.
         11   -1    0    0    0    0 -0.00000000000E+00 -0.00000000000E+00 -0.45593999997E+02  0.45594000000E+02  0.51100000000E-03 0.  1.
    9900012    2    1    2    0    0  0.11729070401E+02  0.23819474187E+02  0.17657379235E+02  0.59301929617E+02  0.49999973718E+02 0.  0.
         12    1    1    2    0    0 -0.11729070401E+02 -0.23819474187E+02 -0.17657379235E+02  0.31886070383E+02  0.00000000000E+00 0. -1.
         11    1    3    3    0    0 -0.15158836664E+02  0.14861549896E+02  0.20534688069E+01  0.21327745514E+02  0.51100000000E-03 0. -1.
        -11    1    3    3    0    0  0.14636696577E+02  0.14987021885E+02  0.10029902691E+02  0.23225904932E+02  0.51100000000E-03 0.  1.
         12    1    3    3    0    0  0.12251210488E+02 -0.60290975940E+01  0.55740077380E+01  0.14748279171E+02  0.00000000000E+00 0. -1.
</event>
<event>
 7    1  0.7749294E-012  0.5930195E+02  0.7816164E-02  0.1266605E+00
        -11   -1    0    0    0    0  0.00000000000E+00  0.00000000000E+00  0.45593999997E+02  0.45594000000E+02  0.51100000000E-03 0.  1.
         11   -1    0    0    0    0 -0.00000000000E+00 -0.00000000000E+00 -0.45593999997E+02  0.45594000000E+02  0.51100000000E-03 0. -1.
    9900012    2    1    2    0    0  0.18292410121E+02  0.21642020202E+02  0.14619540761E+02  0.59301948527E+02  0.50000008205E+02 0.  0.
         12    1    1    2    0    0 -0.18292410121E+02 -0.21642020202E+02 -0.14619540761E+02  0.31886051473E+02  0.00000000000E+00 0. -1.
         11    1    3    3    0    0 -0.74312324392E+01 -0.85611585502E+01  0.24926011709E+01  0.11607312874E+02  0.51100000000E-03 0. -1.
        -11    1    3    3    0    0  0.85437222350E+01  0.10432229864E+02  0.16318667247E+02  0.21168975188E+02  0.51100000000E-03 0.  1.
        -12    1    3    3    0    0  0.17179920326E+02  0.19770948889E+02 -0.41917276563E+01  0.26525660465E+02  0.00000000000E+00 0.  1.
</event>
<event>
 7    1  0.7749294E-012  0.5930190E+02  0.7816164E-02  0.1266605E+00
        -11   -1    0    0    0    0  0.00000000000E+00  0.00000000000E+00  0.45593999997E+02  0.45594000000E+02  0.51100000000E-03 0. -1.
         11   -1    0    0    0    0 -0.00000000000E+00 -0.00000000000E+00 -0.45593999997E+02  0.45594000000E+02  0.51100000000E-03 0.  1.
    9900012    2    1    2    0    0 -0.63009635766E+01 -0.40330528236E+01 -0.30996057262E+02  0.59301902358E+02  0.49999924004E+02 0.  0.
         12    1    1    2    0    0  0.63009635766E+01  0.40330528236E+01  0.30996057262E+02  0.31886097642E+02  0.00000000000E+00 0. -1.
         11    1    3    3    0    0  0.12277848846E+02 -0.49251442011E+01 -0.17916235221E+02  0.22270925047E+02  0.51100000000E-03 0. -1.
        -11    1    3    3    0    0 -0.22549025029E+02  0.90450653134E+01 -0.13787649540E+02  0.27935121556E+02  0.51100000000E-03 0.  1.
        -12    1    3    3    0    0  0.39702126059E+01 -0.81529739358E+01  0.70782749918E+00  0.90958557543E+01  0.00000000000E+00 0.  1.
</event>
<event>
 7    1  0.7749294E-012  0.5930196E+02  0.7816164E-02  0.1266605E+00
        -11   -1    0    0    0    0  0.00000000000E+00  0.00000000000E+00  0.45593999997E+02  0.45594000000E+02  0.51100000000E-03 0. -1.
         11   -1    0    0    0    0 -0.00000000000E+00 -0.00000000000E+00 -0.45593999997E+02  0.45594000000E+02  0.51100000000E-03 0.  1.
    9900012    2    1    2    0    0 -0.19889631543E+02 -0.24862406683E+02 -0.17271534500E+01  0.59301956532E+02  0.50000022805E+02 0.  0.
         12    1    1    2    0    0  0.19889631543E+02  0.24862406683E+02  0.17271534500E+01  0.31886043468E+02  0.00000000000E+00 0. -1.
         11    1    3    3    0    0 -0.15994732533E+02 -0.58718626951E+01  0.11358151332E+02  0.20477251824E+02  0.51100000000E-03 0.  1.
        -11    1    3    3    0    0  0.32323355702E+01 -0.23558951425E+02 -0.17262250249E+02  0.29384646832E+02  0.51100000000E-03 0. -1.
        -12    1    3    3    0    0 -0.71272345805E+01  0.45684074376E+01  0.41769454671E+01  0.94400578767E+01  0.00000000000E+00 0.  1.
</event>
<event>
 7    1  0.7749294E-012  0.5930193E+02  0.7816164E-02  0.1266605E+00
        -11   -1    0    0    0    0  0.00000000000E+00  0.00000000000E+00  0.45593999997E+02  0.45594000000E+02  0.51100000000E-03 0.  1.
         11   -1    0    0    0    0 -0.00000000000E+00 -0.00000000000E+00 -0.45593999997E+02  0.45594000000E+02  0.51100000000E-03 0. -1.
    9900012    2    1    2    0    0  0.12246846516E+02 -0.46982496872E+01  0.29063081363E+02  0.59301929404E+02  0.49999973330E+02 0.  0.
         12    1    1    2    0    0 -0.12246846516E+02  0.46982496872E+01 -0.29063081363E+02  0.31886070596E+02  0.00000000000E+00 0. -1.
         11    1    3    3    0    0  0.14365889697E+02 -0.19782049345E+02  0.17015742395E+02  0.29786637148E+02  0.51100000000E-03 0. -1.
        -11    1    3    3    0    0 -0.11769697999E+02  0.11406451500E+02  0.92304761655E+01  0.18810492214E+02  0.51100000000E-03 0.  1.
         12    1    3    3    0    0  0.96506548181E+01  0.36773481581E+01  0.28168628027E+01  0.10704800042E+02  0.00000000000E+00 0. -1.
</event>
<event>
 7    1  0.7749294E-012  0.5930193E+02  0.7816164E-02  0.1266605E+00
        -11   -1    0    0    0    0  0.00000000000E+00  0.00000000000E+00  0.45593999997E+02  0.45594000000E+02  0.51100000000E-03 0.  1.
         11   -1    0    0    0    0 -0.00000000000E+00 -0.00000000000E+00 -0.45593999997E+02  0.45594000000E+02  0.51100000000E-03 0. -1.
    9900012    2    1    2    0    0 -0.66892705989E+01  0.30978480760E+02 -0.35083636710E+01  0.59301933655E+02  0.49999981082E+02 0.  0.
         12    1    1    2    0    0  0.66892705989E+01 -0.30978480760E+02  0.35083636710E+01  0.31886066345E+02  0.00000000000E+00 0. -1.
         11    1    3    3    0    0 -0.25560820340E+02  0.20429432686E+02 -0.55862584938E+01  0.33195233702E+02  0.51100000000E-03 0. -1.
        -11    1    3    3    0    0  0.18706076634E+02  0.37378006673E+01  0.35580780983E+00  0.19079178607E+02  0.51100000000E-03 0.  1.
        -12    1    3    3    0    0  0.16547310738E+00  0.68112474064E+01  0.17220870130E+01  0.70275213455E+01  0.00000000000E+00 0.  1.
</event>
<event>
 7    1  0.7749294E-012  0.5930191E+02  0.7816164E-02  0.1266605E+00
        -11   -1    0    0    0    0  0.00000000000E+00  0.00000000000E+00  0.45593999997E+02  0.45594000000E+02  0.51100000000E-03 0. -1.
         11   -1    0    0    0    0 -0.00000000000E+00 -0.00000000000E+00 -0.45593999997E+02  0.45594000000E+02  0.51100000000E-03 0.  1.
    9900012    2    1    2    0    0  0.27166214900E+02 -0.90661155080E+01 -0.14018728784E+02  0.59301914648E+02  0.49999946418E+02 0.  0.
         12    1    1    2    0    0 -0.27166214900E+02  0.90661155080E+01  0.14018728784E+02  0.31886085352E+02  0.00000000000E+00 0. -1.
         11    1    3    3    0    0  0.34837018217E+02 -0.17736535039E+02 -0.38668661121E+01  0.39283013724E+02  0.51100000000E-03 0. -1.
        -11    1    3    3    0    0 -0.45527571783E+01 -0.21168968344E+01 -0.64953339343E+01  0.82096414849E+01  0.51100000000E-03 0.  1.
         12    1    3    3    0    0 -0.31180461385E+01  0.10787316365E+02 -0.36565287374E+01  0.11809259439E+02  0.00000000000E+00 0. -1.
</event>
<event>
 7    1  0.7749294E-012  0.5930195E+02  0.7816164E-02  0.1266605E+00
        -11   -1    0    0    0    0  0.00000000000E+00  0.00000000000E+00  0.45593999997E+02  0.45594000000E+02  0.51100000000E-03 0.  1.
         11   -1    0    0    0    0 -0.00000000000E+00 -0.00000000000E+00 -0.45593999997E+02  0.45594000000E+02  0.51100000000E-03 0. -1.
    9900012    2    1    2    0    0  0.22947402051E+02  0.52583102901E+01  0.21505519631E+02  0.59301945641E+02  0.50000002942E+02 0.  0.
         12    1    1    2    0    0 -0.22947402051E+02 -0.52583102901E+01 -0.21505519631E+02  0.31886054359E+02  0.00000000000E+00 0. -1.
         11    1    3    3    0    0 -0.80405261588E+01  0.11226752295E+02  0.12396252587E+02  0.18556861439E+02  0.51100000000E-03 0. -1.
        -11    1    3    3    0    0  0.32027969760E+02 -0.61671463701E+01  0.14179701013E+02  0.35565270453E+02  0.51100000000E-03 0.  1.
        -12    1    3    3    0    0 -0.10400415503E+01  0.19870436506E+00 -0.50704339686E+01  0.51798137496E+01  0.00000000000E+00 0.  1.
</event>
<event>
 7    1  0.7749294E-012  0.5930195E+02  0.7816164E-02  0.1266605E+00
        -11   -1    0    0    0    0  0.00000000000E+00  0.00000000000E+00  0.45593999997E+02  0.45594000000E+02  0.51100000000E-03 0.  1.
         11   -1    0    0    0    0 -0.00000000000E+00 -0.00000000000E+00 -0.45593999997E+02  0.45594000000E+02  0.51100000000E-03 0. -1.
    9900012    2    1    2    0    0  0.15420626075E+02  0.14137695780E+02  0.24063461230E+02  0.59301947926E+02  0.50000007109E+02 0.  0.
         12    1    1    2    0    0 -0.15420626075E+02 -0.14137695780E+02 -0.24063461230E+02  0.31886052074E+02  0.00000000000E+00 0. -1.
         11    1    3    3    0    0  0.12676096076E+02  0.10018317867E+01 -0.16135284219E+01  0.12817587639E+02  0.51100000000E-03 0. -1.
        -11    1    3    3    0    0 -0.10109945429E+02  0.19736460079E+02  0.22694293536E+02  0.31729636184E+02  0.51100000000E-03 0.  1.
        -12    1    3    3    0    0  0.12854475428E+02 -0.66005960859E+01  0.29826961161E+01  0.14754724102E+02  0.00000000000E+00 0.  1.
</event>
<event>
 7    1  0.7749294E-012  0.5930192E+02  0.7816164E-02  0.1266605E+00
        -11   -1    0    0    0    0  0.00000000000E+00  0.00000000000E+00  0.45593999997E+02  0.45594000000E+02  0.51100000000E-03 0.  1.
         11   -1    0    0    0    0 -0.00000000000E+00 -0.00000000000E+00 -0.45593999997E+02  0.45594000000E+02  0.51100000000E-03 0. -1.
    9900012    2    1    2    0    0  0.24462235126E+02 -0.18972710696E+02  0.76391885911E+01  0.59301923088E+02  0.49999961811E+02 0.  0.
         12    1    1    2    0    0 -0.24462235126E+02  0.18972710696E+02 -0.76391885911E+01  0.31886076912E+02  0.00000000000E+00 0. -1.
         11    1    3    3    0    0 -0.62236553391E+00  0.83821107639E+01  0.12899788780E+02  0.15396482408E+02  0.51100000000E-03 0.  1.
        -11    1    3    3    0    0  0.20950200412E+02 -0.31297647070E+02 -0.30717651310E+01  0.37787423181E+02  0.51100000000E-03 0. -1.
         12    1    3    3    0    0  0.41344002483E+01  0.39428256099E+01 -0.21888350578E+01  0.61180174987E+01  0.00000000000E+00 0. -1.
</event>
<event>
 7    1  0.7749294E-012  0.5930195E+02  0.7816164E-02  0.1266605E+00
        -11   -1    0    0    0    0  0.00000000000E+00  0.00000000000E+00  0.45593999997E+02  0.45594000000E+02  0.51100000000E-03 0. -1.
         11   -1    0    0    0    0 -0.00000000000E+00 -0.00000000000E+00 -0.45593999997E+02  0.45594000000E+02  0.51100000000E-03 0.  1.
    9900012    2    1    2    0    0  0.30445105886E+02 -0.83786401193E+01 -0.44287651535E+01  0.59301952213E+02  0.50000014928E+02 0.  0.
         12    1    1    2    0    0 -0.30445105886E+02  0.83786401193E+01  0.44287651535E+01  0.31886047787E+02  0.00000000000E+00 0. -1.
         11    1    3    3    0    0  0.12789367326E+02 -0.47975529915E+01  0.74726085137E+01  0.15569981040E+02  0.51100000000E-03 0. -1.
        -11    1    3    3    0    0  0.18453123752E+02  0.42663998019E+01 -0.23201922153E+02  0.29950778543E+02  0.51100000000E-03 0.  1.
        -12    1    3    3    0    0 -0.79738519182E+00 -0.78474869298E+01  0.11300548485E+02  0.13781192631E+02  0.00000000000E+00 0.  1.
</event>
<event>
 7    1  0.7749294E-012  0.5930193E+02  0.7816164E-02  0.1266605E+00
        -11   -1    0    0    0    0  0.00000000000E+00  0.00000000000E+00  0.45593999997E+02  0.45594000000E+02  0.51100000000E-03 0. -1.
         11   -1    0    0    0    0 -0.00000000000E+00 -0.00000000000E+00 -0.45593999997E+02  0.45594000000E+02  0.51100000000E-03 0.  1.
    9900012    2    1    2    0    0 -0.10396966557E+02  0.26763676488E+02 -0.13868309319E+02  0.59301932571E+02  0.49999979106E+02 0.  0.
         12    1    1    2    0    0  0.10396966557E+02 -0.26763676488E+02  0.13868309319E+02  0.31886067429E+02  0.00000000000E+00 0. -1.
         11    1    3    3    0    0 -0.19737699666E+02  0.18459227238E+02  0.13955641042E-01  0.27024434377E+02  0.51100000000E-03 0. -1.
        -11    1    3    3    0    0  0.77273695543E+01 -0.56201776026E+01 -0.15456642489E+02  0.18171583140E+02  0.51100000000E-03 0.  1.
         12    1    3    3    0    0  0.16133635548E+01  0.13924626852E+02  0.15743775292E+01  0.14105915055E+02  0.00000000000E+00 0. -1.
</event>
<event>
 7    1  0.7749294E-012  0.5930194E+02  0.7816164E-02  0.1266605E+00
        -11   -1    0    0    0    0  0.00000000000E+00  0.00000000000E+00  0.45593999997E+02  0.45594000000E+02  0.51100000000E-03 0. -1.
         11   -1    0    0    0    0 -0.00000000000E+00 -0.00000000000E+00 -0.45593999997E+02  0.45594000000E+02  0.51100000000E-03 0.  1.
    9900012    2    1    2    0    0 -0.12179597090E+02 -0.12543175293E+02 -0.26665463278E+02  0.59301940922E+02  0.49999994336E+02 0.  0.
         12    1    1    2    0    0  0.12179597090E+02  0.12543175293E+02  0.26665463278E+02  0.31886059078E+02  0.00000000000E+00 0. -1.
         11    1    3    3    0    0 -0.18832234911E+02 -0.10689420347E+02  0.20889223123E+01  0.21755008062E+02  0.51100000000E-03 0. -1.
        -11    1    3    3    0    0  0.12919570176E+02  0.57937015812E+01 -0.18574312221E+02  0.23355670538E+02  0.51100000000E-03 0.  1.
        -12    1    3    3    0    0 -0.62669323543E+01 -0.76474565270E+01 -0.10180073370E+02  0.14191262322E+02  0.00000000000E+00 0.  1.
</event>
<event>
 7    1  0.7749294E-012  0.5930192E+02  0.7816164E-02  0.1266605E+00
        -11   -1    0    0    0    0  0.00000000000E+00  0.00000000000E+00  0.45593999997E+02  0.45594000000E+02  0.51100000000E-03 0.  1.
         11   -1    0    0    0    0 -0.00000000000E+00 -0.00000000000E+00 -0.45593999997E+02  0.45594000000E+02  0.51100000000E-03 0. -1.
    9900012    2    1    2    0    0 -0.44253304796E+01  0.30108413608E+02 -0.95195558981E+01  0.59301920525E+02  0.49999957136E+02 0.  0.
         12    1    1    2    0    0  0.44253304796E+01 -0.30108413608E+02  0.95195558981E+01  0.31886079475E+02  0.00000000000E+00 0. -1.
         11    1    3    3    0    0 -0.71382071106E+01  0.84331199060E+01  0.35322267048E+01  0.11599488690E+02  0.51100000000E-03 0. -1.
        -11    1    3    3    0    0  0.19152783782E+02  0.20045648140E+02 -0.19395349232E+01  0.27792425801E+02  0.51100000000E-03 0.  1.
        -12    1    3    3    0    0 -0.16439907151E+02  0.16296455618E+01 -0.11112247680E+02  0.19910006034E+02  0.00000000000E+00 0.  1.
</event>
<event>
 7    1  0.7749294E-012  0.5930194E+02  0.7816164E-02  0.1266605E+00
        -11   -1    0    0    0    0  0.00000000000E+00  0.00000000000E+00  0.45593999997E+02  0.45594000000E+02  0.51100000000E-03 0. -1.
         11   -1    0    0    0    0 -0.00000000000E+00 -0.00000000000E+00 -0.45593999997E+02  0.45594000000E+02  0.51100000000E-03 0.  1.
    9900012    2    1    2    0    0  0.52886554478E+01  0.12757185761E+02 -0.28740301459E+02  0.59301943597E+02  0.49999999214E+02 0.  0.
         12    1    1    2    0    0 -0.52886554478E+01 -0.12757185761E+02  0.28740301459E+02  0.31886056403E+02  0.00000000000E+00 0. -1.
         11    1    3    3    0    0  0.45025885789E+01 -0.14747935973E+02 -0.23641723326E+01  0.15600135591E+02  0.51100000000E-03 0. -1.
        -11    1    3    3    0    0 -0.77695541517E+01  0.35160421282E+01 -0.11117681974E+02  0.14011829884E+02  0.51100000000E-03 0.  1.
         12    1    3    3    0    0  0.85556210206E+01  0.23989079605E+02 -0.15258447153E+02  0.29689978122E+02  0.00000000000E+00 0. -1.
</event>
<event>
 7    1  0.7749294E-012  0.5930184E+02  0.7816164E-02  0.1266605E+00
        -11   -1    0    0    0    0  0.00000000000E+00  0.00000000000E+00  0.45593999997E+02  0.45594000000E+02  0.51100000000E-03 0.  1.
         11   -1    0    0    0    0 -0.00000000000E+00 -0.00000000000E+00 -0.45593999997E+02  0.45594000000E+02  0.51100000000E-03 0. -1.
    9900012    2    1    2    0    0  0.14411242862E+02  0.28143306505E+02 -0.41228406057E+01  0.59301836284E+02  0.49999803500E+02 0.  0.
         12    1    1    2    0    0 -0.14411242862E+02 -0.28143306505E+02  0.41228406057E+01  0.31886163716E+02  0.00000000000E+00 0. -1.
         11    1    3    3    0    0  0.14540798853E+02  0.76897745311E+01 -0.19359499598E+02  0.25403891209E+02  0.51100000000E-03 0. -1.
        -11    1    3    3    0    0 -0.94319316898E+01  0.94078370547E+01  0.59812899487E+00  0.13335159992E+02  0.51100000000E-03 0.  1.
         12    1    3    3    0    0  0.93023756989E+01  0.11045694920E+02  0.14638529997E+02  0.20562785083E+02  0.00000000000E+00 0. -1.
</event>
<event>
 7    1  0.7749294E-012  0.5930194E+02  0.7816164E-02  0.1266605E+00
        -11   -1    0    0    0    0  0.00000000000E+00  0.00000000000E+00  0.45593999997E+02  0.45594000000E+02  0.51100000000E-03 0. -1.
         11   -1    0    0    0    0 -0.00000000000E+00 -0.00000000000E+00 -0.45593999997E+02  0.45594000000E+02  0.51100000000E-03 0.  1.
    9900012    2    1    2    0    0  0.10587147246E+02  0.17980081763E+02 -0.24111202551E+02  0.59301935403E+02  0.49999984271E+02 0.  0.
         12    1    1    2    0    0 -0.10587147246E+02 -0.17980081763E+02  0.24111202551E+02  0.31886064597E+02  0.00000000000E+00 0. -1.
         11    1    3    3    0    0  0.13614567084E+02 -0.72648291976E+01 -0.15091116061E+02  0.21584160034E+02  0.51100000000E-03 0. -1.
        -11    1    3    3    0    0  0.61342246242E+01  0.19884189208E+02  0.37161723019E+01  0.21138108455E+02  0.51100000000E-03 0.  1.
         12    1    3    3    0    0 -0.91616444625E+01  0.53607217525E+01 -0.12736258792E+02  0.16579666914E+02  0.00000000000E+00 0. -1.
</event>
<event>
 7    1  0.7749294E-012  0.5930197E+02  0.7816164E-02  0.1266605E+00
        -11   -1    0    0    0    0  0.00000000000E+00  0.00000000000E+00  0.45593999997E+02  0.45594000000E+02  0.51100000000E-03 0. -1.
         11   -1    0    0    0    0 -0.00000000000E+00 -0.00000000000E+00 -0.45593999997E+02  0.45594000000E+02  0.51100000000E-03 0.  1.
    9900012    2    1    2    0    0 -0.20819770229E+02  0.20971188334E+02 -0.11977709805E+02  0.59301966934E+02  0.50000041775E+02 0.  0.
         12    1    1    2    0    0  0.20819770229E+02 -0.20971188334E+02  0.11977709805E+02  0.31886033066E+02  0.00000000000E+00 0. -1.
         11    1    3    3    0    0 -0.97551109609E+01 -0.14819505572E+02 -0.33437853247E+01  0.18054385501E+02  0.51100000000E-03 0. -1.
        -11    1    3    3    0    0 -0.10498729026E+02  0.98826766225E+01 -0.32407424921E+01  0.14778126422E+02  0.51100000000E-03 0.  1.
         12    1    3    3    0    0 -0.56593024219E+00  0.25908017283E+02 -0.53931819879E+01  0.26469455010E+02  0.00000000000E+00 0. -1.
</event>
