<event>
 7    1  0.3750159E-013  0.5930195E+02  0.7816164E-02  0.1266605E+00
        -11   -1    0    0    0    0  0.00000000000E+00  0.00000000000E+00  0.45593999997E+02  0.45594000000E+02  0.51100000000E-03 0.  1.
         11   -1    0    0    0    0 -0.00000000000E+00 -0.00000000000E+00 -0.45593999997E+02  0.45594000000E+02  0.51100000000E-03 0. -1.
    9900012    2    1    2    0    0  0.90643307570E+01 -0.26096844914E+02 -0.15922078601E+02  0.59301952996E+02  0.50000016357E+02 0.  0.
        -12    1    1    2    0    0 -0.90643307570E+01  0.26096844914E+02  0.15922078601E+02  0.31886047004E+02  0.00000000000E+00 0.  1.
         11    1    3    3    0    0  0.46793836095E+01 -0.22404908841E+00 -0.12473557946E+02  0.13324281484E+02  0.51100000000E-03 0. -1.
        -11    1    3    3    0    0 -0.69912872644E+01 -0.32107254998E+02 -0.19247699186E+01  0.32915933234E+02  0.51100000000E-03 0.  1.
         12    1    3    3    0    0  0.11376234412E+02  0.62344591725E+01 -0.15237507360E+01  0.13061738279E+02  0.00000000000E+00 0. -1.
</event>
<event>
 7    1  0.3750159E-013  0.5930194E+02  0.7816164E-02  0.1266605E+00
        -11   -1    0    0    0    0  0.00000000000E+00  0.00000000000E+00  0.45593999997E+02  0.45594000000E+02  0.51100000000E-03 0.  1.
         11   -1    0    0    0    0 -0.00000000000E+00 -0.00000000000E+00 -0.45593999997E+02  0.45594000000E+02  0.51100000000E-03 0. -1.
    9900012    2    1    2    0    0 -0.20761025932E+02 -0.97280172221E+01 -0.22160018712E+02  0.59301938059E+02  0.49999989114E+02 0.  0.
        -12    1    1    2    0    0  0.20761025932E+02  0.97280172221E+01  0.22160018712E+02  0.31886061941E+02  0.00000000000E+00 0.  1.
         11    1    3    3    0    0 -0.30743246570E+00  0.11340675108E+01 -0.11626753061E+02  0.11685974964E+02  0.51100000000E-03 0. -1.
        -11    1    3    3    0    0  0.37097400093E+01 -0.23284313876E+01 -0.19866266972E+02  0.20343360767E+02  0.51100000000E-03 0.  1.
        -12    1    3    3    0    0 -0.24163333475E+02 -0.85336533453E+01  0.93330013213E+01  0.27272602328E+02  0.00000000000E+00 0.  1.
</event>
<event>
 7    1  0.3750159E-013  0.5930191E+02  0.7816164E-02  0.1266605E+00
        -11   -1    0    0    0    0  0.00000000000E+00  0.00000000000E+00  0.45593999997E+02  0.45594000000E+02  0.51100000000E-03 0.  1.
         11   -1    0    0    0    0 -0.00000000000E+00 -0.00000000000E+00 -0.45593999997E+02  0.45594000000E+02  0.51100000000E-03 0. -1.
    9900012    2    1    2    0    0 -0.27245887366E+02  0.74489126118E+01 -0.14795200727E+02  0.59301911466E+02  0.49999940615E+02 0.  0.
        -12    1    1    2    0    0  0.27245887366E+02 -0.74489126118E+01  0.14795200727E+02  0.31886088534E+02  0.00000000000E+00 0.  1.
         11    1    3    3    0    0 -0.15627083377E+02  0.21451201789E+02 -0.10973846315E+02  0.28719071995E+02  0.51100000000E-03 0. -1.
        -11    1    3    3    0    0 -0.41196444884E+01 -0.85290219839E+00 -0.12461923883E+02  0.13152887896E+02  0.51100000000E-03 0.  1.
        -12    1    3    3    0    0 -0.74991595006E+01 -0.13149386978E+02  0.86405694709E+01  0.17429951575E+02  0.00000000000E+00 0.  1.
</event>
<event>
 7    1  0.3750159E-013  0.5930196E+02  0.7816164E-02  0.1266605E+00
        -11   -1    0    0    0    0  0.00000000000E+00  0.00000000000E+00  0.45593999997E+02  0.45594000000E+02  0.51100000000E-03 0.  1.
         11   -1    0    0    0    0 -0.00000000000E+00 -0.00000000000E+00 -0.45593999997E+02  0.45594000000E+02  0.51100000000E-03 0. -1.
    9900012    2    1    2    0    0 -0.27160840613E+02 -0.15084324730E+02  0.71743661709E+01  0.59301958457E+02  0.50000026315E+02 0.  0.
        -12    1    1    2    0    0  0.27160840613E+02  0.15084324730E+02 -0.71743661709E+01  0.31886041543E+02  0.00000000000E+00 0.  1.
         11    1    3    3    0    0 -0.27514267184E+02 -0.15647254379E+02  0.20912191127E+01  0.31721359774E+02  0.51100000000E-03 0. -1.
        -11    1    3    3    0    0 -0.79897737602E+01 -0.54260928363E+01  0.11845629506E+02  0.15283910065E+02  0.51100000000E-03 0.  1.
         12    1    3    3    0    0  0.83432003318E+01  0.59890224848E+01 -0.67624824479E+01  0.12296688618E+02  0.00000000000E+00 0. -1.
</event>
<event>
 7    1  0.3750159E-013  0.5930195E+02  0.7816164E-02  0.1266605E+00
        -11   -1    0    0    0    0  0.00000000000E+00  0.00000000000E+00  0.45593999997E+02  0.45594000000E+02  0.51100000000E-03 0. -1.
         11   -1    0    0    0    0 -0.00000000000E+00 -0.00000000000E+00 -0.45593999997E+02  0.45594000000E+02  0.51100000000E-03 0.  1.
    9900012    2    1    2    0    0 -0.14385819077E+02  0.18540049753E+02  0.21587843919E+02  0.59301949124E+02  0.50000009295E+02 0.  0.
        -12    1    1    2    0    0  0.14385819077E+02 -0.18540049753E+02 -0.21587843919E+02  0.31886050876E+02  0.00000000000E+00 0.  1.
         11    1    3    3    0    0 -0.83045791913E+01  0.29552836576E+02  0.72937333117E+01  0.31552095511E+02  0.51100000000E-03 0. -1.
        -11    1    3    3    0    0  0.39985340235E+01 -0.38106657635E+01  0.14333977760E+02  0.15361392078E+02  0.51100000000E-03 0.  1.
        -12    1    3    3    0    0 -0.10079773909E+02 -0.72021210593E+01 -0.39867152683E-01  0.12388461535E+02  0.00000000000E+00 0.  1.
</event>
<event>
 7    1  0.3750159E-013  0.5930194E+02  0.7816164E-02  0.1266605E+00
        -11   -1    0    0    0    0  0.00000000000E+00  0.00000000000E+00  0.45593999997E+02  0.45594000000E+02  0.51100000000E-03 0.  1.
         11   -1    0    0    0    0 -0.00000000000E+00 -0.00000000000E+00 -0.45593999997E+02  0.45594000000E+02  0.51100000000E-03 0. -1.
    9900012    2    1    2    0    0 -0.20793395941E+02 -0.23519976128E+02 -0.55826961023E+01  0.59301935840E+02  0.49999985068E+02 0.  0.
        -12    1    1    2    0    0  0.20793395941E+02  0.23519976128E+02  0.55826961023E+01  0.31886064160E+02  0.00000000000E+00 0.  1.
         11    1    3    3    0    0  0.37938774671E+00 -0.22738847716E+02 -0.45319392402E+01  0.23189169973E+02  0.51100000000E-03 0. -1.
        -11    1    3    3    0    0  0.70503747968E+01 -0.32559626576E+01 -0.18676418735E+00  0.77681374039E+01  0.51100000000E-03 0.  1.
        -12    1    3    3    0    0 -0.28223158485E+02  0.24748342453E+01 -0.86399267475E+00  0.28344628464E+02  0.00000000000E+00 0.  1.
</event>
<event>
 7    1  0.3750159E-013  0.5930194E+02  0.7816164E-02  0.1266605E+00
        -11   -1    0    0    0    0  0.00000000000E+00  0.00000000000E+00  0.45593999997E+02  0.45594000000E+02  0.51100000000E-03 0. -1.
         11   -1    0    0    0    0 -0.00000000000E+00 -0.00000000000E+00 -0.45593999997E+02  0.45594000000E+02  0.51100000000E-03 0.  1.
    9900012    2    1    2    0    0 -0.13915811118E+02 -0.27525508946E+02  0.80881094461E+01  0.59301937900E+02  0.49999988825E+02 0.  0.
        -12    1    1    2    0    0  0.13915811118E+02  0.27525508946E+02 -0.80881094461E+01  0.31886062100E+02  0.00000000000E+00 0.  1.
         11    1    3    3    0    0  0.50364795789E+01 -0.63053316903E+01  0.23166523145E+01  0.83958449534E+01  0.51100000000E-03 0. -1.
        -11    1    3    3    0    0 -0.11014726947E+02 -0.17243188730E+02  0.23451131583E+02  0.31122457166E+02  0.51100000000E-03 0.  1.
        -12    1    3    3    0    0 -0.79375637500E+01 -0.39769885259E+01 -0.17679674451E+02  0.19783635781E+02  0.00000000000E+00 0.  1.
</event>
<event>
 7    1  0.3750159E-013  0.5930194E+02  0.7816164E-02  0.1266605E+00
        -11   -1    0    0    0    0  0.00000000000E+00  0.00000000000E+00  0.45593999997E+02  0.45594000000E+02  0.51100000000E-03 0.  1.
         11   -1    0    0    0    0 -0.00000000000E+00 -0.00000000000E+00 -0.45593999997E+02  0.45594000000E+02  0.51100000000E-03 0. -1.
    9900012    2    1    2    0    0 -0.78388282009E+01 -0.23299661801E+02 -0.20307614075E+02  0.59301942592E+02  0.49999997381E+02 0.  0.
        -12    1    1    2    0    0  0.78388282009E+01  0.23299661801E+02  0.20307614075E+02  0.31886057408E+02  0.00000000000E+00 0.  1.
         11    1    3    3    0    0  0.86445972846E+01 -0.95052723604E+01 -0.61448032533E-01  0.12848464538E+02  0.51100000000E-03 0. -1.
        -11    1    3    3    0    0 -0.92546588148E+01  0.34371397138E+01  0.79171273049E+01  0.12654783452E+02  0.51100000000E-03 0.  1.
        -12    1    3    3    0    0 -0.72287666707E+01 -0.17231529155E+02 -0.28163293348E+02  0.33798694602E+02  0.00000000000E+00 0.  1.
</event>
<event>
 7    1  0.3750159E-013  0.5930192E+02  0.7816164E-02  0.1266605E+00
        -11   -1    0    0    0    0  0.00000000000E+00  0.00000000000E+00  0.45593999997E+02  0.45594000000E+02  0.51100000000E-03 0.  1.
         11   -1    0    0    0    0 -0.00000000000E+00 -0.00000000000E+00 -0.45593999997E+02  0.45594000000E+02  0.51100000000E-03 0. -1.
    9900012    2    1    2    0    0  0.68885165256E+01  0.23426381890E+02 -0.20505483328E+02  0.59301923494E+02  0.49999962552E+02 0.  0.
        -12    1    1    2    0    0 -0.68885165256E+01 -0.23426381890E+02  0.20505483328E+02  0.31886076506E+02  0.00000000000E+00 0.  1.
         11    1    3    3    0    0  0.13865397600E+02  0.15123436888E+02  0.10901259674E+02  0.23233705186E+02  0.51100000000E-03 0. -1.
        -11    1    3    3    0    0 -0.67563709078E+01  0.11264325591E+02 -0.17688091789E+02  0.22031844459E+02  0.51100000000E-03 0.  1.
        -12    1    3    3    0    0 -0.22051016672E+00 -0.29613805887E+01 -0.13718651214E+02  0.14036373850E+02  0.00000000000E+00 0.  1.
</event>
<event>
 7    1  0.3750159E-013  0.5930204E+02  0.7816164E-02  0.1266604E+00
        -11   -1    0    0    0    0  0.00000000000E+00  0.00000000000E+00  0.45593999997E+02  0.45594000000E+02  0.51100000000E-03 0. -1.
         11   -1    0    0    0    0 -0.00000000000E+00 -0.00000000000E+00 -0.45593999997E+02  0.45594000000E+02  0.51100000000E-03 0.  1.
    9900012    2    1    2    0    0  0.41159197548E+01  0.12162270655E+02  0.29186513873E+02  0.59302043609E+02  0.50000181612E+02 0.  0.
        -12    1    1    2    0    0 -0.41159197548E+01 -0.12162270655E+02 -0.29186513873E+02  0.31885956391E+02  0.00000000000E+00 0.  1.
         11    1    3    3    0    0  0.15890117821E+02  0.11162626357E+01 -0.37941607582E+01  0.16374905885E+02  0.51100000000E-03 0. -1.
        -11    1    3    3    0    0 -0.39235284901E-01 -0.25409532212E+01  0.21427974886E+02  0.21578139185E+02  0.51100000000E-03 0.  1.
        -12    1    3    3    0    0 -0.11734962781E+02  0.13586961241E+02  0.11552699745E+02  0.21348998539E+02  0.00000000000E+00 0.  1.
</event>
<event>
 7    1  0.3750159E-013  0.5930212E+02  0.7816164E-02  0.1266604E+00
        -11   -1    0    0    0    0  0.00000000000E+00  0.00000000000E+00  0.45593999997E+02  0.45594000000E+02  0.51100000000E-03 0.  1.
         11   -1    0    0    0    0 -0.00000000000E+00 -0.00000000000E+00 -0.45593999997E+02  0.45594000000E+02  0.51100000000E-03 0. -1.
    9900012    2    1    2    0    0  0.17285253469E+02  0.21788384597E+02 -0.15594723845E+02  0.59302123775E+02  0.50000327814E+02 0.  0.
        -12    1    1    2    0    0 -0.17285253469E+02 -0.21788384597E+02  0.15594723845E+02  0.31885876225E+02  0.00000000000E+00 0.  1.
         11    1    3    3    0    0  0.64676528770E+01  0.12753858920E+02 -0.24149660944E+02  0.28065950457E+02  0.51100000000E-03 0. -1.
        -11    1    3    3    0    0 -0.52229368400E+01 -0.23167873794E+01 -0.48120279173E+01  0.74700860727E+01  0.51100000000E-03 0.  1.
        -12    1    3    3    0    0  0.16040537432E+02  0.11351313057E+02  0.13366965016E+02  0.23766087245E+02  0.00000000000E+00 0.  1.
</event>
<event>
 7    1  0.3750159E-013  0.5930194E+02  0.7816164E-02  0.1266605E+00
        -11   -1    0    0    0    0  0.00000000000E+00  0.00000000000E+00  0.45593999997E+02  0.45594000000E+02  0.51100000000E-03 0.  1.
         11   -1    0    0    0    0 -0.00000000000E+00 -0.00000000000E+00 -0.45593999997E+02  0.45594000000E+02  0.51100000000E-03 0. -1.
    9900012    2    1    2    0    0  0.64713090007E+01 -0.23342104971E+02 -0.20736174741E+02  0.59301942741E+02  0.49999997653E+02 0.  0.
        -12    1    1    2    0    0 -0.64713090007E+01  0.23342104971E+02  0.20736174741E+02  0.31886057259E+02  0.00000000000E+00 0.  1.
         11    1    3    3    0    0  0.15934225753E+02  0.79381671486E+00 -0.26149412008E+02  0.30632032971E+02  0.51100000000E-03 0. -1.
        -11    1    3    3    0    0 -0.51990845004E+01 -0.29322774809E+01  0.35892871013E+01  0.69650350339E+01  0.51100000000E-03 0.  1.
        -12    1    3    3    0    0 -0.42638322519E+01 -0.21203644205E+02  0.18239501664E+01  0.21704874735E+02  0.00000000000E+00 0.  1.
</event>
<event>
 7    1  0.3750159E-013  0.5930195E+02  0.7816164E-02  0.1266605E+00
        -11   -1    0    0    0    0  0.00000000000E+00  0.00000000000E+00  0.45593999997E+02  0.45594000000E+02  0.51100000000E-03 0.  1.
         11   -1    0    0    0    0 -0.00000000000E+00 -0.00000000000E+00 -0.45593999997E+02  0.45594000000E+02  0.51100000000E-03 0. -1.
    9900012    2    1    2    0    0  0.17385577278E+02 -0.26165464402E+02 -0.54617121708E+01  0.59301950942E+02  0.50000012610E+02 0.  0.
        -12    1    1    2    0    0 -0.17385577278E+02  0.26165464402E+02  0.54617121708E+01  0.31886049058E+02  0.00000000000E+00 0.  1.
         11    1    3    3    0    0 -0.28683330187E+01 -0.15976038822E+01 -0.23789683713E+01  0.40545237999E+01  0.51100000000E-03 0. -1.
        -11    1    3    3    0    0 -0.75655574540E+00 -0.32459767496E+02  0.75795274084E+00  0.32477428702E+02  0.51100000000E-03 0.  1.
         12    1    3    3    0    0  0.21010466042E+02  0.78919069762E+01 -0.38406965403E+01  0.22769998440E+02  0.00000000000E+00 0. -1.
</event>
<event>
 7    1  0.3750159E-013  0.5930193E+02  0.7816164E-02  0.1266605E+00
        -11   -1    0    0    0    0  0.00000000000E+00  0.00000000000E+00  0.45593999997E+02  0.45594000000E+02  0.51100000000E-03 0.  1.
         11   -1    0    0    0    0 -0.00000000000E+00 -0.00000000000E+00 -0.45593999997E+02  0.45594000000E+02  0.51100000000E-03 0. -1.
    9900012    2    1    2    0    0  0.86287294844E+01 -0.12799417564E+02 -0.27900561448E+02  0.59301931074E+02  0.49999976375E+02 0.  0.
        -12    1    1    2    0    0 -0.86287294844E+01  0.12799417564E+02  0.27900561448E+02  0.31886068926E+02  0.00000000000E+00 0.  1.
         11    1    3    3    0    0 -0.48549667018E+01  0.61998432936E+01 -0.13882767063E+02  0.15960575808E+02  0.51100000000E-03 0. -1.
        -11    1    3    3    0    0 -0.81446821013E+01  0.99549377425E+00 -0.11013258406E+02  0.13733852896E+02  0.51100000000E-03 0.  1.
         12    1    3    3    0    0  0.21628378287E+02 -0.19994754631E+02 -0.30045359789E+01  0.29607502370E+02  0.00000000000E+00 0. -1.
</event>
<event>
 7    1  0.3750159E-013  0.5930194E+02  0.7816164E-02  0.1266605E+00
        -11   -1    0    0    0    0  0.00000000000E+00  0.00000000000E+00  0.45593999997E+02  0.45594000000E+02  0.51100000000E-03 0.  1.
         11   -1    0    0    0    0 -0.00000000000E+00 -0.00000000000E+00 -0.45593999997E+02  0.45594000000E+02  0.51100000000E-03 0. -1.
    9900012    2    1    2    0    0 -0.23239895540E+02 -0.20675008839E+02  0.70122771471E+01  0.59301940883E+02  0.49999994265E+02 0.  0.
        -12    1    1    2    0    0  0.23239895540E+02  0.20675008839E+02 -0.70122771471E+01  0.31886059117E+02  0.00000000000E+00 0.  1.
         11    1    3    3    0    0 -0.17892612713E+02 -0.11291199509E+02 -0.13676274151E+02  0.25192801571E+02  0.51100000000E-03 0. -1.
        -11    1    3    3    0    0 -0.99575041480E+01 -0.16124227206E+02  0.14610277262E+02  0.23929120205E+02  0.51100000000E-03 0.  1.
        -12    1    3    3    0    0  0.46102213210E+01  0.67404178761E+01  0.60782740362E+01  0.10180019108E+02  0.00000000000E+00 0.  1.
</event>
<event>
 7    1  0.3750159E-013  0.5930195E+02  0.7816164E-02  0.1266605E+00
        -11   -1    0    0    0    0  0.00000000000E+00  0.00000000000E+00  0.45593999997E+02  0.45594000000E+02  0.51100000000E-03 0. -1.
         11   -1    0    0    0    0 -0.00000000000E+00 -0.00000000000E+00 -0.45593999997E+02  0.45594000000E+02  0.51100000000E-03 0.  1.
    9900012    2    1    2    0    0  0.29159129610E+02  0.14619063644E+00 -0.12901308437E+02  0.59301953354E+02  0.50000017009E+02 0.  0.
        -12    1    1    2    0    0 -0.29159129610E+02 -0.14619063644E+00  0.12901308437E+02  0.31886046646E+02  0.00000000000E+00 0.  1.
         11    1    3    3    0    0  0.22076121311E+01 -0.54215171761E+01 -0.18130874689E+02  0.19052428115E+02  0.51100000000E-03 0. -1.
        -11    1    3    3    0    0  0.12401545510E+01 -0.98251639729E+01  0.20637323824E+01  0.10115869810E+02  0.51100000000E-03 0.  1.
         12    1    3    3    0    0  0.25711362928E+02  0.15392871786E+02  0.31658338696E+01  0.30133655429E+02  0.00000000000E+00 0. -1.
</event>
<event>
 7    1  0.3750159E-013  0.5930189E+02  0.7816164E-02  0.1266605E+00
        -11   -1    0    0    0    0  0.00000000000E+00  0.00000000000E+00  0.45593999997E+02  0.45594000000E+02  0.51100000000E-03 0.  1.
         11   -1    0    0    0    0 -0.00000000000E+00 -0.00000000000E+00 -0.45593999997E+02  0.45594000000E+02  0.51100000000E-03 0. -1.
    9900012    2    1    2    0    0 -0.28688476387E+01  0.20191967166E+02 -0.24510774323E+02  0.59301892011E+02  0.49999905133E+02 0.  0.
        -12    1    1    2    0    0  0.28688476387E+01 -0.20191967166E+02  0.24510774323E+02  0.31886107989E+02  0.00000000000E+00 0.  1.
         11    1    3    3    0    0  0.17481170884E+01 -0.48502422966E+01 -0.32607489228E+01  0.61002661818E+01  0.51100000000E-03 0. -1.
        -11    1    3    3    0    0  0.83043651450E+01 -0.85871184695E+00  0.83455411740E+01  0.11804572176E+02  0.51100000000E-03 0.  1.
        -12    1    3    3    0    0 -0.12921329872E+02  0.25900921310E+02 -0.29595566574E+02  0.41397053653E+02  0.00000000000E+00 0.  1.
</event>
<event>
 7    1  0.3750159E-013  0.5930206E+02  0.7816164E-02  0.1266604E+00
        -11   -1    0    0    0    0  0.00000000000E+00  0.00000000000E+00  0.45593999997E+02  0.45594000000E+02  0.51100000000E-03 0. -1.
         11   -1    0    0    0    0 -0.00000000000E+00 -0.00000000000E+00 -0.45593999997E+02  0.45594000000E+02  0.51100000000E-03 0.  1.
    9900012    2    1    2    0    0  0.22884753775E+02 -0.10610291599E+02  0.19504426381E+02  0.59302064360E+02  0.50000219457E+02 0.  0.
        -12    1    1    2    0    0 -0.22884753775E+02  0.10610291599E+02 -0.19504426381E+02  0.31885935640E+02  0.00000000000E+00 0.  1.
         11    1    3    3    0    0  0.89819830203E+01 -0.13338083337E+01 -0.10558946328E+02  0.13926464428E+02  0.51100000000E-03 0. -1.
        -11    1    3    3    0    0  0.39026123381E+01 -0.27474586831E+01 -0.58375764672E+01  0.75403057994E+01  0.51100000000E-03 0.  1.
         12    1    3    3    0    0  0.10000158417E+02 -0.65290245822E+01  0.35900949176E+02  0.37835294133E+02  0.00000000000E+00 0. -1.
</event>
<event>
 7    1  0.3750159E-013  0.5930195E+02  0.7816164E-02  0.1266605E+00
        -11   -1    0    0    0    0  0.00000000000E+00  0.00000000000E+00  0.45593999997E+02  0.45594000000E+02  0.51100000000E-03 0. -1.
         11   -1    0    0    0    0 -0.00000000000E+00 -0.00000000000E+00 -0.45593999997E+02  0.45594000000E+02  0.51100000000E-03 0.  1.
    9900012    2    1    2    0    0 -0.13878115291E+02  0.22295244030E+02 -0.18084259056E+02  0.59301946371E+02  0.50000004274E+02 0.  0.
        -12    1    1    2    0    0  0.13878115291E+02 -0.22295244030E+02  0.18084259056E+02  0.31886053629E+02  0.00000000000E+00 0.  1.
         11    1    3    3    0    0  0.12167177113E+01 -0.12783835014E+01 -0.71147592395E+00  0.19028569618E+01  0.51100000000E-03 0. -1.
        -11    1    3    3    0    0 -0.49099483694E+01 -0.10522316122E+02  0.76431576623E+01  0.13901244148E+02  0.51100000000E-03 0.  1.
        -12    1    3    3    0    0 -0.10184884633E+02  0.34095943653E+02 -0.25015940795E+02  0.43497845262E+02  0.00000000000E+00 0.  1.
</event>
<event>
 7    1  0.3750159E-013  0.5930201E+02  0.7816164E-02  0.1266605E+00
        -11   -1    0    0    0    0  0.00000000000E+00  0.00000000000E+00  0.45593999997E+02  0.45594000000E+02  0.51100000000E-03 0. -1.
         11   -1    0    0    0    0 -0.00000000000E+00 -0.00000000000E+00 -0.45593999997E+02  0.45594000000E+02  0.51100000000E-03 0.  1.
    9900012    2    1    2    0    0  0.29335062102E+02 -0.12457285231E+02  0.99335358649E+00  0.59302006599E+02  0.50000114114E+02 0.  0.
        -12    1    1    2    0    0 -0.29335062102E+02  0.12457285231E+02 -0.99335358649E+00  0.31885993401E+02  0.00000000000E+00 0.  1.
         11    1    3    3    0    0  0.11568199528E+02 -0.72095216551E+01  0.15947334919E+02  0.20978987919E+02  0.51100000000E-03 0. -1.
        -11    1    3    3    0    0  0.52292559369E+01 -0.23416197937E+00  0.92379149943E+01  0.10617863400E+02  0.51100000000E-03 0.  1.
         12    1    3    3    0    0  0.12537606637E+02 -0.50136015968E+01 -0.24191896327E+02  0.27705155279E+02  0.00000000000E+00 0. -1.
</event>
<event>
 7    1  0.3750159E-013  0.5930198E+02  0.7816164E-02  0.1266605E+00
        -11   -1    0    0    0    0  0.00000000000E+00  0.00000000000E+00  0.45593999997E+02  0.45594000000E+02  0.51100000000E-03 0. -1.
         11   -1    0    0    0    0 -0.00000000000E+00 -0.00000000000E+00 -0.45593999997E+02  0.45594000000E+02  0.51100000000E-03 0.  1.
    9900012    2    1    2    0    0  0.18491946178E+02 -0.14566777892E+02  0.21507565833E+02  0.59301976735E+02  0.50000059650E+02 0.  0.
        -12    1    1    2    0    0 -0.18491946178E+02  0.14566777892E+02 -0.21507565833E+02  0.31886023265E+02  0.00000000000E+00 0.  1.
         11    1    3    3    0    0  0.15336019197E+02 -0.76265440617E+01  0.84121547841E+01  0.19081981226E+02  0.51100000000E-03 0. -1.
        -11    1    3    3    0    0  0.14490029747E+02 -0.17172553753E+02  0.10210574231E+02  0.24680222666E+02  0.51100000000E-03 0.  1.
        -12    1    3    3    0    0 -0.11334102767E+02  0.10232319923E+02  0.28848368181E+01  0.15539772842E+02  0.00000000000E+00 0.  1.
</event>
<event>
 7    1  0.3750159E-013  0.5930197E+02  0.7816164E-02  0.1266605E+00
        -11   -1    0    0    0    0  0.00000000000E+00  0.00000000000E+00  0.45593999997E+02  0.45594000000E+02  0.51100000000E-03 0.  1.
         11   -1    0    0    0    0 -0.00000000000E+00 -0.00000000000E+00 -0.45593999997E+02  0.45594000000E+02  0.51100000000E-03 0. -1.
    9900012    2    1    2    0    0  0.20363646657E+01 -0.21744141296E+01 -0.31746562458E+02  0.59301967230E+02  0.50000042316E+02 0.  0.
        -12    1    1    2    0    0 -0.20363646657E+01  0.21744141296E+01  0.31746562458E+02  0.31886032770E+02  0.00000000000E+00 0.  1.
         11    1    3    3    0    0 -0.47949786806E+01  0.12140866773E+02 -0.12551832336E+02  0.18109140283E+02  0.51100000000E-03 0. -1.
        -11    1    3    3    0    0 -0.79332376843E+01  0.66295292771E+01 -0.25913732889E+01  0.10658430202E+02  0.51100000000E-03 0.  1.
         12    1    3    3    0    0  0.14764581031E+02 -0.20944810179E+02 -0.16603356834E+02  0.30534396745E+02  0.00000000000E+00 0. -1.
</event>
<event>
 7    1  0.3750159E-013  0.5930194E+02  0.7816164E-02  0.1266605E+00
        -11   -1    0    0    0    0  0.00000000000E+00  0.00000000000E+00  0.45593999997E+02  0.45594000000E+02  0.51100000000E-03 0. -1.
         11   -1    0    0    0    0 -0.00000000000E+00 -0.00000000000E+00 -0.45593999997E+02  0.45594000000E+02  0.51100000000E-03 0.  1.
    9900012    2    1    2    0    0  0.18846169470E+02 -0.16717099901E+02  0.19546894656E+02  0.59301943118E+02  0.49999998340E+02 0.  0.
        -12    1    1    2    0    0 -0.18846169470E+02  0.16717099901E+02 -0.19546894656E+02  0.31886056882E+02  0.00000000000E+00 0.  1.
         11    1    3    3    0    0  0.20278794202E+02 -0.26581065476E+00  0.20455101357E+02  0.28804710055E+02  0.51100000000E-03 0. -1.
        -11    1    3    3    0    0  0.25062032290E+00 -0.16481319020E+02  0.10119547816E+02  0.19341714905E+02  0.51100000000E-03 0.  1.
        -12    1    3    3    0    0 -0.16832450548E+01  0.30029774036E-01 -0.11027754516E+02  0.11155518158E+02  0.00000000000E+00 0.  1.
</event>
<event>
 7    1  0.3750159E-013  0.5930196E+02  0.7816164E-02  0.1266605E+00
        -11   -1    0    0    0    0  0.00000000000E+00  0.00000000000E+00  0.45593999997E+02  0.45594000000E+02  0.51100000000E-03 0.  1.
         11   -1    0    0    0    0 -0.00000000000E+00 -0.00000000000E+00 -0.45593999997E+02  0.45594000000E+02  0.51100000000E-03 0. -1.
    9900012    2    1    2    0    0 -0.17791492575E+02  0.15186718658E+02 -0.21669007397E+02  0.59301960528E+02  0.50000030093E+02 0.  0.
        -12    1    1    2    0    0  0.17791492575E+02 -0.15186718658E+02  0.21669007397E+02  0.31886039472E+02  0.00000000000E+00 0.  1.
         11    1    3    3    0    0  0.69458611912E+01  0.62080301606E+01 -0.16747902218E+02  0.19164468558E+02  0.51100000000E-03 0. -1.
        -11    1    3    3    0    0  0.24568601677E+01  0.10771912502E+02 -0.65349026268E+01  0.12836479791E+02  0.51100000000E-03 0.  1.
        -12    1    3    3    0    0 -0.27194213934E+02 -0.17932240042E+01  0.16137974479E+01  0.27301012179E+02  0.00000000000E+00 0.  1.
</event>
<event>
 7    1  0.3750159E-013  0.5930194E+02  0.7816164E-02  0.1266605E+00
        -11   -1    0    0    0    0  0.00000000000E+00  0.00000000000E+00  0.45593999997E+02  0.45594000000E+02  0.51100000000E-03 0.  1.
         11   -1    0    0    0    0 -0.00000000000E+00 -0.00000000000E+00 -0.45593999997E+02  0.45594000000E+02  0.51100000000E-03 0. -1.
    9900012    2    1    2    0    0 -0.10463842393E+02 -0.69490224639E+00 -0.30112220014E+02  0.59301942218E+02  0.49999996699E+02 0.  0.
        -12    1    1    2    0    0  0.10463842393E+02  0.69490224639E+00  0.30112220014E+02  0.31886057782E+02  0.00000000000E+00 0.  1.
         11    1    3    3    0    0  0.16571263276E+02  0.34982915666E+01 -0.41130996881E+01  0.17428780788E+02  0.51100000000E-03 0. -1.
        -11    1    3    3    0    0  0.18435287068E+01  0.20299372820E+01 -0.37640660777E+00  0.27678377223E+01  0.51100000000E-03 0.  1.
         12    1    3    3    0    0 -0.28878634375E+02 -0.62231310950E+01 -0.25622713718E+02  0.39105323708E+02  0.00000000000E+00 0. -1.
</event>
<event>
 7    1  0.3750159E-013  0.5930191E+02  0.7816164E-02  0.1266605E+00
        -11   -1    0    0    0    0  0.00000000000E+00  0.00000000000E+00  0.45593999997E+02  0.45594000000E+02  0.51100000000E-03 0. -1.
         11   -1    0    0    0    0 -0.00000000000E+00 -0.00000000000E+00 -0.45593999997E+02  0.45594000000E+02  0.51100000000E-03 0.  1.
    9900012    2    1    2    0    0  0.31080702032E+02 -0.71211670101E+01  0.41721493573E-01  0.59301909003E+02  0.49999936124E+02 0.  0.
        -12    1    1    2    0    0 -0.31080702032E+02  0.71211670101E+01 -0.41721493573E-01  0.31886090997E+02  0.00000000000E+00 0.  1.
         11    1    3    3    0    0  0.18355309577E+02  0.39520664523E+01 -0.12249259055E+02  0.22418308736E+02  0.51100000000E-03 0. -1.
        -11    1    3    3    0    0  0.18710877096E+02 -0.56479701069E+01  0.18331760285E+02  0.26796453561E+02  0.51100000000E-03 0.  1.
        -12    1    3    3    0    0 -0.59854846413E+01 -0.54252633554E+01 -0.60407797358E+01  0.10087146707E+02  0.00000000000E+00 0.  1.
</event>
<event>
 7    1  0.3750159E-013  0.5930195E+02  0.7816164E-02  0.1266605E+00
        -11   -1    0    0    0    0  0.00000000000E+00  0.00000000000E+00  0.45593999997E+02  0.45594000000E+02  0.51100000000E-03 0. -1.
         11   -1    0    0    0    0 -0.00000000000E+00 -0.00000000000E+00 -0.45593999997E+02  0.45594000000E+02  0.51100000000E-03 0.  1.
    9900012    2    1    2    0    0 -0.18965657704E+02  0.25612485927E+02 -0.10123247973E+01  0.59301946481E+02  0.50000004474E+02 0.  0.
        -12    1    1    2    0    0  0.18965657704E+02 -0.25612485927E+02  0.10123247973E+01  0.31886053519E+02  0.00000000000E+00 0.  1.
         11    1    3    3    0    0 -0.11714928037E+01  0.13316373998E+02  0.69452740945E+01  0.15064363391E+02  0.51100000000E-03 0. -1.
        -11    1    3    3    0    0  0.27728591061E+01  0.18236151741E+02 -0.12592170246E+02  0.22334026276E+02  0.51100000000E-03 0.  1.
        -12    1    3    3    0    0 -0.20567024007E+02 -0.59400398119E+01  0.46345713545E+01  0.21903556814E+02  0.00000000000E+00 0.  1.
</event>
<event>
 7    1  0.3750159E-013  0.5930193E+02  0.7816164E-02  0.1266605E+00
        -11   -1    0    0    0    0  0.00000000000E+00  0.00000000000E+00  0.45593999997E+02  0.45594000000E+02  0.51100000000E-03 0.  1.
         11   -1    0    0    0    0 -0.00000000000E+00 -0.00000000000E+00 -0.45593999997E+02  0.45594000000E+02  0.51100000000E-03 0. -1.
    9900012    2    1    2    0    0  0.91972460465E+00  0.22370260724E+02 -0.22703452743E+02  0.59301933691E+02  0.49999981148E+02 0.  0.
        -12    1    1    2    0    0 -0.91972460465E+00 -0.22370260724E+02  0.22703452743E+02  0.31886066309E+02  0.00000000000E+00 0.  1.
         11    1    3    3    0    0 -0.61317355964E+01 -0.59831829123E+01 -0.13591854495E+02  0.16066585451E+02  0.51100000000E-03 0. -1.
        -11    1    3    3    0    0 -0.72992876131E+01  0.21625367926E+02 -0.13843829389E+02  0.26694339287E+02  0.51100000000E-03 0.  1.
        -12    1    3    3    0    0  0.14350747814E+02  0.67280757109E+01  0.47322311408E+01  0.16541008953E+02  0.00000000000E+00 0.  1.
</event>
<event>
 7    1  0.3750159E-013  0.5930203E+02  0.7816164E-02  0.1266604E+00
        -11   -1    0    0    0    0  0.00000000000E+00  0.00000000000E+00  0.45593999997E+02  0.45594000000E+02  0.51100000000E-03 0. -1.
         11   -1    0    0    0    0 -0.00000000000E+00 -0.00000000000E+00 -0.45593999997E+02  0.45594000000E+02  0.51100000000E-03 0.  1.
    9900012    2    1    2    0    0 -0.10029088645E+01  0.30535697130E+02  0.91258244645E+01  0.59302026633E+02  0.50000150652E+02 0.  0.
        -12    1    1    2    0    0  0.10029088645E+01 -0.30535697130E+02 -0.91258244645E+01  0.31885973367E+02  0.00000000000E+00 0.  1.
         11    1    3    3    0    0  0.14270984128E+02  0.80238345018E+01  0.17902003136E+02  0.24259526471E+02  0.51100000000E-03 0. -1.
        -11    1    3    3    0    0  0.23618783357E+00 -0.26781024998E+01 -0.43747345178E+01  0.51348145103E+01  0.51100000000E-03 0.  1.
         12    1    3    3    0    0 -0.15510080826E+02  0.25189965128E+02 -0.44014441535E+01  0.29907685651E+02  0.00000000000E+00 0. -1.
</event>
<event>
 7    1  0.3750159E-013  0.5930205E+02  0.7816164E-02  0.1266604E+00
        -11   -1    0    0    0    0  0.00000000000E+00  0.00000000000E+00  0.45593999997E+02  0.45594000000E+02  0.51100000000E-03 0.  1.
         11   -1    0    0    0    0 -0.00000000000E+00 -0.00000000000E+00 -0.45593999997E+02  0.45594000000E+02  0.51100000000E-03 0. -1.
    9900012    2    1    2    0    0 -0.21705405020E+02  0.27364742695E+01 -0.23197005885E+02  0.59302047285E+02  0.50000188317E+02 0.  0.
        -12    1    1    2    0    0  0.21705405020E+02 -0.27364742695E+01  0.23197005885E+02  0.31885952715E+02  0.00000000000E+00 0.  1.
         11    1    3    3    0    0 -0.50150232963E+01  0.41274518966E+01  0.43200545239E+01  0.78005890272E+01  0.51100000000E-03 0.  1.
        -11    1    3    3    0    0 -0.87044583575E+01 -0.15568721585E+02 -0.30136857061E+02  0.35019749298E+02  0.51100000000E-03 0. -1.
         12    1    3    3    0    0 -0.79859233661E+01  0.14177743958E+02  0.26197966522E+01  0.16481708960E+02  0.00000000000E+00 0. -1.
</event>
<event>
 7    1  0.3750159E-013  0.5930196E+02  0.7816164E-02  0.1266605E+00
        -11   -1    0    0    0    0  0.00000000000E+00  0.00000000000E+00  0.45593999997E+02  0.45594000000E+02  0.51100000000E-03 0.  1.
         11   -1    0    0    0    0 -0.00000000000E+00 -0.00000000000E+00 -0.45593999997E+02  0.45594000000E+02  0.51100000000E-03 0. -1.
    9900012    2    1    2    0    0  0.18570863641E+01 -0.30330689677E+02 -0.96602191973E+01  0.59301963229E+02  0.50000035018E+02 0.  0.
        -12    1    1    2    0    0 -0.18570863641E+01  0.30330689677E+02  0.96602191973E+01  0.31886036771E+02  0.00000000000E+00 0.  1.
         11    1    3    3    0    0 -0.10131416659E+02 -0.79445292170E+01  0.15251105874E+01  0.12964841325E+02  0.51100000000E-03 0. -1.
        -11    1    3    3    0    0  0.36863075313E+01 -0.58990766200E+01  0.13692884779E+02  0.15358485017E+02  0.51100000000E-03 0.  1.
         12    1    3    3    0    0  0.83021954922E+01 -0.16487083840E+02 -0.24878214563E+02  0.30978636887E+02  0.00000000000E+00 0. -1.
</event>
<event>
 7    1  0.3750159E-013  0.5930192E+02  0.7816164E-02  0.1266605E+00
        -11   -1    0    0    0    0  0.00000000000E+00  0.00000000000E+00  0.45593999997E+02  0.45594000000E+02  0.51100000000E-03 0.  1.
         11   -1    0    0    0    0 -0.00000000000E+00 -0.00000000000E+00 -0.45593999997E+02  0.45594000000E+02  0.51100000000E-03 0. -1.
    9900012    2    1    2    0    0  0.32786122992E+01 -0.28119999860E+02 -0.14671005873E+02  0.59301919901E+02  0.49999955999E+02 0.  0.
        -12    1    1    2    0    0 -0.32786122992E+01  0.28119999860E+02  0.14671005873E+02  0.31886080099E+02  0.00000000000E+00 0.  1.
         11    1    3    3    0    0 -0.15132799523E+02 -0.24327600085E+02 -0.60341350245E+01  0.29278738583E+02  0.51100000000E-03 0. -1.
        -11    1    3    3    0    0  0.46613203893E+01 -0.56282234772E+01  0.62925552647E+01  0.96437056831E+01  0.51100000000E-03 0.  1.
         12    1    3    3    0    0  0.13750091433E+02  0.18358237019E+01 -0.14929426113E+02  0.20379475635E+02  0.00000000000E+00 0. -1.
</event>
<event>
 7    1  0.3750159E-013  0.5930184E+02  0.7816164E-02  0.1266605E+00
        -11   -1    0    0    0    0  0.00000000000E+00  0.00000000000E+00  0.45593999997E+02  0.45594000000E+02  0.51100000000E-03 0. -1.
         11   -1    0    0    0    0 -0.00000000000E+00 -0.00000000000E+00 -0.45593999997E+02  0.45594000000E+02  0.51100000000E-03 0.  1.
    9900012    2    1    2    0    0  0.11612217474E+01  0.16969688273E+01  0.31819790799E+02  0.59301839591E+02  0.49999809532E+02 0.  0.
        -12    1    1    2    0    0 -0.11612217474E+01 -0.16969688273E+01 -0.31819790799E+02  0.31886160409E+02  0.00000000000E+00 0.  1.
         11    1    3    3    0    0 -0.66219215637E+01  0.75488425550E+01  0.87671376753E+01  0.13330325292E+02  0.51100000000E-03 0. -1.
        -11    1    3    3    0    0  0.16712012330E+02  0.21390361615E+01  0.28264111408E+02  0.32904814629E+02  0.51100000000E-03 0.  1.
         12    1    3    3    0    0 -0.89288690189E+01 -0.79909098893E+01 -0.52114582842E+01  0.13066699670E+02  0.00000000000E+00 0. -1.
</event>
<event>
 7    1  0.3750159E-013  0.5930193E+02  0.7816164E-02  0.1266605E+00
        -11   -1    0    0    0    0  0.00000000000E+00  0.00000000000E+00  0.45593999997E+02  0.45594000000E+02  0.51100000000E-03 0. -1.
         11   -1    0    0    0    0 -0.00000000000E+00 -0.00000000000E+00 -0.45593999997E+02  0.45594000000E+02  0.51100000000E-03 0.  1.
    9900012    2    1    2    0    0  0.10019094282E+02  0.22515546087E+02  0.20233368274E+02  0.59301933176E+02  0.49999980208E+02 0.  0.
        -12    1    1    2    0    0 -0.10019094282E+02 -0.22515546087E+02 -0.20233368274E+02  0.31886066824E+02  0.00000000000E+00 0.  1.
         11    1    3    3    0    0  0.28036876050E+01 -0.41277747251E+01  0.30840937741E+01  0.58660739031E+01  0.51100000000E-03 0. -1.
        -11    1    3    3    0    0 -0.79366945249E+01 -0.76351491434E+01  0.10798083349E+02  0.15423528348E+02  0.51100000000E-03 0.  1.
        -12    1    3    3    0    0  0.15152101202E+02  0.34278469955E+02  0.63511911510E+01  0.38012330925E+02  0.00000000000E+00 0.  1.
</event>
<event>
 7    1  0.3750159E-013  0.5930194E+02  0.7816164E-02  0.1266605E+00
        -11   -1    0    0    0    0  0.00000000000E+00  0.00000000000E+00  0.45593999997E+02  0.45594000000E+02  0.51100000000E-03 0. -1.
         11   -1    0    0    0    0 -0.00000000000E+00 -0.00000000000E+00 -0.45593999997E+02  0.45594000000E+02  0.51100000000E-03 0.  1.
    9900012    2    1    2    0    0  0.26603925432E+02  0.11924342741E+02  0.12913631318E+02  0.59301942357E+02  0.49999996953E+02 0.  0.
        -12    1    1    2    0    0 -0.26603925432E+02 -0.11924342741E+02 -0.12913631318E+02  0.31886057643E+02  0.00000000000E+00 0.  1.
         11    1    3    3    0    0 -0.80056390454E+01  0.61036380927E+00 -0.54371030381E+01  0.96966432446E+01  0.51100000000E-03 0.  1.
        -11    1    3    3    0    0  0.72353163937E+01 -0.84383957333E+01  0.97123576097E+01  0.14760969361E+02  0.51100000000E-03 0. -1.
        -12    1    3    3    0    0  0.27374248084E+02  0.19752374665E+02  0.86383767463E+01  0.34844329752E+02  0.00000000000E+00 0.  1.
</event>
<event>
 7    1  0.3750159E-013  0.5930194E+02  0.7816164E-02  0.1266605E+00
        -11   -1    0    0    0    0  0.00000000000E+00  0.00000000000E+00  0.45593999997E+02  0.45594000000E+02  0.51100000000E-03 0.  1.
         11   -1    0    0    0    0 -0.00000000000E+00 -0.00000000000E+00 -0.45593999997E+02  0.45594000000E+02  0.51100000000E-03 0. -1.
    9900012    2    1    2    0    0 -0.16403871331E+02 -0.26875590738E+02 -0.50335186223E+01  0.59301942202E+02  0.49999996671E+02 0.  0.
        -12    1    1    2    0    0  0.16403871331E+02  0.26875590738E+02  0.50335186223E+01  0.31886057798E+02  0.00000000000E+00 0.  1.
         11    1    3    3    0    0 -0.94739070818E+01 -0.42671391554E+01  0.11379507711E+02  0.15409626471E+02  0.51100000000E-03 0. -1.
        -11    1    3    3    0    0 -0.11627933490E+02 -0.17759858738E+02  0.46864811915E+01  0.21739009312E+02  0.51100000000E-03 0.  1.
         12    1    3    3    0    0  0.46979692404E+01 -0.48485928444E+01 -0.21099507525E+02  0.22153306420E+02  0.00000000000E+00 0. -1.
</event>
<event>
 7    1  0.3750159E-013  0.5930196E+02  0.7816164E-02  0.1266605E+00
        -11   -1    0    0    0    0  0.00000000000E+00  0.00000000000E+00  0.45593999997E+02  0.45594000000E+02  0.51100000000E-03 0. -1.
         11   -1    0    0    0    0 -0.00000000000E+00 -0.00000000000E+00 -0.45593999997E+02  0.45594000000E+02  0.51100000000E-03 0.  1.
    9900012    2    1    2    0    0  0.28425337687E+02 -0.13491789195E+02 -0.51663974157E+01  0.59301955082E+02  0.50000020160E+02 0.  0.
        -12    1    1    2    0    0 -0.28425337687E+02  0.13491789195E+02  0.51663974157E+01  0.31886044918E+02  0.00000000000E+00 0.  1.
         11    1    3    3    0    0  0.26143316675E+02 -0.10118696202E+02 -0.52683325340E+01  0.28523960937E+02  0.51100000000E-03 0.  1.
        -11    1    3    3    0    0  0.22210210531E+01 -0.78124794160E+01  0.14001417501E+02  0.16186644539E+02  0.51100000000E-03 0. -1.
         12    1    3    3    0    0  0.60999958372E-01  0.44393864226E+01 -0.13899482383E+02  0.14591349605E+02  0.00000000000E+00 0. -1.
</event>
<event>
 7    1  0.3750159E-013  0.5930193E+02  0.7816164E-02  0.1266605E+00
        -11   -1    0    0    0    0  0.00000000000E+00  0.00000000000E+00  0.45593999997E+02  0.45594000000E+02  0.51100000000E-03 0. -1.
         11   -1    0    0    0    0 -0.00000000000E+00 -0.00000000000E+00 -0.45593999997E+02  0.45594000000E+02  0.51100000000E-03 0.  1.
    9900012    2    1    2    0    0  0.79045036073E+01 -0.24112036557E+02  0.19309319725E+02  0.59301932314E+02  0.49999978637E+02 0.  0.
        -12    1    1    2    0    0 -0.79045036073E+01  0.24112036557E+02 -0.19309319725E+02  0.31886067686E+02  0.00000000000E+00 0.  1.
         11    1    3    3    0    0  0.89929929809E+01  0.56782680229E+01  0.10126309387E+02  0.14685325756E+02  0.51100000000E-03 0. -1.
        -11    1    3    3    0    0 -0.94562200312E+01 -0.68141483258E+01  0.15469481715E+02  0.19368984988E+02  0.51100000000E-03 0.  1.
        -12    1    3    3    0    0  0.83677306577E+01 -0.22976156255E+02 -0.62864713763E+01  0.25247621570E+02  0.00000000000E+00 0.  1.
</event>
<event>
 7    1  0.3750159E-013  0.5930195E+02  0.7816164E-02  0.1266605E+00
        -11   -1    0    0    0    0  0.00000000000E+00  0.00000000000E+00  0.45593999997E+02  0.45594000000E+02  0.51100000000E-03 0. -1.
         11   -1    0    0    0    0 -0.00000000000E+00 -0.00000000000E+00 -0.45593999997E+02  0.45594000000E+02  0.51100000000E-03 0.  1.
    9900012    2    1    2    0    0 -0.22736171005E+02 -0.13647904529E+02 -0.17706534962E+02  0.59301950537E+02  0.50000011871E+02 0.  0.
        -12    1    1    2    0    0  0.22736171005E+02  0.13647904529E+02  0.17706534962E+02  0.31886049463E+02  0.00000000000E+00 0.  1.
         11    1    3    3    0    0 -0.50669770040E+01 -0.19110860726E+02 -0.17314897563E+02  0.26281265790E+02  0.51100000000E-03 0. -1.
        -11    1    3    3    0    0 -0.21540221377E+01 -0.29715175893E+01 -0.11558154859E+02  0.12126857473E+02  0.51100000000E-03 0.  1.
         12    1    3    3    0    0 -0.15515171863E+02  0.84344737868E+01  0.11166517459E+02  0.20893827274E+02  0.00000000000E+00 0. -1.
</event>
<event>
 7    1  0.3750159E-013  0.5930195E+02  0.7816164E-02  0.1266605E+00
        -11   -1    0    0    0    0  0.00000000000E+00  0.00000000000E+00  0.45593999997E+02  0.45594000000E+02  0.51100000000E-03 0.  1.
         11   -1    0    0    0    0 -0.00000000000E+00 -0.00000000000E+00 -0.45593999997E+02  0.45594000000E+02  0.51100000000E-03 0. -1.
    9900012    2    1    2    0    0  0.16402262762E+02 -0.18769356550E+02 -0.19884596831E+02  0.59301950383E+02  0.50000011591E+02 0.  0.
        -12    1    1    2    0    0 -0.16402262762E+02  0.18769356550E+02  0.19884596831E+02  0.31886049617E+02  0.00000000000E+00 0.  1.
         11    1    3    3    0    0 -0.59847657406E+00  0.22207971228E+01  0.88217443379E+00  0.24634013200E+01  0.51100000000E-03 0. -1.
        -11    1    3    3    0    0 -0.21376799258E-01 -0.57113516888E+01  0.14057889246E+02  0.15173801284E+02  0.51100000000E-03 0.  1.
         12    1    3    3    0    0  0.17022116135E+02 -0.15278801984E+02 -0.34824660511E+02  0.41664747779E+02  0.00000000000E+00 0. -1.
</event>
<event>
 7    1  0.3750159E-013  0.5930195E+02  0.7816164E-02  0.1266605E+00
        -11   -1    0    0    0    0  0.00000000000E+00  0.00000000000E+00  0.45593999997E+02  0.45594000000E+02  0.51100000000E-03 0. -1.
         11   -1    0    0    0    0 -0.00000000000E+00 -0.00000000000E+00 -0.45593999997E+02  0.45594000000E+02  0.51100000000E-03 0.  1.
    9900012    2    1    2    0    0 -0.10728980721E+02 -0.29867403267E+02  0.30899187127E+01  0.59301946577E+02  0.50000004650E+02 0.  0.
        -12    1    1    2    0    0  0.10728980721E+02  0.29867403267E+02 -0.30899187127E+01  0.31886053423E+02  0.00000000000E+00 0.  1.
         11    1    3    3    0    0 -0.65824768983E+01 -0.76603163841E+01  0.11912573089E+02  0.15617901494E+02  0.51100000000E-03 0. -1.
        -11    1    3    3    0    0 -0.70858775065E+01  0.23482092089E+01  0.10089601564E+02  0.12550848836E+02  0.51100000000E-03 0.  1.
        -12    1    3    3    0    0  0.29393736832E+01 -0.24555296092E+02 -0.18912255940E+02  0.31133196247E+02  0.00000000000E+00 0.  1.
</event>
<event>
 7    1  0.3750159E-013  0.5930185E+02  0.7816164E-02  0.1266605E+00
        -11   -1    0    0    0    0  0.00000000000E+00  0.00000000000E+00  0.45593999997E+02  0.45594000000E+02  0.51100000000E-03 0.  1.
         11   -1    0    0    0    0 -0.00000000000E+00 -0.00000000000E+00 -0.45593999997E+02  0.45594000000E+02  0.51100000000E-03 0. -1.
    9900012    2    1    2    0    0  0.19197648138E+02 -0.21473431810E+02 -0.13677295011E+02  0.59301853062E+02  0.49999834100E+02 0.  0.
        -12    1    1    2    0    0 -0.19197648138E+02  0.21473431810E+02  0.13677295011E+02  0.31886146938E+02  0.00000000000E+00 0.  1.
         11    1    3    3    0    0 -0.23194497896E+01 -0.72213334257E+01 -0.15064270698E+02  0.16865934771E+02  0.51100000000E-03 0. -1.
        -11    1    3    3    0    0  0.25389848292E+02 -0.17760429655E+02  0.98296433652E+01  0.32506909216E+02  0.51100000000E-03 0.  1.
         12    1    3    3    0    0 -0.38727503641E+01  0.35083312714E+01 -0.84426676786E+01  0.99290090756E+01  0.00000000000E+00 0. -1.
</event>
<event>
 7    1  0.3750159E-013  0.5930194E+02  0.7816164E-02  0.1266605E+00
        -11   -1    0    0    0    0  0.00000000000E+00  0.00000000000E+00  0.45593999997E+02  0.45594000000E+02  0.51100000000E-03 0.  1.
         11   -1    0    0    0    0 -0.00000000000E+00 -0.00000000000E+00 -0.45593999997E+02  0.45594000000E+02  0.51100000000E-03 0. -1.
    9900012    2    1    2    0    0  0.28120141509E+02 -0.30599255922E+01 -0.14717850907E+02  0.59301942884E+02  0.49999997914E+02 0.  0.
        -12    1    1    2    0    0 -0.28120141509E+02  0.30599255922E+01  0.14717850907E+02  0.31886057116E+02  0.00000000000E+00 0.  1.
         11    1    3    3    0    0  0.68170820321E+01  0.90019854298E+01 -0.66692615921E+01  0.13114396652E+02  0.51100000000E-03 0. -1.
        -11    1    3    3    0    0 -0.10282059876E+02 -0.70711831853E+00 -0.72735092972E+01  0.12614464292E+02  0.51100000000E-03 0.  1.
        -12    1    3    3    0    0  0.31585119353E+02 -0.11354792703E+02 -0.77508001745E+00  0.33573081939E+02  0.00000000000E+00 0.  1.
</event>
<event>
 7    1  0.3750159E-013  0.5930194E+02  0.7816164E-02  0.1266605E+00
        -11   -1    0    0    0    0  0.00000000000E+00  0.00000000000E+00  0.45593999997E+02  0.45594000000E+02  0.51100000000E-03 0.  1.
         11   -1    0    0    0    0 -0.00000000000E+00 -0.00000000000E+00 -0.45593999997E+02  0.45594000000E+02  0.51100000000E-03 0. -1.
    9900012    2    1    2    0    0  0.62607032632E+01 -0.10071965117E+02 -0.29598652103E+02  0.59301935756E+02  0.49999984914E+02 0.  0.
        -12    1    1    2    0    0 -0.62607032632E+01  0.10071965117E+02  0.29598652103E+02  0.31886064244E+02  0.00000000000E+00 0.  1.
         11    1    3    3    0    0  0.70759882797E+00 -0.91194964868E+01 -0.69344582661E+01  0.11478354585E+02  0.51100000000E-03 0. -1.
        -11    1    3    3    0    0  0.35332230541E+01 -0.60670973267E+01  0.11361829303E+02  0.13356066056E+02  0.51100000000E-03 0.  1.
         12    1    3    3    0    0  0.20198813811E+01  0.51146286966E+01 -0.34026023140E+02  0.34467515115E+02  0.00000000000E+00 0. -1.
</event>
<event>
 7    1  0.3750159E-013  0.5930195E+02  0.7816164E-02  0.1266605E+00
        -11   -1    0    0    0    0  0.00000000000E+00  0.00000000000E+00  0.45593999997E+02  0.45594000000E+02  0.51100000000E-03 0.  1.
         11   -1    0    0    0    0 -0.00000000000E+00 -0.00000000000E+00 -0.45593999997E+02  0.45594000000E+02  0.51100000000E-03 0. -1.
    9900012    2    1    2    0    0 -0.24084473220E+02 -0.40288590177E+01 -0.20504301731E+02  0.59301953762E+02  0.50000017752E+02 0.  0.
        -12    1    1    2    0    0  0.24084473220E+02  0.40288590177E+01  0.20504301731E+02  0.31886046238E+02  0.00000000000E+00 0.  1.
         11    1    3    3    0    0 -0.47529988434E+01 -0.11413070419E+02 -0.15015630481E+01  0.12454070268E+02  0.51100000000E-03 0. -1.
        -11    1    3    3    0    0 -0.14601656474E+02 -0.14411822627E+02 -0.89156114859E+01  0.22369558145E+02  0.51100000000E-03 0.  1.
        -12    1    3    3    0    0 -0.47298179027E+01  0.21796034028E+02 -0.10087127197E+02  0.24478325348E+02  0.00000000000E+00 0.  1.
</event>
<event>
 7    1  0.3750159E-013  0.5930194E+02  0.7816164E-02  0.1266605E+00
        -11   -1    0    0    0    0  0.00000000000E+00  0.00000000000E+00  0.45593999997E+02  0.45594000000E+02  0.51100000000E-03 0.  1.
         11   -1    0    0    0    0 -0.00000000000E+00 -0.00000000000E+00 -0.45593999997E+02  0.45594000000E+02  0.51100000000E-03 0. -1.
    9900012    2    1    2    0    0 -0.23510761103E+01 -0.22917492496E+02 -0.22044996440E+02  0.59301938951E+02  0.49999990742E+02 0.  0.
        -12    1    1    2    0    0  0.23510761103E+01  0.22917492496E+02  0.22044996440E+02  0.31886061049E+02  0.00000000000E+00 0.  1.
         11    1    3    3    0    0 -0.57763034299E+01 -0.20399205320E+02 -0.22781698039E+02  0.31120716971E+02  0.51100000000E-03 0. -1.
        -11    1    3    3    0    0 -0.45547742704E+01 -0.13689255250E+02 -0.97241777086E-01  0.14427443785E+02  0.51100000000E-03 0.  1.
         12    1    3    3    0    0  0.79800015900E+01  0.11170968074E+02  0.83394337668E+00  0.13753778195E+02  0.00000000000E+00 0. -1.
</event>
<event>
 7    1  0.3750159E-013  0.5930194E+02  0.7816164E-02  0.1266605E+00
        -11   -1    0    0    0    0  0.00000000000E+00  0.00000000000E+00  0.45593999997E+02  0.45594000000E+02  0.51100000000E-03 0. -1.
         11   -1    0    0    0    0 -0.00000000000E+00 -0.00000000000E+00 -0.45593999997E+02  0.45594000000E+02  0.51100000000E-03 0.  1.
    9900012    2    1    2    0    0  0.14280336653E+02 -0.68592187403E+01  0.27672078487E+02  0.59301939967E+02  0.49999992594E+02 0.  0.
        -12    1    1    2    0    0 -0.14280336653E+02  0.68592187403E+01 -0.27672078487E+02  0.31886060033E+02  0.00000000000E+00 0.  1.
         11    1    3    3    0    0 -0.17913677803E+02 -0.88777517556E+01  0.86137522485E+01  0.21769498312E+02  0.51100000000E-03 0.  1.
        -11    1    3    3    0    0  0.10869485471E+02  0.47607120116E+00  0.76376373837E+01  0.13293075763E+02  0.51100000000E-03 0. -1.
        -12    1    3    3    0    0  0.21324528986E+02  0.15424618141E+01  0.11420688855E+02  0.24239365892E+02  0.00000000000E+00 0.  1.
</event>
<event>
 7    1  0.3750159E-013  0.5930194E+02  0.7816164E-02  0.1266605E+00
        -11   -1    0    0    0    0  0.00000000000E+00  0.00000000000E+00  0.45593999997E+02  0.45594000000E+02  0.51100000000E-03 0.  1.
         11   -1    0    0    0    0 -0.00000000000E+00 -0.00000000000E+00 -0.45593999997E+02  0.45594000000E+02  0.51100000000E-03 0. -1.
    9900012    2    1    2    0    0  0.24964101976E+02 -0.83537471867E+01 -0.17992480859E+02  0.59301939613E+02  0.49999991949E+02 0.  0.
        -12    1    1    2    0    0 -0.24964101976E+02  0.83537471867E+01  0.17992480859E+02  0.31886060387E+02  0.00000000000E+00 0.  1.
         11    1    3    3    0    0  0.74965275685E+01  0.11981390834E+02  0.14229994267E+00  0.14134068821E+02  0.51100000000E-03 0. -1.
        -11    1    3    3    0    0  0.82189295046E+01 -0.14002514610E+02  0.69739632199E+01  0.17670805892E+02  0.51100000000E-03 0.  1.
         12    1    3    3    0    0  0.92486449031E+01 -0.63326234103E+01 -0.25108744022E+02  0.27497064900E+02  0.00000000000E+00 0. -1.
</event>
<event>
 7    1  0.3750159E-013  0.5930193E+02  0.7816164E-02  0.1266605E+00
        -11   -1    0    0    0    0  0.00000000000E+00  0.00000000000E+00  0.45593999997E+02  0.45594000000E+02  0.51100000000E-03 0.  1.
         11   -1    0    0    0    0 -0.00000000000E+00 -0.00000000000E+00 -0.45593999997E+02  0.45594000000E+02  0.51100000000E-03 0. -1.
    9900012    2    1    2    0    0  0.27109203475E+02  0.16719401243E+02 -0.15079424434E+01  0.59301934369E+02  0.49999982386E+02 0.  0.
        -12    1    1    2    0    0 -0.27109203475E+02 -0.16719401243E+02  0.15079424434E+01  0.31886065631E+02  0.00000000000E+00 0.  1.
         11    1    3    3    0    0  0.13619673178E+02  0.20573256526E+02 -0.20767134294E+02  0.32249468967E+02  0.51100000000E-03 0. -1.
        -11    1    3    3    0    0  0.45993452072E+01  0.82718539519E+00  0.15720285375E+02  0.16400170259E+02  0.51100000000E-03 0.  1.
        -12    1    3    3    0    0  0.88901850904E+01 -0.46810406786E+01  0.35389064764E+01  0.10652295144E+02  0.00000000000E+00 0.  1.
</event>
<event>
 7    1  0.3750159E-013  0.5930195E+02  0.7816164E-02  0.1266605E+00
        -11   -1    0    0    0    0  0.00000000000E+00  0.00000000000E+00  0.45593999997E+02  0.45594000000E+02  0.51100000000E-03 0.  1.
         11   -1    0    0    0    0 -0.00000000000E+00 -0.00000000000E+00 -0.45593999997E+02  0.45594000000E+02  0.51100000000E-03 0. -1.
    9900012    2    1    2    0    0  0.46409681847E+01  0.11817969368E+02 -0.29249221126E+02  0.59301954115E+02  0.50000018397E+02 0.  0.
        -12    1    1    2    0    0 -0.46409681847E+01 -0.11817969368E+02  0.29249221126E+02  0.31886045885E+02  0.00000000000E+00 0.  1.
         11    1    3    3    0    0  0.24955428590E+01 -0.93553458567E+01 -0.19861505425E+01  0.98840793450E+01  0.51100000000E-03 0. -1.
        -11    1    3    3    0    0 -0.48407378207E+01 -0.60639143662E+01 -0.18345373411E+02  0.19918748102E+02  0.51100000000E-03 0.  1.
        -12    1    3    3    0    0  0.69861631464E+01  0.27237229591E+02 -0.89176971724E+01  0.29499126668E+02  0.00000000000E+00 0.  1.
</event>
<event>
 7    1  0.3750159E-013  0.5930197E+02  0.7816164E-02  0.1266605E+00
        -11   -1    0    0    0    0  0.00000000000E+00  0.00000000000E+00  0.45593999997E+02  0.45594000000E+02  0.51100000000E-03 0.  1.
         11   -1    0    0    0    0 -0.00000000000E+00 -0.00000000000E+00 -0.45593999997E+02  0.45594000000E+02  0.51100000000E-03 0. -1.
    9900012    2    1    2    0    0 -0.11435294134E+02  0.27396251117E+02 -0.11636094645E+02  0.59301965035E+02  0.50000038312E+02 0.  0.
        -12    1    1    2    0    0  0.11435294134E+02 -0.27396251117E+02  0.11636094645E+02  0.31886034965E+02  0.00000000000E+00 0.  1.
         11    1    3    3    0    0 -0.43603006565E+01  0.12679762621E+02 -0.15138600639E+02  0.20222903637E+02  0.51100000000E-03 0. -1.
        -11    1    3    3    0    0 -0.86803593198E+01  0.24827635416E+02  0.85612520827E+01  0.27659630434E+02  0.51100000000E-03 0.  1.
         12    1    3    3    0    0  0.16053658423E+01 -0.10111146920E+02 -0.50587460886E+01  0.11419430963E+02  0.00000000000E+00 0. -1.
</event>
<event>
 7    1  0.3750159E-013  0.5930195E+02  0.7816164E-02  0.1266605E+00
        -11   -1    0    0    0    0  0.00000000000E+00  0.00000000000E+00  0.45593999997E+02  0.45594000000E+02  0.51100000000E-03 0. -1.
         11   -1    0    0    0    0 -0.00000000000E+00 -0.00000000000E+00 -0.45593999997E+02  0.45594000000E+02  0.51100000000E-03 0.  1.
    9900012    2    1    2    0    0 -0.62417864872E+01 -0.18556325898E+02  0.25167900214E+02  0.59301947711E+02  0.50000006718E+02 0.  0.
        -12    1    1    2    0    0  0.62417864872E+01  0.18556325898E+02 -0.25167900214E+02  0.31886052289E+02  0.00000000000E+00 0.  1.
         11    1    3    3    0    0 -0.20747390243E+01 -0.13278746444E+02  0.43830389610E+01  0.14136501687E+02  0.51100000000E-03 0. -1.
        -11    1    3    3    0    0  0.15867196042E+02  0.39619141476E+01  0.25687434125E+01  0.16554851764E+02  0.51100000000E-03 0.  1.
         12    1    3    3    0    0 -0.20034243505E+02 -0.92394936012E+01  0.18216117840E+02  0.28610594261E+02  0.00000000000E+00 0. -1.
</event>
<event>
 7    1  0.3750159E-013  0.5930194E+02  0.7816164E-02  0.1266605E+00
        -11   -1    0    0    0    0  0.00000000000E+00  0.00000000000E+00  0.45593999997E+02  0.45594000000E+02  0.51100000000E-03 0. -1.
         11   -1    0    0    0    0 -0.00000000000E+00 -0.00000000000E+00 -0.45593999997E+02  0.45594000000E+02  0.51100000000E-03 0.  1.
    9900012    2    1    2    0    0 -0.24635447158E+02  0.17966774728E+02  0.93279295903E+01  0.59301944721E+02  0.50000001265E+02 0.  0.
        -12    1    1    2    0    0  0.24635447158E+02 -0.17966774728E+02 -0.93279295903E+01  0.31886055279E+02  0.00000000000E+00 0.  1.
         11    1    3    3    0    0 -0.11133238773E+02  0.51917697727E+01  0.30316597594E+01  0.12652843163E+02  0.51100000000E-03 0. -1.
        -11    1    3    3    0    0 -0.26656927462E+02  0.17146728871E+02  0.70917295536E+00  0.31703391289E+02  0.51100000000E-03 0.  1.
         12    1    3    3    0    0  0.13154719076E+02 -0.43717239159E+01  0.55870968755E+01  0.14945710270E+02  0.00000000000E+00 0. -1.
</event>
<event>
 7    1  0.3750159E-013  0.5930193E+02  0.7816164E-02  0.1266605E+00
        -11   -1    0    0    0    0  0.00000000000E+00  0.00000000000E+00  0.45593999997E+02  0.45594000000E+02  0.51100000000E-03 0.  1.
         11   -1    0    0    0    0 -0.00000000000E+00 -0.00000000000E+00 -0.45593999997E+02  0.45594000000E+02  0.51100000000E-03 0. -1.
    9900012    2    1    2    0    0 -0.20645526300E+02 -0.23263745875E+02  0.70200985568E+01  0.59301930752E+02  0.49999975789E+02 0.  0.
        -12    1    1    2    0    0  0.20645526300E+02  0.23263745875E+02 -0.70200985568E+01  0.31886069248E+02  0.00000000000E+00 0.  1.
         11    1    3    3    0    0 -0.97404834133E+01 -0.14697745145E+02  0.40163314067E+01  0.18084016360E+02  0.51100000000E-03 0. -1.
        -11    1    3    3    0    0 -0.76103818267E+01 -0.23744037737E+02 -0.16944510753E+01  0.24991366596E+02  0.51100000000E-03 0.  1.
        -12    1    3    3    0    0 -0.32946610599E+01  0.15178037008E+02  0.46982182254E+01  0.16226547797E+02  0.00000000000E+00 0.  1.
</event>
<event>
 7    1  0.3750159E-013  0.5930201E+02  0.7816164E-02  0.1266605E+00
        -11   -1    0    0    0    0  0.00000000000E+00  0.00000000000E+00  0.45593999997E+02  0.45594000000E+02  0.51100000000E-03 0. -1.
         11   -1    0    0    0    0 -0.00000000000E+00 -0.00000000000E+00 -0.45593999997E+02  0.45594000000E+02  0.51100000000E-03 0.  1.
    9900012    2    1    2    0    0  0.14067351571E+02  0.27666088392E+02  0.73084778810E+01  0.59302005017E+02  0.50000111229E+02 0.  0.
        -12    1    1    2    0    0 -0.14067351571E+02 -0.27666088392E+02 -0.73084778810E+01  0.31885994983E+02  0.00000000000E+00 0.  1.
         11    1    3    3    0    0 -0.82267418936E+01 -0.44147016756E+01  0.20599464976E+00  0.93386994344E+01  0.51100000000E-03 0. -1.
        -11    1    3    3    0    0  0.13936893890E+02  0.26825384744E+02 -0.85874994666E+01  0.31425840089E+02  0.51100000000E-03 0.  1.
         12    1    3    3    0    0  0.83571995746E+01  0.52554053233E+01  0.15689982698E+02  0.18537465493E+02  0.00000000000E+00 0. -1.
</event>
<event>
 7    1  0.3750159E-013  0.5930197E+02  0.7816164E-02  0.1266605E+00
        -11   -1    0    0    0    0  0.00000000000E+00  0.00000000000E+00  0.45593999997E+02  0.45594000000E+02  0.51100000000E-03 0.  1.
         11   -1    0    0    0    0 -0.00000000000E+00 -0.00000000000E+00 -0.45593999997E+02  0.45594000000E+02  0.51100000000E-03 0. -1.
    9900012    2    1    2    0    0 -0.93443364948E+01  0.12066708512E+01 -0.30462208605E+02  0.59301971207E+02  0.50000049569E+02 0.  0.
        -12    1    1    2    0    0  0.93443364948E+01 -0.12066708512E+01  0.30462208605E+02  0.31886028793E+02  0.00000000000E+00 0.  1.
         11    1    3    3    0    0  0.47772112837E+01 -0.57087992105E+01 -0.13470825274E+02  0.15390752740E+02  0.51100000000E-03 0. -1.
        -11    1    3    3    0    0  0.62849467941E+01 -0.10738853980E+02 -0.10192601848E+02  0.16084547668E+02  0.51100000000E-03 0.  1.
        -12    1    3    3    0    0 -0.20406494573E+02  0.17654324042E+02 -0.67987814834E+01  0.27826670799E+02  0.00000000000E+00 0.  1.
</event>
<event>
 7    1  0.3750159E-013  0.5930191E+02  0.7816164E-02  0.1266605E+00
        -11   -1    0    0    0    0  0.00000000000E+00  0.00000000000E+00  0.45593999997E+02  0.45594000000E+02  0.51100000000E-03 0. -1.
         11   -1    0    0    0    0 -0.00000000000E+00 -0.00000000000E+00 -0.45593999997E+02  0.45594000000E+02  0.51100000000E-03 0.  1.
    9900012    2    1    2    0    0  0.84926046842E+01  0.27541754667E+02  0.13640026824E+02  0.59301907166E+02  0.49999932772E+02 0.  0.
        -12    1    1    2    0    0 -0.84926046842E+01 -0.27541754667E+02 -0.13640026824E+02  0.31886092834E+02  0.00000000000E+00 0.  1.
         11    1    3    3    0    0  0.11131058815E+02  0.13341252147E+02  0.15848539821E+02  0.23517348786E+02  0.51100000000E-03 0. -1.
        -11    1    3    3    0    0 -0.49823766469E+01 -0.50302607680E+01  0.10464478623E+02  0.12634591943E+02  0.51100000000E-03 0.  1.
        -12    1    3    3    0    0  0.23439225159E+01  0.19230763288E+02 -0.12672991620E+02  0.23149966437E+02  0.00000000000E+00 0.  1.
</event>
<event>
 7    1  0.3750159E-013  0.5930195E+02  0.7816164E-02  0.1266605E+00
        -11   -1    0    0    0    0  0.00000000000E+00  0.00000000000E+00  0.45593999997E+02  0.45594000000E+02  0.51100000000E-03 0. -1.
         11   -1    0    0    0    0 -0.00000000000E+00 -0.00000000000E+00 -0.45593999997E+02  0.45594000000E+02  0.51100000000E-03 0.  1.
    9900012    2    1    2    0    0  0.27064321854E+02 -0.14644485471E+02  0.83535338509E+01  0.59301952896E+02  0.50000016174E+02 0.  0.
        -12    1    1    2    0    0 -0.27064321854E+02  0.14644485471E+02 -0.83535338509E+01  0.31886047104E+02  0.00000000000E+00 0.  1.
         11    1    3    3    0    0 -0.63871022776E+01  0.39732251648E+01 -0.94648532019E+01  0.12089873453E+02  0.51100000000E-03 0. -1.
        -11    1    3    3    0    0  0.15188159983E+02 -0.12783097929E+02 -0.16095192419E+01  0.19916785603E+02  0.51100000000E-03 0.  1.
        -12    1    3    3    0    0  0.18263264148E+02 -0.58346127073E+01  0.19427906295E+02  0.27295293840E+02  0.00000000000E+00 0.  1.
</event>
<event>
 7    1  0.3750159E-013  0.5930194E+02  0.7816164E-02  0.1266605E+00
        -11   -1    0    0    0    0  0.00000000000E+00  0.00000000000E+00  0.45593999997E+02  0.45594000000E+02  0.51100000000E-03 0.  1.
         11   -1    0    0    0    0 -0.00000000000E+00 -0.00000000000E+00 -0.45593999997E+02  0.45594000000E+02  0.51100000000E-03 0. -1.
    9900012    2    1    2    0    0 -0.26322989578E+02 -0.87816385652E+01 -0.15706807837E+02  0.59301940842E+02  0.49999994189E+02 0.  0.
        -12    1    1    2    0    0  0.26322989578E+02  0.87816385652E+01  0.15706807837E+02  0.31886059158E+02  0.00000000000E+00 0.  1.
         11    1    3    3    0    0 -0.17081336683E+02 -0.76733297855E+01 -0.40131863944E+01  0.19150919513E+02  0.51100000000E-03 0. -1.
        -11    1    3    3    0    0 -0.17220798877E+02  0.81861742782E+01 -0.18132076138E+02  0.26312383940E+02  0.51100000000E-03 0.  1.
         12    1    3    3    0    0  0.79791459819E+01 -0.92944830579E+01  0.64384546954E+01  0.13838637389E+02  0.00000000000E+00 0. -1.
</event>
<event>
 7    1  0.3750159E-013  0.5930194E+02  0.7816164E-02  0.1266605E+00
        -11   -1    0    0    0    0  0.00000000000E+00  0.00000000000E+00  0.45593999997E+02  0.45594000000E+02  0.51100000000E-03 0. -1.
         11   -1    0    0    0    0 -0.00000000000E+00 -0.00000000000E+00 -0.45593999997E+02  0.45594000000E+02  0.51100000000E-03 0.  1.
    9900012    2    1    2    0    0 -0.14587520305E+02  0.14040514838E+02  0.24633085650E+02  0.59301941696E+02  0.49999995747E+02 0.  0.
        -12    1    1    2    0    0  0.14587520305E+02 -0.14040514838E+02 -0.24633085650E+02  0.31886058304E+02  0.00000000000E+00 0.  1.
         11    1    3    3    0    0 -0.66660993263E+01  0.42870695656E+01  0.74833426555E+01  0.10900287301E+02  0.51100000000E-03 0. -1.
        -11    1    3    3    0    0 -0.13971874042E+02  0.18165192470E+02  0.26083169563E+02  0.34720587789E+02  0.51100000000E-03 0.  1.
        -12    1    3    3    0    0  0.60504530637E+01 -0.84117471979E+01 -0.89334265684E+01  0.13681066605E+02  0.00000000000E+00 0.  1.
</event>
<event>
 7    1  0.3750159E-013  0.5930193E+02  0.7816164E-02  0.1266605E+00
        -11   -1    0    0    0    0  0.00000000000E+00  0.00000000000E+00  0.45593999997E+02  0.45594000000E+02  0.51100000000E-03 0.  1.
         11   -1    0    0    0    0 -0.00000000000E+00 -0.00000000000E+00 -0.45593999997E+02  0.45594000000E+02  0.51100000000E-03 0. -1.
    9900012    2    1    2    0    0 -0.18754523275E+02  0.23434344244E+02 -0.10762019987E+02  0.59301926118E+02  0.49999967337E+02 0.  0.
        -12    1    1    2    0    0  0.18754523275E+02 -0.23434344244E+02  0.10762019987E+02  0.31886073882E+02  0.00000000000E+00 0.  1.
         11    1    3    3    0    0 -0.63040990064E+01  0.20328538165E+02 -0.20784034954E+02  0.29748398906E+02  0.51100000000E-03 0. -1.
        -11    1    3    3    0    0 -0.13424039465E+02 -0.25987813084E+01 -0.41140217395E+01  0.14278784086E+02  0.51100000000E-03 0.  1.
         12    1    3    3    0    0  0.97361519554E+00  0.57045873865E+01  0.14136036707E+02  0.15274743126E+02  0.00000000000E+00 0. -1.
</event>
<event>
 7    1  0.3750159E-013  0.5930196E+02  0.7816164E-02  0.1266605E+00
        -11   -1    0    0    0    0  0.00000000000E+00  0.00000000000E+00  0.45593999997E+02  0.45594000000E+02  0.51100000000E-03 0.  1.
         11   -1    0    0    0    0 -0.00000000000E+00 -0.00000000000E+00 -0.45593999997E+02  0.45594000000E+02  0.51100000000E-03 0. -1.
    9900012    2    1    2    0    0 -0.22505735850E+02  0.13358132738E+02  0.18214599803E+02  0.59301960698E+02  0.50000030403E+02 0.  0.
        -12    1    1    2    0    0  0.22505735850E+02 -0.13358132738E+02 -0.18214599803E+02  0.31886039302E+02  0.00000000000E+00 0.  1.
         11    1    3    3    0    0 -0.17438748320E+00 -0.61959891593E+01 -0.48687183552E+01  0.78819484481E+01  0.51100000000E-03 0. -1.
        -11    1    3    3    0    0  0.48866439772E+01  0.96313348561E+01 -0.42350390946E+01  0.11600752427E+02  0.51100000000E-03 0.  1.
        -12    1    3    3    0    0 -0.27217992344E+02  0.99227870409E+01  0.27318357253E+02  0.39819259823E+02  0.00000000000E+00 0.  1.
</event>
<event>
 7    1  0.3750159E-013  0.5930190E+02  0.7816164E-02  0.1266605E+00
        -11   -1    0    0    0    0  0.00000000000E+00  0.00000000000E+00  0.45593999997E+02  0.45594000000E+02  0.51100000000E-03 0. -1.
         11   -1    0    0    0    0 -0.00000000000E+00 -0.00000000000E+00 -0.45593999997E+02  0.45594000000E+02  0.51100000000E-03 0.  1.
    9900012    2    1    2    0    0 -0.26639576984E+02 -0.14189814332E+01  0.17465472895E+02  0.59301900934E+02  0.49999921408E+02 0.  0.
        -12    1    1    2    0    0  0.26639576984E+02  0.14189814332E+01 -0.17465472895E+02  0.31886099066E+02  0.00000000000E+00 0.  1.
         11    1    3    3    0    0 -0.40727923920E+01  0.57774528988E+01  0.12003454427E+02  0.13930165768E+02  0.51100000000E-03 0. -1.
        -11    1    3    3    0    0 -0.62541860115E+01  0.37013412509E+01 -0.15219640266E+02  0.16865711364E+02  0.51100000000E-03 0.  1.
         12    1    3    3    0    0 -0.16312598580E+02 -0.10897775583E+02  0.20681658733E+02  0.28506023803E+02  0.00000000000E+00 0. -1.
</event>
<event>
 7    1  0.3750159E-013  0.5930193E+02  0.7816164E-02  0.1266605E+00
        -11   -1    0    0    0    0  0.00000000000E+00  0.00000000000E+00  0.45593999997E+02  0.45594000000E+02  0.51100000000E-03 0.  1.
         11   -1    0    0    0    0 -0.00000000000E+00 -0.00000000000E+00 -0.45593999997E+02  0.45594000000E+02  0.51100000000E-03 0. -1.
    9900012    2    1    2    0    0 -0.15789469026E+02 -0.16760410792E+02 -0.22056813118E+02  0.59301926128E+02  0.49999967356E+02 0.  0.
        -12    1    1    2    0    0  0.15789469026E+02  0.16760410792E+02  0.22056813118E+02  0.31886073872E+02  0.00000000000E+00 0.  1.
         11    1    3    3    0    0 -0.18963366269E+02 -0.32163093136E-01 -0.17608435398E+02  0.25877930600E+02  0.51100000000E-03 0. -1.
        -11    1    3    3    0    0 -0.12696436500E+02 -0.68168695551E+01 -0.16508623327E+01  0.14504983869E+02  0.51100000000E-03 0.  1.
        -12    1    3    3    0    0  0.15870333743E+02 -0.99113781434E+01 -0.27975153870E+01  0.18919011659E+02  0.00000000000E+00 0.  1.
</event>
<event>
 7    1  0.3750159E-013  0.5930195E+02  0.7816164E-02  0.1266605E+00
        -11   -1    0    0    0    0  0.00000000000E+00  0.00000000000E+00  0.45593999997E+02  0.45594000000E+02  0.51100000000E-03 0.  1.
         11   -1    0    0    0    0 -0.00000000000E+00 -0.00000000000E+00 -0.45593999997E+02  0.45594000000E+02  0.51100000000E-03 0. -1.
    9900012    2    1    2    0    0  0.24088951005E+02 -0.70423665755E+01 -0.19668449227E+02  0.59301946897E+02  0.50000005232E+02 0.  0.
        -12    1    1    2    0    0 -0.24088951005E+02  0.70423665755E+01  0.19668449227E+02  0.31886053103E+02  0.00000000000E+00 0.  1.
         11    1    3    3    0    0  0.12065244299E+02 -0.59870385350E+01 -0.71195063082E+01  0.15234898121E+02  0.51100000000E-03 0. -1.
        -11    1    3    3    0    0  0.27052497080E+02  0.25556031913E+00 -0.95220872669E+01  0.28680534436E+02  0.51100000000E-03 0.  1.
         12    1    3    3    0    0 -0.15028790374E+02 -0.13108883597E+01 -0.30268556517E+01  0.15386514340E+02  0.00000000000E+00 0. -1.
</event>
<event>
 7    1  0.3750159E-013  0.5930166E+02  0.7816164E-02  0.1266606E+00
        -11   -1    0    0    0    0  0.00000000000E+00  0.00000000000E+00  0.45593999997E+02  0.45594000000E+02  0.51100000000E-03 0.  1.
         11   -1    0    0    0    0 -0.00000000000E+00 -0.00000000000E+00 -0.45593999997E+02  0.45594000000E+02  0.51100000000E-03 0. -1.
    9900012    2    1    2    0    0  0.13733130458E+00 -0.84826869519E+01 -0.30737009424E+02  0.59301661450E+02  0.49999484643E+02 0.  0.
        -12    1    1    2    0    0 -0.13733130458E+00  0.84826869519E+01  0.30737009424E+02  0.31886338550E+02  0.00000000000E+00 0.  1.
         11    1    3    3    0    0 -0.72144087035E+01 -0.57991910862E+01 -0.54708881544E+01  0.10752159209E+02  0.51100000000E-03 0. -1.
        -11    1    3    3    0    0  0.58619623448E+01  0.23028573620E+00  0.10823865691E+02  0.12311446008E+02  0.51100000000E-03 0.  1.
         12    1    3    3    0    0  0.14897776633E+01 -0.29137816020E+01 -0.36089986961E+02  0.36238056233E+02  0.00000000000E+00 0. -1.
</event>
<event>
 7    1  0.3750159E-013  0.5930177E+02  0.7816164E-02  0.1266605E+00
        -11   -1    0    0    0    0  0.00000000000E+00  0.00000000000E+00  0.45593999997E+02  0.45594000000E+02  0.51100000000E-03 0. -1.
         11   -1    0    0    0    0 -0.00000000000E+00 -0.00000000000E+00 -0.45593999997E+02  0.45594000000E+02  0.51100000000E-03 0.  1.
    9900012    2    1    2    0    0  0.15433270400E+02  0.10296737612E+01  0.27883433036E+02  0.59301766275E+02  0.49999675820E+02 0.  0.
        -12    1    1    2    0    0 -0.15433270400E+02 -0.10296737612E+01 -0.27883433036E+02  0.31886233725E+02  0.00000000000E+00 0.  1.
         11    1    3    3    0    0 -0.68646160944E+01 -0.29360154478E+00  0.30703074346E+01  0.75256856163E+01  0.51100000000E-03 0.  1.
        -11    1    3    3    0    0 -0.96478470681E+01  0.74596097902E+01  0.11041809990E+02  0.16451392019E+02  0.51100000000E-03 0. -1.
        -12    1    3    3    0    0  0.31945733563E+02 -0.61363344842E+01  0.13771315612E+02  0.35324688639E+02  0.00000000000E+00 0.  1.
</event>
<event>
 7    1  0.3750159E-013  0.5930201E+02  0.7816164E-02  0.1266605E+00
        -11   -1    0    0    0    0  0.00000000000E+00  0.00000000000E+00  0.45593999997E+02  0.45594000000E+02  0.51100000000E-03 0.  1.
         11   -1    0    0    0    0 -0.00000000000E+00 -0.00000000000E+00 -0.45593999997E+02  0.45594000000E+02  0.51100000000E-03 0. -1.
    9900012    2    1    2    0    0 -0.13473998408E+02 -0.37302636113E+01 -0.28657506404E+02  0.59302012905E+02  0.50000125616E+02 0.  0.
        -12    1    1    2    0    0  0.13473998408E+02  0.37302636113E+01  0.28657506404E+02  0.31885987095E+02  0.00000000000E+00 0.  1.
         11    1    3    3    0    0 -0.13333897285E+02  0.32974975918E+00  0.18632534553E+01  0.13467489203E+02  0.51100000000E-03 0.  1.
        -11    1    3    3    0    0  0.97091177228E-01  0.91232620327E+01 -0.31322991963E+02  0.32624732376E+02  0.51100000000E-03 0. -1.
         12    1    3    3    0    0 -0.23719230027E+00 -0.13183275403E+02  0.80223210407E+00  0.13209791327E+02  0.00000000000E+00 0. -1.
</event>
<event>
 7    1  0.3750159E-013  0.5930196E+02  0.7816164E-02  0.1266605E+00
        -11   -1    0    0    0    0  0.00000000000E+00  0.00000000000E+00  0.45593999997E+02  0.45594000000E+02  0.51100000000E-03 0.  1.
         11   -1    0    0    0    0 -0.00000000000E+00 -0.00000000000E+00 -0.45593999997E+02  0.45594000000E+02  0.51100000000E-03 0. -1.
    9900012    2    1    2    0    0  0.49341976535E+01  0.27950892712E+02 -0.14530002845E+02  0.59301957715E+02  0.50000024963E+02 0.  0.
        -12    1    1    2    0    0 -0.49341976535E+01 -0.27950892712E+02  0.14530002845E+02  0.31886042285E+02  0.00000000000E+00 0.  1.
         11    1    3    3    0    0  0.10000752001E+01  0.42063984805E+01  0.74231062499E+00  0.43869082402E+01  0.51100000000E-03 0. -1.
        -11    1    3    3    0    0  0.13550442846E+02  0.20104972796E+01  0.12372176024E+02  0.18458801166E+02  0.51100000000E-03 0.  1.
         12    1    3    3    0    0 -0.96163203928E+01  0.21733996952E+02 -0.27644489494E+02  0.36456248309E+02  0.00000000000E+00 0. -1.
</event>
<event>
 7    1  0.3750159E-013  0.5930195E+02  0.7816164E-02  0.1266605E+00
        -11   -1    0    0    0    0  0.00000000000E+00  0.00000000000E+00  0.45593999997E+02  0.45594000000E+02  0.51100000000E-03 0.  1.
         11   -1    0    0    0    0 -0.00000000000E+00 -0.00000000000E+00 -0.45593999997E+02  0.45594000000E+02  0.51100000000E-03 0. -1.
    9900012    2    1    2    0    0 -0.19862871365E+01 -0.16209019551E+02 -0.27386900281E+02  0.59301953547E+02  0.50000017361E+02 0.  0.
        -12    1    1    2    0    0  0.19862871365E+01  0.16209019551E+02  0.27386900281E+02  0.31886046453E+02  0.00000000000E+00 0.  1.
         11    1    3    3    0    0 -0.10692499557E+02 -0.12002658137E+02 -0.12261495128E+02  0.20217260253E+02  0.51100000000E-03 0. -1.
        -11    1    3    3    0    0 -0.11967942095E+02 -0.22737962807E+01 -0.13609311686E+02  0.18265134885E+02  0.51100000000E-03 0.  1.
        -12    1    3    3    0    0  0.20674154516E+02 -0.19325651338E+01 -0.15160934664E+01  0.20819558409E+02  0.00000000000E+00 0.  1.
</event>
<event>
 7    1  0.3750159E-013  0.5930194E+02  0.7816164E-02  0.1266605E+00
        -11   -1    0    0    0    0  0.00000000000E+00  0.00000000000E+00  0.45593999997E+02  0.45594000000E+02  0.51100000000E-03 0.  1.
         11   -1    0    0    0    0 -0.00000000000E+00 -0.00000000000E+00 -0.45593999997E+02  0.45594000000E+02  0.51100000000E-03 0. -1.
    9900012    2    1    2    0    0  0.15200365328E+02  0.26934125231E+02 -0.77603309716E+01  0.59301938079E+02  0.49999989150E+02 0.  0.
        -12    1    1    2    0    0 -0.15200365328E+02 -0.26934125231E+02  0.77603309716E+01  0.31886061921E+02  0.00000000000E+00 0.  1.
         11    1    3    3    0    0  0.63331239289E+01 -0.44975670556E+01 -0.14741830460E+02  0.16663076958E+02  0.51100000000E-03 0. -1.
        -11    1    3    3    0    0  0.36482785927E+01 -0.42386801496E+01 -0.10861305312E+01  0.56970190357E+01  0.51100000000E-03 0.  1.
        -12    1    3    3    0    0  0.52189628068E+01  0.35670372436E+02  0.80676300198E+01  0.36941842085E+02  0.00000000000E+00 0.  1.
</event>
<event>
 7    1  0.3750159E-013  0.5930197E+02  0.7816164E-02  0.1266605E+00
        -11   -1    0    0    0    0  0.00000000000E+00  0.00000000000E+00  0.45593999997E+02  0.45594000000E+02  0.51100000000E-03 0.  1.
         11   -1    0    0    0    0 -0.00000000000E+00 -0.00000000000E+00 -0.45593999997E+02  0.45594000000E+02  0.51100000000E-03 0. -1.
    9900012    2    1    2    0    0 -0.13845388166E+02 -0.28698491795E+02  0.11919933401E+01  0.59301967747E+02  0.50000043258E+02 0.  0.
        -12    1    1    2    0    0  0.13845388166E+02  0.28698491795E+02 -0.11919933401E+01  0.31886032253E+02  0.00000000000E+00 0.  1.
         11    1    3    3    0    0 -0.25178929320E+02 -0.44141369721E+01 -0.30035817488E+00  0.25564688580E+02  0.51100000000E-03 0. -1.
        -11    1    3    3    0    0  0.54220262625E+01 -0.12680598151E+02 -0.94577935162E+01  0.16722613334E+02  0.51100000000E-03 0.  1.
        -12    1    3    3    0    0  0.59115148914E+01 -0.11603756672E+02  0.10950145031E+02  0.17014665833E+02  0.00000000000E+00 0.  1.
</event>
<event>
 7    1  0.3750159E-013  0.5930195E+02  0.7816164E-02  0.1266605E+00
        -11   -1    0    0    0    0  0.00000000000E+00  0.00000000000E+00  0.45593999997E+02  0.45594000000E+02  0.51100000000E-03 0.  1.
         11   -1    0    0    0    0 -0.00000000000E+00 -0.00000000000E+00 -0.45593999997E+02  0.45594000000E+02  0.51100000000E-03 0. -1.
    9900012    2    1    2    0    0  0.73142384313E+01 -0.12829569576E+02 -0.28259938799E+02  0.59301951636E+02  0.50000013876E+02 0.  0.
        -12    1    1    2    0    0 -0.73142384313E+01  0.12829569576E+02  0.28259938799E+02  0.31886048364E+02  0.00000000000E+00 0.  1.
         11    1    3    3    0    0 -0.61318665321E+01  0.21965390872E+01 -0.30608129730E+01  0.71967456149E+01  0.51100000000E-03 0. -1.
        -11    1    3    3    0    0 -0.96015330579E+01  0.79055631138E+01 -0.31775333175E+01  0.12836825287E+02  0.51100000000E-03 0.  1.
        -12    1    3    3    0    0  0.23047638021E+02 -0.22931671777E+02 -0.22021592509E+02  0.39268380734E+02  0.00000000000E+00 0.  1.
</event>
<event>
 7    1  0.3750159E-013  0.5930192E+02  0.7816164E-02  0.1266605E+00
        -11   -1    0    0    0    0  0.00000000000E+00  0.00000000000E+00  0.45593999997E+02  0.45594000000E+02  0.51100000000E-03 0. -1.
         11   -1    0    0    0    0 -0.00000000000E+00 -0.00000000000E+00 -0.45593999997E+02  0.45594000000E+02  0.51100000000E-03 0.  1.
    9900012    2    1    2    0    0  0.27624674729E+02 -0.80855061175E+01  0.13719471443E+02  0.59301922165E+02  0.49999960127E+02 0.  0.
        -12    1    1    2    0    0 -0.27624674729E+02  0.80855061175E+01 -0.13719471443E+02  0.31886077835E+02  0.00000000000E+00 0.  1.
         11    1    3    3    0    0  0.11179691776E+02 -0.56422248538E+01  0.17091240900E+02  0.21187985399E+02  0.51100000000E-03 0. -1.
        -11    1    3    3    0    0  0.79528995959E+01  0.13401119953E+02  0.72998659990E+01  0.17208331466E+02  0.51100000000E-03 0.  1.
         12    1    3    3    0    0  0.84920833571E+01 -0.15844401217E+02 -0.10671635455E+02  0.20905605300E+02  0.00000000000E+00 0. -1.
</event>
<event>
 7    1  0.3750159E-013  0.5930196E+02  0.7816164E-02  0.1266605E+00
        -11   -1    0    0    0    0  0.00000000000E+00  0.00000000000E+00  0.45593999997E+02  0.45594000000E+02  0.51100000000E-03 0.  1.
         11   -1    0    0    0    0 -0.00000000000E+00 -0.00000000000E+00 -0.45593999997E+02  0.45594000000E+02  0.51100000000E-03 0. -1.
    9900012    2    1    2    0    0  0.23801737841E+02 -0.13681695322E+02 -0.16217522408E+02  0.59301960043E+02  0.50000029207E+02 0.  0.
        -12    1    1    2    0    0 -0.23801737841E+02  0.13681695322E+02  0.16217522408E+02  0.31886039957E+02  0.00000000000E+00 0.  1.
         11    1    3    3    0    0  0.25608710098E+00  0.11708575115E+02 -0.33268568450E+01  0.12174739774E+02  0.51100000000E-03 0. -1.
        -11    1    3    3    0    0  0.21911492966E+02 -0.24341863171E+01 -0.37434613470E+01  0.22361848988E+02  0.51100000000E-03 0.  1.
        -12    1    3    3    0    0  0.16341577734E+01 -0.22956084119E+02 -0.91472042161E+01  0.24765371281E+02  0.00000000000E+00 0.  1.
</event>
<event>
 7    1  0.3750159E-013  0.5930195E+02  0.7816164E-02  0.1266605E+00
        -11   -1    0    0    0    0  0.00000000000E+00  0.00000000000E+00  0.45593999997E+02  0.45594000000E+02  0.51100000000E-03 0.  1.
         11   -1    0    0    0    0 -0.00000000000E+00 -0.00000000000E+00 -0.45593999997E+02  0.45594000000E+02  0.51100000000E-03 0. -1.
    9900012    2    1    2    0    0  0.22997199886E+02 -0.20094194225E+02  0.91691129472E+01  0.59301945425E+02  0.50000002547E+02 0.  0.
        -12    1    1    2    0    0 -0.22997199886E+02  0.20094194225E+02 -0.91691129472E+01  0.31886054575E+02  0.00000000000E+00 0.  1.
         11    1    3    3    0    0 -0.86209986433E+00 -0.29022165530E+01 -0.13026952108E+02  0.13374137676E+02  0.51100000000E-03 0. -1.
        -11    1    3    3    0    0  0.44504896715E+01  0.74914076203E+01  0.61488886539E+01  0.10664749335E+02  0.51100000000E-03 0.  1.
        -12    1    3    3    0    0  0.19408810079E+02 -0.24683385292E+02  0.16047176401E+02  0.35263058413E+02  0.00000000000E+00 0.  1.
</event>
<event>
 7    1  0.3750159E-013  0.5930196E+02  0.7816164E-02  0.1266605E+00
        -11   -1    0    0    0    0  0.00000000000E+00  0.00000000000E+00  0.45593999997E+02  0.45594000000E+02  0.51100000000E-03 0.  1.
         11   -1    0    0    0    0 -0.00000000000E+00 -0.00000000000E+00 -0.45593999997E+02  0.45594000000E+02  0.51100000000E-03 0. -1.
    9900012    2    1    2    0    0  0.68011881801E+01  0.10751905492E+02 -0.29237987184E+02  0.59301960312E+02  0.50000029699E+02 0.  0.
        -12    1    1    2    0    0 -0.68011881801E+01 -0.10751905492E+02  0.29237987184E+02  0.31886039688E+02  0.00000000000E+00 0.  1.
         11    1    3    3    0    0 -0.11467008266E+01  0.15919738737E+02 -0.14705894799E+02  0.21702911011E+02  0.51100000000E-03 0. -1.
        -11    1    3    3    0    0  0.17672347543E+01  0.11686897429E+02 -0.15650098035E+02  0.19612043722E+02  0.51100000000E-03 0.  1.
        -12    1    3    3    0    0  0.61806542524E+01 -0.16854730674E+02  0.11180056495E+01  0.17987005579E+02  0.00000000000E+00 0.  1.
</event>
<event>
 7    1  0.3750159E-013  0.5930193E+02  0.7816164E-02  0.1266605E+00
        -11   -1    0    0    0    0  0.00000000000E+00  0.00000000000E+00  0.45593999997E+02  0.45594000000E+02  0.51100000000E-03 0.  1.
         11   -1    0    0    0    0 -0.00000000000E+00 -0.00000000000E+00 -0.45593999997E+02  0.45594000000E+02  0.51100000000E-03 0. -1.
    9900012    2    1    2    0    0 -0.29171798758E+02 -0.11264905701E+02  0.62313271532E+01  0.59301931234E+02  0.49999976667E+02 0.  0.
        -12    1    1    2    0    0  0.29171798758E+02  0.11264905701E+02 -0.62313271532E+01  0.31886068766E+02  0.00000000000E+00 0.  1.
         11    1    3    3    0    0 -0.94580327305E+00 -0.10929446210E+02  0.11168633103E+01  0.11026999691E+02  0.51100000000E-03 0. -1.
        -11    1    3    3    0    0  0.88666209558E+01 -0.42193029143E+01 -0.26698305964E+01  0.10175828218E+02  0.51100000000E-03 0.  1.
        -12    1    3    3    0    0 -0.37092616441E+02  0.38838434225E+01  0.77842944392E+01  0.38099103324E+02  0.00000000000E+00 0.  1.
</event>
<event>
 7    1  0.3750159E-013  0.5930193E+02  0.7816164E-02  0.1266605E+00
        -11   -1    0    0    0    0  0.00000000000E+00  0.00000000000E+00  0.45593999997E+02  0.45594000000E+02  0.51100000000E-03 0.  1.
         11   -1    0    0    0    0 -0.00000000000E+00 -0.00000000000E+00 -0.45593999997E+02  0.45594000000E+02  0.51100000000E-03 0. -1.
    9900012    2    1    2    0    0 -0.18534207159E+02 -0.18018363488E+02 -0.18669304993E+02  0.59301933972E+02  0.49999981662E+02 0.  0.
        -12    1    1    2    0    0  0.18534207159E+02  0.18018363488E+02  0.18669304993E+02  0.31886066028E+02  0.00000000000E+00 0.  1.
         11    1    3    3    0    0 -0.16022807253E+01 -0.32884662450E+01  0.80808105028E+01  0.88702205390E+01  0.51100000000E-03 0. -1.
        -11    1    3    3    0    0  0.20361437981E+01 -0.74355992822E+01  0.74039247898E+01  0.10688878370E+02  0.51100000000E-03 0.  1.
         12    1    3    3    0    0 -0.18968070232E+02 -0.72942979604E+01 -0.34154040286E+02  0.39742835064E+02  0.00000000000E+00 0. -1.
</event>
<event>
 7    1  0.3750159E-013  0.5930195E+02  0.7816164E-02  0.1266605E+00
        -11   -1    0    0    0    0  0.00000000000E+00  0.00000000000E+00  0.45593999997E+02  0.45594000000E+02  0.51100000000E-03 0. -1.
         11   -1    0    0    0    0 -0.00000000000E+00 -0.00000000000E+00 -0.45593999997E+02  0.45594000000E+02  0.51100000000E-03 0.  1.
    9900012    2    1    2    0    0  0.96528018790E+01 -0.11265979949E+02  0.28224479122E+02  0.59301951169E+02  0.50000013024E+02 0.  0.
        -12    1    1    2    0    0 -0.96528018790E+01  0.11265979949E+02 -0.28224479122E+02  0.31886048831E+02  0.00000000000E+00 0.  1.
         11    1    3    3    0    0 -0.14134678023E+02 -0.15861863229E+02  0.51160168842E+01  0.21853179562E+02  0.51100000000E-03 0. -1.
        -11    1    3    3    0    0 -0.14079843882E+01 -0.13752778776E+01 -0.87568970091E+00  0.21542149362E+01  0.51100000000E-03 0.  1.
         12    1    3    3    0    0  0.25195464291E+02  0.59711611583E+01  0.23984151939E+02  0.35294556671E+02  0.00000000000E+00 0. -1.
</event>
<event>
 7    1  0.3750159E-013  0.5930195E+02  0.7816164E-02  0.1266605E+00
        -11   -1    0    0    0    0  0.00000000000E+00  0.00000000000E+00  0.45593999997E+02  0.45594000000E+02  0.51100000000E-03 0.  1.
         11   -1    0    0    0    0 -0.00000000000E+00 -0.00000000000E+00 -0.45593999997E+02  0.45594000000E+02  0.51100000000E-03 0. -1.
    9900012    2    1    2    0    0 -0.16711140352E+02 -0.62325158907E+01 -0.26431299789E+02  0.59301951723E+02  0.50000014034E+02 0.  0.
        -12    1    1    2    0    0  0.16711140352E+02  0.62325158907E+01  0.26431299789E+02  0.31886048277E+02  0.00000000000E+00 0.  1.
         11    1    3    3    0    0 -0.79121780254E+01 -0.13923016633E+01 -0.29455487500E+02  0.30531406931E+02  0.51100000000E-03 0.  1.
        -11    1    3    3    0    0 -0.13546465693E+02 -0.38943134595E+00 -0.81685491449E+01  0.15823513673E+02  0.51100000000E-03 0. -1.
        -12    1    3    3    0    0  0.47475033663E+01 -0.44507828815E+01  0.11192736857E+02  0.12947031120E+02  0.00000000000E+00 0.  1.
</event>
<event>
 7    1  0.3750159E-013  0.5930192E+02  0.7816164E-02  0.1266605E+00
        -11   -1    0    0    0    0  0.00000000000E+00  0.00000000000E+00  0.45593999997E+02  0.45594000000E+02  0.51100000000E-03 0. -1.
         11   -1    0    0    0    0 -0.00000000000E+00 -0.00000000000E+00 -0.45593999997E+02  0.45594000000E+02  0.51100000000E-03 0.  1.
    9900012    2    1    2    0    0 -0.31784187626E+02 -0.17108909107E-01 -0.25470320073E+01  0.59301917647E+02  0.49999951888E+02 0.  0.
        -12    1    1    2    0    0  0.31784187626E+02  0.17108909107E-01  0.25470320073E+01  0.31886082353E+02  0.00000000000E+00 0.  1.
         11    1    3    3    0    0 -0.22061710008E+02  0.82134332811E+01 -0.42128815378E+01  0.23915014235E+02  0.51100000000E-03 0. -1.
        -11    1    3    3    0    0 -0.10572973449E+01 -0.48932573856E+01 -0.15271546318E+02  0.16071153435E+02  0.51100000000E-03 0.  1.
         12    1    3    3    0    0 -0.86651802730E+01 -0.33372848045E+01  0.16937395849E+02  0.19315749977E+02  0.00000000000E+00 0. -1.
</event>
<event>
 7    1  0.3750159E-013  0.5930178E+02  0.7816164E-02  0.1266605E+00
        -11   -1    0    0    0    0  0.00000000000E+00  0.00000000000E+00  0.45593999997E+02  0.45594000000E+02  0.51100000000E-03 0. -1.
         11   -1    0    0    0    0 -0.00000000000E+00 -0.00000000000E+00 -0.45593999997E+02  0.45594000000E+02  0.51100000000E-03 0.  1.
    9900012    2    1    2    0    0 -0.17469875323E+02  0.26628599651E+02  0.15659025989E+01  0.59301781752E+02  0.49999704047E+02 0.  0.
        -12    1    1    2    0    0  0.17469875323E+02 -0.26628599651E+02 -0.15659025989E+01  0.31886218248E+02  0.00000000000E+00 0.  1.
         11    1    3    3    0    0  0.13368514097E+00  0.25410779884E+02  0.11983216277E+02  0.28094894174E+02  0.51100000000E-03 0. -1.
        -11    1    3    3    0    0 -0.79668274090E+01  0.24150938476E+01 -0.17371222422E+02  0.19262979675E+02  0.51100000000E-03 0.  1.
        -12    1    3    3    0    0 -0.96367330550E+01 -0.11972740799E+01  0.69539087438E+01  0.11943907904E+02  0.00000000000E+00 0.  1.
</event>
<event>
 7    1  0.3750159E-013  0.5930195E+02  0.7816164E-02  0.1266605E+00
        -11   -1    0    0    0    0  0.00000000000E+00  0.00000000000E+00  0.45593999997E+02  0.45594000000E+02  0.51100000000E-03 0.  1.
         11   -1    0    0    0    0 -0.00000000000E+00 -0.00000000000E+00 -0.45593999997E+02  0.45594000000E+02  0.51100000000E-03 0. -1.
    9900012    2    1    2    0    0  0.26717473180E+02  0.11768889732E+02 -0.12821478173E+02  0.59301945977E+02  0.50000003555E+02 0.  0.
        -12    1    1    2    0    0 -0.26717473180E+02 -0.11768889732E+02  0.12821478173E+02  0.31886054023E+02  0.00000000000E+00 0.  1.
         11    1    3    3    0    0 -0.67414032108E+00  0.28394096298E+01  0.44161258212E+01  0.52932862901E+01  0.51100000000E-03 0. -1.
        -11    1    3    3    0    0 -0.20672058148E+01  0.47908258166E+01  0.11511511004E+02  0.12638838465E+02  0.51100000000E-03 0.  1.
         12    1    3    3    0    0  0.29458819316E+02  0.41386542856E+01 -0.28749114998E+02  0.41369821222E+02  0.00000000000E+00 0. -1.
</event>
<event>
 7    1  0.3750159E-013  0.5930192E+02  0.7816164E-02  0.1266605E+00
        -11   -1    0    0    0    0  0.00000000000E+00  0.00000000000E+00  0.45593999997E+02  0.45594000000E+02  0.51100000000E-03 0. -1.
         11   -1    0    0    0    0 -0.00000000000E+00 -0.00000000000E+00 -0.45593999997E+02  0.45594000000E+02  0.51100000000E-03 0.  1.
    9900012    2    1    2    0    0  0.14487415401E+02 -0.23469885002E+02  0.16000039808E+02  0.59301921833E+02  0.49999959523E+02 0.  0.
        -12    1    1    2    0    0 -0.14487415401E+02  0.23469885002E+02 -0.16000039808E+02  0.31886078167E+02  0.00000000000E+00 0.  1.
         11    1    3    3    0    0  0.24687820225E+02 -0.17834235377E+02  0.86729201365E+01  0.31666511695E+02  0.51100000000E-03 0. -1.
        -11    1    3    3    0    0 -0.18903283459E+01 -0.99720036672E+01  0.13141847122E+02  0.16604889173E+02  0.51100000000E-03 0.  1.
        -12    1    3    3    0    0 -0.83100764783E+01  0.43363540426E+01 -0.58147274507E+01  0.11030520966E+02  0.00000000000E+00 0.  1.
</event>
<event>
 7    1  0.3750159E-013  0.5930190E+02  0.7816164E-02  0.1266605E+00
        -11   -1    0    0    0    0  0.00000000000E+00  0.00000000000E+00  0.45593999997E+02  0.45594000000E+02  0.51100000000E-03 0. -1.
         11   -1    0    0    0    0 -0.00000000000E+00 -0.00000000000E+00 -0.45593999997E+02  0.45594000000E+02  0.51100000000E-03 0.  1.
    9900012    2    1    2    0    0  0.42892982937E+01 -0.29192635199E+02  0.12087813911E+02  0.59301901542E+02  0.49999922517E+02 0.  0.
        -12    1    1    2    0    0 -0.42892982937E+01  0.29192635199E+02 -0.12087813911E+02  0.31886098458E+02  0.00000000000E+00 0.  1.
         11    1    3    3    0    0 -0.27272090242E+00  0.76837651591E+01 -0.45883465983E+01  0.89536332557E+01  0.51100000000E-03 0.  1.
        -11    1    3    3    0    0 -0.87665185098E+01 -0.45485355735E+01 -0.28746391114E+01  0.10286134985E+02  0.51100000000E-03 0. -1.
         12    1    3    3    0    0  0.13328537706E+02 -0.32327864785E+02  0.19550799620E+02  0.40062133302E+02  0.00000000000E+00 0. -1.
</event>
<event>
 7    1  0.3750159E-013  0.5930196E+02  0.7816164E-02  0.1266605E+00
        -11   -1    0    0    0    0  0.00000000000E+00  0.00000000000E+00  0.45593999997E+02  0.45594000000E+02  0.51100000000E-03 0.  1.
         11   -1    0    0    0    0 -0.00000000000E+00 -0.00000000000E+00 -0.45593999997E+02  0.45594000000E+02  0.51100000000E-03 0. -1.
    9900012    2    1    2    0    0 -0.15754088568E+02  0.13362313084E+02 -0.24289437374E+02  0.59301960963E+02  0.50000030885E+02 0.  0.
        -12    1    1    2    0    0  0.15754088568E+02 -0.13362313084E+02  0.24289437374E+02  0.31886039037E+02  0.00000000000E+00 0.  1.
         11    1    3    3    0    0  0.39436132963E+01  0.10407023583E+02 -0.11128248486E+02  0.15738365236E+02  0.51100000000E-03 0. -1.
        -11    1    3    3    0    0  0.94598749414E+01  0.66353251037E+01 -0.70819809193E+01  0.13552535820E+02  0.51100000000E-03 0.  1.
        -12    1    3    3    0    0 -0.29157576806E+02 -0.36800356024E+01 -0.60792079688E+01  0.30011059907E+02  0.00000000000E+00 0.  1.
</event>
<event>
 7    1  0.3750159E-013  0.5930195E+02  0.7816164E-02  0.1266605E+00
        -11   -1    0    0    0    0  0.00000000000E+00  0.00000000000E+00  0.45593999997E+02  0.45594000000E+02  0.51100000000E-03 0. -1.
         11   -1    0    0    0    0 -0.00000000000E+00 -0.00000000000E+00 -0.45593999997E+02  0.45594000000E+02  0.51100000000E-03 0.  1.
    9900012    2    1    2    0    0  0.19205016116E+02 -0.19010413839E+02  0.16926061633E+02  0.59301952256E+02  0.50000015007E+02 0.  0.
        -12    1    1    2    0    0 -0.19205016116E+02  0.19010413839E+02 -0.16926061633E+02  0.31886047744E+02  0.00000000000E+00 0.  1.
         11    1    3    3    0    0 -0.11203480486E+02 -0.16428272786E+01  0.19631948851E+02  0.22663412638E+02  0.51100000000E-03 0. -1.
        -11    1    3    3    0    0  0.86774148068E+01  0.58161842708E-01 -0.36150819120E+00  0.86851366692E+01  0.51100000000E-03 0.  1.
        -12    1    3    3    0    0  0.21731081795E+02 -0.17425748403E+02 -0.23443790270E+01  0.27953402949E+02  0.00000000000E+00 0.  1.
</event>
<event>
 7    1  0.3750159E-013  0.5930195E+02  0.7816164E-02  0.1266605E+00
        -11   -1    0    0    0    0  0.00000000000E+00  0.00000000000E+00  0.45593999997E+02  0.45594000000E+02  0.51100000000E-03 0.  1.
         11   -1    0    0    0    0 -0.00000000000E+00 -0.00000000000E+00 -0.45593999997E+02  0.45594000000E+02  0.51100000000E-03 0. -1.
    9900012    2    1    2    0    0  0.18844766676E+02  0.20166261249E+02 -0.15966119537E+02  0.59301948239E+02  0.50000007681E+02 0.  0.
        -12    1    1    2    0    0 -0.18844766676E+02 -0.20166261249E+02  0.15966119537E+02  0.31886051761E+02  0.00000000000E+00 0.  1.
         11    1    3    3    0    0 -0.19661942908E+01  0.24152763580E+02 -0.14388705713E+02  0.28182561291E+02  0.51100000000E-03 0. -1.
        -11    1    3    3    0    0  0.43982311458E+01 -0.20069997179E+01 -0.11053427244E+02  0.12064441105E+02  0.51100000000E-03 0.  1.
        -12    1    3    3    0    0  0.16412729821E+02 -0.19795026135E+01  0.94760134200E+01  0.19054945844E+02  0.00000000000E+00 0.  1.
</event>
<event>
 7    1  0.3750159E-013  0.5930201E+02  0.7816164E-02  0.1266605E+00
        -11   -1    0    0    0    0  0.00000000000E+00  0.00000000000E+00  0.45593999997E+02  0.45594000000E+02  0.51100000000E-03 0. -1.
         11   -1    0    0    0    0 -0.00000000000E+00 -0.00000000000E+00 -0.45593999997E+02  0.45594000000E+02  0.51100000000E-03 0.  1.
    9900012    2    1    2    0    0  0.16454316692E+02 -0.16895514816E+02  0.21459575761E+02  0.59302010121E+02  0.50000120538E+02 0.  0.
        -12    1    1    2    0    0 -0.16454316692E+02  0.16895514816E+02 -0.21459575761E+02  0.31885989879E+02  0.00000000000E+00 0.  1.
         11    1    3    3    0    0  0.96960937469E+00 -0.17693901067E+02  0.86731609691E+01  0.19729115509E+02  0.51100000000E-03 0.  1.
        -11    1    3    3    0    0  0.18516438710E+02  0.13369613931E+02  0.23576196392E+01  0.22960040282E+02  0.51100000000E-03 0. -1.
         12    1    3    3    0    0 -0.30317313920E+01 -0.12571227681E+02  0.10428795153E+02  0.16612854330E+02  0.00000000000E+00 0. -1.
</event>
<event>
 7    1  0.3750159E-013  0.5930193E+02  0.7816164E-02  0.1266605E+00
        -11   -1    0    0    0    0  0.00000000000E+00  0.00000000000E+00  0.45593999997E+02  0.45594000000E+02  0.51100000000E-03 0. -1.
         11   -1    0    0    0    0 -0.00000000000E+00 -0.00000000000E+00 -0.45593999997E+02  0.45594000000E+02  0.51100000000E-03 0.  1.
    9900012    2    1    2    0    0  0.29190547078E+02  0.58281362585E+01 -0.11430926559E+02  0.59301932620E+02  0.49999979196E+02 0.  0.
        -12    1    1    2    0    0 -0.29190547078E+02 -0.58281362585E+01  0.11430926559E+02  0.31886067380E+02  0.00000000000E+00 0.  1.
         11    1    3    3    0    0 -0.33871852445E+01  0.81078943960E+01 -0.15933074351E+02  0.18195434426E+02  0.51100000000E-03 0. -1.
        -11    1    3    3    0    0 -0.22483059410E+01  0.40066528280E+01 -0.21913215819E+01  0.50901902740E+01  0.51100000000E-03 0.  1.
         12    1    3    3    0    0  0.34826038263E+02 -0.62864109655E+01  0.66934693740E+01  0.36016307920E+02  0.00000000000E+00 0. -1.
</event>
<event>
 7    1  0.3750159E-013  0.5930194E+02  0.7816164E-02  0.1266605E+00
        -11   -1    0    0    0    0  0.00000000000E+00  0.00000000000E+00  0.45593999997E+02  0.45594000000E+02  0.51100000000E-03 0. -1.
         11   -1    0    0    0    0 -0.00000000000E+00 -0.00000000000E+00 -0.45593999997E+02  0.45594000000E+02  0.51100000000E-03 0.  1.
    9900012    2    1    2    0    0 -0.29014628645E+02  0.35987756480E+01 -0.12724806925E+02  0.59301943912E+02  0.49999999788E+02 0.  0.
        -12    1    1    2    0    0  0.29014628645E+02 -0.35987756480E+01  0.12724806925E+02  0.31886056088E+02  0.00000000000E+00 0.  1.
         11    1    3    3    0    0 -0.19102832248E+02  0.65220049568E+00 -0.29729684062E+02  0.35343990721E+02  0.51100000000E-03 0. -1.
        -11    1    3    3    0    0 -0.46387860686E+01  0.40680095641E+00 -0.12221476110E+01  0.48142983137E+01  0.51100000000E-03 0.  1.
         12    1    3    3    0    0 -0.52730103290E+01  0.25397741959E+01  0.18227024748E+02  0.19143654877E+02  0.00000000000E+00 0. -1.
</event>
<event>
 7    1  0.3750159E-013  0.5930194E+02  0.7816164E-02  0.1266605E+00
        -11   -1    0    0    0    0  0.00000000000E+00  0.00000000000E+00  0.45593999997E+02  0.45594000000E+02  0.51100000000E-03 0.  1.
         11   -1    0    0    0    0 -0.00000000000E+00 -0.00000000000E+00 -0.45593999997E+02  0.45594000000E+02  0.51100000000E-03 0. -1.
    9900012    2    1    2    0    0  0.25339299961E+02  0.19004706927E+02  0.36690070220E+01  0.59301943166E+02  0.49999998428E+02 0.  0.
        -12    1    1    2    0    0 -0.25339299961E+02 -0.19004706927E+02 -0.36690070220E+01  0.31886056834E+02  0.00000000000E+00 0.  1.
         11    1    3    3    0    0  0.21515457663E+02  0.83624608772E+01 -0.86865236331E+01  0.24663766206E+02  0.51100000000E-03 0. -1.
        -11    1    3    3    0    0  0.85632346160E+01  0.22972184837E+00 -0.77199963039E+01  0.11531699892E+02  0.51100000000E-03 0.  1.
        -12    1    3    3    0    0 -0.47393923182E+01  0.10412524202E+02  0.20075526959E+02  0.23106477068E+02  0.00000000000E+00 0.  1.
</event>
<event>
 7    1  0.3906860E-013  0.5930194E+02  0.7816164E-02  0.1266605E+00
        -11   -1    0    0    0    0  0.00000000000E+00  0.00000000000E+00  0.45593999997E+02  0.45594000000E+02  0.51100000000E-03 0. -1.
         11   -1    0    0    0    0 -0.00000000000E+00 -0.00000000000E+00 -0.45593999997E+02  0.45594000000E+02  0.51100000000E-03 0.  1.
    9900012    2    1    2    0    0 -0.13130064585E+02 -0.11583478610E+02  0.26648545653E+02  0.59301944143E+02  0.50000000210E+02 0.  0.
        -12    1    1    2    0    0  0.13130064585E+02  0.11583478610E+02 -0.26648545653E+02  0.31886055857E+02  0.00000000000E+00 0.  1.
         11    1    3    3    0    0 -0.76378308221E+01 -0.18028477021E+02  0.15985454455E+02  0.25276415841E+02  0.51100000000E-03 0. -1.
        -11    1    3    3    0    0 -0.16585426872E+02  0.42831581545E+01 -0.17730305229E+01  0.17221076209E+02  0.51100000000E-03 0.  1.
         12    1    3    3    0    0  0.11093193110E+02  0.21618402567E+01  0.12436121721E+02  0.16804452092E+02  0.00000000000E+00 0. -1.
</event>
<event>
 7    1  0.3750159E-013  0.5930198E+02  0.7816164E-02  0.1266605E+00
        -11   -1    0    0    0    0  0.00000000000E+00  0.00000000000E+00  0.45593999997E+02  0.45594000000E+02  0.51100000000E-03 0. -1.
         11   -1    0    0    0    0 -0.00000000000E+00 -0.00000000000E+00 -0.45593999997E+02  0.45594000000E+02  0.51100000000E-03 0.  1.
    9900012    2    1    2    0    0 -0.25948014798E+02  0.12912062946E+02  0.13292762604E+02  0.59301978311E+02  0.50000062525E+02 0.  0.
        -12    1    1    2    0    0  0.25948014798E+02 -0.12912062946E+02 -0.13292762604E+02  0.31886021689E+02  0.00000000000E+00 0.  1.
         11    1    3    3    0    0 -0.96104294043E+01  0.21808447198E+00  0.12996245287E+02  0.16165095298E+02  0.51100000000E-03 0. -1.
        -11    1    3    3    0    0  0.63598281734E+01  0.26896532785E+01  0.13407029187E+02  0.15080785160E+02  0.51100000000E-03 0.  1.
         12    1    3    3    0    0 -0.22697413568E+02  0.10004325195E+02 -0.13110511870E+02  0.28056097854E+02  0.00000000000E+00 0. -1.
</event>
<event>
 7    1  0.3750159E-013  0.5930193E+02  0.7816164E-02  0.1266605E+00
        -11   -1    0    0    0    0  0.00000000000E+00  0.00000000000E+00  0.45593999997E+02  0.45594000000E+02  0.51100000000E-03 0.  1.
         11   -1    0    0    0    0 -0.00000000000E+00 -0.00000000000E+00 -0.45593999997E+02  0.45594000000E+02  0.51100000000E-03 0. -1.
    9900012    2    1    2    0    0  0.16144463647E+02 -0.21659869161E+01 -0.27411427203E+02  0.59301928635E+02  0.49999971928E+02 0.  0.
        -12    1    1    2    0    0 -0.16144463647E+02  0.21659869161E+01  0.27411427203E+02  0.31886071365E+02  0.00000000000E+00 0.  1.
         11    1    3    3    0    0 -0.56554691643E+01 -0.46070538980E+01 -0.19700516417E+02  0.21007608728E+02  0.51100000000E-03 0. -1.
        -11    1    3    3    0    0 -0.41029567784E+01  0.87017067337E+00 -0.11340489522E+02  0.12091242872E+02  0.51100000000E-03 0.  1.
        -12    1    3    3    0    0  0.25902889590E+02  0.15708963085E+01  0.36295787369E+01  0.26203077035E+02  0.00000000000E+00 0.  1.
</event>
<event>
 7    1  0.3750159E-013  0.5930192E+02  0.7816164E-02  0.1266605E+00
        -11   -1    0    0    0    0  0.00000000000E+00  0.00000000000E+00  0.45593999997E+02  0.45594000000E+02  0.51100000000E-03 0.  1.
         11   -1    0    0    0    0 -0.00000000000E+00 -0.00000000000E+00 -0.45593999997E+02  0.45594000000E+02  0.51100000000E-03 0. -1.
    9900012    2    1    2    0    0  0.14483954972E+01  0.20938798253E+02 -0.24003976612E+02  0.59301921298E+02  0.49999958547E+02 0.  0.
        -12    1    1    2    0    0 -0.14483954972E+01 -0.20938798253E+02  0.24003976612E+02  0.31886078702E+02  0.00000000000E+00 0.  1.
         11    1    3    3    0    0 -0.81180086743E+01  0.32562084767E+01  0.63248267507E+00  0.87695491945E+01  0.51100000000E-03 0.  1.
        -11    1    3    3    0    0 -0.10236620779E+02 -0.60096815236E+01 -0.12816057494E+02  0.17468715091E+02  0.51100000000E-03 0. -1.
         12    1    3    3    0    0  0.19803024950E+02  0.23692271300E+02 -0.11820401793E+02  0.33063657013E+02  0.00000000000E+00 0. -1.
</event>
<event>
 7    1  0.3750159E-013  0.5930214E+02  0.7816164E-02  0.1266604E+00
        -11   -1    0    0    0    0  0.00000000000E+00  0.00000000000E+00  0.45593999997E+02  0.45594000000E+02  0.51100000000E-03 0.  1.
         11   -1    0    0    0    0 -0.00000000000E+00 -0.00000000000E+00 -0.45593999997E+02  0.45594000000E+02  0.51100000000E-03 0. -1.
    9900012    2    1    2    0    0  0.81222275525E+01 -0.29886633105E+02 -0.75846434207E+01  0.59302137387E+02  0.50000352639E+02 0.  0.
        -12    1    1    2    0    0 -0.81222275525E+01  0.29886633105E+02  0.75846434207E+01  0.31885862613E+02  0.00000000000E+00 0.  1.
         11    1    3    3    0    0  0.19134234359E+02 -0.66889389780E+01  0.10865167116E+02  0.22998101789E+02  0.51100000000E-03 0.  1.
        -11    1    3    3    0    0  0.10526154164E+01 -0.17905994662E+02 -0.88368381136E+01  0.19995558311E+02  0.51100000000E-03 0. -1.
        -12    1    3    3    0    0 -0.12064622223E+02 -0.52916994647E+01 -0.96129724231E+01  0.16308477287E+02  0.00000000000E+00 0.  1.
</event>
<event>
 7    1  0.3750159E-013  0.5930196E+02  0.7816164E-02  0.1266605E+00
        -11   -1    0    0    0    0  0.00000000000E+00  0.00000000000E+00  0.45593999997E+02  0.45594000000E+02  0.51100000000E-03 0.  1.
         11   -1    0    0    0    0 -0.00000000000E+00 -0.00000000000E+00 -0.45593999997E+02  0.45594000000E+02  0.51100000000E-03 0. -1.
    9900012    2    1    2    0    0  0.10178904841E+02  0.88846583315E+01 -0.28882041289E+02  0.59301959693E+02  0.50000028570E+02 0.  0.
        -12    1    1    2    0    0 -0.10178904841E+02 -0.88846583315E+01  0.28882041289E+02  0.31886040307E+02  0.00000000000E+00 0.  1.
         11    1    3    3    0    0  0.52176484369E+01  0.57596348691E+01 -0.12223003542E+02  0.14484442167E+02  0.51100000000E-03 0. -1.
        -11    1    3    3    0    0  0.65421282343E+01  0.14811508357E+02  0.75675569812E+01  0.17873112224E+02  0.51100000000E-03 0.  1.
         12    1    3    3    0    0 -0.15808718308E+01 -0.11686484895E+02 -0.24226594728E+02  0.26944405302E+02  0.00000000000E+00 0. -1.
</event>
<event>
 7    1  0.3750159E-013  0.5930195E+02  0.7816164E-02  0.1266605E+00
        -11   -1    0    0    0    0  0.00000000000E+00  0.00000000000E+00  0.45593999997E+02  0.45594000000E+02  0.51100000000E-03 0.  1.
         11   -1    0    0    0    0 -0.00000000000E+00 -0.00000000000E+00 -0.45593999997E+02  0.45594000000E+02  0.51100000000E-03 0. -1.
    9900012    2    1    2    0    0  0.13168065724E+02  0.61315649101E+01 -0.28385314647E+02  0.59301950844E+02  0.50000012432E+02 0.  0.
        -12    1    1    2    0    0 -0.13168065724E+02 -0.61315649101E+01  0.28385314647E+02  0.31886049156E+02  0.00000000000E+00 0.  1.
         11    1    3    3    0    0 -0.45504278334E+01 -0.17850583100E+01 -0.63575227204E+01  0.80194090829E+01  0.51100000000E-03 0. -1.
        -11    1    3    3    0    0 -0.65145977286E+01  0.78887793340E+01 -0.24861490615E+02  0.26884317711E+02  0.51100000000E-03 0.  1.
        -12    1    3    3    0    0  0.24233091286E+02  0.27843886116E-01  0.28336986885E+01  0.24398224050E+02  0.00000000000E+00 0.  1.
</event>
<event>
 7    1  0.3750159E-013  0.5930194E+02  0.7816164E-02  0.1266605E+00
        -11   -1    0    0    0    0  0.00000000000E+00  0.00000000000E+00  0.45593999997E+02  0.45594000000E+02  0.51100000000E-03 0.  1.
         11   -1    0    0    0    0 -0.00000000000E+00 -0.00000000000E+00 -0.45593999997E+02  0.45594000000E+02  0.51100000000E-03 0. -1.
    9900012    2    1    2    0    0  0.15526803823E+02  0.21749254738E+02 -0.17395671963E+02  0.59301935306E+02  0.49999984094E+02 0.  0.
        -12    1    1    2    0    0 -0.15526803823E+02 -0.21749254738E+02  0.17395671963E+02  0.31886064694E+02  0.00000000000E+00 0.  1.
         11    1    3    3    0    0  0.32476282440E+01 -0.28102065233E+01  0.11800019414E+01  0.44538471861E+01  0.51100000000E-03 0. -1.
        -11    1    3    3    0    0 -0.37711190866E+00 -0.12189474270E+02 -0.79385920256E+01  0.14551520195E+02  0.51100000000E-03 0.  1.
         12    1    3    3    0    0  0.12656287488E+02  0.36748935531E+02 -0.10637081878E+02  0.40296567925E+02  0.00000000000E+00 0. -1.
</event>
<event>
 7    1  0.3750159E-013  0.5930195E+02  0.7816164E-02  0.1266605E+00
        -11   -1    0    0    0    0  0.00000000000E+00  0.00000000000E+00  0.45593999997E+02  0.45594000000E+02  0.51100000000E-03 0. -1.
         11   -1    0    0    0    0 -0.00000000000E+00 -0.00000000000E+00 -0.45593999997E+02  0.45594000000E+02  0.51100000000E-03 0.  1.
    9900012    2    1    2    0    0 -0.10336984845E+02 -0.10749395733E+02  0.28183639264E+02  0.59301948402E+02  0.50000007978E+02 0.  0.
        -12    1    1    2    0    0  0.10336984845E+02  0.10749395733E+02 -0.28183639264E+02  0.31886051598E+02  0.00000000000E+00 0.  1.
         11    1    3    3    0    0  0.41862571731E+01 -0.64310977679E+01 -0.30150847861E+01  0.82446651932E+01  0.51100000000E-03 0. -1.
        -11    1    3    3    0    0  0.10166941259E+02 -0.10566256755E+02  0.14372707988E+02  0.20532589012E+02  0.51100000000E-03 0.  1.
         12    1    3    3    0    0 -0.24690183277E+02  0.62479587905E+01  0.16826016063E+02  0.30524694197E+02  0.00000000000E+00 0. -1.
</event>
<event>
 7    1  0.3750159E-013  0.5930195E+02  0.7816164E-02  0.1266605E+00
        -11   -1    0    0    0    0  0.00000000000E+00  0.00000000000E+00  0.45593999997E+02  0.45594000000E+02  0.51100000000E-03 0.  1.
         11   -1    0    0    0    0 -0.00000000000E+00 -0.00000000000E+00 -0.45593999997E+02  0.45594000000E+02  0.51100000000E-03 0. -1.
    9900012    2    1    2    0    0  0.11044687417E+02  0.22860725381E+01 -0.29824633971E+02  0.59301952279E+02  0.50000015049E+02 0.  0.
        -12    1    1    2    0    0 -0.11044687417E+02 -0.22860725381E+01  0.29824633971E+02  0.31886047721E+02  0.00000000000E+00 0.  1.
         11    1    3    3    0    0  0.12201933901E+02  0.58400189531E+01  0.14017541325E+00  0.13528217240E+02  0.51100000000E-03 0. -1.
        -11    1    3    3    0    0  0.87751490804E+01  0.41802414162E+01  0.32535906466E+01  0.10250049368E+02  0.51100000000E-03 0.  1.
         12    1    3    3    0    0 -0.99323955650E+01 -0.77341878312E+01 -0.33218400030E+02  0.35523685671E+02  0.00000000000E+00 0. -1.
</event>
<event>
 7    1  0.3750159E-013  0.5930195E+02  0.7816164E-02  0.1266605E+00
        -11   -1    0    0    0    0  0.00000000000E+00  0.00000000000E+00  0.45593999997E+02  0.45594000000E+02  0.51100000000E-03 0. -1.
         11   -1    0    0    0    0 -0.00000000000E+00 -0.00000000000E+00 -0.45593999997E+02  0.45594000000E+02  0.51100000000E-03 0.  1.
    9900012    2    1    2    0    0  0.28408910379E+02 -0.50937465861E+01  0.13553889790E+02  0.59301947067E+02  0.50000005543E+02 0.  0.
        -12    1    1    2    0    0 -0.28408910379E+02  0.50937465861E+01 -0.13553889790E+02  0.31886052933E+02  0.00000000000E+00 0.  1.
         11    1    3    3    0    0  0.11686096936E+02  0.44437600625E+01  0.95221935019E+01  0.15715725705E+02  0.51100000000E-03 0.  1.
        -11    1    3    3    0    0  0.78324452317E+01 -0.75317816230E+01  0.21383806447E+02  0.23986290066E+02  0.51100000000E-03 0. -1.
        -12    1    3    3    0    0  0.88903682117E+01 -0.20057250257E+01 -0.17352110159E+02  0.19599931296E+02  0.00000000000E+00 0.  1.
</event>
<event>
 7    1  0.3750159E-013  0.5930194E+02  0.7816164E-02  0.1266605E+00
        -11   -1    0    0    0    0  0.00000000000E+00  0.00000000000E+00  0.45593999997E+02  0.45594000000E+02  0.51100000000E-03 0. -1.
         11   -1    0    0    0    0 -0.00000000000E+00 -0.00000000000E+00 -0.45593999997E+02  0.45594000000E+02  0.51100000000E-03 0.  1.
    9900012    2    1    2    0    0  0.28123949985E+02  0.14381880097E+02  0.43504033753E+01  0.59301936470E+02  0.49999986217E+02 0.  0.
        -12    1    1    2    0    0 -0.28123949985E+02 -0.14381880097E+02 -0.43504033753E+01  0.31886063530E+02  0.00000000000E+00 0.  1.
         11    1    3    3    0    0  0.85402229197E+01 -0.82931729350E+01 -0.14129224171E+02  0.18475581203E+02  0.51100000000E-03 0. -1.
        -11    1    3    3    0    0  0.72385952453E+01  0.14203153121E+01 -0.32103577568E+01  0.80449334304E+01  0.51100000000E-03 0.  1.
         12    1    3    3    0    0  0.12345131820E+02  0.21254737720E+02  0.21689985303E+02  0.32781421837E+02  0.00000000000E+00 0. -1.
</event>
<event>
 7    1  0.3750159E-013  0.5930194E+02  0.7816164E-02  0.1266605E+00
        -11   -1    0    0    0    0  0.00000000000E+00  0.00000000000E+00  0.45593999997E+02  0.45594000000E+02  0.51100000000E-03 0. -1.
         11   -1    0    0    0    0 -0.00000000000E+00 -0.00000000000E+00 -0.45593999997E+02  0.45594000000E+02  0.51100000000E-03 0.  1.
    9900012    2    1    2    0    0 -0.22170458131E+02 -0.22851649611E+02 -0.17301853060E+01  0.59301942782E+02  0.49999997729E+02 0.  0.
        -12    1    1    2    0    0  0.22170458131E+02  0.22851649611E+02  0.17301853060E+01  0.31886057218E+02  0.00000000000E+00 0.  1.
         11    1    3    3    0    0 -0.12235988656E+02 -0.40338220653E+01  0.37697532914E+01  0.13423940516E+02  0.51100000000E-03 0. -1.
        -11    1    3    3    0    0 -0.11465133870E+02 -0.27997240558E+02  0.62464296111E+01  0.30891951325E+02  0.51100000000E-03 0.  1.
        -12    1    3    3    0    0  0.15306643945E+01  0.91794130121E+01 -0.11746368209E+02  0.14986050942E+02  0.00000000000E+00 0.  1.
</event>
<event>
 7    1  0.3750159E-013  0.5930194E+02  0.7816164E-02  0.1266605E+00
        -11   -1    0    0    0    0  0.00000000000E+00  0.00000000000E+00  0.45593999997E+02  0.45594000000E+02  0.51100000000E-03 0.  1.
         11   -1    0    0    0    0 -0.00000000000E+00 -0.00000000000E+00 -0.45593999997E+02  0.45594000000E+02  0.51100000000E-03 0. -1.
    9900012    2    1    2    0    0  0.25119728800E+02 -0.19123620905E+02  0.44729496149E+01  0.59301938315E+02  0.49999989582E+02 0.  0.
        -12    1    1    2    0    0 -0.25119728800E+02  0.19123620905E+02 -0.44729496149E+01  0.31886061685E+02  0.00000000000E+00 0.  1.
         11    1    3    3    0    0  0.27752475722E+02 -0.16825305697E+02  0.16471328438E+02  0.36394992530E+02  0.51100000000E-03 0. -1.
        -11    1    3    3    0    0 -0.39970874438E+01 -0.10430294919E+02 -0.57621589236E+01  0.12568621080E+02  0.51100000000E-03 0.  1.
        -12    1    3    3    0    0  0.13643405217E+01  0.81319797110E+01 -0.62362198991E+01  0.10338324705E+02  0.00000000000E+00 0.  1.
</event>
<event>
 7    1  0.3750159E-013  0.5930194E+02  0.7816164E-02  0.1266605E+00
        -11   -1    0    0    0    0  0.00000000000E+00  0.00000000000E+00  0.45593999997E+02  0.45594000000E+02  0.51100000000E-03 0.  1.
         11   -1    0    0    0    0 -0.00000000000E+00 -0.00000000000E+00 -0.45593999997E+02  0.45594000000E+02  0.51100000000E-03 0. -1.
    9900012    2    1    2    0    0 -0.19617613725E+02  0.17994275145E+02 -0.17552103040E+02  0.59301936785E+02  0.49999986790E+02 0.  0.
        -12    1    1    2    0    0  0.19617613725E+02 -0.17994275145E+02  0.17552103040E+02  0.31886063215E+02  0.00000000000E+00 0.  1.
         11    1    3    3    0    0  0.25188642154E+01 -0.29146767252E+01 -0.11070156107E+02  0.11721278678E+02  0.51100000000E-03 0. -1.
        -11    1    3    3    0    0  0.28418339594E+01 -0.81856859771E+01 -0.25568282016E+01  0.90343149094E+01  0.51100000000E-03 0.  1.
         12    1    3    3    0    0 -0.24978311899E+02  0.29094637847E+02 -0.39251187313E+01  0.38546343197E+02  0.00000000000E+00 0. -1.
</event>
<event>
 7    1  0.3750159E-013  0.5930194E+02  0.7816164E-02  0.1266605E+00
        -11   -1    0    0    0    0  0.00000000000E+00  0.00000000000E+00  0.45593999997E+02  0.45594000000E+02  0.51100000000E-03 0.  1.
         11   -1    0    0    0    0 -0.00000000000E+00 -0.00000000000E+00 -0.45593999997E+02  0.45594000000E+02  0.51100000000E-03 0. -1.
    9900012    2    1    2    0    0  0.21763421985E+02  0.19330951638E+02 -0.13014943838E+02  0.59301937358E+02  0.49999987836E+02 0.  0.
        -12    1    1    2    0    0 -0.21763421985E+02 -0.19330951638E+02  0.13014943838E+02  0.31886062642E+02  0.00000000000E+00 0.  1.
         11    1    3    3    0    0  0.16480844837E+02 -0.10007156037E+02  0.92951185634E+00  0.19303507739E+02  0.51100000000E-03 0. -1.
        -11    1    3    3    0    0  0.29527095205E+01  0.12508190954E+02  0.56711300748E+01  0.14047599476E+02  0.51100000000E-03 0.  1.
         12    1    3    3    0    0  0.23298676274E+01  0.16829916721E+02 -0.19615585769E+02  0.25950830142E+02  0.00000000000E+00 0. -1.
</event>
<event>
 7    1  0.3750159E-013  0.5930193E+02  0.7816164E-02  0.1266605E+00
        -11   -1    0    0    0    0  0.00000000000E+00  0.00000000000E+00  0.45593999997E+02  0.45594000000E+02  0.51100000000E-03 0.  1.
         11   -1    0    0    0    0 -0.00000000000E+00 -0.00000000000E+00 -0.45593999997E+02  0.45594000000E+02  0.51100000000E-03 0. -1.
    9900012    2    1    2    0    0  0.76184879240E+01  0.20790786095E+02 -0.22943910792E+02  0.59301934280E+02  0.49999982222E+02 0.  0.
        -12    1    1    2    0    0 -0.76184879240E+01 -0.20790786095E+02  0.22943910792E+02  0.31886065720E+02  0.00000000000E+00 0.  1.
         11    1    3    3    0    0 -0.11438712933E+02  0.15594655648E+01 -0.62996106819E+01  0.13151470694E+02  0.51100000000E-03 0. -1.
        -11    1    3    3    0    0 -0.71133871289E+01  0.10223289527E+01  0.39449659889E+01  0.81980601271E+01  0.51100000000E-03 0.  1.
         12    1    3    3    0    0  0.26170587986E+02  0.18208991577E+02 -0.20589266099E+02  0.37952403459E+02  0.00000000000E+00 0. -1.
</event>
<event>
 7    1  0.3750159E-013  0.5930192E+02  0.7816164E-02  0.1266605E+00
        -11   -1    0    0    0    0  0.00000000000E+00  0.00000000000E+00  0.45593999997E+02  0.45594000000E+02  0.51100000000E-03 0. -1.
         11   -1    0    0    0    0 -0.00000000000E+00 -0.00000000000E+00 -0.45593999997E+02  0.45594000000E+02  0.51100000000E-03 0.  1.
    9900012    2    1    2    0    0 -0.20533236348E+02  0.94333068338E+01  0.22497136061E+02  0.59301918339E+02  0.49999953150E+02 0.  0.
        -12    1    1    2    0    0  0.20533236348E+02 -0.94333068338E+01 -0.22497136061E+02  0.31886081661E+02  0.00000000000E+00 0.  1.
         11    1    3    3    0    0 -0.33366811122E+01  0.11568129594E+02 -0.39155649868E+01  0.12660438877E+02  0.51100000000E-03 0. -1.
        -11    1    3    3    0    0  0.91722232228E+01  0.51149244428E+01  0.38412212669E+01  0.11182446601E+02  0.51100000000E-03 0.  1.
        -12    1    3    3    0    0 -0.26368778459E+02 -0.72497472025E+01  0.22571479781E+02  0.35459032861E+02  0.00000000000E+00 0.  1.
</event>
<event>
 7    1  0.3750159E-013  0.5930195E+02  0.7816164E-02  0.1266605E+00
        -11   -1    0    0    0    0  0.00000000000E+00  0.00000000000E+00  0.45593999997E+02  0.45594000000E+02  0.51100000000E-03 0.  1.
         11   -1    0    0    0    0 -0.00000000000E+00 -0.00000000000E+00 -0.45593999997E+02  0.45594000000E+02  0.51100000000E-03 0. -1.
    9900012    2    1    2    0    0  0.10785413784E+02 -0.27018343191E+02  0.13053903715E+02  0.59301946286E+02  0.50000004119E+02 0.  0.
        -12    1    1    2    0    0 -0.10785413784E+02  0.27018343191E+02 -0.13053903715E+02  0.31886053714E+02  0.00000000000E+00 0.  1.
         11    1    3    3    0    0  0.10934079114E+02 -0.10708788937E+02  0.11149447531E+02  0.18935216584E+02  0.51100000000E-03 0. -1.
        -11    1    3    3    0    0  0.14270367836E+02 -0.11366292511E+02 -0.10200691516E+02  0.20901916450E+02  0.51100000000E-03 0.  1.
        -12    1    3    3    0    0 -0.14419033166E+02 -0.49432617426E+01  0.12105147700E+02  0.19464813252E+02  0.00000000000E+00 0.  1.
</event>
<event>
 7    1  0.3750159E-013  0.5930196E+02  0.7816164E-02  0.1266605E+00
        -11   -1    0    0    0    0  0.00000000000E+00  0.00000000000E+00  0.45593999997E+02  0.45594000000E+02  0.51100000000E-03 0.  1.
         11   -1    0    0    0    0 -0.00000000000E+00 -0.00000000000E+00 -0.45593999997E+02  0.45594000000E+02  0.51100000000E-03 0. -1.
    9900012    2    1    2    0    0 -0.10792946731E+02  0.29827875267E+02 -0.32449746380E+01  0.59301957561E+02  0.50000024681E+02 0.  0.
        -12    1    1    2    0    0  0.10792946731E+02 -0.29827875267E+02  0.32449746380E+01  0.31886042439E+02  0.00000000000E+00 0.  1.
         11    1    3    3    0    0 -0.18632582742E+01 -0.53527596482E+01  0.38564390123E+01  0.68553547950E+01  0.51100000000E-03 0. -1.
        -11    1    3    3    0    0 -0.19121208060E+02  0.15405461124E+02  0.76902711611E+01  0.25731092105E+02  0.51100000000E-03 0.  1.
         12    1    3    3    0    0  0.10191519604E+02  0.19775173791E+02 -0.14791684811E+02  0.26715510661E+02  0.00000000000E+00 0. -1.
</event>
<event>
 7    1  0.3750159E-013  0.5930195E+02  0.7816164E-02  0.1266605E+00
        -11   -1    0    0    0    0  0.00000000000E+00  0.00000000000E+00  0.45593999997E+02  0.45594000000E+02  0.51100000000E-03 0.  1.
         11   -1    0    0    0    0 -0.00000000000E+00 -0.00000000000E+00 -0.45593999997E+02  0.45594000000E+02  0.51100000000E-03 0. -1.
    9900012    2    1    2    0    0  0.17633198074E+02  0.76383084614E+01 -0.25444977021E+02  0.59301948409E+02  0.50000007990E+02 0.  0.
        -12    1    1    2    0    0 -0.17633198074E+02 -0.76383084614E+01  0.25444977021E+02  0.31886051591E+02  0.00000000000E+00 0.  1.
         11    1    3    3    0    0  0.21780189281E+02 -0.27831656880E+01 -0.19637198276E+02  0.29457464466E+02  0.51100000000E-03 0. -1.
        -11    1    3    3    0    0  0.65067001806E+01 -0.58934052312E+01 -0.54946764420E+01  0.10356681028E+02  0.51100000000E-03 0.  1.
        -12    1    3    3    0    0 -0.10653691388E+02  0.16314879381E+02 -0.31310230331E+00  0.19487802915E+02  0.00000000000E+00 0.  1.
</event>
<event>
 7    1  0.3750159E-013  0.5930195E+02  0.7816164E-02  0.1266605E+00
        -11   -1    0    0    0    0  0.00000000000E+00  0.00000000000E+00  0.45593999997E+02  0.45594000000E+02  0.51100000000E-03 0.  1.
         11   -1    0    0    0    0 -0.00000000000E+00 -0.00000000000E+00 -0.45593999997E+02  0.45594000000E+02  0.51100000000E-03 0. -1.
    9900012    2    1    2    0    0 -0.51829752235E+01  0.36439259480E+01 -0.31250262477E+02  0.59301947667E+02  0.50000006638E+02 0.  0.
        -12    1    1    2    0    0  0.51829752235E+01 -0.36439259480E+01  0.31250262477E+02  0.31886052333E+02  0.00000000000E+00 0.  1.
         11    1    3    3    0    0 -0.12367737120E+02 -0.99282214713E+00 -0.21022028156E+02  0.24410495393E+02  0.51100000000E-03 0. -1.
        -11    1    3    3    0    0  0.11891453646E+01  0.16966016651E+02 -0.12349774659E+02  0.21018485247E+02  0.51100000000E-03 0.  1.
         12    1    3    3    0    0  0.59956165320E+01 -0.12329268556E+02  0.21215403385E+01  0.13872967027E+02  0.00000000000E+00 0. -1.
</event>
<event>
 7    1  0.3750159E-013  0.5930196E+02  0.7816164E-02  0.1266605E+00
        -11   -1    0    0    0    0  0.00000000000E+00  0.00000000000E+00  0.45593999997E+02  0.45594000000E+02  0.51100000000E-03 0.  1.
         11   -1    0    0    0    0 -0.00000000000E+00 -0.00000000000E+00 -0.45593999997E+02  0.45594000000E+02  0.51100000000E-03 0. -1.
    9900012    2    1    2    0    0  0.14223747315E+01 -0.31766494157E+02  0.23635102730E+01  0.59301961021E+02  0.50000030992E+02 0.  0.
        -12    1    1    2    0    0 -0.14223747315E+01  0.31766494157E+02 -0.23635102730E+01  0.31886038979E+02  0.00000000000E+00 0.  1.
         11    1    3    3    0    0  0.47629667555E+01  0.10825288884E+01  0.72503834037E+01  0.87421839875E+01  0.51100000000E-03 0. -1.
        -11    1    3    3    0    0 -0.11101256061E+02 -0.17922527301E+02  0.13968783154E+02  0.25289954014E+02  0.51100000000E-03 0.  1.
         12    1    3    3    0    0  0.77606640371E+01 -0.14926495745E+02 -0.18855656285E+02  0.25269823020E+02  0.00000000000E+00 0. -1.
</event>
<event>
 7    1  0.3750159E-013  0.5930195E+02  0.7816164E-02  0.1266605E+00
        -11   -1    0    0    0    0  0.00000000000E+00  0.00000000000E+00  0.45593999997E+02  0.45594000000E+02  0.51100000000E-03 0.  1.
         11   -1    0    0    0    0 -0.00000000000E+00 -0.00000000000E+00 -0.45593999997E+02  0.45594000000E+02  0.51100000000E-03 0. -1.
    9900012    2    1    2    0    0  0.24514110468E+02 -0.16962586831E+02 -0.11315894752E+02  0.59301946025E+02  0.50000003643E+02 0.  0.
        -12    1    1    2    0    0 -0.24514110468E+02  0.16962586831E+02  0.11315894752E+02  0.31886053975E+02  0.00000000000E+00 0.  1.
         11    1    3    3    0    0 -0.16967179920E+00 -0.13271868386E+02  0.20745712212E+01  0.13434103059E+02  0.51100000000E-03 0. -1.
        -11    1    3    3    0    0  0.21719546909E+02 -0.18476496592E+02 -0.62943518008E+01  0.29201686751E+02  0.51100000000E-03 0.  1.
         12    1    3    3    0    0  0.29642353582E+01  0.14785778147E+02 -0.70961141719E+01  0.16666156216E+02  0.00000000000E+00 0. -1.
</event>
<event>
 7    1  0.3750159E-013  0.5930198E+02  0.7816164E-02  0.1266605E+00
        -11   -1    0    0    0    0  0.00000000000E+00  0.00000000000E+00  0.45593999997E+02  0.45594000000E+02  0.51100000000E-03 0. -1.
         11   -1    0    0    0    0 -0.00000000000E+00 -0.00000000000E+00 -0.45593999997E+02  0.45594000000E+02  0.51100000000E-03 0.  1.
    9900012    2    1    2    0    0 -0.20450487793E+02 -0.22732564265E+02  0.90402751836E+01  0.59301976346E+02  0.50000058941E+02 0.  0.
        -12    1    1    2    0    0  0.20450487793E+02  0.22732564265E+02 -0.90402751836E+01  0.31886023654E+02  0.00000000000E+00 0.  1.
         11    1    3    3    0    0 -0.15047124746E+02 -0.16979574504E+02  0.12885885140E+02  0.26091530226E+02  0.51100000000E-03 0. -1.
        -11    1    3    3    0    0 -0.93988294187E+01 -0.53392854246E+01  0.12414787136E+02  0.16461254605E+02  0.51100000000E-03 0.  1.
        -12    1    3    3    0    0  0.39954663713E+01 -0.41370433649E+00 -0.16260397092E+02  0.16749191515E+02  0.00000000000E+00 0.  1.
</event>
<event>
 7    1  0.3750159E-013  0.5930205E+02  0.7816164E-02  0.1266604E+00
        -11   -1    0    0    0    0  0.00000000000E+00  0.00000000000E+00  0.45593999997E+02  0.45594000000E+02  0.51100000000E-03 0.  1.
         11   -1    0    0    0    0 -0.00000000000E+00 -0.00000000000E+00 -0.45593999997E+02  0.45594000000E+02  0.51100000000E-03 0. -1.
    9900012    2    1    2    0    0 -0.13227644871E+02 -0.27760895954E+02 -0.84306614291E+01  0.59302047213E+02  0.50000188185E+02 0.  0.
        -12    1    1    2    0    0  0.13227644871E+02  0.27760895954E+02  0.84306614291E+01  0.31885952787E+02  0.00000000000E+00 0.  1.
         11    1    3    3    0    0 -0.17129341430E+02 -0.25772206997E+02 -0.46162328375E+01  0.31287866613E+02  0.51100000000E-03 0. -1.
        -11    1    3    3    0    0 -0.33327565869E+01 -0.81814232831E+00  0.10980173786E+02  0.11503948886E+02  0.51100000000E-03 0.  1.
        -12    1    3    3    0    0  0.72344531461E+01 -0.11705466287E+01 -0.14794602378E+02  0.16510231714E+02  0.00000000000E+00 0.  1.
</event>
<event>
 7    1  0.3750159E-013  0.5930197E+02  0.7816164E-02  0.1266605E+00
        -11   -1    0    0    0    0  0.00000000000E+00  0.00000000000E+00  0.45593999997E+02  0.45594000000E+02  0.51100000000E-03 0.  1.
         11   -1    0    0    0    0 -0.00000000000E+00 -0.00000000000E+00 -0.45593999997E+02  0.45594000000E+02  0.51100000000E-03 0. -1.
    9900012    2    1    2    0    0  0.29597651934E+02 -0.10975447765E+02  0.44986276992E+01  0.59301966932E+02  0.50000041773E+02 0.  0.
        -12    1    1    2    0    0 -0.29597651934E+02  0.10975447765E+02 -0.44986276992E+01  0.31886033068E+02  0.00000000000E+00 0.  1.
         11    1    3    3    0    0  0.12403205173E+02 -0.11689638664E+02  0.18119056940E+02  0.24875437189E+02  0.51100000000E-03 0.  1.
        -11    1    3    3    0    0  0.97807927481E+01 -0.46832429334E+01 -0.20345173816E+02  0.23054777574E+02  0.51100000000E-03 0. -1.
         12    1    3    3    0    0  0.74136540121E+01  0.53974338334E+01  0.67247445749E+01  0.11371752169E+02  0.00000000000E+00 0. -1.
</event>
<event>
 7    1  0.3750159E-013  0.5930195E+02  0.7816164E-02  0.1266605E+00
        -11   -1    0    0    0    0  0.00000000000E+00  0.00000000000E+00  0.45593999997E+02  0.45594000000E+02  0.51100000000E-03 0.  1.
         11   -1    0    0    0    0 -0.00000000000E+00 -0.00000000000E+00 -0.45593999997E+02  0.45594000000E+02  0.51100000000E-03 0. -1.
    9900012    2    1    2    0    0  0.12778581695E+01  0.57679521986E+01 -0.31333978601E+02  0.59301946480E+02  0.50000004473E+02 0.  0.
        -12    1    1    2    0    0 -0.12778581695E+01 -0.57679521986E+01  0.31333978601E+02  0.31886053520E+02  0.00000000000E+00 0.  1.
         11    1    3    3    0    0 -0.20395970118E+01 -0.16401111793E+01 -0.37290676425E+01  0.45558606645E+01  0.51100000000E-03 0.  1.
        -11    1    3    3    0    0 -0.20524141130E+02  0.10319885085E+02 -0.16501978394E+02  0.28285255672E+02  0.51100000000E-03 0. -1.
         12    1    3    3    0    0  0.23841596311E+02 -0.29118217070E+01 -0.11102932565E+02  0.26460830143E+02  0.00000000000E+00 0. -1.
</event>
<event>
 7    1  0.3750159E-013  0.5930194E+02  0.7816164E-02  0.1266605E+00
        -11   -1    0    0    0    0  0.00000000000E+00  0.00000000000E+00  0.45593999997E+02  0.45594000000E+02  0.51100000000E-03 0.  1.
         11   -1    0    0    0    0 -0.00000000000E+00 -0.00000000000E+00 -0.45593999997E+02  0.45594000000E+02  0.51100000000E-03 0. -1.
    9900012    2    1    2    0    0  0.74468553373E+01 -0.20923220236E+02 -0.22879772476E+02  0.59301940538E+02  0.49999993636E+02 0.  0.
        -12    1    1    2    0    0 -0.74468553373E+01  0.20923220236E+02  0.22879772476E+02  0.31886059462E+02  0.00000000000E+00 0.  1.
         11    1    3    3    0    0  0.85358749457E+01  0.12541702014E+01 -0.44550554719E+01  0.97098724760E+01  0.51100000000E-03 0. -1.
        -11    1    3    3    0    0 -0.80425331609E+01 -0.24065158878E+02  0.43153216308E+01  0.25737836205E+02  0.51100000000E-03 0.  1.
         12    1    3    3    0    0  0.69535135525E+01  0.18877684400E+01 -0.22740038635E+02  0.23854231857E+02  0.00000000000E+00 0. -1.
</event>
<event>
 7    1  0.3750159E-013  0.5930197E+02  0.7816164E-02  0.1266605E+00
        -11   -1    0    0    0    0  0.00000000000E+00  0.00000000000E+00  0.45593999997E+02  0.45594000000E+02  0.51100000000E-03 0.  1.
         11   -1    0    0    0    0 -0.00000000000E+00 -0.00000000000E+00 -0.45593999997E+02  0.45594000000E+02  0.51100000000E-03 0. -1.
    9900012    2    1    2    0    0 -0.19798801150E+02 -0.54785051537E+01 -0.24386729681E+02  0.59301966534E+02  0.50000041046E+02 0.  0.
        -12    1    1    2    0    0  0.19798801150E+02  0.54785051537E+01  0.24386729681E+02  0.31886033466E+02  0.00000000000E+00 0.  1.
         11    1    3    3    0    0  0.62348400810E+01  0.66828674045E+01 -0.88431504362E+01  0.12717517740E+02  0.51100000000E-03 0. -1.
        -11    1    3    3    0    0  0.53287693674E+01  0.56711572051E+01 -0.36632747633E+01  0.86010109446E+01  0.51100000000E-03 0.  1.
        -12    1    3    3    0    0 -0.31362410598E+02 -0.17832529763E+02 -0.11880304481E+02  0.37983437849E+02  0.00000000000E+00 0.  1.
</event>
<event>
 7    1  0.3750159E-013  0.5930194E+02  0.7816164E-02  0.1266605E+00
        -11   -1    0    0    0    0  0.00000000000E+00  0.00000000000E+00  0.45593999997E+02  0.45594000000E+02  0.51100000000E-03 0.  1.
         11   -1    0    0    0    0 -0.00000000000E+00 -0.00000000000E+00 -0.45593999997E+02  0.45594000000E+02  0.51100000000E-03 0. -1.
    9900012    2    1    2    0    0 -0.26893997299E+02  0.67861329211E+01 -0.15728382767E+02  0.59301941680E+02  0.49999995718E+02 0.  0.
        -12    1    1    2    0    0  0.26893997299E+02 -0.67861329211E+01  0.15728382767E+02  0.31886058320E+02  0.00000000000E+00 0.  1.
         11    1    3    3    0    0 -0.26027889345E+02  0.32709709706E+01 -0.18379422512E+02  0.32030508067E+02  0.51100000000E-03 0. -1.
        -11    1    3    3    0    0 -0.99156974999E+01 -0.47892522807E+01  0.82634549344E+01  0.13767450092E+02  0.51100000000E-03 0.  1.
        -12    1    3    3    0    0  0.90495895465E+01  0.83044142312E+01 -0.56124151897E+01  0.13503983521E+02  0.00000000000E+00 0.  1.
</event>
<event>
 7    1  0.3750159E-013  0.5930194E+02  0.7816164E-02  0.1266605E+00
        -11   -1    0    0    0    0  0.00000000000E+00  0.00000000000E+00  0.45593999997E+02  0.45594000000E+02  0.51100000000E-03 0. -1.
         11   -1    0    0    0    0 -0.00000000000E+00 -0.00000000000E+00 -0.45593999997E+02  0.45594000000E+02  0.51100000000E-03 0.  1.
    9900012    2    1    2    0    0  0.31182849201E+02  0.23685206113E+01  0.62242176592E+01  0.59301939414E+02  0.49999991587E+02 0.  0.
        -12    1    1    2    0    0 -0.31182849201E+02 -0.23685206113E+01 -0.62242176592E+01  0.31886060586E+02  0.00000000000E+00 0.  1.
         11    1    3    3    0    0  0.66798271223E+01 -0.62453595737E+01  0.14933971809E+02  0.17511371187E+02  0.51100000000E-03 0. -1.
        -11    1    3    3    0    0  0.76177659456E+01 -0.18384495360E+01  0.11200504433E+02  0.13669731325E+02  0.51100000000E-03 0.  1.
        -12    1    3    3    0    0  0.16885256133E+02  0.10452329721E+02 -0.19910258582E+02  0.28120836903E+02  0.00000000000E+00 0.  1.
</event>
<event>
 7    1  0.3750159E-013  0.5930194E+02  0.7816164E-02  0.1266605E+00
        -11   -1    0    0    0    0  0.00000000000E+00  0.00000000000E+00  0.45593999997E+02  0.45594000000E+02  0.51100000000E-03 0. -1.
         11   -1    0    0    0    0 -0.00000000000E+00 -0.00000000000E+00 -0.45593999997E+02  0.45594000000E+02  0.51100000000E-03 0.  1.
    9900012    2    1    2    0    0  0.48383765968E+01 -0.84340379045E+01  0.30367379693E+02  0.59301942971E+02  0.49999998072E+02 0.  0.
        -12    1    1    2    0    0 -0.48383765968E+01  0.84340379045E+01 -0.30367379693E+02  0.31886057029E+02  0.00000000000E+00 0.  1.
         11    1    3    3    0    0  0.10810252804E+02 -0.11238470742E+02  0.26117304821E+02  0.30418389202E+02  0.51100000000E-03 0. -1.
        -11    1    3    3    0    0  0.73436334308E+01  0.10697890284E+02  0.32231141167E+01  0.13370200947E+02  0.51100000000E-03 0.  1.
         12    1    3    3    0    0 -0.13315509638E+02 -0.78934574460E+01  0.10269607555E+01  0.15513352821E+02  0.00000000000E+00 0. -1.
</event>
<event>
 7    1  0.3750159E-013  0.5930205E+02  0.7816164E-02  0.1266604E+00
        -11   -1    0    0    0    0  0.00000000000E+00  0.00000000000E+00  0.45593999997E+02  0.45594000000E+02  0.51100000000E-03 0. -1.
         11   -1    0    0    0    0 -0.00000000000E+00 -0.00000000000E+00 -0.45593999997E+02  0.45594000000E+02  0.51100000000E-03 0.  1.
    9900012    2    1    2    0    0 -0.11674525226E+02  0.29605866602E+02 -0.19778564180E+01  0.59302050234E+02  0.50000193694E+02 0.  0.
        -12    1    1    2    0    0  0.11674525226E+02 -0.29605866602E+02  0.19778564180E+01  0.31885949766E+02  0.00000000000E+00 0.  1.
         11    1    3    3    0    0  0.13547157048E+02  0.30530732862E+01 -0.44062008639E+01  0.14569191017E+02  0.51100000000E-03 0.  1.
        -11    1    3    3    0    0 -0.33112505574E+01  0.20946411779E+02 -0.31487984064E+01  0.21439017662E+02  0.51100000000E-03 0. -1.
         12    1    3    3    0    0 -0.21910431717E+02  0.56063815368E+01  0.55771428524E+01  0.23293841554E+02  0.00000000000E+00 0. -1.
</event>
<event>
 7    1  0.3750159E-013  0.5930193E+02  0.7816164E-02  0.1266605E+00
        -11   -1    0    0    0    0  0.00000000000E+00  0.00000000000E+00  0.45593999997E+02  0.45594000000E+02  0.51100000000E-03 0.  1.
         11   -1    0    0    0    0 -0.00000000000E+00 -0.00000000000E+00 -0.45593999997E+02  0.45594000000E+02  0.51100000000E-03 0. -1.
    9900012    2    1    2    0    0 -0.19266139842E+02 -0.16689789114E+02 -0.19156934826E+02  0.59301931615E+02  0.49999977363E+02 0.  0.
        -12    1    1    2    0    0  0.19266139842E+02  0.16689789114E+02  0.19156934826E+02  0.31886068385E+02  0.00000000000E+00 0.  1.
         11    1    3    3    0    0 -0.10741070086E+02 -0.11414742317E+02 -0.26946543688E+02  0.31173436541E+02  0.51100000000E-03 0. -1.
        -11    1    3    3    0    0  0.22729437292E+01 -0.12389406018E+02 -0.77236388708E+00  0.12619833633E+02  0.51100000000E-03 0.  1.
        -12    1    3    3    0    0 -0.10798013485E+02  0.71143592217E+01  0.85619727492E+01  0.15508661442E+02  0.00000000000E+00 0.  1.
</event>
<event>
 7    1  0.3750159E-013  0.5930197E+02  0.7816164E-02  0.1266605E+00
        -11   -1    0    0    0    0  0.00000000000E+00  0.00000000000E+00  0.45593999997E+02  0.45594000000E+02  0.51100000000E-03 0. -1.
         11   -1    0    0    0    0 -0.00000000000E+00 -0.00000000000E+00 -0.45593999997E+02  0.45594000000E+02  0.51100000000E-03 0.  1.
    9900012    2    1    2    0    0 -0.22293742572E+02  0.21474856709E+02  0.76510601673E+01  0.59301966220E+02  0.50000040474E+02 0.  0.
        -12    1    1    2    0    0  0.22293742572E+02 -0.21474856709E+02 -0.76510601673E+01  0.31886033780E+02  0.00000000000E+00 0.  1.
         11    1    3    3    0    0 -0.22214783833E+02 -0.71938850559E+00 -0.38820539496E+01  0.22562900605E+02  0.51100000000E-03 0. -1.
        -11    1    3    3    0    0  0.58025258922E+01 -0.37726391826E+01 -0.15211559514E+01  0.70863268920E+01  0.51100000000E-03 0.  1.
         12    1    3    3    0    0 -0.58814846306E+01  0.25966884397E+02  0.13054270068E+02  0.29652738723E+02  0.00000000000E+00 0. -1.
</event>
<event>
 7    1  0.3750159E-013  0.5930194E+02  0.7816164E-02  0.1266605E+00
        -11   -1    0    0    0    0  0.00000000000E+00  0.00000000000E+00  0.45593999997E+02  0.45594000000E+02  0.51100000000E-03 0.  1.
         11   -1    0    0    0    0 -0.00000000000E+00 -0.00000000000E+00 -0.45593999997E+02  0.45594000000E+02  0.51100000000E-03 0. -1.
    9900012    2    1    2    0    0 -0.14959856468E+02 -0.28136643906E+02 -0.11192019526E+01  0.59301942720E+02  0.49999997615E+02 0.  0.
        -12    1    1    2    0    0  0.14959856468E+02  0.28136643906E+02  0.11192019526E+01  0.31886057280E+02  0.00000000000E+00 0.  1.
         11    1    3    3    0    0 -0.75386465135E+01 -0.20603956772E+02 -0.13122743090E+02  0.25564831554E+02  0.51100000000E-03 0. -1.
        -11    1    3    3    0    0 -0.27705756643E+01  0.11425214084E+02  0.66033125721E+01  0.13483892003E+02  0.51100000000E-03 0.  1.
         12    1    3    3    0    0 -0.46506342900E+01 -0.18957901218E+02  0.54002285658E+01  0.20253219163E+02  0.00000000000E+00 0. -1.
</event>
<event>
 7    1  0.3750159E-013  0.5930196E+02  0.7816164E-02  0.1266605E+00
        -11   -1    0    0    0    0  0.00000000000E+00  0.00000000000E+00  0.45593999997E+02  0.45594000000E+02  0.51100000000E-03 0.  1.
         11   -1    0    0    0    0 -0.00000000000E+00 -0.00000000000E+00 -0.45593999997E+02  0.45594000000E+02  0.51100000000E-03 0. -1.
    9900012    2    1    2    0    0  0.80036831310E+01  0.23471201480E+02 -0.20044031157E+02  0.59301961871E+02  0.50000032542E+02 0.  0.
        -12    1    1    2    0    0 -0.80036831310E+01 -0.23471201480E+02  0.20044031157E+02  0.31886038129E+02  0.00000000000E+00 0.  1.
         11    1    3    3    0    0 -0.32803748084E+01  0.10157255067E+01 -0.27652000343E+02  0.27864416025E+02  0.51100000000E-03 0. -1.
        -11    1    3    3    0    0  0.49084998476E+01 -0.54041769504E+00  0.56353199010E+01  0.74928134026E+01  0.51100000000E-03 0.  1.
        -12    1    3    3    0    0  0.63755580919E+01  0.22995893668E+02  0.19726492857E+01  0.23944732443E+02  0.00000000000E+00 0.  1.
</event>
<event>
 7    1  0.3750159E-013  0.5930191E+02  0.7816164E-02  0.1266605E+00
        -11   -1    0    0    0    0  0.00000000000E+00  0.00000000000E+00  0.45593999997E+02  0.45594000000E+02  0.51100000000E-03 0.  1.
         11   -1    0    0    0    0 -0.00000000000E+00 -0.00000000000E+00 -0.45593999997E+02  0.45594000000E+02  0.51100000000E-03 0. -1.
    9900012    2    1    2    0    0  0.26381791094E+02  0.23359975278E+01  0.17755755717E+02  0.59301911390E+02  0.49999940477E+02 0.  0.
        -12    1    1    2    0    0 -0.26381791094E+02 -0.23359975278E+01 -0.17755755717E+02  0.31886088610E+02  0.00000000000E+00 0.  1.
         11    1    3    3    0    0  0.24167856872E+02  0.76620453551E+01 -0.52097324998E+01  0.25883074736E+02  0.51100000000E-03 0. -1.
        -11    1    3    3    0    0  0.11752288427E+02  0.17500366135E+01  0.80477152393E+01  0.14350771138E+02  0.51100000000E-03 0.  1.
        -12    1    3    3    0    0 -0.95383542048E+01 -0.70760844408E+01  0.14917772977E+02  0.19068065517E+02  0.00000000000E+00 0.  1.
</event>
<event>
 7    1  0.3750159E-013  0.5930195E+02  0.7816164E-02  0.1266605E+00
        -11   -1    0    0    0    0  0.00000000000E+00  0.00000000000E+00  0.45593999997E+02  0.45594000000E+02  0.51100000000E-03 0.  1.
         11   -1    0    0    0    0 -0.00000000000E+00 -0.00000000000E+00 -0.45593999997E+02  0.45594000000E+02  0.51100000000E-03 0. -1.
    9900012    2    1    2    0    0 -0.68610025815E+01  0.21299300550E+02 -0.22715339051E+02  0.59301949938E+02  0.50000010780E+02 0.  0.
        -12    1    1    2    0    0  0.68610025815E+01 -0.21299300550E+02  0.22715339051E+02  0.31886050062E+02  0.00000000000E+00 0.  1.
         11    1    3    3    0    0 -0.11415809182E+02  0.99851750296E+01 -0.55746275796E+01  0.16158616666E+02  0.51100000000E-03 0. -1.
        -11    1    3    3    0    0  0.30541101642E+01 -0.46964486866E+01  0.10077345736E+02  0.11529835927E+02  0.51100000000E-03 0.  1.
        -12    1    3    3    0    0  0.15006964365E+01  0.16010574207E+02 -0.27218057208E+02  0.31613497345E+02  0.00000000000E+00 0.  1.
</event>
<event>
 7    1  0.3750159E-013  0.5930195E+02  0.7816164E-02  0.1266605E+00
        -11   -1    0    0    0    0  0.00000000000E+00  0.00000000000E+00  0.45593999997E+02  0.45594000000E+02  0.51100000000E-03 0. -1.
         11   -1    0    0    0    0 -0.00000000000E+00 -0.00000000000E+00 -0.45593999997E+02  0.45594000000E+02  0.51100000000E-03 0.  1.
    9900012    2    1    2    0    0  0.13012425018E+02  0.14777422907E+02  0.25080361626E+02  0.59301953335E+02  0.50000016974E+02 0.  0.
        -12    1    1    2    0    0 -0.13012425018E+02 -0.14777422907E+02 -0.25080361626E+02  0.31886046665E+02  0.00000000000E+00 0.  1.
         11    1    3    3    0    0  0.46804647038E+01  0.11881640475E+02 -0.81873065240E+00  0.12796501489E+02  0.51100000000E-03 0. -1.
        -11    1    3    3    0    0  0.48487633573E+01 -0.11044317741E+02 -0.45061307176E+01  0.12876050434E+02  0.51100000000E-03 0.  1.
         12    1    3    3    0    0  0.34831969572E+01  0.13940100174E+02  0.30405222996E+02  0.33629401412E+02  0.00000000000E+00 0. -1.
</event>
<event>
 7    1  0.3750159E-013  0.5930196E+02  0.7816164E-02  0.1266605E+00
        -11   -1    0    0    0    0  0.00000000000E+00  0.00000000000E+00  0.45593999997E+02  0.45594000000E+02  0.51100000000E-03 0. -1.
         11   -1    0    0    0    0 -0.00000000000E+00 -0.00000000000E+00 -0.45593999997E+02  0.45594000000E+02  0.51100000000E-03 0.  1.
    9900012    2    1    2    0    0 -0.15958669909E+02 -0.81988496757E+01  0.26359428975E+02  0.59301956389E+02  0.50000022544E+02 0.  0.
        -12    1    1    2    0    0  0.15958669909E+02  0.81988496757E+01 -0.26359428975E+02  0.31886043611E+02  0.00000000000E+00 0.  1.
         11    1    3    3    0    0  0.75591727968E+01  0.16867860614E+01  0.21743800050E+02  0.23082009909E+02  0.51100000000E-03 0. -1.
        -11    1    3    3    0    0 -0.28933631068E+01 -0.99571272350E+01 -0.70368095836E+01  0.12531265787E+02  0.51100000000E-03 0.  1.
        -12    1    3    3    0    0 -0.20624479599E+02  0.71491497866E-01  0.11652438509E+02  0.23688680693E+02  0.00000000000E+00 0.  1.
</event>
<event>
 7    1  0.3750159E-013  0.5930200E+02  0.7816164E-02  0.1266605E+00
        -11   -1    0    0    0    0  0.00000000000E+00  0.00000000000E+00  0.45593999997E+02  0.45594000000E+02  0.51100000000E-03 0.  1.
         11   -1    0    0    0    0 -0.00000000000E+00 -0.00000000000E+00 -0.45593999997E+02  0.45594000000E+02  0.51100000000E-03 0. -1.
    9900012    2    1    2    0    0 -0.22086134051E+02  0.19588066047E+02  0.12051029046E+02  0.59302000724E+02  0.50000103400E+02 0.  0.
        -12    1    1    2    0    0  0.22086134051E+02 -0.19588066047E+02 -0.12051029046E+02  0.31885999276E+02  0.00000000000E+00 0.  1.
         11    1    3    3    0    0 -0.43046319327E+00  0.18680268644E+01 -0.16490140509E+01  0.25286499418E+01  0.51100000000E-03 0. -1.
        -11    1    3    3    0    0 -0.33680871669E+02  0.82349684118E+01 -0.21410274113E+01  0.34739024450E+02  0.51100000000E-03 0.  1.
        -12    1    3    3    0    0  0.12025200811E+02  0.94850707704E+01  0.15841070508E+02  0.22034326332E+02  0.00000000000E+00 0.  1.
</event>
<event>
 7    1  0.3750159E-013  0.5930194E+02  0.7816164E-02  0.1266605E+00
        -11   -1    0    0    0    0  0.00000000000E+00  0.00000000000E+00  0.45593999997E+02  0.45594000000E+02  0.51100000000E-03 0.  1.
         11   -1    0    0    0    0 -0.00000000000E+00 -0.00000000000E+00 -0.45593999997E+02  0.45594000000E+02  0.51100000000E-03 0. -1.
    9900012    2    1    2    0    0 -0.24146025790E+02 -0.12775629291E+02  0.16446080649E+02  0.59301939818E+02  0.49999992322E+02 0.  0.
        -12    1    1    2    0    0  0.24146025790E+02  0.12775629291E+02 -0.16446080649E+02  0.31886060182E+02  0.00000000000E+00 0.  1.
         11    1    3    3    0    0  0.10384995323E+02 -0.39636197522E+01 -0.47316209837E+01  0.12080838000E+02  0.51100000000E-03 0. -1.
        -11    1    3    3    0    0 -0.28391975453E+01 -0.83565887756E+01  0.10631543556E+02  0.13817501124E+02  0.51100000000E-03 0.  1.
         12    1    3    3    0    0 -0.31691823568E+02 -0.45542076301E+00  0.10546158077E+02  0.33403600693E+02  0.00000000000E+00 0. -1.
</event>
<event>
 7    1  0.3750159E-013  0.5930200E+02  0.7816164E-02  0.1266605E+00
        -11   -1    0    0    0    0  0.00000000000E+00  0.00000000000E+00  0.45593999997E+02  0.45594000000E+02  0.51100000000E-03 0.  1.
         11   -1    0    0    0    0 -0.00000000000E+00 -0.00000000000E+00 -0.45593999997E+02  0.45594000000E+02  0.51100000000E-03 0. -1.
    9900012    2    1    2    0    0 -0.27001666089E+02  0.30050258319E+01 -0.16691221506E+02  0.59301999511E+02  0.50000101188E+02 0.  0.
        -12    1    1    2    0    0  0.27001666089E+02 -0.30050258319E+01  0.16691221506E+02  0.31886000489E+02  0.00000000000E+00 0.  1.
         11    1    3    3    0    0 -0.68470571272E+01 -0.15445150126E+01 -0.25032772982E+02  0.25998219965E+02  0.51100000000E-03 0. -1.
        -11    1    3    3    0    0 -0.54831367857E+01 -0.91928426140E+01  0.77098802097E+01  0.13191489584E+02  0.51100000000E-03 0.  1.
        -12    1    3    3    0    0 -0.14671472176E+02  0.13742383459E+02  0.63167126622E+00  0.20112289962E+02  0.00000000000E+00 0.  1.
</event>
<event>
 7    1  0.3750159E-013  0.5930196E+02  0.7816164E-02  0.1266605E+00
        -11   -1    0    0    0    0  0.00000000000E+00  0.00000000000E+00  0.45593999997E+02  0.45594000000E+02  0.51100000000E-03 0. -1.
         11   -1    0    0    0    0 -0.00000000000E+00 -0.00000000000E+00 -0.45593999997E+02  0.45594000000E+02  0.51100000000E-03 0.  1.
    9900012    2    1    2    0    0  0.84709670347E+01 -0.12505013806E+02  0.28081791564E+02  0.59301958066E+02  0.50000025602E+02 0.  0.
        -12    1    1    2    0    0 -0.84709670347E+01  0.12505013806E+02 -0.28081791564E+02  0.31886041934E+02  0.00000000000E+00 0.  1.
         11    1    3    3    0    0 -0.44906666462E+01 -0.51545116734E+01  0.27971231897E+02  0.28794528849E+02  0.51100000000E-03 0. -1.
        -11    1    3    3    0    0  0.12865743480E+02 -0.15971206086E+02  0.42491936831E+01  0.20944269535E+02  0.51100000000E-03 0.  1.
         12    1    3    3    0    0  0.95890201161E-01  0.86207039534E+01 -0.41386340162E+01  0.95631596820E+01  0.00000000000E+00 0. -1.
</event>
<event>
 7    1  0.3750159E-013  0.5930191E+02  0.7816164E-02  0.1266605E+00
        -11   -1    0    0    0    0  0.00000000000E+00  0.00000000000E+00  0.45593999997E+02  0.45594000000E+02  0.51100000000E-03 0.  1.
         11   -1    0    0    0    0 -0.00000000000E+00 -0.00000000000E+00 -0.45593999997E+02  0.45594000000E+02  0.51100000000E-03 0. -1.
    9900012    2    1    2    0    0  0.25625591803E+02 -0.46183899680E+01 -0.18404404124E+02  0.59301912559E+02  0.49999942608E+02 0.  0.
        -12    1    1    2    0    0 -0.25625591803E+02  0.46183899680E+01  0.18404404124E+02  0.31886087441E+02  0.00000000000E+00 0.  1.
         11    1    3    3    0    0  0.14282218071E+02  0.10045500052E+02 -0.14225517204E+02  0.22522414709E+02  0.51100000000E-03 0. -1.
        -11    1    3    3    0    0  0.61185777308E+01  0.87931172756E+01 -0.66694600917E+01  0.12618938269E+02  0.51100000000E-03 0.  1.
        -12    1    3    3    0    0  0.52247960010E+01 -0.23457007296E+02  0.24905731712E+01  0.24160559581E+02  0.00000000000E+00 0.  1.
</event>
<event>
 7    1  0.3750159E-013  0.5930191E+02  0.7816164E-02  0.1266605E+00
        -11   -1    0    0    0    0  0.00000000000E+00  0.00000000000E+00  0.45593999997E+02  0.45594000000E+02  0.51100000000E-03 0.  1.
         11   -1    0    0    0    0 -0.00000000000E+00 -0.00000000000E+00 -0.45593999997E+02  0.45594000000E+02  0.51100000000E-03 0. -1.
    9900012    2    1    2    0    0 -0.97937598107E+00 -0.21809800893E+02 -0.23239973156E+02  0.59301906721E+02  0.49999931962E+02 0.  0.
        -12    1    1    2    0    0  0.97937598107E+00  0.21809800893E+02  0.23239973156E+02  0.31886093279E+02  0.00000000000E+00 0.  1.
         11    1    3    3    0    0  0.14478729244E+02  0.92672778053E+00 -0.13645650878E+02  0.19917234071E+02  0.51100000000E-03 0. -1.
        -11    1    3    3    0    0  0.28615690740E+01 -0.73455626391E+01  0.67747262040E+01  0.10394363061E+02  0.51100000000E-03 0.  1.
         12    1    3    3    0    0 -0.18319674299E+02 -0.15390966034E+02 -0.16369048482E+02  0.28990309589E+02  0.00000000000E+00 0. -1.
</event>
<event>
 7    1  0.3750159E-013  0.5930188E+02  0.7816164E-02  0.1266605E+00
        -11   -1    0    0    0    0  0.00000000000E+00  0.00000000000E+00  0.45593999997E+02  0.45594000000E+02  0.51100000000E-03 0. -1.
         11   -1    0    0    0    0 -0.00000000000E+00 -0.00000000000E+00 -0.45593999997E+02  0.45594000000E+02  0.51100000000E-03 0.  1.
    9900012    2    1    2    0    0 -0.21112227475E+02  0.17835242426E+02  0.15902910656E+02  0.59301880940E+02  0.49999884943E+02 0.  0.
        -12    1    1    2    0    0  0.21112227475E+02 -0.17835242426E+02 -0.15902910656E+02  0.31886119060E+02  0.00000000000E+00 0.  1.
         11    1    3    3    0    0 -0.34486160366E+01  0.27773723403E+00  0.13051126131E+02  0.13501925199E+02  0.51100000000E-03 0. -1.
        -11    1    3    3    0    0 -0.64872260806E+00 -0.10271982258E+02 -0.61139264973E+01  0.11971405849E+02  0.51100000000E-03 0.  1.
         12    1    3    3    0    0 -0.17014888830E+02  0.27829487450E+02  0.89657110224E+01  0.33828549892E+02  0.00000000000E+00 0. -1.
</event>
<event>
 7    1  0.3750159E-013  0.5930186E+02  0.7816164E-02  0.1266605E+00
        -11   -1    0    0    0    0  0.00000000000E+00  0.00000000000E+00  0.45593999997E+02  0.45594000000E+02  0.51100000000E-03 0. -1.
         11   -1    0    0    0    0 -0.00000000000E+00 -0.00000000000E+00 -0.45593999997E+02  0.45594000000E+02  0.51100000000E-03 0.  1.
    9900012    2    1    2    0    0  0.23070465978E+02  0.21924875182E+02  0.19440611402E+01  0.59301859971E+02  0.49999846701E+02 0.  0.
        -12    1    1    2    0    0 -0.23070465978E+02 -0.21924875182E+02 -0.19440611402E+01  0.31886140029E+02  0.00000000000E+00 0.  1.
         11    1    3    3    0    0  0.89728502752E+00 -0.75096341992E+01  0.50573769875E+00  0.75799404423E+01  0.51100000000E-03 0. -1.
        -11    1    3    3    0    0  0.29612339502E+02  0.10716108802E+02  0.21681039279E+01  0.31566221084E+02  0.51100000000E-03 0.  1.
        -12    1    3    3    0    0 -0.74391585517E+01  0.18718400580E+02 -0.72978048645E+00  0.20155698445E+02  0.00000000000E+00 0.  1.
</event>
<event>
 7    1  0.3750159E-013  0.5930195E+02  0.7816164E-02  0.1266605E+00
        -11   -1    0    0    0    0  0.00000000000E+00  0.00000000000E+00  0.45593999997E+02  0.45594000000E+02  0.51100000000E-03 0.  1.
         11   -1    0    0    0    0 -0.00000000000E+00 -0.00000000000E+00 -0.45593999997E+02  0.45594000000E+02  0.51100000000E-03 0. -1.
    9900012    2    1    2    0    0  0.22062361047E+02 -0.47609624978E+01 -0.22523443643E+02  0.59301952073E+02  0.50000014672E+02 0.  0.
        -12    1    1    2    0    0 -0.22062361047E+02  0.47609624978E+01  0.22523443643E+02  0.31886047927E+02  0.00000000000E+00 0.  1.
         11    1    3    3    0    0  0.93708186611E+01 -0.13566311954E+02 -0.12873144225E+02  0.20918291157E+02  0.51100000000E-03 0. -1.
        -11    1    3    3    0    0 -0.33752325381E+01 -0.10050596294E+02  0.23467462820E+01  0.10858816645E+02  0.51100000000E-03 0.  1.
         12    1    3    3    0    0  0.16066774924E+02  0.18855945751E+02 -0.11997045701E+02  0.27524844271E+02  0.00000000000E+00 0. -1.
</event>
<event>
 7    1  0.3750159E-013  0.5930194E+02  0.7816164E-02  0.1266605E+00
        -11   -1    0    0    0    0  0.00000000000E+00  0.00000000000E+00  0.45593999997E+02  0.45594000000E+02  0.51100000000E-03 0.  1.
         11   -1    0    0    0    0 -0.00000000000E+00 -0.00000000000E+00 -0.45593999997E+02  0.45594000000E+02  0.51100000000E-03 0. -1.
    9900012    2    1    2    0    0  0.13478997368E+02 -0.48457642169E+01 -0.28487826916E+02  0.59301935908E+02  0.49999985192E+02 0.  0.
        -12    1    1    2    0    0 -0.13478997368E+02  0.48457642169E+01  0.28487826916E+02  0.31886064092E+02  0.00000000000E+00 0.  1.
         11    1    3    3    0    0 -0.10242934558E+02  0.80472450462E+00 -0.32074676601E+01  0.10763509602E+02  0.51100000000E-03 0. -1.
        -11    1    3    3    0    0  0.32586454350E+01  0.13177429138E+02 -0.71430946294E+01  0.15339074610E+02  0.51100000000E-03 0.  1.
         12    1    3    3    0    0  0.20463286491E+02 -0.18827917859E+02 -0.18137264626E+02  0.33199351696E+02  0.00000000000E+00 0. -1.
</event>
<event>
 7    1  0.3750159E-013  0.5930206E+02  0.7816164E-02  0.1266604E+00
        -11   -1    0    0    0    0  0.00000000000E+00  0.00000000000E+00  0.45593999997E+02  0.45594000000E+02  0.51100000000E-03 0. -1.
         11   -1    0    0    0    0 -0.00000000000E+00 -0.00000000000E+00 -0.45593999997E+02  0.45594000000E+02  0.51100000000E-03 0.  1.
    9900012    2    1    2    0    0 -0.16269296980E+02  0.16706890588E+02  0.21746331022E+02  0.59302060618E+02  0.50000212632E+02 0.  0.
        -12    1    1    2    0    0  0.16269296980E+02 -0.16706890588E+02 -0.21746331022E+02  0.31885939382E+02  0.00000000000E+00 0.  1.
         11    1    3    3    0    0  0.30484148378E+01 -0.72802752009E+01 -0.64142686378E+01  0.10170451437E+02  0.51100000000E-03 0. -1.
        -11    1    3    3    0    0  0.52434535475E+01  0.17124586943E+01 -0.17094522944E+00  0.55186540403E+01  0.51100000000E-03 0.  1.
         12    1    3    3    0    0 -0.24561165366E+02  0.22274707095E+02  0.28331544889E+02  0.43612955140E+02  0.00000000000E+00 0. -1.
</event>
<event>
 7    1  0.3750159E-013  0.5930197E+02  0.7816164E-02  0.1266605E+00
        -11   -1    0    0    0    0  0.00000000000E+00  0.00000000000E+00  0.45593999997E+02  0.45594000000E+02  0.51100000000E-03 0.  1.
         11   -1    0    0    0    0 -0.00000000000E+00 -0.00000000000E+00 -0.45593999997E+02  0.45594000000E+02  0.51100000000E-03 0. -1.
    9900012    2    1    2    0    0 -0.22267786020E+02 -0.69606122832E+01 -0.21735104056E+02  0.59301965974E+02  0.50000040025E+02 0.  0.
        -12    1    1    2    0    0  0.22267786020E+02  0.69606122832E+01  0.21735104056E+02  0.31886034026E+02  0.00000000000E+00 0.  1.
         11    1    3    3    0    0  0.11063423904E+02  0.67083878732E+00 -0.13046040573E+02  0.17118660813E+02  0.51100000000E-03 0. -1.
        -11    1    3    3    0    0 -0.29089740018E+01  0.63647149627E+01 -0.47662678520E+01  0.84669378052E+01  0.51100000000E-03 0.  1.
        -12    1    3    3    0    0 -0.30422235922E+02 -0.13996166033E+02 -0.39227956312E+01  0.33716367356E+02  0.00000000000E+00 0.  1.
</event>
<event>
 7    1  0.3750159E-013  0.5930194E+02  0.7816164E-02  0.1266605E+00
        -11   -1    0    0    0    0  0.00000000000E+00  0.00000000000E+00  0.45593999997E+02  0.45594000000E+02  0.51100000000E-03 0. -1.
         11   -1    0    0    0    0 -0.00000000000E+00 -0.00000000000E+00 -0.45593999997E+02  0.45594000000E+02  0.51100000000E-03 0.  1.
    9900012    2    1    2    0    0  0.46036934194E+01  0.45447328037E+01  0.31222947612E+02  0.59301936478E+02  0.49999986231E+02 0.  0.
        -12    1    1    2    0    0 -0.46036934194E+01 -0.45447328037E+01 -0.31222947612E+02  0.31886063522E+02  0.00000000000E+00 0.  1.
         11    1    3    3    0    0  0.41962851004E+01 -0.11994348295E+02  0.25918069524E+02  0.28865542222E+02  0.51100000000E-03 0. -1.
        -11    1    3    3    0    0  0.16533065653E+01 -0.56114023120E+01  0.58104283260E+01  0.82451401503E+01  0.51100000000E-03 0.  1.
         12    1    3    3    0    0 -0.12458982463E+01  0.22150483410E+02 -0.50555023792E+00  0.22191254106E+02  0.00000000000E+00 0. -1.
</event>
<event>
 7    1  0.3750159E-013  0.5930194E+02  0.7816164E-02  0.1266605E+00
        -11   -1    0    0    0    0  0.00000000000E+00  0.00000000000E+00  0.45593999997E+02  0.45594000000E+02  0.51100000000E-03 0. -1.
         11   -1    0    0    0    0 -0.00000000000E+00 -0.00000000000E+00 -0.45593999997E+02  0.45594000000E+02  0.51100000000E-03 0.  1.
    9900012    2    1    2    0    0 -0.57509995799E+01 -0.28976804167E+02  0.11999664842E+02  0.59301935141E+02  0.49999983792E+02 0.  0.
        -12    1    1    2    0    0  0.57509995799E+01  0.28976804167E+02 -0.11999664842E+02  0.31886064859E+02  0.00000000000E+00 0.  1.
         11    1    3    3    0    0 -0.64837674028E+01  0.95751195581E+01  0.52040209673E+01  0.12680851264E+02  0.51100000000E-03 0. -1.
        -11    1    3    3    0    0 -0.95724579023E+00 -0.21672002416E+01 -0.72160617722E+01  0.75950394437E+01  0.51100000000E-03 0.  1.
         12    1    3    3    0    0  0.16900136131E+01 -0.36384723483E+02  0.14011705647E+02  0.39026044433E+02  0.00000000000E+00 0. -1.
</event>
<event>
 7    1  0.3750159E-013  0.5930193E+02  0.7816164E-02  0.1266605E+00
        -11   -1    0    0    0    0  0.00000000000E+00  0.00000000000E+00  0.45593999997E+02  0.45594000000E+02  0.51100000000E-03 0. -1.
         11   -1    0    0    0    0 -0.00000000000E+00 -0.00000000000E+00 -0.45593999997E+02  0.45594000000E+02  0.51100000000E-03 0.  1.
    9900012    2    1    2    0    0  0.10999770849E+02 -0.11851771831E+02  0.27482026453E+02  0.59301933572E+02  0.49999980931E+02 0.  0.
        -12    1    1    2    0    0 -0.10999770849E+02  0.11851771831E+02 -0.27482026453E+02  0.31886066428E+02  0.00000000000E+00 0.  1.
         11    1    3    3    0    0 -0.26863661860E+01 -0.96935906196E+01  0.34829440223E+02  0.36252891869E+02  0.51100000000E-03 0. -1.
        -11    1    3    3    0    0  0.31709129368E+01 -0.37909959192E+01  0.48071001794E+01  0.68945305357E+01  0.51100000000E-03 0.  1.
        -12    1    3    3    0    0  0.10515224099E+02  0.16328147081E+01 -0.12154513949E+02  0.16154511167E+02  0.00000000000E+00 0.  1.
</event>
<event>
 7    1  0.3750159E-013  0.5930193E+02  0.7816164E-02  0.1266605E+00
        -11   -1    0    0    0    0  0.00000000000E+00  0.00000000000E+00  0.45593999997E+02  0.45594000000E+02  0.51100000000E-03 0. -1.
         11   -1    0    0    0    0 -0.00000000000E+00 -0.00000000000E+00 -0.45593999997E+02  0.45594000000E+02  0.51100000000E-03 0.  1.
    9900012    2    1    2    0    0  0.18364270091E+02 -0.18817442127E+02  0.18038267855E+02  0.59301927000E+02  0.49999968945E+02 0.  0.
        -12    1    1    2    0    0 -0.18364270091E+02  0.18817442127E+02 -0.18038267855E+02  0.31886073000E+02  0.00000000000E+00 0.  1.
         11    1    3    3    0    0  0.16395024814E+02 -0.19274448860E+02  0.13431790356E+02  0.28648110059E+02  0.51100000000E-03 0. -1.
        -11    1    3    3    0    0  0.12758531855E+02 -0.89067241749E+01  0.50562590142E+01  0.16360795399E+02  0.51100000000E-03 0.  1.
         12    1    3    3    0    0 -0.10789286578E+02  0.93637309081E+01 -0.44978151537E+00  0.14293021542E+02  0.00000000000E+00 0. -1.
</event>
<event>
 7    1  0.3750159E-013  0.5930192E+02  0.7816164E-02  0.1266605E+00
        -11   -1    0    0    0    0  0.00000000000E+00  0.00000000000E+00  0.45593999997E+02  0.45594000000E+02  0.51100000000E-03 0.  1.
         11   -1    0    0    0    0 -0.00000000000E+00 -0.00000000000E+00 -0.45593999997E+02  0.45594000000E+02  0.51100000000E-03 0. -1.
    9900012    2    1    2    0    0  0.23810705337E+02 -0.17054407574E+00 -0.21207150797E+02  0.59301921237E+02  0.49999958436E+02 0.  0.
        -12    1    1    2    0    0 -0.23810705337E+02  0.17054407574E+00  0.21207150797E+02  0.31886078763E+02  0.00000000000E+00 0.  1.
         11    1    3    3    0    0 -0.79268232015E+01 -0.10895792137E+02 -0.27371502712E+00  0.13476933351E+02  0.51100000000E-03 0. -1.
        -11    1    3    3    0    0  0.13034855548E+02 -0.59017932649E+01 -0.20066838827E+01  0.14448716322E+02  0.51100000000E-03 0.  1.
         12    1    3    3    0    0  0.18702672991E+02  0.16627041326E+02 -0.18926751888E+02  0.31376271564E+02  0.00000000000E+00 0. -1.
</event>
<event>
 7    1  0.3750159E-013  0.5930195E+02  0.7816164E-02  0.1266605E+00
        -11   -1    0    0    0    0  0.00000000000E+00  0.00000000000E+00  0.45593999997E+02  0.45594000000E+02  0.51100000000E-03 0. -1.
         11   -1    0    0    0    0 -0.00000000000E+00 -0.00000000000E+00 -0.45593999997E+02  0.45594000000E+02  0.51100000000E-03 0.  1.
    9900012    2    1    2    0    0 -0.30626483860E+02 -0.66442498929E+01  0.58815392566E+01  0.59301951730E+02  0.50000014047E+02 0.  0.
        -12    1    1    2    0    0  0.30626483860E+02  0.66442498929E+01 -0.58815392566E+01  0.31886048270E+02  0.00000000000E+00 0.  1.
         11    1    3    3    0    0 -0.30763266777E+02 -0.71659452596E+01 -0.15646222821E+01  0.31625581377E+02  0.51100000000E-03 0. -1.
        -11    1    3    3    0    0 -0.93534678755E+01  0.88063386482E+01  0.78805961391E+01  0.15071256001E+02  0.51100000000E-03 0.  1.
        -12    1    3    3    0    0  0.94902507928E+01 -0.82846432816E+01 -0.43443460044E+00  0.12605114352E+02  0.00000000000E+00 0.  1.
</event>
<event>
 7    1  0.3750159E-013  0.5930193E+02  0.7816164E-02  0.1266605E+00
        -11   -1    0    0    0    0  0.00000000000E+00  0.00000000000E+00  0.45593999997E+02  0.45594000000E+02  0.51100000000E-03 0. -1.
         11   -1    0    0    0    0 -0.00000000000E+00 -0.00000000000E+00 -0.45593999997E+02  0.45594000000E+02  0.51100000000E-03 0.  1.
    9900012    2    1    2    0    0 -0.16359342998E+02  0.78482373985E+01  0.26220190960E+02  0.59301931764E+02  0.49999977634E+02 0.  0.
        -12    1    1    2    0    0  0.16359342998E+02 -0.78482373985E+01 -0.26220190960E+02  0.31886068236E+02  0.00000000000E+00 0.  1.
         11    1    3    3    0    0  0.58690885097E+01  0.74469738854E+00  0.47177200696E+01  0.75668789506E+01  0.51100000000E-03 0.  1.
        -11    1    3    3    0    0 -0.29954616146E+02  0.78421212377E+01  0.23305997743E+01  0.31051724421E+02  0.51100000000E-03 0. -1.
         12    1    3    3    0    0  0.77261846383E+01 -0.73858122767E+00  0.19171871116E+02  0.20683328392E+02  0.00000000000E+00 0. -1.
</event>
<event>
 7    1  0.3750159E-013  0.5930194E+02  0.7816164E-02  0.1266605E+00
        -11   -1    0    0    0    0  0.00000000000E+00  0.00000000000E+00  0.45593999997E+02  0.45594000000E+02  0.51100000000E-03 0. -1.
         11   -1    0    0    0    0 -0.00000000000E+00 -0.00000000000E+00 -0.45593999997E+02  0.45594000000E+02  0.51100000000E-03 0.  1.
    9900012    2    1    2    0    0 -0.20092457625E+02 -0.20002076016E+00  0.24758304562E+02  0.59301944952E+02  0.50000001686E+02 0.  0.
        -12    1    1    2    0    0  0.20092457625E+02  0.20002076016E+00 -0.24758304562E+02  0.31886055048E+02  0.00000000000E+00 0.  1.
         11    1    3    3    0    0 -0.79079596920E+01 -0.19767759604E+00  0.23687673666E+02  0.24973601801E+02  0.51100000000E-03 0. -1.
        -11    1    3    3    0    0  0.98250584005E+01  0.59817555311E+01  0.28612784391E+00  0.11506304412E+02  0.51100000000E-03 0.  1.
        -12    1    3    3    0    0 -0.22009556334E+02 -0.59840986952E+01  0.78450305169E+00  0.22822038740E+02  0.00000000000E+00 0.  1.
</event>
<event>
 7    1  0.3750159E-013  0.5930191E+02  0.7816164E-02  0.1266605E+00
        -11   -1    0    0    0    0  0.00000000000E+00  0.00000000000E+00  0.45593999997E+02  0.45594000000E+02  0.51100000000E-03 0.  1.
         11   -1    0    0    0    0 -0.00000000000E+00 -0.00000000000E+00 -0.45593999997E+02  0.45594000000E+02  0.51100000000E-03 0. -1.
    9900012    2    1    2    0    0  0.35416314890E+01 -0.30185832022E+02 -0.96434119262E+01  0.59301905820E+02  0.49999930318E+02 0.  0.
        -12    1    1    2    0    0 -0.35416314890E+01  0.30185832022E+02  0.96434119262E+01  0.31886094180E+02  0.00000000000E+00 0.  1.
         11    1    3    3    0    0 -0.72430992022E+01 -0.55225231945E+01  0.10949026472E+02  0.14242258579E+02  0.51100000000E-03 0. -1.
        -11    1    3    3    0    0 -0.54045998391E+01 -0.59453470598E+01  0.49961702249E+01  0.94614252764E+01  0.51100000000E-03 0.  1.
        -12    1    3    3    0    0  0.16189330530E+02 -0.18717961768E+02 -0.25588608623E+02  0.35598221965E+02  0.00000000000E+00 0.  1.
</event>
<event>
 7    1  0.3750159E-013  0.5930195E+02  0.7816164E-02  0.1266605E+00
        -11   -1    0    0    0    0  0.00000000000E+00  0.00000000000E+00  0.45593999997E+02  0.45594000000E+02  0.51100000000E-03 0.  1.
         11   -1    0    0    0    0 -0.00000000000E+00 -0.00000000000E+00 -0.45593999997E+02  0.45594000000E+02  0.51100000000E-03 0. -1.
    9900012    2    1    2    0    0 -0.95849600199E+01  0.30234290387E+02 -0.32766229996E+01  0.59301952392E+02  0.50000015255E+02 0.  0.
        -12    1    1    2    0    0  0.95849600199E+01 -0.30234290387E+02  0.32766229996E+01  0.31886047608E+02  0.00000000000E+00 0.  1.
         11    1    3    3    0    0 -0.40432626181E+01 -0.10771316188E+02  0.25653456103E+00  0.11508042199E+02  0.51100000000E-03 0. -1.
        -11    1    3    3    0    0  0.15503543240E+01  0.90773648217E+01  0.88974152910E+01  0.12804926777E+02  0.51100000000E-03 0.  1.
         12    1    3    3    0    0 -0.70920517257E+01  0.31928241753E+02 -0.12430572852E+02  0.34988983416E+02  0.00000000000E+00 0. -1.
</event>
<event>
 7    1  0.3750159E-013  0.5930194E+02  0.7816164E-02  0.1266605E+00
        -11   -1    0    0    0    0  0.00000000000E+00  0.00000000000E+00  0.45593999997E+02  0.45594000000E+02  0.51100000000E-03 0.  1.
         11   -1    0    0    0    0 -0.00000000000E+00 -0.00000000000E+00 -0.45593999997E+02  0.45594000000E+02  0.51100000000E-03 0. -1.
    9900012    2    1    2    0    0 -0.10301187086E+02  0.23703005898E+02 -0.18675493952E+02  0.59301936927E+02  0.49999987050E+02 0.  0.
        -12    1    1    2    0    0  0.10301187086E+02 -0.23703005898E+02  0.18675493952E+02  0.31886063073E+02  0.00000000000E+00 0.  1.
         11    1    3    3    0    0 -0.13879487550E+02  0.20884115718E+02 -0.17087596355E+02  0.30344231962E+02  0.51100000000E-03 0. -1.
        -11    1    3    3    0    0  0.90767054413E+01  0.13733038300E+02 -0.27187798457E+01  0.16684564325E+02  0.51100000000E-03 0.  1.
        -12    1    3    3    0    0 -0.54984049782E+01 -0.10914148120E+02  0.11308822487E+01  0.12273140639E+02  0.00000000000E+00 0.  1.
</event>
<event>
 7    1  0.3750159E-013  0.5930197E+02  0.7816164E-02  0.1266605E+00
        -11   -1    0    0    0    0  0.00000000000E+00  0.00000000000E+00  0.45593999997E+02  0.45594000000E+02  0.51100000000E-03 0. -1.
         11   -1    0    0    0    0 -0.00000000000E+00 -0.00000000000E+00 -0.45593999997E+02  0.45594000000E+02  0.51100000000E-03 0.  1.
    9900012    2    1    2    0    0  0.25455458232E+02  0.76571500434E+01 -0.17609845110E+02  0.59301969432E+02  0.50000046331E+02 0.  0.
        -12    1    1    2    0    0 -0.25455458232E+02 -0.76571500434E+01  0.17609845110E+02  0.31886030568E+02  0.00000000000E+00 0.  1.
         11    1    3    3    0    0  0.29840880979E+01  0.60872671251E+01  0.63919528780E+01  0.93175460655E+01  0.51100000000E-03 0. -1.
        -11    1    3    3    0    0  0.51053850516E+01  0.11216353643E+02  0.62308418378E+01  0.13809233717E+02  0.51100000000E-03 0.  1.
        -12    1    3    3    0    0  0.17365985083E+02 -0.96464707249E+01 -0.30232639826E+02  0.36175189649E+02  0.00000000000E+00 0.  1.
</event>
<event>
 7    1  0.3750159E-013  0.5930195E+02  0.7816164E-02  0.1266605E+00
        -11   -1    0    0    0    0  0.00000000000E+00  0.00000000000E+00  0.45593999997E+02  0.45594000000E+02  0.51100000000E-03 0. -1.
         11   -1    0    0    0    0 -0.00000000000E+00 -0.00000000000E+00 -0.45593999997E+02  0.45594000000E+02  0.51100000000E-03 0.  1.
    9900012    2    1    2    0    0 -0.29919196417E+02  0.10014579572E+02 -0.46119802575E+01  0.59301945366E+02  0.50000002440E+02 0.  0.
        -12    1    1    2    0    0  0.29919196417E+02 -0.10014579572E+02  0.46119802575E+01  0.31886054634E+02  0.00000000000E+00 0.  1.
         11    1    3    3    0    0 -0.21705760494E+01  0.11481757343E+02 -0.75495759368E+01  0.13911802513E+02  0.51100000000E-03 0. -1.
        -11    1    3    3    0    0  0.79828084814E+01  0.21409210032E+01 -0.33731480169E+01  0.89267520296E+01  0.51100000000E-03 0.  1.
         12    1    3    3    0    0 -0.35731428849E+02 -0.36080987740E+01  0.63107436962E+01  0.36463390824E+02  0.00000000000E+00 0. -1.
</event>
<event>
 7    1  0.3750159E-013  0.5930199E+02  0.7816164E-02  0.1266605E+00
        -11   -1    0    0    0    0  0.00000000000E+00  0.00000000000E+00  0.45593999997E+02  0.45594000000E+02  0.51100000000E-03 0.  1.
         11   -1    0    0    0    0 -0.00000000000E+00 -0.00000000000E+00 -0.45593999997E+02  0.45594000000E+02  0.51100000000E-03 0. -1.
    9900012    2    1    2    0    0 -0.11381319974E+02 -0.23261056373E+02  0.18603942222E+02  0.59301986544E+02  0.50000077539E+02 0.  0.
        -12    1    1    2    0    0  0.11381319974E+02  0.23261056373E+02 -0.18603942222E+02  0.31886013456E+02  0.00000000000E+00 0.  1.
         11    1    3    3    0    0  0.15806815838E+01 -0.67700657375E+01  0.75109518890E+01  0.10234585624E+02  0.51100000000E-03 0. -1.
        -11    1    3    3    0    0 -0.25239966456E+01 -0.77827755157E+01  0.26959724209E+02  0.28173904300E+02  0.51100000000E-03 0.  1.
         12    1    3    3    0    0 -0.10438004912E+02 -0.87082151199E+01 -0.15866733876E+02  0.20893496620E+02  0.00000000000E+00 0. -1.
</event>
<event>
 7    1  0.3750159E-013  0.5930195E+02  0.7816164E-02  0.1266605E+00
        -11   -1    0    0    0    0  0.00000000000E+00  0.00000000000E+00  0.45593999997E+02  0.45594000000E+02  0.51100000000E-03 0. -1.
         11   -1    0    0    0    0 -0.00000000000E+00 -0.00000000000E+00 -0.45593999997E+02  0.45594000000E+02  0.51100000000E-03 0.  1.
    9900012    2    1    2    0    0 -0.18741307072E+02 -0.21061965711E+02  0.14895535164E+02  0.59301953550E+02  0.50000017366E+02 0.  0.
        -12    1    1    2    0    0  0.18741307072E+02  0.21061965711E+02 -0.14895535164E+02  0.31886046450E+02  0.00000000000E+00 0.  1.
         11    1    3    3    0    0 -0.95849507798E+01 -0.11238903219E+02  0.89617842670E+01  0.17277089006E+02  0.51100000000E-03 0. -1.
        -11    1    3    3    0    0  0.64949883980E+01 -0.20273994241E+02 -0.24358457951E+01  0.21427857143E+02  0.51100000000E-03 0.  1.
         12    1    3    3    0    0 -0.15651344691E+02  0.10450931749E+02  0.83695966926E+01  0.20597007400E+02  0.00000000000E+00 0. -1.
</event>
<event>
 7    1  0.3750159E-013  0.5930204E+02  0.7816164E-02  0.1266604E+00
        -11   -1    0    0    0    0  0.00000000000E+00  0.00000000000E+00  0.45593999997E+02  0.45594000000E+02  0.51100000000E-03 0. -1.
         11   -1    0    0    0    0 -0.00000000000E+00 -0.00000000000E+00 -0.45593999997E+02  0.45594000000E+02  0.51100000000E-03 0.  1.
    9900012    2    1    2    0    0 -0.18190938550E+02 -0.23442573474E+02  0.11672622823E+02  0.59302037258E+02  0.50000170030E+02 0.  0.
        -12    1    1    2    0    0  0.18190938550E+02  0.23442573474E+02 -0.11672622823E+02  0.31885962742E+02  0.00000000000E+00 0.  1.
         11    1    3    3    0    0 -0.12971186662E+02  0.93972154513E+01 -0.62193140192E+01  0.17182526263E+02  0.51100000000E-03 0. -1.
        -11    1    3    3    0    0 -0.13943957468E+01 -0.18228331677E+01  0.94819714486E+01  0.97557594819E+01  0.51100000000E-03 0.  1.
        -12    1    3    3    0    0 -0.38253561409E+01 -0.31016955757E+02  0.84099653941E+01  0.32363751513E+02  0.00000000000E+00 0.  1.
</event>
<event>
 7    1  0.3750159E-013  0.5930194E+02  0.7816164E-02  0.1266605E+00
        -11   -1    0    0    0    0  0.00000000000E+00  0.00000000000E+00  0.45593999997E+02  0.45594000000E+02  0.51100000000E-03 0.  1.
         11   -1    0    0    0    0 -0.00000000000E+00 -0.00000000000E+00 -0.45593999997E+02  0.45594000000E+02  0.51100000000E-03 0. -1.
    9900012    2    1    2    0    0 -0.77253173221E+01 -0.20261135722E+02 -0.23377914990E+02  0.59301936308E+02  0.49999985922E+02 0.  0.
        -12    1    1    2    0    0  0.77253173221E+01  0.20261135722E+02  0.23377914990E+02  0.31886063692E+02  0.00000000000E+00 0.  1.
         11    1    3    3    0    0  0.99888435167E+00 -0.43670321136E+01 -0.14017628017E+01  0.46940045422E+01  0.51100000000E-03 0. -1.
        -11    1    3    3    0    0  0.59950394047E+01  0.12891990827E+02  0.19987988583E+01  0.14357545824E+02  0.51100000000E-03 0.  1.
         12    1    3    3    0    0 -0.14719241078E+02 -0.28786094436E+02 -0.23974951046E+02  0.40250385942E+02  0.00000000000E+00 0. -1.
</event>
<event>
 7    1  0.3750159E-013  0.5930197E+02  0.7816164E-02  0.1266605E+00
        -11   -1    0    0    0    0  0.00000000000E+00  0.00000000000E+00  0.45593999997E+02  0.45594000000E+02  0.51100000000E-03 0. -1.
         11   -1    0    0    0    0 -0.00000000000E+00 -0.00000000000E+00 -0.45593999997E+02  0.45594000000E+02  0.51100000000E-03 0.  1.
    9900012    2    1    2    0    0  0.15722007206E+02  0.27102509914E+02 -0.59153633431E+01  0.59301967357E+02  0.50000042546E+02 0.  0.
        -12    1    1    2    0    0 -0.15722007206E+02 -0.27102509914E+02  0.59153633431E+01  0.31886032643E+02  0.00000000000E+00 0.  1.
         11    1    3    3    0    0 -0.55730311709E+01  0.18785602200E+02  0.96787599391E+01  0.21854883222E+02  0.51100000000E-03 0. -1.
        -11    1    3    3    0    0  0.31935843718E+01 -0.51288565984E+01  0.42684658811E+01  0.73975639494E+01  0.51100000000E-03 0.  1.
        -12    1    3    3    0    0  0.18101454005E+02  0.13445764313E+02 -0.19862589163E+02  0.30049520185E+02  0.00000000000E+00 0.  1.
</event>
<event>
 7    1  0.3750159E-013  0.5930194E+02  0.7816164E-02  0.1266605E+00
        -11   -1    0    0    0    0  0.00000000000E+00  0.00000000000E+00  0.45593999997E+02  0.45594000000E+02  0.51100000000E-03 0. -1.
         11   -1    0    0    0    0 -0.00000000000E+00 -0.00000000000E+00 -0.45593999997E+02  0.45594000000E+02  0.51100000000E-03 0.  1.
    9900012    2    1    2    0    0  0.56858484230E+01  0.26167534651E+02  0.17310459206E+02  0.59301941292E+02  0.49999995010E+02 0.  0.
        -12    1    1    2    0    0 -0.56858484230E+01 -0.26167534651E+02 -0.17310459206E+02  0.31886058708E+02  0.00000000000E+00 0.  1.
         11    1    3    3    0    0  0.16675483368E+02  0.19201356042E+02  0.19132734571E+02  0.31824917154E+02  0.51100000000E-03 0. -1.
        -11    1    3    3    0    0 -0.40244126169E+01 -0.70031745941E+01  0.59571798970E+01  0.10036351124E+02  0.51100000000E-03 0.  1.
        -12    1    3    3    0    0 -0.69652223280E+01  0.13969353203E+02 -0.77794552622E+01  0.17440673014E+02  0.00000000000E+00 0.  1.
</event>
<event>
 7    1  0.3750159E-013  0.5930200E+02  0.7816164E-02  0.1266605E+00
        -11   -1    0    0    0    0  0.00000000000E+00  0.00000000000E+00  0.45593999997E+02  0.45594000000E+02  0.51100000000E-03 0. -1.
         11   -1    0    0    0    0 -0.00000000000E+00 -0.00000000000E+00 -0.45593999997E+02  0.45594000000E+02  0.51100000000E-03 0.  1.
    9900012    2    1    2    0    0  0.11648510213E+01  0.21958430751E+02  0.23090856478E+02  0.59301996615E+02  0.50000095907E+02 0.  0.
        -12    1    1    2    0    0 -0.11648510213E+01 -0.21958430751E+02 -0.23090856478E+02  0.31886003385E+02  0.00000000000E+00 0.  1.
         11    1    3    3    0    0  0.13598961978E+02  0.22994968740E+02  0.22259465540E+02  0.34773325418E+02  0.51100000000E-03 0. -1.
        -11    1    3    3    0    0 -0.10294644024E+02  0.66525801727E+01  0.72903564276E+01  0.14261339896E+02  0.51100000000E-03 0.  1.
         12    1    3    3    0    0 -0.21394669330E+01 -0.76891181612E+01 -0.64589654897E+01  0.10267331301E+02  0.00000000000E+00 0. -1.
</event>
<event>
 7    1  0.3750159E-013  0.5930201E+02  0.7816164E-02  0.1266605E+00
        -11   -1    0    0    0    0  0.00000000000E+00  0.00000000000E+00  0.45593999997E+02  0.45594000000E+02  0.51100000000E-03 0. -1.
         11   -1    0    0    0    0 -0.00000000000E+00 -0.00000000000E+00 -0.45593999997E+02  0.45594000000E+02  0.51100000000E-03 0.  1.
    9900012    2    1    2    0    0 -0.30408289449E+01  0.19413947321E+02  0.25111116127E+02  0.59302013354E+02  0.50000126434E+02 0.  0.
        -12    1    1    2    0    0  0.30408289449E+01 -0.19413947321E+02 -0.25111116127E+02  0.31885986646E+02  0.00000000000E+00 0.  1.
         11    1    3    3    0    0 -0.39914162153E+01 -0.34946390669E+01  0.10638649097E+02  0.11888009105E+02  0.51100000000E-03 0. -1.
        -11    1    3    3    0    0 -0.46151291641E+01  0.31292067698E+01  0.24090107527E+02  0.24727002105E+02  0.51100000000E-03 0.  1.
        -12    1    3    3    0    0  0.55657164345E+01  0.19779379618E+02 -0.96176404968E+01  0.22687002143E+02  0.00000000000E+00 0.  1.
</event>
<event>
 7    1  0.3750159E-013  0.5930195E+02  0.7816164E-02  0.1266605E+00
        -11   -1    0    0    0    0  0.00000000000E+00  0.00000000000E+00  0.45593999997E+02  0.45594000000E+02  0.51100000000E-03 0. -1.
         11   -1    0    0    0    0 -0.00000000000E+00 -0.00000000000E+00 -0.45593999997E+02  0.45594000000E+02  0.51100000000E-03 0.  1.
    9900012    2    1    2    0    0  0.11663600994E+02 -0.21847996730E+02  0.20083467318E+02  0.59301949620E+02  0.50000010200E+02 0.  0.
        -12    1    1    2    0    0 -0.11663600994E+02  0.21847996730E+02 -0.20083467318E+02  0.31886050380E+02  0.00000000000E+00 0.  1.
         11    1    3    3    0    0  0.45656983761E+01 -0.12408880875E+01 -0.80107967594E+01  0.93036697001E+01  0.51100000000E-03 0. -1.
        -11    1    3    3    0    0 -0.13137328566E-01  0.92765195155E+00 -0.76285628374E+01  0.76847694798E+01  0.51100000000E-03 0.  1.
         12    1    3    3    0    0  0.71110399467E+01 -0.21534760594E+02  0.35722826915E+02  0.42313510441E+02  0.00000000000E+00 0. -1.
</event>
<event>
 7    1  0.3750159E-013  0.5930190E+02  0.7816164E-02  0.1266605E+00
        -11   -1    0    0    0    0  0.00000000000E+00  0.00000000000E+00  0.45593999997E+02  0.45594000000E+02  0.51100000000E-03 0.  1.
         11   -1    0    0    0    0 -0.00000000000E+00 -0.00000000000E+00 -0.45593999997E+02  0.45594000000E+02  0.51100000000E-03 0. -1.
    9900012    2    1    2    0    0 -0.13842868342E+02  0.28588758420E+02 -0.27894399202E+01  0.59301904488E+02  0.49999927888E+02 0.  0.
        -12    1    1    2    0    0  0.13842868342E+02 -0.28588758420E+02  0.27894399202E+01  0.31886095512E+02  0.00000000000E+00 0.  1.
         11    1    3    3    0    0 -0.57370887967E+01  0.11922537732E+01  0.12548498149E+02  0.13849204417E+02  0.51100000000E-03 0. -1.
        -11    1    3    3    0    0 -0.10669210937E+02 -0.34853901091E+01 -0.74658988383E+01  0.13480343169E+02  0.51100000000E-03 0.  1.
         12    1    3    3    0    0  0.25634313912E+01  0.30881894756E+02 -0.78720392307E+01  0.31972356902E+02  0.00000000000E+00 0. -1.
</event>
<event>
 7    1  0.3750159E-013  0.5930195E+02  0.7816164E-02  0.1266605E+00
        -11   -1    0    0    0    0  0.00000000000E+00  0.00000000000E+00  0.45593999997E+02  0.45594000000E+02  0.51100000000E-03 0.  1.
         11   -1    0    0    0    0 -0.00000000000E+00 -0.00000000000E+00 -0.45593999997E+02  0.45594000000E+02  0.51100000000E-03 0. -1.
    9900012    2    1    2    0    0 -0.29776124741E+02  0.96245899538E+01 -0.61212506363E+01  0.59301952178E+02  0.50000014864E+02 0.  0.
        -12    1    1    2    0    0  0.29776124741E+02 -0.96245899538E+01  0.61212506363E+01  0.31886047822E+02  0.00000000000E+00 0.  1.
         11    1    3    3    0    0 -0.27159346079E+01  0.99366467729E+01 -0.16695592751E+02  0.19617748787E+02  0.51100000000E-03 0. -1.
        -11    1    3    3    0    0  0.25506545513E+01  0.72383454675E+01  0.16581281347E+01  0.78516796241E+01  0.51100000000E-03 0.  1.
        -12    1    3    3    0    0 -0.29610844684E+02 -0.75504022866E+01  0.89162139804E+01  0.31832523767E+02  0.00000000000E+00 0.  1.
</event>
<event>
 7    1  0.3750159E-013  0.5930193E+02  0.7816164E-02  0.1266605E+00
        -11   -1    0    0    0    0  0.00000000000E+00  0.00000000000E+00  0.45593999997E+02  0.45594000000E+02  0.51100000000E-03 0.  1.
         11   -1    0    0    0    0 -0.00000000000E+00 -0.00000000000E+00 -0.45593999997E+02  0.45594000000E+02  0.51100000000E-03 0. -1.
    9900012    2    1    2    0    0 -0.23355198506E+01  0.24343917336E+02 -0.20460703472E+02  0.59301931713E+02  0.49999977541E+02 0.  0.
        -12    1    1    2    0    0  0.23355198506E+01 -0.24343917336E+02  0.20460703472E+02  0.31886068287E+02  0.00000000000E+00 0.  1.
         11    1    3    3    0    0  0.78511454154E+01  0.10447397654E+02 -0.43784391604E+01  0.13782573483E+02  0.51100000000E-03 0. -1.
        -11    1    3    3    0    0  0.40662057771E+01  0.22426048970E+02 -0.58021481494E+00  0.22799086633E+02  0.51100000000E-03 0.  1.
        -12    1    3    3    0    0 -0.14252871043E+02 -0.85295292877E+01 -0.15502049497E+02  0.22720271597E+02  0.00000000000E+00 0.  1.
</event>
<event>
 7    1  0.3750159E-013  0.5930193E+02  0.7816164E-02  0.1266605E+00
        -11   -1    0    0    0    0  0.00000000000E+00  0.00000000000E+00  0.45593999997E+02  0.45594000000E+02  0.51100000000E-03 0. -1.
         11   -1    0    0    0    0 -0.00000000000E+00 -0.00000000000E+00 -0.45593999997E+02  0.45594000000E+02  0.51100000000E-03 0.  1.
    9900012    2    1    2    0    0  0.23673792882E+02  0.26939860420E+01  0.21189985948E+02  0.59301928829E+02  0.49999972281E+02 0.  0.
        -12    1    1    2    0    0 -0.23673792882E+02 -0.26939860420E+01 -0.21189985948E+02  0.31886071171E+02  0.00000000000E+00 0.  1.
         11    1    3    3    0    0  0.10589939796E+02 -0.94214911173E+01  0.73311036987E+01  0.15957957309E+02  0.51100000000E-03 0. -1.
        -11    1    3    3    0    0  0.24559256219E+02  0.13577116292E+02  0.44087346504E+01  0.28406550201E+02  0.51100000000E-03 0.  1.
         12    1    3    3    0    0 -0.11475403133E+02 -0.14616391321E+01  0.94501475992E+01  0.14937421319E+02  0.00000000000E+00 0. -1.
</event>
<event>
 7    1  0.3750159E-013  0.5930194E+02  0.7816164E-02  0.1266605E+00
        -11   -1    0    0    0    0  0.00000000000E+00  0.00000000000E+00  0.45593999997E+02  0.45594000000E+02  0.51100000000E-03 0. -1.
         11   -1    0    0    0    0 -0.00000000000E+00 -0.00000000000E+00 -0.45593999997E+02  0.45594000000E+02  0.51100000000E-03 0.  1.
    9900012    2    1    2    0    0 -0.19241556047E+02  0.24206677380E+02  0.77794669450E+01  0.59301940117E+02  0.49999992868E+02 0.  0.
        -12    1    1    2    0    0  0.19241556047E+02 -0.24206677380E+02 -0.77794669450E+01  0.31886059883E+02  0.00000000000E+00 0.  1.
         11    1    3    3    0    0  0.29510992773E+01  0.67028288186E+01  0.17656092866E+02  0.19114772211E+02  0.51100000000E-03 0. -1.
        -11    1    3    3    0    0 -0.20923672887E+01  0.16637903296E+02  0.18978649621E+01  0.16876010152E+02  0.51100000000E-03 0.  1.
        -12    1    3    3    0    0 -0.20100288036E+02  0.86594526526E+00 -0.11774490883E+02  0.23311157755E+02  0.00000000000E+00 0.  1.
</event>
<event>
 7    1  0.3750159E-013  0.5930191E+02  0.7816164E-02  0.1266605E+00
        -11   -1    0    0    0    0  0.00000000000E+00  0.00000000000E+00  0.45593999997E+02  0.45594000000E+02  0.51100000000E-03 0.  1.
         11   -1    0    0    0    0 -0.00000000000E+00 -0.00000000000E+00 -0.45593999997E+02  0.45594000000E+02  0.51100000000E-03 0. -1.
    9900012    2    1    2    0    0 -0.51980033635E+01 -0.15531466039E+02 -0.27358308353E+02  0.59301910365E+02  0.49999938607E+02 0.  0.
        -12    1    1    2    0    0  0.51980033635E+01  0.15531466039E+02  0.27358308353E+02  0.31886089635E+02  0.00000000000E+00 0.  1.
         11    1    3    3    0    0 -0.98009516575E+01 -0.13721107452E+02 -0.62326366604E+01  0.17977018749E+02  0.51100000000E-03 0. -1.
        -11    1    3    3    0    0  0.16398272879E+02 -0.10095080874E+02 -0.54142829427E+01  0.20003211525E+02  0.51100000000E-03 0.  1.
        -12    1    3    3    0    0 -0.11795324585E+02  0.82847222875E+01 -0.15711388750E+02  0.21321680091E+02  0.00000000000E+00 0.  1.
</event>
<event>
 7    1  0.3750159E-013  0.5930194E+02  0.7816164E-02  0.1266605E+00
        -11   -1    0    0    0    0  0.00000000000E+00  0.00000000000E+00  0.45593999997E+02  0.45594000000E+02  0.51100000000E-03 0.  1.
         11   -1    0    0    0    0 -0.00000000000E+00 -0.00000000000E+00 -0.45593999997E+02  0.45594000000E+02  0.51100000000E-03 0. -1.
    9900012    2    1    2    0    0  0.56170892720E+01 -0.89769564418E+01 -0.30076290791E+02  0.59301941815E+02  0.49999995964E+02 0.  0.
        -12    1    1    2    0    0 -0.56170892720E+01  0.89769564418E+01  0.30076290791E+02  0.31886058185E+02  0.00000000000E+00 0.  1.
         11    1    3    3    0    0 -0.12163914563E+02 -0.28146790420E+01  0.30928774960E+00  0.12489151083E+02  0.51100000000E-03 0.  1.
        -11    1    3    3    0    0  0.12811305232E+02 -0.40447228559E+00  0.24999016768E+01  0.13059197841E+02  0.51100000000E-03 0. -1.
         12    1    3    3    0    0  0.49696986026E+01 -0.57578051142E+01 -0.32885480217E+02  0.33753592891E+02  0.00000000000E+00 0. -1.
</event>
<event>
 7    1  0.3750159E-013  0.5930214E+02  0.7816164E-02  0.1266604E+00
        -11   -1    0    0    0    0  0.00000000000E+00  0.00000000000E+00  0.45593999997E+02  0.45594000000E+02  0.51100000000E-03 0.  1.
         11   -1    0    0    0    0 -0.00000000000E+00 -0.00000000000E+00 -0.45593999997E+02  0.45594000000E+02  0.51100000000E-03 0. -1.
    9900012    2    1    2    0    0  0.14401920873E+02  0.20355462325E+01 -0.28375150133E+02  0.59302142346E+02  0.50000361683E+02 0.  0.
        -12    1    1    2    0    0 -0.14401920873E+02 -0.20355462325E+01  0.28375150133E+02  0.31885857654E+02  0.00000000000E+00 0.  1.
         11    1    3    3    0    0  0.10428582648E+01 -0.76547016419E+01  0.19666532678E+00  0.77279161550E+01  0.51100000000E-03 0. -1.
        -11    1    3    3    0    0 -0.58239476987E+01 -0.11546555908E+02 -0.31846442378E+01  0.13318531425E+02  0.51100000000E-03 0.  1.
         12    1    3    3    0    0  0.19183010307E+02  0.21236803783E+02 -0.25387171222E+02  0.38255694765E+02  0.00000000000E+00 0. -1.
</event>
<event>
 7    1  0.3750159E-013  0.5930199E+02  0.7816164E-02  0.1266605E+00
        -11   -1    0    0    0    0  0.00000000000E+00  0.00000000000E+00  0.45593999997E+02  0.45594000000E+02  0.51100000000E-03 0.  1.
         11   -1    0    0    0    0 -0.00000000000E+00 -0.00000000000E+00 -0.45593999997E+02  0.45594000000E+02  0.51100000000E-03 0. -1.
    9900012    2    1    2    0    0 -0.20608689662E+02 -0.11473086706E+02 -0.21456177812E+02  0.59301994066E+02  0.50000091257E+02 0.  0.
        -12    1    1    2    0    0  0.20608689662E+02  0.11473086706E+02  0.21456177812E+02  0.31886005934E+02  0.00000000000E+00 0.  1.
         11    1    3    3    0    0 -0.26212970488E+02 -0.31905725609E+01 -0.89346176115E+01  0.27876997098E+02  0.51100000000E-03 0. -1.
        -11    1    3    3    0    0 -0.79115153890E+01  0.37082963085E+01 -0.98393584354E+01  0.13158894784E+02  0.51100000000E-03 0.  1.
        -12    1    3    3    0    0  0.13515796215E+02 -0.11990810454E+02 -0.26822017651E+01  0.18266102183E+02  0.00000000000E+00 0.  1.
</event>
<event>
 7    1  0.3750159E-013  0.5930198E+02  0.7816164E-02  0.1266605E+00
        -11   -1    0    0    0    0  0.00000000000E+00  0.00000000000E+00  0.45593999997E+02  0.45594000000E+02  0.51100000000E-03 0.  1.
         11   -1    0    0    0    0 -0.00000000000E+00 -0.00000000000E+00 -0.45593999997E+02  0.45594000000E+02  0.51100000000E-03 0. -1.
    9900012    2    1    2    0    0 -0.13369225457E+02  0.23679592092E+02 -0.16651098622E+02  0.59301978669E+02  0.50000063178E+02 0.  0.
        -12    1    1    2    0    0  0.13369225457E+02 -0.23679592092E+02  0.16651098622E+02  0.31886021331E+02  0.00000000000E+00 0.  1.
         11    1    3    3    0    0 -0.13019002705E+02  0.80422876458E+01 -0.18240473937E+02  0.23809403851E+02  0.51100000000E-03 0. -1.
        -11    1    3    3    0    0 -0.15390283359E+02  0.34088376040E+01  0.30424471867E+01  0.16054204459E+02  0.51100000000E-03 0.  1.
        -12    1    3    3    0    0  0.15040060606E+02  0.12228466842E+02 -0.14530718714E+01  0.19438370359E+02  0.00000000000E+00 0.  1.
</event>
<event>
 7    1  0.3750159E-013  0.5930197E+02  0.7816164E-02  0.1266605E+00
        -11   -1    0    0    0    0  0.00000000000E+00  0.00000000000E+00  0.45593999997E+02  0.45594000000E+02  0.51100000000E-03 0.  1.
         11   -1    0    0    0    0 -0.00000000000E+00 -0.00000000000E+00 -0.45593999997E+02  0.45594000000E+02  0.51100000000E-03 0. -1.
    9900012    2    1    2    0    0 -0.20506679236E+02  0.11790600368E+02 -0.21381693938E+02  0.59301968795E+02  0.50000045170E+02 0.  0.
        -12    1    1    2    0    0  0.20506679236E+02 -0.11790600368E+02  0.21381693938E+02  0.31886031205E+02  0.00000000000E+00 0.  1.
         11    1    3    3    0    0  0.84965283857E+01  0.19277217991E+01 -0.60214479405E+01  0.10590795131E+02  0.51100000000E-03 0.  1.
        -11    1    3    3    0    0 -0.18909679438E+02  0.89865987562E+01  0.86483869688E+01  0.22652362594E+02  0.51100000000E-03 0. -1.
         12    1    3    3    0    0 -0.10093528184E+02  0.87627981296E+00 -0.24008632966E+02  0.26058811071E+02  0.00000000000E+00 0. -1.
</event>
<event>
 7    1  0.3750159E-013  0.5930194E+02  0.7816164E-02  0.1266605E+00
        -11   -1    0    0    0    0  0.00000000000E+00  0.00000000000E+00  0.45593999997E+02  0.45594000000E+02  0.51100000000E-03 0.  1.
         11   -1    0    0    0    0 -0.00000000000E+00 -0.00000000000E+00 -0.45593999997E+02  0.45594000000E+02  0.51100000000E-03 0. -1.
    9900012    2    1    2    0    0 -0.10500974016E+02 -0.54936075843E+01 -0.29601864800E+02  0.59301943812E+02  0.49999999607E+02 0.  0.
        -12    1    1    2    0    0  0.10500974016E+02  0.54936075843E+01  0.29601864800E+02  0.31886056188E+02  0.00000000000E+00 0.  1.
         11    1    3    3    0    0  0.59585865399E+00  0.67503325735E+01  0.41425902674E+01  0.79424864981E+01  0.51100000000E-03 0. -1.
        -11    1    3    3    0    0  0.10473203879E+02 -0.77382195842E+01 -0.23916087342E+02  0.27231365662E+02  0.51100000000E-03 0.  1.
         12    1    3    3    0    0 -0.21570036549E+02 -0.45057205735E+01 -0.98283677259E+01  0.24128091652E+02  0.00000000000E+00 0. -1.
</event>
<event>
 7    1  0.3750159E-013  0.5930191E+02  0.7816164E-02  0.1266605E+00
        -11   -1    0    0    0    0  0.00000000000E+00  0.00000000000E+00  0.45593999997E+02  0.45594000000E+02  0.51100000000E-03 0. -1.
         11   -1    0    0    0    0 -0.00000000000E+00 -0.00000000000E+00 -0.45593999997E+02  0.45594000000E+02  0.51100000000E-03 0.  1.
    9900012    2    1    2    0    0  0.27766857556E+02 -0.11851955787E+02  0.10259415532E+02  0.59301908337E+02  0.49999934908E+02 0.  0.
        -12    1    1    2    0    0 -0.27766857556E+02  0.11851955787E+02 -0.10259415532E+02  0.31886091663E+02  0.00000000000E+00 0.  1.
         11    1    3    3    0    0  0.21446706372E+02 -0.69785266676E+01 -0.73798865833E+01  0.23730229138E+02  0.51100000000E-03 0.  1.
        -11    1    3    3    0    0  0.10532212891E+02 -0.15892382490E+02  0.11629116140E+02  0.22332301092E+02  0.51100000000E-03 0. -1.
         12    1    3    3    0    0 -0.42120617078E+01  0.11018953371E+02  0.60101859752E+01  0.13239378107E+02  0.00000000000E+00 0. -1.
</event>
<event>
 7    1  0.3750159E-013  0.5930195E+02  0.7816164E-02  0.1266605E+00
        -11   -1    0    0    0    0  0.00000000000E+00  0.00000000000E+00  0.45593999997E+02  0.45594000000E+02  0.51100000000E-03 0. -1.
         11   -1    0    0    0    0 -0.00000000000E+00 -0.00000000000E+00 -0.45593999997E+02  0.45594000000E+02  0.51100000000E-03 0.  1.
    9900012    2    1    2    0    0 -0.94962964086E+01  0.30437355502E+02 -0.32852961236E+00  0.59301949960E+02  0.50000010820E+02 0.  0.
        -12    1    1    2    0    0  0.94962964086E+01 -0.30437355502E+02  0.32852961236E+00  0.31886050040E+02  0.00000000000E+00 0.  1.
         11    1    3    3    0    0  0.14480171143E+02  0.16636946815E+02 -0.97431052396E+01  0.24112060377E+02  0.51100000000E-03 0. -1.
        -11    1    3    3    0    0  0.20971202169E+01 -0.11983525264E+01 -0.18786712429E+01  0.30599620720E+01  0.51100000000E-03 0.  1.
         12    1    3    3    0    0 -0.26073587768E+02  0.14998761214E+02  0.11293246870E+02  0.32129927512E+02  0.00000000000E+00 0. -1.
</event>
<event>
 7    1  0.3750159E-013  0.5930196E+02  0.7816164E-02  0.1266605E+00
        -11   -1    0    0    0    0  0.00000000000E+00  0.00000000000E+00  0.45593999997E+02  0.45594000000E+02  0.51100000000E-03 0.  1.
         11   -1    0    0    0    0 -0.00000000000E+00 -0.00000000000E+00 -0.45593999997E+02  0.45594000000E+02  0.51100000000E-03 0. -1.
    9900012    2    1    2    0    0 -0.11819843736E+02 -0.86146065508E+01 -0.28333718088E+02  0.59301957087E+02  0.50000023816E+02 0.  0.
        -12    1    1    2    0    0  0.11819843736E+02  0.86146065508E+01  0.28333718088E+02  0.31886042913E+02  0.00000000000E+00 0.  1.
         11    1    3    3    0    0  0.27587879673E+00  0.10283818796E+02 -0.16939846982E+02  0.19818967032E+02  0.51100000000E-03 0. -1.
        -11    1    3    3    0    0  0.77964078620E+01 -0.15155423529E+02 -0.19738091494E+01  0.17157119825E+02  0.51100000000E-03 0.  1.
         12    1    3    3    0    0 -0.19892130395E+02 -0.37430018186E+01 -0.94200619565E+01  0.22325870230E+02  0.00000000000E+00 0. -1.
</event>
<event>
 7    1  0.3750159E-013  0.5930197E+02  0.7816164E-02  0.1266605E+00
        -11   -1    0    0    0    0  0.00000000000E+00  0.00000000000E+00  0.45593999997E+02  0.45594000000E+02  0.51100000000E-03 0. -1.
         11   -1    0    0    0    0 -0.00000000000E+00 -0.00000000000E+00 -0.45593999997E+02  0.45594000000E+02  0.51100000000E-03 0.  1.
    9900012    2    1    2    0    0  0.92261400993E+01  0.29606108471E+02 -0.74213137780E+01  0.59301965156E+02  0.50000038532E+02 0.  0.
        -12    1    1    2    0    0 -0.92261400993E+01 -0.29606108471E+02  0.74213137780E+01  0.31886034844E+02  0.00000000000E+00 0.  1.
         11    1    3    3    0    0  0.33563658365E+01  0.35057694470E+01  0.18097147339E+02  0.18736658003E+02  0.51100000000E-03 0. -1.
        -11    1    3    3    0    0 -0.19918813920E+01 -0.20389254650E+00  0.11348421549E+01  0.23015278899E+01  0.51100000000E-03 0.  1.
        -12    1    3    3    0    0  0.78616556548E+01  0.26304231570E+02 -0.26653303272E+02  0.38263779263E+02  0.00000000000E+00 0.  1.
</event>
<event>
 7    1  0.3750159E-013  0.5930196E+02  0.7816164E-02  0.1266605E+00
        -11   -1    0    0    0    0  0.00000000000E+00  0.00000000000E+00  0.45593999997E+02  0.45594000000E+02  0.51100000000E-03 0.  1.
         11   -1    0    0    0    0 -0.00000000000E+00 -0.00000000000E+00 -0.45593999997E+02  0.45594000000E+02  0.51100000000E-03 0. -1.
    9900012    2    1    2    0    0 -0.26178585439E+02 -0.66903492880E+01 -0.16930452983E+02  0.59301963128E+02  0.50000034834E+02 0.  0.
        -12    1    1    2    0    0  0.26178585439E+02  0.66903492880E+01  0.16930452983E+02  0.31886036872E+02  0.00000000000E+00 0.  1.
         11    1    3    3    0    0  0.44225051716E+00  0.15850977529E+01  0.76689868593E+01  0.78435629733E+01  0.51100000000E-03 0. -1.
        -11    1    3    3    0    0 -0.65544707861E+01  0.12049460235E+02 -0.17113336035E+02  0.21932096337E+02  0.51100000000E-03 0.  1.
         12    1    3    3    0    0 -0.20066365170E+02 -0.20324907276E+02 -0.74861038068E+01  0.29526303817E+02  0.00000000000E+00 0. -1.
</event>
<event>
 7    1  0.3750159E-013  0.5930195E+02  0.7816164E-02  0.1266605E+00
        -11   -1    0    0    0    0  0.00000000000E+00  0.00000000000E+00  0.45593999997E+02  0.45594000000E+02  0.51100000000E-03 0.  1.
         11   -1    0    0    0    0 -0.00000000000E+00 -0.00000000000E+00 -0.45593999997E+02  0.45594000000E+02  0.51100000000E-03 0. -1.
    9900012    2    1    2    0    0 -0.27744696066E+01 -0.31296041911E+02 -0.54387746690E+01  0.59301949903E+02  0.50000010715E+02 0.  0.
        -12    1    1    2    0    0  0.27744696066E+01  0.31296041911E+02  0.54387746690E+01  0.31886050097E+02  0.00000000000E+00 0.  1.
         11    1    3    3    0    0  0.88338658461E+01 -0.34346658882E+02  0.24327073045E+01  0.35547830134E+02  0.51100000000E-03 0. -1.
        -11    1    3    3    0    0 -0.44534644680E+01 -0.30171518484E+01 -0.12266591693E+02  0.13394245894E+02  0.51100000000E-03 0.  1.
        -12    1    3    3    0    0 -0.71548709848E+01  0.60677688193E+01  0.43951097199E+01  0.10359873875E+02  0.00000000000E+00 0.  1.
</event>
<event>
 7    1  0.3750159E-013  0.5930196E+02  0.7816164E-02  0.1266605E+00
        -11   -1    0    0    0    0  0.00000000000E+00  0.00000000000E+00  0.45593999997E+02  0.45594000000E+02  0.51100000000E-03 0.  1.
         11   -1    0    0    0    0 -0.00000000000E+00 -0.00000000000E+00 -0.45593999997E+02  0.45594000000E+02  0.51100000000E-03 0. -1.
    9900012    2    1    2    0    0  0.21655155941E+02 -0.13835106957E+02 -0.18877586393E+02  0.59301964948E+02  0.50000038153E+02 0.  0.
        -12    1    1    2    0    0 -0.21655155941E+02  0.13835106957E+02  0.18877586393E+02  0.31886035052E+02  0.00000000000E+00 0.  1.
         11    1    3    3    0    0 -0.10544342681E+02  0.36470212953E+01  0.50307509868E+01  0.12238969836E+02  0.51100000000E-03 0.  1.
        -11    1    3    3    0    0  0.95465648435E+01 -0.81794140249E+01 -0.17855961032E+02  0.21837469147E+02  0.51100000000E-03 0. -1.
        -12    1    3    3    0    0  0.22652933778E+02 -0.93027142273E+01 -0.60523763481E+01  0.25225525965E+02  0.00000000000E+00 0.  1.
</event>
<event>
 7    1  0.3750159E-013  0.5930196E+02  0.7816164E-02  0.1266605E+00
        -11   -1    0    0    0    0  0.00000000000E+00  0.00000000000E+00  0.45593999997E+02  0.45594000000E+02  0.51100000000E-03 0. -1.
         11   -1    0    0    0    0 -0.00000000000E+00 -0.00000000000E+00 -0.45593999997E+02  0.45594000000E+02  0.51100000000E-03 0.  1.
    9900012    2    1    2    0    0 -0.13954362208E+02  0.24641256436E+02 -0.14656175959E+02  0.59301964858E+02  0.50000037989E+02 0.  0.
        -12    1    1    2    0    0  0.13954362208E+02 -0.24641256436E+02  0.14656175959E+02  0.31886035142E+02  0.00000000000E+00 0.  1.
         11    1    3    3    0    0 -0.50683503865E+01 -0.13586297112E+01 -0.26804450563E+02  0.27313231603E+02  0.51100000000E-03 0. -1.
        -11    1    3    3    0    0  0.12352875951E+01  0.15879139873E+01 -0.12406492449E+01  0.23636025647E+01  0.51100000000E-03 0.  1.
         12    1    3    3    0    0 -0.10121299416E+02  0.24411972159E+02  0.13388923849E+02  0.29625130690E+02  0.00000000000E+00 0. -1.
</event>
<event>
 7    1  0.3750159E-013  0.5930193E+02  0.7816164E-02  0.1266605E+00
        -11   -1    0    0    0    0  0.00000000000E+00  0.00000000000E+00  0.45593999997E+02  0.45594000000E+02  0.51100000000E-03 0.  1.
         11   -1    0    0    0    0 -0.00000000000E+00 -0.00000000000E+00 -0.45593999997E+02  0.45594000000E+02  0.51100000000E-03 0. -1.
    9900012    2    1    2    0    0  0.61262792686E+01 -0.29052877541E+02  0.11624121697E+02  0.59301934136E+02  0.49999981959E+02 0.  0.
        -12    1    1    2    0    0 -0.61262792686E+01  0.29052877541E+02 -0.11624121697E+02  0.31886065864E+02  0.00000000000E+00 0.  1.
         11    1    3    3    0    0  0.12464229102E+02 -0.50130039064E+01 -0.17430885254E+01  0.13547161073E+02  0.51100000000E-03 0. -1.
        -11    1    3    3    0    0 -0.12417056335E+02 -0.59562007677E+01 -0.89269577298E+01  0.16411891731E+02  0.51100000000E-03 0.  1.
         12    1    3    3    0    0  0.60791065016E+01 -0.18083672867E+02  0.22294167952E+02  0.29342881332E+02  0.00000000000E+00 0. -1.
</event>
<event>
 7    1  0.3750159E-013  0.5930195E+02  0.7816164E-02  0.1266605E+00
        -11   -1    0    0    0    0  0.00000000000E+00  0.00000000000E+00  0.45593999997E+02  0.45594000000E+02  0.51100000000E-03 0.  1.
         11   -1    0    0    0    0 -0.00000000000E+00 -0.00000000000E+00 -0.45593999997E+02  0.45594000000E+02  0.51100000000E-03 0. -1.
    9900012    2    1    2    0    0  0.16550882240E+02 -0.92001552355E+01 -0.25654349606E+02  0.59301949555E+02  0.50000010080E+02 0.  0.
        -12    1    1    2    0    0 -0.16550882240E+02  0.92001552355E+01  0.25654349606E+02  0.31886050445E+02  0.00000000000E+00 0.  1.
         11    1    3    3    0    0  0.23059671280E+02 -0.50077516101E+01 -0.28141513506E+02  0.36725615017E+02  0.51100000000E-03 0. -1.
        -11    1    3    3    0    0  0.53327618205E+01  0.41352944443E+00 -0.54169331735E+01  0.76126552859E+01  0.51100000000E-03 0.  1.
        -12    1    3    3    0    0 -0.11841550860E+02 -0.46059330698E+01  0.79040970736E+01  0.14963679252E+02  0.00000000000E+00 0.  1.
</event>
<event>
 7    1  0.3750159E-013  0.5930197E+02  0.7816164E-02  0.1266605E+00
        -11   -1    0    0    0    0  0.00000000000E+00  0.00000000000E+00  0.45593999997E+02  0.45594000000E+02  0.51100000000E-03 0. -1.
         11   -1    0    0    0    0 -0.00000000000E+00 -0.00000000000E+00 -0.45593999997E+02  0.45594000000E+02  0.51100000000E-03 0.  1.
    9900012    2    1    2    0    0 -0.26308960495E+02  0.13189007647E+02 -0.12272216695E+02  0.59301974415E+02  0.50000055418E+02 0.  0.
        -12    1    1    2    0    0  0.26308960495E+02 -0.13189007647E+02  0.12272216695E+02  0.31886025585E+02  0.00000000000E+00 0.  1.
         11    1    3    3    0    0  0.63487749488E+01  0.82149536069E+01 -0.73358038201E+01  0.12712451536E+02  0.51100000000E-03 0. -1.
        -11    1    3    3    0    0  0.58749630850E+01 -0.11102174205E+01 -0.46566951406E+01  0.75784288519E+01  0.51100000000E-03 0.  1.
         12    1    3    3    0    0 -0.38532698529E+02  0.60842714606E+01 -0.27971773391E+00  0.39011094026E+02  0.00000000000E+00 0. -1.
</event>
<event>
 7    1  0.3750159E-013  0.5930194E+02  0.7816164E-02  0.1266605E+00
        -11   -1    0    0    0    0  0.00000000000E+00  0.00000000000E+00  0.45593999997E+02  0.45594000000E+02  0.51100000000E-03 0. -1.
         11   -1    0    0    0    0 -0.00000000000E+00 -0.00000000000E+00 -0.45593999997E+02  0.45594000000E+02  0.51100000000E-03 0.  1.
    9900012    2    1    2    0    0 -0.28596345925E+02  0.54469646932E+01  0.13011545857E+02  0.59301941131E+02  0.49999994716E+02 0.  0.
        -12    1    1    2    0    0  0.28596345925E+02 -0.54469646932E+01 -0.13011545857E+02  0.31886058869E+02  0.00000000000E+00 0.  1.
         11    1    3    3    0    0 -0.57795462003E+01 -0.11118997526E+01 -0.61777939437E+01  0.85325619607E+01  0.51100000000E-03 0. -1.
        -11    1    3    3    0    0  0.80510250725E+01 -0.57257855876E+01 -0.35634442653E+01  0.10502464502E+02  0.51100000000E-03 0.  1.
         12    1    3    3    0    0 -0.30867824797E+02  0.12284650033E+02  0.22752784066E+02  0.40266914668E+02  0.00000000000E+00 0. -1.
</event>
<event>
 7    1  0.3750159E-013  0.5930183E+02  0.7816164E-02  0.1266605E+00
        -11   -1    0    0    0    0  0.00000000000E+00  0.00000000000E+00  0.45593999997E+02  0.45594000000E+02  0.51100000000E-03 0.  1.
         11   -1    0    0    0    0 -0.00000000000E+00 -0.00000000000E+00 -0.45593999997E+02  0.45594000000E+02  0.51100000000E-03 0. -1.
    9900012    2    1    2    0    0  0.99177500314E+01  0.52109508558E+01 -0.29853170884E+02  0.59301833935E+02  0.49999799217E+02 0.  0.
        -12    1    1    2    0    0 -0.99177500314E+01 -0.52109508558E+01  0.29853170884E+02  0.31886166065E+02  0.00000000000E+00 0.  1.
         11    1    3    3    0    0  0.88171450550E+01  0.10147664019E+02 -0.26593865672E+02  0.29798503715E+02  0.51100000000E-03 0. -1.
        -11    1    3    3    0    0 -0.77549372297E+01  0.94223475201E+01  0.52252387976E+00  0.12214447007E+02  0.51100000000E-03 0.  1.
         12    1    3    3    0    0  0.88555422060E+01 -0.14359060684E+02 -0.37818290914E+01  0.17288883213E+02  0.00000000000E+00 0. -1.
</event>
<event>
 7    1  0.3750159E-013  0.5930194E+02  0.7816164E-02  0.1266605E+00
        -11   -1    0    0    0    0  0.00000000000E+00  0.00000000000E+00  0.45593999997E+02  0.45594000000E+02  0.51100000000E-03 0.  1.
         11   -1    0    0    0    0 -0.00000000000E+00 -0.00000000000E+00 -0.45593999997E+02  0.45594000000E+02  0.51100000000E-03 0. -1.
    9900012    2    1    2    0    0 -0.22617750520E+02  0.10963164187E+02  0.19620573830E+02  0.59301944662E+02  0.50000001157E+02 0.  0.
        -12    1    1    2    0    0  0.22617750520E+02 -0.10963164187E+02 -0.19620573830E+02  0.31886055338E+02  0.00000000000E+00 0.  1.
         11    1    3    3    0    0 -0.11623457904E+02  0.10920770499E+02  0.87133674824E+01  0.18173903683E+02  0.51100000000E-03 0.  1.
        -11    1    3    3    0    0  0.74122254105E+01  0.47369267088E+01 -0.97045454384E+01  0.13098006055E+02  0.51100000000E-03 0. -1.
        -12    1    3    3    0    0 -0.18406518027E+02 -0.46945330210E+01  0.20611751786E+02  0.28030034924E+02  0.00000000000E+00 0.  1.
</event>
<event>
 7    1  0.3750159E-013  0.5930211E+02  0.7816164E-02  0.1266604E+00
        -11   -1    0    0    0    0  0.00000000000E+00  0.00000000000E+00  0.45593999997E+02  0.45594000000E+02  0.51100000000E-03 0.  1.
         11   -1    0    0    0    0 -0.00000000000E+00 -0.00000000000E+00 -0.45593999997E+02  0.45594000000E+02  0.51100000000E-03 0. -1.
    9900012    2    1    2    0    0 -0.45029716872E+00  0.16050061771E+01 -0.31842289032E+02  0.59302106831E+02  0.50000296914E+02 0.  0.
        -12    1    1    2    0    0  0.45029716872E+00 -0.16050061771E+01  0.31842289032E+02  0.31885893169E+02  0.00000000000E+00 0.  1.
         11    1    3    3    0    0 -0.65923461948E+01 -0.70835234238E+01 -0.94836867814E+01  0.13549009103E+02  0.51100000000E-03 0. -1.
        -11    1    3    3    0    0 -0.15460377630E+02 -0.23584833958E+01 -0.81427160084E+01  0.17632060136E+02  0.51100000000E-03 0.  1.
        -12    1    3    3    0    0  0.21602426656E+02  0.11047012997E+02 -0.14215886242E+02  0.28121037592E+02  0.00000000000E+00 0.  1.
</event>
<event>
 7    1  0.3750159E-013  0.5930195E+02  0.7816164E-02  0.1266605E+00
        -11   -1    0    0    0    0  0.00000000000E+00  0.00000000000E+00  0.45593999997E+02  0.45594000000E+02  0.51100000000E-03 0. -1.
         11   -1    0    0    0    0 -0.00000000000E+00 -0.00000000000E+00 -0.45593999997E+02  0.45594000000E+02  0.51100000000E-03 0.  1.
    9900012    2    1    2    0    0 -0.64900943535E+01  0.19846779244E+02  0.24097804735E+02  0.59301950321E+02  0.50000011478E+02 0.  0.
        -12    1    1    2    0    0  0.64900943535E+01 -0.19846779244E+02 -0.24097804735E+02  0.31886049679E+02  0.00000000000E+00 0.  1.
         11    1    3    3    0    0  0.46796519113E+01  0.16189536816E+02  0.60340933278E+01  0.17900014717E+02  0.51100000000E-03 0. -1.
        -11    1    3    3    0    0  0.73246147959E+01  0.10582939177E+02 -0.22557894998E+01  0.13066643412E+02  0.51100000000E-03 0.  1.
        -12    1    3    3    0    0 -0.18494361061E+02 -0.69256967489E+01  0.20319500907E+02  0.28335292192E+02  0.00000000000E+00 0.  1.
</event>
<event>
 7    1  0.3750159E-013  0.5930195E+02  0.7816164E-02  0.1266605E+00
        -11   -1    0    0    0    0  0.00000000000E+00  0.00000000000E+00  0.45593999997E+02  0.45594000000E+02  0.51100000000E-03 0.  1.
         11   -1    0    0    0    0 -0.00000000000E+00 -0.00000000000E+00 -0.45593999997E+02  0.45594000000E+02  0.51100000000E-03 0. -1.
    9900012    2    1    2    0    0 -0.16346889138E+02  0.90526889341E+01  0.25836959831E+02  0.59301945765E+02  0.50000003168E+02 0.  0.
        -12    1    1    2    0    0  0.16346889138E+02 -0.90526889341E+01 -0.25836959831E+02  0.31886054235E+02  0.00000000000E+00 0.  1.
         11    1    3    3    0    0  0.40261593220E+01  0.10189918546E+02  0.60247332256E+01  0.12503671843E+02  0.51100000000E-03 0. -1.
        -11    1    3    3    0    0 -0.10710897427E+02  0.11868941155E+02 -0.53603754261E+01  0.16862049484E+02  0.51100000000E-03 0.  1.
        -12    1    3    3    0    0 -0.96621510322E+01 -0.13006170766E+02  0.25172602031E+02  0.29936224438E+02  0.00000000000E+00 0.  1.
</event>
<event>
 7    1  0.3750159E-013  0.5930193E+02  0.7816164E-02  0.1266605E+00
        -11   -1    0    0    0    0  0.00000000000E+00  0.00000000000E+00  0.45593999997E+02  0.45594000000E+02  0.51100000000E-03 0. -1.
         11   -1    0    0    0    0 -0.00000000000E+00 -0.00000000000E+00 -0.45593999997E+02  0.45594000000E+02  0.51100000000E-03 0.  1.
    9900012    2    1    2    0    0 -0.19984290428E+02  0.42709640578E+01  0.24476696209E+02  0.59301926940E+02  0.49999968835E+02 0.  0.
        -12    1    1    2    0    0  0.19984290428E+02 -0.42709640578E+01 -0.24476696209E+02  0.31886073060E+02  0.00000000000E+00 0.  1.
         11    1    3    3    0    0 -0.10155189273E+02  0.94202288236E+01  0.20921049813E+02  0.25091012450E+02  0.51100000000E-03 0. -1.
        -11    1    3    3    0    0 -0.13454902989E+01 -0.16692153778E+02  0.88472110814E+01  0.18939680200E+02  0.51100000000E-03 0.  1.
        -12    1    3    3    0    0 -0.84836108555E+01  0.11542889013E+02 -0.52915646845E+01  0.15271234289E+02  0.00000000000E+00 0.  1.
</event>
<event>
 7    1  0.3750159E-013  0.5930193E+02  0.7816164E-02  0.1266605E+00
        -11   -1    0    0    0    0  0.00000000000E+00  0.00000000000E+00  0.45593999997E+02  0.45594000000E+02  0.51100000000E-03 0.  1.
         11   -1    0    0    0    0 -0.00000000000E+00 -0.00000000000E+00 -0.45593999997E+02  0.45594000000E+02  0.51100000000E-03 0. -1.
    9900012    2    1    2    0    0 -0.15234973679E+02 -0.10810883563E+02 -0.25840695798E+02  0.59301934301E+02  0.49999982260E+02 0.  0.
        -12    1    1    2    0    0  0.15234973679E+02  0.10810883563E+02  0.25840695798E+02  0.31886065699E+02  0.00000000000E+00 0.  1.
         11    1    3    3    0    0  0.11993912048E+01 -0.33135321619E+01 -0.43769752789E+01  0.56192479483E+01  0.51100000000E-03 0. -1.
        -11    1    3    3    0    0  0.74190899982E+01  0.82737773941E+01 -0.22471464352E+02  0.25069204199E+02  0.51100000000E-03 0.  1.
        -12    1    3    3    0    0 -0.23853454882E+02 -0.15771128796E+02  0.10077438331E+01  0.28613482154E+02  0.00000000000E+00 0.  1.
</event>
<event>
 7    1  0.3750159E-013  0.5930193E+02  0.7816164E-02  0.1266605E+00
        -11   -1    0    0    0    0  0.00000000000E+00  0.00000000000E+00  0.45593999997E+02  0.45594000000E+02  0.51100000000E-03 0.  1.
         11   -1    0    0    0    0 -0.00000000000E+00 -0.00000000000E+00 -0.45593999997E+02  0.45594000000E+02  0.51100000000E-03 0. -1.
    9900012    2    1    2    0    0 -0.29442596292E+02 -0.12237015375E+02  0.33200340923E+00  0.59301933326E+02  0.49999980482E+02 0.  0.
        -12    1    1    2    0    0  0.29442596292E+02  0.12237015375E+02 -0.33200340923E+00  0.31886066674E+02  0.00000000000E+00 0.  1.
         11    1    3    3    0    0 -0.29621196952E+02  0.25590152890E+01  0.34877460586E+01  0.29935401132E+02  0.51100000000E-03 0. -1.
        -11    1    3    3    0    0 -0.12435312528E+02 -0.59834273046E+01 -0.18584573963E+01  0.13924520248E+02  0.51100000000E-03 0.  1.
        -12    1    3    3    0    0  0.12613913188E+02 -0.88126033596E+01 -0.12972852531E+01  0.15442011945E+02  0.00000000000E+00 0.  1.
</event>
<event>
 7    1  0.3750159E-013  0.5930195E+02  0.7816164E-02  0.1266605E+00
        -11   -1    0    0    0    0  0.00000000000E+00  0.00000000000E+00  0.45593999997E+02  0.45594000000E+02  0.51100000000E-03 0.  1.
         11   -1    0    0    0    0 -0.00000000000E+00 -0.00000000000E+00 -0.45593999997E+02  0.45594000000E+02  0.51100000000E-03 0. -1.
    9900012    2    1    2    0    0  0.13052389498E+02 -0.13722112396E+02 -0.25652665260E+02  0.59301945443E+02  0.50000002582E+02 0.  0.
        -12    1    1    2    0    0 -0.13052389498E+02  0.13722112396E+02  0.25652665260E+02  0.31886054557E+02  0.00000000000E+00 0.  1.
         11    1    3    3    0    0  0.17714550345E+02 -0.11190737579E+02 -0.22917317545E+02  0.31052235752E+02  0.51100000000E-03 0. -1.
        -11    1    3    3    0    0  0.42247405749E+01 -0.11440090838E+02  0.53239035176E+01  0.13306692310E+02  0.51100000000E-03 0.  1.
        -12    1    3    3    0    0 -0.88869014223E+01  0.89087160208E+01 -0.80592512332E+01  0.14943017382E+02  0.00000000000E+00 0.  1.
</event>
<event>
 7    1  0.3750159E-013  0.5930196E+02  0.7816164E-02  0.1266605E+00
        -11   -1    0    0    0    0  0.00000000000E+00  0.00000000000E+00  0.45593999997E+02  0.45594000000E+02  0.51100000000E-03 0. -1.
         11   -1    0    0    0    0 -0.00000000000E+00 -0.00000000000E+00 -0.45593999997E+02  0.45594000000E+02  0.51100000000E-03 0.  1.
    9900012    2    1    2    0    0  0.37268510112E+01  0.23946287490E+02  0.20722095902E+02  0.59301962906E+02  0.50000034429E+02 0.  0.
        -12    1    1    2    0    0 -0.37268510112E+01 -0.23946287490E+02 -0.20722095902E+02  0.31886037094E+02  0.00000000000E+00 0.  1.
         11    1    3    3    0    0  0.64230308641E+01  0.81682028721E+01  0.17629267668E+02  0.20463771461E+02  0.51100000000E-03 0. -1.
        -11    1    3    3    0    0  0.16204954696E+02  0.58565877202E+01 -0.24148197384E+00  0.17232483577E+02  0.51100000000E-03 0.  1.
         12    1    3    3    0    0 -0.18901134549E+02  0.99214968977E+01  0.33343102075E+01  0.21605707868E+02  0.00000000000E+00 0. -1.
</event>
<event>
 7    1  0.3750159E-013  0.5930195E+02  0.7816164E-02  0.1266605E+00
        -11   -1    0    0    0    0  0.00000000000E+00  0.00000000000E+00  0.45593999997E+02  0.45594000000E+02  0.51100000000E-03 0.  1.
         11   -1    0    0    0    0 -0.00000000000E+00 -0.00000000000E+00 -0.45593999997E+02  0.45594000000E+02  0.51100000000E-03 0. -1.
    9900012    2    1    2    0    0 -0.21685680372E+02  0.74890152581E+01 -0.22144209671E+02  0.59301951253E+02  0.50000013177E+02 0.  0.
        -12    1    1    2    0    0  0.21685680372E+02 -0.74890152581E+01  0.22144209671E+02  0.31886048747E+02  0.00000000000E+00 0.  1.
         11    1    3    3    0    0  0.87141068257E+01  0.44685013781E+00  0.28011641049E+01  0.91641613593E+01  0.51100000000E-03 0.  1.
        -11    1    3    3    0    0 -0.27345608408E+02 -0.54886510133E+01 -0.24671940097E+02  0.37237242346E+02  0.51100000000E-03 0. -1.
         12    1    3    3    0    0 -0.30541787894E+01  0.12530816134E+02 -0.27343367969E+00  0.12900547548E+02  0.00000000000E+00 0. -1.
</event>
<event>
 7    1  0.3750159E-013  0.5930195E+02  0.7816164E-02  0.1266605E+00
        -11   -1    0    0    0    0  0.00000000000E+00  0.00000000000E+00  0.45593999997E+02  0.45594000000E+02  0.51100000000E-03 0. -1.
         11   -1    0    0    0    0 -0.00000000000E+00 -0.00000000000E+00 -0.45593999997E+02  0.45594000000E+02  0.51100000000E-03 0.  1.
    9900012    2    1    2    0    0 -0.15136263012E+02  0.19588011967E+02  0.20097855606E+02  0.59301945513E+02  0.50000002709E+02 0.  0.
        -12    1    1    2    0    0  0.15136263012E+02 -0.19588011967E+02 -0.20097855606E+02  0.31886054487E+02  0.00000000000E+00 0.  1.
         11    1    3    3    0    0 -0.55433439494E+01  0.20117365292E+02  0.10641402619E+02  0.23423844655E+02  0.51100000000E-03 0. -1.
        -11    1    3    3    0    0 -0.18024482795E+02 -0.39355156603E+01  0.16203780924E+02  0.24554689573E+02  0.51100000000E-03 0.  1.
        -12    1    3    3    0    0  0.84315637330E+01  0.34061623355E+01 -0.67473279371E+01  0.11323411285E+02  0.00000000000E+00 0.  1.
</event>
<event>
 7    1  0.3750159E-013  0.5930194E+02  0.7816164E-02  0.1266605E+00
        -11   -1    0    0    0    0  0.00000000000E+00  0.00000000000E+00  0.45593999997E+02  0.45594000000E+02  0.51100000000E-03 0. -1.
         11   -1    0    0    0    0 -0.00000000000E+00 -0.00000000000E+00 -0.45593999997E+02  0.45594000000E+02  0.51100000000E-03 0.  1.
    9900012    2    1    2    0    0  0.86134415104E+01 -0.75046703615E-01  0.30700549537E+02  0.59301941157E+02  0.49999994765E+02 0.  0.
        -12    1    1    2    0    0 -0.86134415104E+01  0.75046703615E-01 -0.30700549537E+02  0.31886058843E+02  0.00000000000E+00 0.  1.
         11    1    3    3    0    0  0.65972405070E+01 -0.44848653482E+00  0.16518389898E+02  0.17792749298E+02  0.51100000000E-03 0. -1.
        -11    1    3    3    0    0 -0.53114179343E+01  0.17256629243E+02  0.14413332520E+02  0.23102955826E+02  0.51100000000E-03 0.  1.
         12    1    3    3    0    0  0.73276189376E+01 -0.16883189412E+02 -0.23117288221E+00  0.18406236033E+02  0.00000000000E+00 0. -1.
</event>
<event>
 7    1  0.3750159E-013  0.5930200E+02  0.7816164E-02  0.1266605E+00
        -11   -1    0    0    0    0  0.00000000000E+00  0.00000000000E+00  0.45593999997E+02  0.45594000000E+02  0.51100000000E-03 0.  1.
         11   -1    0    0    0    0 -0.00000000000E+00 -0.00000000000E+00 -0.45593999997E+02  0.45594000000E+02  0.51100000000E-03 0. -1.
    9900012    2    1    2    0    0 -0.28825346854E+02  0.13141397632E+02 -0.36221524623E+01  0.59302000856E+02  0.50000103641E+02 0.  0.
        -12    1    1    2    0    0  0.28825346854E+02 -0.13141397632E+02  0.36221524623E+01  0.31885999144E+02  0.00000000000E+00 0.  1.
         11    1    3    3    0    0 -0.13477469660E+02  0.23410726414E+01  0.16195991597E+01  0.13774828900E+02  0.51100000000E-03 0.  1.
        -11    1    3    3    0    0  0.10205587757E+01 -0.12616448114E+02 -0.10537779891E+02  0.16470006330E+02  0.51100000000E-03 0. -1.
         12    1    3    3    0    0 -0.16368435970E+02  0.23416773105E+02  0.52960282688E+01  0.29057165625E+02  0.00000000000E+00 0. -1.
</event>
<event>
 7    1  0.3750159E-013  0.5930196E+02  0.7816164E-02  0.1266605E+00
        -11   -1    0    0    0    0  0.00000000000E+00  0.00000000000E+00  0.45593999997E+02  0.45594000000E+02  0.51100000000E-03 0.  1.
         11   -1    0    0    0    0 -0.00000000000E+00 -0.00000000000E+00 -0.45593999997E+02  0.45594000000E+02  0.51100000000E-03 0. -1.
    9900012    2    1    2    0    0  0.16174361068E+00  0.15301989947E+02 -0.27973964474E+02  0.59301956882E+02  0.50000023442E+02 0.  0.
        -12    1    1    2    0    0 -0.16174361068E+00 -0.15301989947E+02  0.27973964474E+02  0.31886043118E+02  0.00000000000E+00 0.  1.
         11    1    3    3    0    0  0.84892891534E+01  0.79523195963E+01 -0.12078446369E+01  0.11694712746E+02  0.51100000000E-03 0. -1.
        -11    1    3    3    0    0 -0.11076679407E+01 -0.43831011281E+01  0.85652168609E+01  0.96851145528E+01  0.51100000000E-03 0.  1.
         12    1    3    3    0    0 -0.72198776020E+01  0.11732771479E+02 -0.35331336698E+02  0.37922129582E+02  0.00000000000E+00 0. -1.
</event>
<event>
 7    1  0.3750159E-013  0.5930195E+02  0.7816164E-02  0.1266605E+00
        -11   -1    0    0    0    0  0.00000000000E+00  0.00000000000E+00  0.45593999997E+02  0.45594000000E+02  0.51100000000E-03 0.  1.
         11   -1    0    0    0    0 -0.00000000000E+00 -0.00000000000E+00 -0.45593999997E+02  0.45594000000E+02  0.51100000000E-03 0. -1.
    9900012    2    1    2    0    0 -0.21229604889E+02  0.20908353903E+02 -0.11351865228E+02  0.59301949275E+02  0.50000009570E+02 0.  0.
        -12    1    1    2    0    0  0.21229604889E+02 -0.20908353903E+02  0.11351865228E+02  0.31886050725E+02  0.00000000000E+00 0.  1.
         11    1    3    3    0    0  0.90494385843E+01  0.19548672233E+02 -0.23340528943E+01  0.21667734721E+02  0.51100000000E-03 0. -1.
        -11    1    3    3    0    0 -0.24722346790E+00 -0.48133383206E+01  0.17664401717E+01  0.51331916361E+01  0.51100000000E-03 0.  1.
         12    1    3    3    0    0 -0.30031820005E+02  0.61730199902E+01 -0.10784252506E+02  0.32501022918E+02  0.00000000000E+00 0. -1.
</event>
<event>
 7    1  0.3750159E-013  0.5930195E+02  0.7816164E-02  0.1266605E+00
        -11   -1    0    0    0    0  0.00000000000E+00  0.00000000000E+00  0.45593999997E+02  0.45594000000E+02  0.51100000000E-03 0.  1.
         11   -1    0    0    0    0 -0.00000000000E+00 -0.00000000000E+00 -0.45593999997E+02  0.45594000000E+02  0.51100000000E-03 0. -1.
    9900012    2    1    2    0    0  0.12557514096E+02  0.14984728953E+02 -0.25189022427E+02  0.59301951125E+02  0.50000012943E+02 0.  0.
        -12    1    1    2    0    0 -0.12557514096E+02 -0.14984728953E+02  0.25189022427E+02  0.31886048875E+02  0.00000000000E+00 0.  1.
         11    1    3    3    0    0  0.99598210042E+01  0.17697740924E+02 -0.24187731051E+00  0.20309273082E+02  0.51100000000E-03 0. -1.
        -11    1    3    3    0    0 -0.18200544937E+01 -0.66550438994E+01  0.49649849581E+01  0.85001931483E+01  0.51100000000E-03 0.  1.
         12    1    3    3    0    0  0.44177475855E+01  0.39420319287E+01 -0.29912130074E+02  0.30492484894E+02  0.00000000000E+00 0. -1.
</event>
<event>
 7    1  0.3750159E-013  0.5930193E+02  0.7816164E-02  0.1266605E+00
        -11   -1    0    0    0    0  0.00000000000E+00  0.00000000000E+00  0.45593999997E+02  0.45594000000E+02  0.51100000000E-03 0. -1.
         11   -1    0    0    0    0 -0.00000000000E+00 -0.00000000000E+00 -0.45593999997E+02  0.45594000000E+02  0.51100000000E-03 0.  1.
    9900012    2    1    2    0    0 -0.21900711544E+02 -0.83896424074E+01  0.21603103500E+02  0.59301931777E+02  0.49999977658E+02 0.  0.
        -12    1    1    2    0    0  0.21900711544E+02  0.83896424074E+01 -0.21603103500E+02  0.31886068223E+02  0.00000000000E+00 0.  1.
         11    1    3    3    0    0  0.46691189525E+01 -0.34224196618E+01  0.25984733981E+01  0.63455253837E+01  0.51100000000E-03 0. -1.
        -11    1    3    3    0    0 -0.50282728661E+01 -0.18291779297E+02 -0.32409370381E+01  0.19245165393E+02  0.51100000000E-03 0.  1.
         12    1    3    3    0    0 -0.21541557631E+02  0.13324556551E+02  0.22245567140E+02  0.33711241001E+02  0.00000000000E+00 0. -1.
</event>
<event>
 7    1  0.3750159E-013  0.5930196E+02  0.7816164E-02  0.1266605E+00
        -11   -1    0    0    0    0  0.00000000000E+00  0.00000000000E+00  0.45593999997E+02  0.45594000000E+02  0.51100000000E-03 0.  1.
         11   -1    0    0    0    0 -0.00000000000E+00 -0.00000000000E+00 -0.45593999997E+02  0.45594000000E+02  0.51100000000E-03 0. -1.
    9900012    2    1    2    0    0 -0.22288441701E+02  0.21468633382E+02 -0.76839265225E+01  0.59301959488E+02  0.50000028195E+02 0.  0.
        -12    1    1    2    0    0  0.22288441701E+02 -0.21468633382E+02  0.76839265225E+01  0.31886040512E+02  0.00000000000E+00 0.  1.
         11    1    3    3    0    0  0.93482036019E+01  0.16985907757E+01  0.48784905721E+01  0.10680533307E+02  0.51100000000E-03 0. -1.
        -11    1    3    3    0    0 -0.35708920120E+01  0.20594051031E+01 -0.14796205625E+02  0.15359691413E+02  0.51100000000E-03 0.  1.
         12    1    3    3    0    0 -0.28065753291E+02  0.17710637503E+02  0.22337885304E+01  0.33261734768E+02  0.00000000000E+00 0. -1.
</event>
<event>
 7    1  0.3750159E-013  0.5930194E+02  0.7816164E-02  0.1266605E+00
        -11   -1    0    0    0    0  0.00000000000E+00  0.00000000000E+00  0.45593999997E+02  0.45594000000E+02  0.51100000000E-03 0.  1.
         11   -1    0    0    0    0 -0.00000000000E+00 -0.00000000000E+00 -0.45593999997E+02  0.45594000000E+02  0.51100000000E-03 0. -1.
    9900012    2    1    2    0    0 -0.71896410732E+00  0.44445002680E+01 -0.31566596597E+02  0.59301944855E+02  0.50000001509E+02 0.  0.
        -12    1    1    2    0    0  0.71896410732E+00 -0.44445002680E+01  0.31566596597E+02  0.31886055145E+02  0.00000000000E+00 0.  1.
         11    1    3    3    0    0 -0.43112150771E+01 -0.20106912828E+01 -0.20834064972E+02  0.21370253119E+02  0.51100000000E-03 0. -1.
        -11    1    3    3    0    0  0.15054942320E+02  0.19469610478E+01 -0.18065558353E+02  0.23596744361E+02  0.51100000000E-03 0.  1.
         12    1    3    3    0    0 -0.11462691350E+02  0.45082305031E+01  0.73330267280E+01  0.14334947375E+02  0.00000000000E+00 0. -1.
</event>
<event>
 7    1  0.3750159E-013  0.5930195E+02  0.7816164E-02  0.1266605E+00
        -11   -1    0    0    0    0  0.00000000000E+00  0.00000000000E+00  0.45593999997E+02  0.45594000000E+02  0.51100000000E-03 0. -1.
         11   -1    0    0    0    0 -0.00000000000E+00 -0.00000000000E+00 -0.45593999997E+02  0.45594000000E+02  0.51100000000E-03 0.  1.
    9900012    2    1    2    0    0 -0.73349011212E+01 -0.95477901108E+01  0.29525571716E+02  0.59301945751E+02  0.50000003142E+02 0.  0.
        -12    1    1    2    0    0  0.73349011212E+01  0.95477901108E+01 -0.29525571716E+02  0.31886054249E+02  0.00000000000E+00 0.  1.
         11    1    3    3    0    0  0.12829695974E+02 -0.83853345830E+01  0.14334768410E+02  0.20985721824E+02  0.51100000000E-03 0. -1.
        -11    1    3    3    0    0  0.68447161209E+00 -0.98355666592E+01 -0.18440365463E+01  0.10030321228E+02  0.51100000000E-03 0.  1.
        -12    1    3    3    0    0 -0.20849068707E+02  0.86731111314E+01  0.17034839852E+02  0.28285902698E+02  0.00000000000E+00 0.  1.
</event>
<event>
 7    1  0.3750159E-013  0.5930197E+02  0.7816164E-02  0.1266605E+00
        -11   -1    0    0    0    0  0.00000000000E+00  0.00000000000E+00  0.45593999997E+02  0.45594000000E+02  0.51100000000E-03 0. -1.
         11   -1    0    0    0    0 -0.00000000000E+00 -0.00000000000E+00 -0.45593999997E+02  0.45594000000E+02  0.51100000000E-03 0.  1.
    9900012    2    1    2    0    0 -0.13227986188E+02  0.25065501028E+02 -0.14610278935E+02  0.59301965268E+02  0.50000038738E+02 0.  0.
        -12    1    1    2    0    0  0.13227986188E+02 -0.25065501028E+02  0.14610278935E+02  0.31886034732E+02  0.00000000000E+00 0.  1.
         11    1    3    3    0    0  0.36094756124E+01  0.69541413979E+01 -0.96690104123E+01  0.12445005399E+02  0.51100000000E-03 0. -1.
        -11    1    3    3    0    0  0.55067532871E+01  0.95251198501E+00 -0.15726975607E+02  0.16690397624E+02  0.51100000000E-03 0.  1.
         12    1    3    3    0    0 -0.22344215087E+02  0.17158847645E+02  0.10785707084E+02  0.30166562245E+02  0.00000000000E+00 0. -1.
</event>
<event>
 7    1  0.3750159E-013  0.5930186E+02  0.7816164E-02  0.1266605E+00
        -11   -1    0    0    0    0  0.00000000000E+00  0.00000000000E+00  0.45593999997E+02  0.45594000000E+02  0.51100000000E-03 0.  1.
         11   -1    0    0    0    0 -0.00000000000E+00 -0.00000000000E+00 -0.45593999997E+02  0.45594000000E+02  0.51100000000E-03 0. -1.
    9900012    2    1    2    0    0  0.17580439553E+02 -0.33698121544E+01 -0.26387463691E+02  0.59301863061E+02  0.49999852336E+02 0.  0.
        -12    1    1    2    0    0 -0.17580439553E+02  0.33698121544E+01  0.26387463691E+02  0.31886136939E+02  0.00000000000E+00 0.  1.
         11    1    3    3    0    0 -0.29217469131E+00 -0.30881591216E+01  0.26136263054E+01  0.40562464837E+01  0.51100000000E-03 0. -1.
        -11    1    3    3    0    0  0.29505610274E+02  0.10286206580E+02 -0.17991650884E+02  0.36056713456E+02  0.51100000000E-03 0.  1.
         12    1    3    3    0    0 -0.11632996030E+02 -0.10567859613E+02 -0.11009439113E+02  0.19188903121E+02  0.00000000000E+00 0. -1.
</event>
<event>
 7    1  0.3750159E-013  0.5930199E+02  0.7816164E-02  0.1266605E+00
        -11   -1    0    0    0    0  0.00000000000E+00  0.00000000000E+00  0.45593999997E+02  0.45594000000E+02  0.51100000000E-03 0. -1.
         11   -1    0    0    0    0 -0.00000000000E+00 -0.00000000000E+00 -0.45593999997E+02  0.45594000000E+02  0.51100000000E-03 0.  1.
    9900012    2    1    2    0    0  0.25145774999E+02 -0.55897963053E+01  0.18792602580E+02  0.59301988415E+02  0.50000080952E+02 0.  0.
        -12    1    1    2    0    0 -0.25145774999E+02  0.55897963053E+01 -0.18792602580E+02  0.31886011585E+02  0.00000000000E+00 0.  1.
         11    1    3    3    0    0  0.81577984676E+01  0.32778083384E+01  0.60091580668E+01  0.10649116596E+02  0.51100000000E-03 0. -1.
        -11    1    3    3    0    0  0.11139878027E+02  0.12565927841E+02  0.19219567893E+02  0.25522366960E+02  0.51100000000E-03 0.  1.
        -12    1    3    3    0    0  0.58480985048E+01 -0.21433532485E+02 -0.64361233799E+01  0.23130504860E+02  0.00000000000E+00 0.  1.
</event>
<event>
 7    1  0.3750159E-013  0.5930213E+02  0.7816164E-02  0.1266604E+00
        -11   -1    0    0    0    0  0.00000000000E+00  0.00000000000E+00  0.45593999997E+02  0.45594000000E+02  0.51100000000E-03 0.  1.
         11   -1    0    0    0    0 -0.00000000000E+00 -0.00000000000E+00 -0.45593999997E+02  0.45594000000E+02  0.51100000000E-03 0. -1.
    9900012    2    1    2    0    0 -0.77485456070E+01 -0.24366124106E+02 -0.19051524059E+02  0.59302132724E+02  0.50000344136E+02 0.  0.
        -12    1    1    2    0    0  0.77485456070E+01  0.24366124106E+02  0.19051524059E+02  0.31885867276E+02  0.00000000000E+00 0.  1.
         11    1    3    3    0    0 -0.20807414840E+01 -0.39076254798E+01 -0.11943419498E+02  0.12737515126E+02  0.51100000000E-03 0. -1.
        -11    1    3    3    0    0 -0.16915946184E+01 -0.47331779062E+01 -0.23186953825E+02  0.23725498802E+02  0.51100000000E-03 0.  1.
        -12    1    3    3    0    0 -0.39762095045E+01 -0.15725320720E+02  0.16078849264E+02  0.22839118797E+02  0.00000000000E+00 0.  1.
</event>
<event>
 7    1  0.3750159E-013  0.5930184E+02  0.7816164E-02  0.1266605E+00
        -11   -1    0    0    0    0  0.00000000000E+00  0.00000000000E+00  0.45593999997E+02  0.45594000000E+02  0.51100000000E-03 0.  1.
         11   -1    0    0    0    0 -0.00000000000E+00 -0.00000000000E+00 -0.45593999997E+02  0.45594000000E+02  0.51100000000E-03 0. -1.
    9900012    2    1    2    0    0  0.77627032013E+01 -0.89337313356E+01 -0.29608374190E+02  0.59301844089E+02  0.49999817736E+02 0.  0.
        -12    1    1    2    0    0 -0.77627032013E+01  0.89337313356E+01  0.29608374190E+02  0.31886155911E+02  0.00000000000E+00 0.  1.
         11    1    3    3    0    0  0.95371930447E+00  0.16633668967E+01 -0.89466240287E+01  0.91497787797E+01  0.51100000000E-03 0. -1.
        -11    1    3    3    0    0 -0.18402223848E+02 -0.36944344002E+00 -0.68411195583E+01  0.19636171930E+02  0.51100000000E-03 0.  1.
         12    1    3    3    0    0  0.25211207745E+02 -0.10227654792E+02 -0.13820630603E+02  0.30515893380E+02  0.00000000000E+00 0. -1.
</event>
<event>
 7    1  0.3750159E-013  0.5930195E+02  0.7816164E-02  0.1266605E+00
        -11   -1    0    0    0    0  0.00000000000E+00  0.00000000000E+00  0.45593999997E+02  0.45594000000E+02  0.51100000000E-03 0. -1.
         11   -1    0    0    0    0 -0.00000000000E+00 -0.00000000000E+00 -0.45593999997E+02  0.45594000000E+02  0.51100000000E-03 0.  1.
    9900012    2    1    2    0    0  0.48773202608E+01 -0.31391911633E+02  0.27349555326E+01  0.59301947396E+02  0.50000006142E+02 0.  0.
        -12    1    1    2    0    0 -0.48773202608E+01  0.31391911633E+02 -0.27349555326E+01  0.31886052604E+02  0.00000000000E+00 0.  1.
         11    1    3    3    0    0  0.48291026846E+01 -0.32288046967E+02 -0.58014604578E+00  0.32652331914E+02  0.51100000000E-03 0. -1.
        -11    1    3    3    0    0  0.10804995325E+01 -0.82493693178E+01  0.11594063925E+02  0.14270315061E+02  0.51100000000E-03 0.  1.
        -12    1    3    3    0    0 -0.10322819563E+01  0.91455046519E+01 -0.82789623465E+01  0.12379300421E+02  0.00000000000E+00 0.  1.
</event>
<event>
 7    1  0.3750159E-013  0.5930175E+02  0.7816164E-02  0.1266605E+00
        -11   -1    0    0    0    0  0.00000000000E+00  0.00000000000E+00  0.45593999997E+02  0.45594000000E+02  0.51100000000E-03 0.  1.
         11   -1    0    0    0    0 -0.00000000000E+00 -0.00000000000E+00 -0.45593999997E+02  0.45594000000E+02  0.51100000000E-03 0. -1.
    9900012    2    1    2    0    0  0.23998513445E+01  0.10627734794E+02 -0.29967061881E+02  0.59301751693E+02  0.49999649227E+02 0.  0.
        -12    1    1    2    0    0 -0.23998513445E+01 -0.10627734794E+02  0.29967061881E+02  0.31886248307E+02  0.00000000000E+00 0.  1.
         11    1    3    3    0    0  0.36233421219E+01 -0.70167556406E+01 -0.19617540755E+02  0.21147372730E+02  0.51100000000E-03 0. -1.
        -11    1    3    3    0    0  0.15299779941E+02  0.56735548387E+01 -0.48001480620E+01  0.17009230213E+02  0.51100000000E-03 0.  1.
         12    1    3    3    0    0 -0.16523270718E+02  0.11970935596E+02 -0.55493730638E+01  0.21145148750E+02  0.00000000000E+00 0. -1.
</event>
<event>
 7    1  0.3750159E-013  0.5930191E+02  0.7816164E-02  0.1266605E+00
        -11   -1    0    0    0    0  0.00000000000E+00  0.00000000000E+00  0.45593999997E+02  0.45594000000E+02  0.51100000000E-03 0. -1.
         11   -1    0    0    0    0 -0.00000000000E+00 -0.00000000000E+00 -0.45593999997E+02  0.45594000000E+02  0.51100000000E-03 0.  1.
    9900012    2    1    2    0    0  0.31588868363E+02  0.41240471755E+01  0.13632297510E+01  0.59301909539E+02  0.49999937100E+02 0.  0.
        -12    1    1    2    0    0 -0.31588868363E+02 -0.41240471755E+01 -0.13632297510E+01  0.31886090461E+02  0.00000000000E+00 0.  1.
         11    1    3    3    0    0  0.28648348892E+02 -0.53126074613E-01 -0.82445963257E+01  0.29811140291E+02  0.51100000000E-03 0. -1.
        -11    1    3    3    0    0  0.16156192447E-01 -0.11025282029E+02  0.85892419892E+01  0.13976129044E+02  0.51100000000E-03 0.  1.
        -12    1    3    3    0    0  0.29243632781E+01  0.15202455279E+02  0.10185840874E+01  0.15514640203E+02  0.00000000000E+00 0.  1.
</event>
<event>
 7    1  0.3750159E-013  0.5930191E+02  0.7816164E-02  0.1266605E+00
        -11   -1    0    0    0    0  0.00000000000E+00  0.00000000000E+00  0.45593999997E+02  0.45594000000E+02  0.51100000000E-03 0. -1.
         11   -1    0    0    0    0 -0.00000000000E+00 -0.00000000000E+00 -0.45593999997E+02  0.45594000000E+02  0.51100000000E-03 0.  1.
    9900012    2    1    2    0    0 -0.16177411861E+02  0.23236206118E+02  0.14666040201E+02  0.59301911114E+02  0.49999939973E+02 0.  0.
        -12    1    1    2    0    0  0.16177411861E+02 -0.23236206118E+02 -0.14666040201E+02  0.31886088886E+02  0.00000000000E+00 0.  1.
         11    1    3    3    0    0 -0.12005316353E+01  0.11673211596E+02  0.14009112391E+02  0.18274582770E+02  0.51100000000E-03 0. -1.
        -11    1    3    3    0    0  0.93856969856E+01 -0.57627517624E+01  0.15304042590E+01  0.11119476302E+02  0.51100000000E-03 0.  1.
        -12    1    3    3    0    0 -0.24362577211E+02  0.17325746284E+02 -0.87347644804E+00  0.29907852042E+02  0.00000000000E+00 0.  1.
</event>
<event>
 7    1  0.3750159E-013  0.5930189E+02  0.7816164E-02  0.1266605E+00
        -11   -1    0    0    0    0  0.00000000000E+00  0.00000000000E+00  0.45593999997E+02  0.45594000000E+02  0.51100000000E-03 0.  1.
         11   -1    0    0    0    0 -0.00000000000E+00 -0.00000000000E+00 -0.45593999997E+02  0.45594000000E+02  0.51100000000E-03 0. -1.
    9900012    2    1    2    0    0 -0.22023910664E+02  0.49962544630E+01 -0.22510196126E+02  0.59301888145E+02  0.49999898083E+02 0.  0.
        -12    1    1    2    0    0  0.22023910664E+02 -0.49962544630E+01  0.22510196126E+02  0.31886111855E+02  0.00000000000E+00 0.  1.
         11    1    3    3    0    0 -0.26981379819E+01 -0.27113954336E+01 -0.11398194560E+02  0.12022913676E+02  0.51100000000E-03 0. -1.
        -11    1    3    3    0    0  0.58220159150E+01 -0.12356333492E+02 -0.49144644479E+01  0.14516432335E+02  0.51100000000E-03 0.  1.
        -12    1    3    3    0    0 -0.25147788597E+02  0.20063983388E+02 -0.61975371179E+01  0.32762542134E+02  0.00000000000E+00 0.  1.
</event>
<event>
 7    1  0.3750159E-013  0.5930194E+02  0.7816164E-02  0.1266605E+00
        -11   -1    0    0    0    0  0.00000000000E+00  0.00000000000E+00  0.45593999997E+02  0.45594000000E+02  0.51100000000E-03 0. -1.
         11   -1    0    0    0    0 -0.00000000000E+00 -0.00000000000E+00 -0.45593999997E+02  0.45594000000E+02  0.51100000000E-03 0.  1.
    9900012    2    1    2    0    0  0.26915080116E+02  0.16426723866E+02  0.47394077358E+01  0.59301940659E+02  0.49999993856E+02 0.  0.
        -12    1    1    2    0    0 -0.26915080116E+02 -0.16426723866E+02 -0.47394077358E+01  0.31886059341E+02  0.00000000000E+00 0.  1.
         11    1    3    3    0    0 -0.48121014611E+01  0.72741015102E+01 -0.33123010964E+01  0.93295343971E+01  0.51100000000E-03 0.  1.
        -11    1    3    3    0    0  0.38302686289E+02  0.35613894629E+00  0.70112524561E+01  0.38940727692E+02  0.51100000000E-03 0. -1.
         12    1    3    3    0    0 -0.65755047122E+01  0.87964834096E+01  0.10404563761E+01  0.11031678570E+02  0.00000000000E+00 0. -1.
</event>
<event>
 7    1  0.3750159E-013  0.5930197E+02  0.7816164E-02  0.1266605E+00
        -11   -1    0    0    0    0  0.00000000000E+00  0.00000000000E+00  0.45593999997E+02  0.45594000000E+02  0.51100000000E-03 0. -1.
         11   -1    0    0    0    0 -0.00000000000E+00 -0.00000000000E+00 -0.45593999997E+02  0.45594000000E+02  0.51100000000E-03 0.  1.
    9900012    2    1    2    0    0  0.21976314276E+02 -0.11064393611E+02  0.20281513707E+02  0.59301968679E+02  0.50000044958E+02 0.  0.
        -12    1    1    2    0    0 -0.21976314276E+02  0.11064393611E+02 -0.20281513707E+02  0.31886031321E+02  0.00000000000E+00 0.  1.
         11    1    3    3    0    0  0.19996881048E+02 -0.31833732381E+01  0.16143051097E+02  0.25896084951E+02  0.51100000000E-03 0. -1.
        -11    1    3    3    0    0  0.16075708128E+02 -0.14246393968E+01  0.70823796148E+01  0.17624360712E+02  0.51100000000E-03 0.  1.
        -12    1    3    3    0    0 -0.14096274900E+02 -0.64563809765E+01 -0.29439170040E+01  0.15781523016E+02  0.00000000000E+00 0.  1.
</event>
<event>
 7    1  0.3750159E-013  0.5930192E+02  0.7816164E-02  0.1266605E+00
        -11   -1    0    0    0    0  0.00000000000E+00  0.00000000000E+00  0.45593999997E+02  0.45594000000E+02  0.51100000000E-03 0. -1.
         11   -1    0    0    0    0 -0.00000000000E+00 -0.00000000000E+00 -0.45593999997E+02  0.45594000000E+02  0.51100000000E-03 0.  1.
    9900012    2    1    2    0    0  0.18836107872E+02  0.25609441961E+02  0.24656396852E+01  0.59301923785E+02  0.49999963082E+02 0.  0.
        -12    1    1    2    0    0 -0.18836107872E+02 -0.25609441961E+02 -0.24656396852E+01  0.31886076215E+02  0.00000000000E+00 0.  1.
         11    1    3    3    0    0 -0.15045752320E+01  0.30440833802E+01  0.65585987283E+01  0.73854862937E+01  0.51100000000E-03 0. -1.
        -11    1    3    3    0    0 -0.12244629441E+02  0.93957553686E+01  0.38001147219E+01  0.15895031967E+02  0.51100000000E-03 0.  1.
         12    1    3    3    0    0  0.32585312545E+02  0.13169603212E+02 -0.78930737650E+01  0.36021405524E+02  0.00000000000E+00 0. -1.
</event>
<event>
 7    1  0.3750159E-013  0.5930190E+02  0.7816164E-02  0.1266605E+00
        -11   -1    0    0    0    0  0.00000000000E+00  0.00000000000E+00  0.45593999997E+02  0.45594000000E+02  0.51100000000E-03 0.  1.
         11   -1    0    0    0    0 -0.00000000000E+00 -0.00000000000E+00 -0.45593999997E+02  0.45594000000E+02  0.51100000000E-03 0. -1.
    9900012    2    1    2    0    0 -0.26915498739E+02  0.97999398438E+01 -0.14008574865E+02  0.59301904863E+02  0.49999928574E+02 0.  0.
        -12    1    1    2    0    0  0.26915498739E+02 -0.97999398438E+01  0.14008574865E+02  0.31886095137E+02  0.00000000000E+00 0.  1.
         11    1    3    3    0    0 -0.12379383368E+02 -0.81696919927E+01 -0.55751246976E+00  0.14842635219E+02  0.51100000000E-03 0. -1.
        -11    1    3    3    0    0 -0.25588595115E+02  0.10329440979E+02 -0.36650853880E+01  0.27837140695E+02  0.51100000000E-03 0.  1.
        -12    1    3    3    0    0  0.11052479744E+02  0.76401908575E+01 -0.97859770077E+01  0.16622128950E+02  0.00000000000E+00 0.  1.
</event>
<event>
 7    1  0.3750159E-013  0.5930193E+02  0.7816164E-02  0.1266605E+00
        -11   -1    0    0    0    0  0.00000000000E+00  0.00000000000E+00  0.45593999997E+02  0.45594000000E+02  0.51100000000E-03 0.  1.
         11   -1    0    0    0    0 -0.00000000000E+00 -0.00000000000E+00 -0.45593999997E+02  0.45594000000E+02  0.51100000000E-03 0. -1.
    9900012    2    1    2    0    0  0.19415957698E+02  0.85346221897E+01 -0.23809712302E+02  0.59301927976E+02  0.49999970725E+02 0.  0.
        -12    1    1    2    0    0 -0.19415957698E+02 -0.85346221897E+01  0.23809712302E+02  0.31886072024E+02  0.00000000000E+00 0.  1.
         11    1    3    3    0    0 -0.42801356372E+01  0.62930032170E+01 -0.92380865341E+01  0.11969281250E+02  0.51100000000E-03 0. -1.
        -11    1    3    3    0    0  0.11959257135E+02  0.19972279901E+02 -0.11091574452E+02  0.25786407655E+02  0.51100000000E-03 0.  1.
         12    1    3    3    0    0  0.11736836200E+02 -0.17730660928E+02 -0.34800513163E+01  0.21546239071E+02  0.00000000000E+00 0. -1.
</event>
<event>
 7    1  0.3750159E-013  0.5930195E+02  0.7816164E-02  0.1266605E+00
        -11   -1    0    0    0    0  0.00000000000E+00  0.00000000000E+00  0.45593999997E+02  0.45594000000E+02  0.51100000000E-03 0. -1.
         11   -1    0    0    0    0 -0.00000000000E+00 -0.00000000000E+00 -0.45593999997E+02  0.45594000000E+02  0.51100000000E-03 0.  1.
    9900012    2    1    2    0    0  0.22107813119E+02 -0.53985322439E+00  0.22971135667E+02  0.59301954208E+02  0.50000018567E+02 0.  0.
        -12    1    1    2    0    0 -0.22107813119E+02  0.53985322439E+00 -0.22971135667E+02  0.31886045792E+02  0.00000000000E+00 0.  1.
         11    1    3    3    0    0  0.25787452781E+01 -0.14185162220E+02  0.18098636956E+02  0.23139347751E+02  0.51100000000E-03 0. -1.
        -11    1    3    3    0    0  0.77891193010E+00 -0.37528758874E+01 -0.69863498380E+01  0.79686802886E+01  0.51100000000E-03 0.  1.
        -12    1    3    3    0    0  0.18750155911E+02  0.17398184883E+02  0.11858848549E+02  0.28193926169E+02  0.00000000000E+00 0.  1.
</event>
<event>
 7    1  0.3750159E-013  0.5930196E+02  0.7816164E-02  0.1266605E+00
        -11   -1    0    0    0    0  0.00000000000E+00  0.00000000000E+00  0.45593999997E+02  0.45594000000E+02  0.51100000000E-03 0.  1.
         11   -1    0    0    0    0 -0.00000000000E+00 -0.00000000000E+00 -0.45593999997E+02  0.45594000000E+02  0.51100000000E-03 0. -1.
    9900012    2    1    2    0    0 -0.31021993335E+02 -0.73001014388E+01  0.10315703841E+01  0.59301957773E+02  0.50000025067E+02 0.  0.
        -12    1    1    2    0    0  0.31021993335E+02  0.73001014388E+01 -0.10315703841E+01  0.31886042227E+02  0.00000000000E+00 0.  1.
         11    1    3    3    0    0 -0.24196724261E+02 -0.44583135588E+01  0.17655975297E+02  0.30283518434E+02  0.51100000000E-03 0. -1.
        -11    1    3    3    0    0 -0.45455962870E+00 -0.69331603800E+01  0.33088365604E+01  0.76956960020E+01  0.51100000000E-03 0.  1.
        -12    1    3    3    0    0 -0.63707094449E+01  0.40913725000E+01 -0.19933241474E+02  0.21322743337E+02  0.00000000000E+00 0.  1.
</event>
<event>
 7    1  0.3750159E-013  0.5930197E+02  0.7816164E-02  0.1266605E+00
        -11   -1    0    0    0    0  0.00000000000E+00  0.00000000000E+00  0.45593999997E+02  0.45594000000E+02  0.51100000000E-03 0.  1.
         11   -1    0    0    0    0 -0.00000000000E+00 -0.00000000000E+00 -0.45593999997E+02  0.45594000000E+02  0.51100000000E-03 0. -1.
    9900012    2    1    2    0    0 -0.45238594341E+01 -0.31552530079E+02  0.83158617590E+00  0.59301968667E+02  0.50000044937E+02 0.  0.
        -12    1    1    2    0    0  0.45238594341E+01  0.31552530079E+02 -0.83158617590E+00  0.31886031333E+02  0.00000000000E+00 0.  1.
         11    1    3    3    0    0  0.91011496020E+01 -0.23212035802E+01 -0.91952079958E+01  0.13144229170E+02  0.51100000000E-03 0. -1.
        -11    1    3    3    0    0 -0.44180596622E+00  0.55726260510E+01  0.67974063452E+01  0.88008003556E+01  0.51100000000E-03 0.  1.
         12    1    3    3    0    0 -0.13183203070E+02 -0.34803952550E+02  0.32293878264E+01  0.37356939141E+02  0.00000000000E+00 0. -1.
</event>
<event>
 7    1  0.3750159E-013  0.5930198E+02  0.7816164E-02  0.1266605E+00
        -11   -1    0    0    0    0  0.00000000000E+00  0.00000000000E+00  0.45593999997E+02  0.45594000000E+02  0.51100000000E-03 0.  1.
         11   -1    0    0    0    0 -0.00000000000E+00 -0.00000000000E+00 -0.45593999997E+02  0.45594000000E+02  0.51100000000E-03 0. -1.
    9900012    2    1    2    0    0  0.31524479089E+02 -0.10302334395E+01  0.46759006496E+01  0.59301980968E+02  0.50000067371E+02 0.  0.
        -12    1    1    2    0    0 -0.31524479089E+02  0.10302334395E+01 -0.46759006496E+01  0.31886019032E+02  0.00000000000E+00 0.  1.
         11    1    3    3    0    0  0.11782779489E+02  0.59694647456E+01 -0.14836971903E+02  0.19864645412E+02  0.51100000000E-03 0. -1.
        -11    1    3    3    0    0  0.17618646279E+02 -0.12298110370E+02  0.26675532969E+01  0.21651236830E+02  0.51100000000E-03 0.  1.
         12    1    3    3    0    0  0.21230533206E+01  0.52984121852E+01  0.16845319256E+02  0.17786098727E+02  0.00000000000E+00 0. -1.
</event>
<event>
 7    1  0.3750159E-013  0.5930193E+02  0.7816164E-02  0.1266605E+00
        -11   -1    0    0    0    0  0.00000000000E+00  0.00000000000E+00  0.45593999997E+02  0.45594000000E+02  0.51100000000E-03 0. -1.
         11   -1    0    0    0    0 -0.00000000000E+00 -0.00000000000E+00 -0.45593999997E+02  0.45594000000E+02  0.51100000000E-03 0.  1.
    9900012    2    1    2    0    0  0.13456411149E+02  0.18437511160E+02  0.22264420203E+02  0.59301933674E+02  0.49999981117E+02 0.  0.
        -12    1    1    2    0    0 -0.13456411149E+02 -0.18437511160E+02 -0.22264420203E+02  0.31886066326E+02  0.00000000000E+00 0.  1.
         11    1    3    3    0    0  0.34575100831E+01  0.27777741036E+01 -0.95066657854E+01  0.10490333625E+02  0.51100000000E-03 0. -1.
        -11    1    3    3    0    0  0.16756458403E+02  0.34289331439E+01  0.37651719078E+01  0.17513223589E+02  0.51100000000E-03 0.  1.
         12    1    3    3    0    0 -0.67575573373E+01  0.12230803912E+02  0.28005914081E+02  0.31298376460E+02  0.00000000000E+00 0. -1.
</event>
<event>
 7    1  0.3750159E-013  0.5930195E+02  0.7816164E-02  0.1266605E+00
        -11   -1    0    0    0    0  0.00000000000E+00  0.00000000000E+00  0.45593999997E+02  0.45594000000E+02  0.51100000000E-03 0. -1.
         11   -1    0    0    0    0 -0.00000000000E+00 -0.00000000000E+00 -0.45593999997E+02  0.45594000000E+02  0.51100000000E-03 0.  1.
    9900012    2    1    2    0    0 -0.23113487089E+02  0.17662226636E+02  0.13058818784E+02  0.59301948454E+02  0.50000008073E+02 0.  0.
        -12    1    1    2    0    0  0.23113487089E+02 -0.17662226636E+02 -0.13058818784E+02  0.31886051546E+02  0.00000000000E+00 0.  1.
         11    1    3    3    0    0 -0.14578104265E+02  0.15491944473E+02  0.11830157596E+01  0.21305421706E+02  0.51100000000E-03 0. -1.
        -11    1    3    3    0    0 -0.91848095451E+01 -0.68192433627E+01  0.21782336784E+02  0.24603516058E+02  0.51100000000E-03 0.  1.
         12    1    3    3    0    0  0.64942672087E+00  0.89895255251E+01 -0.99065337588E+01  0.13393010690E+02  0.00000000000E+00 0. -1.
</event>
<event>
 7    1  0.3750159E-013  0.5930193E+02  0.7816164E-02  0.1266605E+00
        -11   -1    0    0    0    0  0.00000000000E+00  0.00000000000E+00  0.45593999997E+02  0.45594000000E+02  0.51100000000E-03 0.  1.
         11   -1    0    0    0    0 -0.00000000000E+00 -0.00000000000E+00 -0.45593999997E+02  0.45594000000E+02  0.51100000000E-03 0. -1.
    9900012    2    1    2    0    0 -0.30453904738E+02 -0.89332727207E+01 -0.30785956569E+01  0.59301930526E+02  0.49999975376E+02 0.  0.
        -12    1    1    2    0    0  0.30453904738E+02  0.89332727207E+01  0.30785956569E+01  0.31886069474E+02  0.00000000000E+00 0.  1.
         11    1    3    3    0    0 -0.16487946258E+02 -0.74871172211E+01 -0.14535503481E+02  0.23220468510E+02  0.51100000000E-03 0. -1.
        -11    1    3    3    0    0 -0.81725258419E+01 -0.13986024924E+02 -0.25624236606E+01  0.16400155093E+02  0.51100000000E-03 0.  1.
        -12    1    3    3    0    0 -0.57934326379E+01  0.12539869424E+02  0.14019331485E+02  0.19681306923E+02  0.00000000000E+00 0.  1.
</event>
<event>
 7    1  0.3750159E-013  0.5930195E+02  0.7816164E-02  0.1266605E+00
        -11   -1    0    0    0    0  0.00000000000E+00  0.00000000000E+00  0.45593999997E+02  0.45594000000E+02  0.51100000000E-03 0.  1.
         11   -1    0    0    0    0 -0.00000000000E+00 -0.00000000000E+00 -0.45593999997E+02  0.45594000000E+02  0.51100000000E-03 0. -1.
    9900012    2    1    2    0    0  0.24360910888E+02  0.13110804940E+02 -0.15854748543E+02  0.59301949182E+02  0.50000009399E+02 0.  0.
        -12    1    1    2    0    0 -0.24360910888E+02 -0.13110804940E+02  0.15854748543E+02  0.31886050818E+02  0.00000000000E+00 0.  1.
         11    1    3    3    0    0  0.66105346093E+01  0.21154275088E+02 -0.29133820473E+01  0.22353753992E+02  0.51100000000E-03 0. -1.
        -11    1    3    3    0    0 -0.52343976285E+01  0.53466428380E+01 -0.27902805845E+00  0.74875473347E+01  0.51100000000E-03 0.  1.
        -12    1    3    3    0    0  0.22984773907E+02 -0.13390112986E+02 -0.12662338437E+02  0.29460647855E+02  0.00000000000E+00 0.  1.
</event>
<event>
 7    1  0.3750159E-013  0.5930191E+02  0.7816164E-02  0.1266605E+00
        -11   -1    0    0    0    0  0.00000000000E+00  0.00000000000E+00  0.45593999997E+02  0.45594000000E+02  0.51100000000E-03 0.  1.
         11   -1    0    0    0    0 -0.00000000000E+00 -0.00000000000E+00 -0.45593999997E+02  0.45594000000E+02  0.51100000000E-03 0. -1.
    9900012    2    1    2    0    0  0.12031827147E+02  0.25510497069E+02  0.14871869790E+02  0.59301908420E+02  0.49999935060E+02 0.  0.
        -12    1    1    2    0    0 -0.12031827147E+02 -0.25510497069E+02 -0.14871869790E+02  0.31886091580E+02  0.00000000000E+00 0.  1.
         11    1    3    3    0    0 -0.27610138017E+01  0.85415032956E+01  0.28765039960E+00  0.89812704432E+01  0.51100000000E-03 0. -1.
        -11    1    3    3    0    0  0.91382179179E+01  0.30374442630E+02  0.32651397397E+01  0.31886908436E+02  0.51100000000E-03 0.  1.
        -12    1    3    3    0    0  0.56546230303E+01 -0.13405448856E+02  0.11319079650E+02  0.18433729541E+02  0.00000000000E+00 0.  1.
</event>
<event>
 7    1  0.3750159E-013  0.5930194E+02  0.7816164E-02  0.1266605E+00
        -11   -1    0    0    0    0  0.00000000000E+00  0.00000000000E+00  0.45593999997E+02  0.45594000000E+02  0.51100000000E-03 0.  1.
         11   -1    0    0    0    0 -0.00000000000E+00 -0.00000000000E+00 -0.45593999997E+02  0.45594000000E+02  0.51100000000E-03 0. -1.
    9900012    2    1    2    0    0  0.18318424964E+02 -0.20773357628E+02 -0.15799491755E+02  0.59301936900E+02  0.49999987001E+02 0.  0.
        -12    1    1    2    0    0 -0.18318424964E+02  0.20773357628E+02  0.15799491755E+02  0.31886063100E+02  0.00000000000E+00 0.  1.
         11    1    3    3    0    0 -0.19351667110E+01  0.14886185631E+01  0.63431427818E+00  0.25225404438E+01  0.51100000000E-03 0. -1.
        -11    1    3    3    0    0  0.34923117264E+01  0.69858648544E+01  0.10879656850E+02  0.13392739913E+02  0.51100000000E-03 0.  1.
         12    1    3    3    0    0  0.16761279948E+02 -0.29247841046E+02 -0.27313462883E+02  0.43386656543E+02  0.00000000000E+00 0. -1.
</event>
<event>
 7    1  0.3750159E-013  0.5930193E+02  0.7816164E-02  0.1266605E+00
        -11   -1    0    0    0    0  0.00000000000E+00  0.00000000000E+00  0.45593999997E+02  0.45594000000E+02  0.51100000000E-03 0.  1.
         11   -1    0    0    0    0 -0.00000000000E+00 -0.00000000000E+00 -0.45593999997E+02  0.45594000000E+02  0.51100000000E-03 0. -1.
    9900012    2    1    2    0    0 -0.27990898553E+02  0.10724037530E+02 -0.10873175486E+02  0.59301932072E+02  0.49999978196E+02 0.  0.
        -12    1    1    2    0    0  0.27990898553E+02 -0.10724037530E+02  0.10873175486E+02  0.31886067928E+02  0.00000000000E+00 0.  1.
         11    1    3    3    0    0 -0.29856625046E+02  0.44262826688E+01 -0.11117838158E+02  0.32165452942E+02  0.51100000000E-03 0. -1.
        -11    1    3    3    0    0 -0.25895656017E+01 -0.26294662159E+00  0.12373916817E+02  0.12644714651E+02  0.51100000000E-03 0.  1.
         12    1    3    3    0    0  0.44552920943E+01  0.65607014828E+01 -0.12129254146E+02  0.14491764480E+02  0.00000000000E+00 0. -1.
</event>
<event>
 7    1  0.3750159E-013  0.5930196E+02  0.7816164E-02  0.1266605E+00
        -11   -1    0    0    0    0  0.00000000000E+00  0.00000000000E+00  0.45593999997E+02  0.45594000000E+02  0.51100000000E-03 0. -1.
         11   -1    0    0    0    0 -0.00000000000E+00 -0.00000000000E+00 -0.45593999997E+02  0.45594000000E+02  0.51100000000E-03 0.  1.
    9900012    2    1    2    0    0 -0.10511807527E+02  0.27152093350E+02 -0.12999436946E+02  0.59301958671E+02  0.50000026705E+02 0.  0.
        -12    1    1    2    0    0  0.10511807527E+02 -0.27152093350E+02  0.12999436946E+02  0.31886041329E+02  0.00000000000E+00 0.  1.
         11    1    3    3    0    0 -0.13978443880E+02  0.58170838186E+01  0.65901405709E+01  0.16512580370E+02  0.51100000000E-03 0. -1.
        -11    1    3    3    0    0  0.45050240067E+01  0.26801390057E+02 -0.56198673583E+01  0.27752345120E+02  0.51100000000E-03 0.  1.
        -12    1    3    3    0    0 -0.10383876530E+01 -0.54663805259E+01 -0.13969710158E+02  0.15037033181E+02  0.00000000000E+00 0.  1.
</event>
<event>
 7    1  0.3750159E-013  0.5930196E+02  0.7816164E-02  0.1266605E+00
        -11   -1    0    0    0    0  0.00000000000E+00  0.00000000000E+00  0.45593999997E+02  0.45594000000E+02  0.51100000000E-03 0.  1.
         11   -1    0    0    0    0 -0.00000000000E+00 -0.00000000000E+00 -0.45593999997E+02  0.45594000000E+02  0.51100000000E-03 0. -1.
    9900012    2    1    2    0    0 -0.29638482789E+02 -0.82714779749E+01 -0.83583799744E+01  0.59301960332E+02  0.50000029734E+02 0.  0.
        -12    1    1    2    0    0  0.29638482789E+02  0.82714779749E+01  0.83583799744E+01  0.31886039668E+02  0.00000000000E+00 0.  1.
         11    1    3    3    0    0 -0.24681065122E+01  0.62856599582E+01 -0.87741400496E+01  0.11071883523E+02  0.51100000000E-03 0. -1.
        -11    1    3    3    0    0  0.12998473813E+01 -0.74719244633E+00  0.13794096282E+02  0.13875337555E+02  0.51100000000E-03 0.  1.
        -12    1    3    3    0    0 -0.28470223658E+02 -0.13809945487E+02 -0.13378336207E+02  0.34354739254E+02  0.00000000000E+00 0.  1.
</event>
<event>
 7    1  0.3750159E-013  0.5930180E+02  0.7816164E-02  0.1266605E+00
        -11   -1    0    0    0    0  0.00000000000E+00  0.00000000000E+00  0.45593999997E+02  0.45594000000E+02  0.51100000000E-03 0.  1.
         11   -1    0    0    0    0 -0.00000000000E+00 -0.00000000000E+00 -0.45593999997E+02  0.45594000000E+02  0.51100000000E-03 0. -1.
    9900012    2    1    2    0    0 -0.23935753292E+02 -0.90787381211E+01 -0.19010154287E+02  0.59301800202E+02  0.49999737696E+02 0.  0.
        -12    1    1    2    0    0  0.23935753292E+02  0.90787381211E+01  0.19010154287E+02  0.31886199798E+02  0.00000000000E+00 0.  1.
         11    1    3    3    0    0 -0.20536283121E+01  0.11356805223E+02 -0.91882657735E+01  0.14751903006E+02  0.51100000000E-03 0.  1.
        -11    1    3    3    0    0 -0.11304995554E+02 -0.44214663523E+01 -0.19566340619E+02  0.23025941342E+02  0.51100000000E-03 0. -1.
        -12    1    3    3    0    0 -0.10577129426E+02 -0.16014076992E+02  0.97444521056E+01  0.21523955854E+02  0.00000000000E+00 0.  1.
</event>
<event>
 7    1  0.3750159E-013  0.5930196E+02  0.7816164E-02  0.1266605E+00
        -11   -1    0    0    0    0  0.00000000000E+00  0.00000000000E+00  0.45593999997E+02  0.45594000000E+02  0.51100000000E-03 0.  1.
         11   -1    0    0    0    0 -0.00000000000E+00 -0.00000000000E+00 -0.45593999997E+02  0.45594000000E+02  0.51100000000E-03 0. -1.
    9900012    2    1    2    0    0 -0.26782586640E+01  0.31343342162E+02 -0.52097572682E+01  0.59301957001E+02  0.50000023660E+02 0.  0.
        -12    1    1    2    0    0  0.26782586640E+01 -0.31343342162E+02  0.52097572682E+01  0.31886042999E+02  0.00000000000E+00 0.  1.
         11    1    3    3    0    0 -0.10048464942E+02  0.48885830727E+01  0.10531951509E+02  0.15355516761E+02  0.51100000000E-03 0. -1.
        -11    1    3    3    0    0  0.98531254011E+01 -0.37460975904E+01 -0.22639249163E+01  0.10781590032E+02  0.51100000000E-03 0.  1.
         12    1    3    3    0    0 -0.24829191235E+01  0.30200856679E+02 -0.13477783861E+02  0.33164850208E+02  0.00000000000E+00 0. -1.
</event>
<event>
 7    1  0.3750159E-013  0.5930191E+02  0.7816164E-02  0.1266605E+00
        -11   -1    0    0    0    0  0.00000000000E+00  0.00000000000E+00  0.45593999997E+02  0.45594000000E+02  0.51100000000E-03 0.  1.
         11   -1    0    0    0    0 -0.00000000000E+00 -0.00000000000E+00 -0.45593999997E+02  0.45594000000E+02  0.51100000000E-03 0. -1.
    9900012    2    1    2    0    0 -0.90684395932E+01  0.30366624087E+02 -0.35148479860E+01  0.59301911945E+02  0.49999941489E+02 0.  0.
        -12    1    1    2    0    0  0.90684395932E+01 -0.30366624087E+02  0.35148479860E+01  0.31886088055E+02  0.00000000000E+00 0.  1.
         11    1    3    3    0    0 -0.23641277078E+01  0.21272792247E+02 -0.86329129920E+01  0.23079167593E+02  0.51100000000E-03 0. -1.
        -11    1    3    3    0    0  0.66792434428E+01  0.13321333203E+02  0.13302280996E+02  0.19975507283E+02  0.51100000000E-03 0.  1.
        -12    1    3    3    0    0 -0.13383555328E+02 -0.42275013634E+01 -0.81842159898E+01  0.16247237069E+02  0.00000000000E+00 0.  1.
</event>
<event>
 7    1  0.3750159E-013  0.5930195E+02  0.7816164E-02  0.1266605E+00
        -11   -1    0    0    0    0  0.00000000000E+00  0.00000000000E+00  0.45593999997E+02  0.45594000000E+02  0.51100000000E-03 0. -1.
         11   -1    0    0    0    0 -0.00000000000E+00 -0.00000000000E+00 -0.45593999997E+02  0.45594000000E+02  0.51100000000E-03 0.  1.
    9900012    2    1    2    0    0  0.17363729899E+02 -0.17888864782E+02 -0.19879881574E+02  0.59301948338E+02  0.50000007861E+02 0.  0.
        -12    1    1    2    0    0 -0.17363729899E+02  0.17888864782E+02  0.19879881574E+02  0.31886051662E+02  0.00000000000E+00 0.  1.
         11    1    3    3    0    0  0.74419684322E+01 -0.73726124208E+01 -0.27616198911E+02  0.29536295478E+02  0.51100000000E-03 0.  1.
        -11    1    3    3    0    0  0.95677976663E+01  0.65134298338E+01  0.45510609462E+01  0.12437028439E+02  0.51100000000E-03 0. -1.
         12    1    3    3    0    0  0.35396380018E+00 -0.17029682195E+02  0.31852563905E+01  0.17328624421E+02  0.00000000000E+00 0. -1.
</event>
<event>
 7    1  0.3750159E-013  0.5930193E+02  0.7816164E-02  0.1266605E+00
        -11   -1    0    0    0    0  0.00000000000E+00  0.00000000000E+00  0.45593999997E+02  0.45594000000E+02  0.51100000000E-03 0.  1.
         11   -1    0    0    0    0 -0.00000000000E+00 -0.00000000000E+00 -0.45593999997E+02  0.45594000000E+02  0.51100000000E-03 0. -1.
    9900012    2    1    2    0    0  0.68395809894E+01 -0.24216487910E+02 -0.19583233336E+02  0.59301934349E+02  0.49999982348E+02 0.  0.
        -12    1    1    2    0    0 -0.68395809894E+01  0.24216487910E+02  0.19583233336E+02  0.31886065651E+02  0.00000000000E+00 0.  1.
         11    1    3    3    0    0  0.13693639269E+01  0.46288682405E+01 -0.64038155416E+00  0.48694627576E+01  0.51100000000E-03 0. -1.
        -11    1    3    3    0    0  0.29284425844E+00  0.64439001219E+01  0.76032356960E+01  0.99708976451E+01  0.51100000000E-03 0.  1.
         12    1    3    3    0    0  0.51773728041E+01 -0.35289256272E+02 -0.26546087478E+02  0.44461573946E+02  0.00000000000E+00 0. -1.
</event>
<event>
 7    1  0.3750159E-013  0.5930194E+02  0.7816164E-02  0.1266605E+00
        -11   -1    0    0    0    0  0.00000000000E+00  0.00000000000E+00  0.45593999997E+02  0.45594000000E+02  0.51100000000E-03 0.  1.
         11   -1    0    0    0    0 -0.00000000000E+00 -0.00000000000E+00 -0.45593999997E+02  0.45594000000E+02  0.51100000000E-03 0. -1.
    9900012    2    1    2    0    0 -0.22589203180E+01  0.66439401900E+01 -0.31104273791E+02  0.59301944892E+02  0.50000001577E+02 0.  0.
        -12    1    1    2    0    0  0.22589203180E+01 -0.66439401900E+01  0.31104273791E+02  0.31886055108E+02  0.00000000000E+00 0.  1.
         11    1    3    3    0    0  0.23245690348E+01 -0.15930651642E+01 -0.27344341648E+02  0.27489170563E+02  0.51100000000E-03 0. -1.
        -11    1    3    3    0    0 -0.51151123095E+01  0.25175809773E+01 -0.16704718727E+02  0.17650785136E+02  0.51100000000E-03 0.  1.
        -12    1    3    3    0    0  0.53162295671E+00  0.57194243769E+01  0.12944786584E+02  0.14161989192E+02  0.00000000000E+00 0.  1.
</event>
<event>
 7    1  0.3750159E-013  0.5930191E+02  0.7816164E-02  0.1266605E+00
        -11   -1    0    0    0    0  0.00000000000E+00  0.00000000000E+00  0.45593999997E+02  0.45594000000E+02  0.51100000000E-03 0. -1.
         11   -1    0    0    0    0 -0.00000000000E+00 -0.00000000000E+00 -0.45593999997E+02  0.45594000000E+02  0.51100000000E-03 0.  1.
    9900012    2    1    2    0    0 -0.86343957588E+01 -0.29960695894E+02  0.66728076319E+01  0.59301914473E+02  0.49999946098E+02 0.  0.
        -12    1    1    2    0    0  0.86343957588E+01  0.29960695894E+02 -0.66728076319E+01  0.31886085527E+02  0.00000000000E+00 0.  1.
         11    1    3    3    0    0 -0.28293999250E+01 -0.13244154219E+02  0.11301600803E+02  0.17639141302E+02  0.51100000000E-03 0. -1.
        -11    1    3    3    0    0  0.61524496222E+01 -0.11905860774E+02 -0.18424530305E+02  0.22783008457E+02  0.51100000000E-03 0.  1.
         12    1    3    3    0    0 -0.11957445456E+02 -0.48106809017E+01  0.13795737134E+02  0.18879764713E+02  0.00000000000E+00 0. -1.
</event>
<event>
 7    1  0.3750159E-013  0.5930194E+02  0.7816164E-02  0.1266605E+00
        -11   -1    0    0    0    0  0.00000000000E+00  0.00000000000E+00  0.45593999997E+02  0.45594000000E+02  0.51100000000E-03 0.  1.
         11   -1    0    0    0    0 -0.00000000000E+00 -0.00000000000E+00 -0.45593999997E+02  0.45594000000E+02  0.51100000000E-03 0. -1.
    9900012    2    1    2    0    0 -0.27598909332E+02  0.45145745553E+01  0.15317958856E+02  0.59301936536E+02  0.49999986336E+02 0.  0.
        -12    1    1    2    0    0  0.27598909332E+02 -0.45145745553E+01 -0.15317958856E+02  0.31886063464E+02  0.00000000000E+00 0.  1.
         11    1    3    3    0    0 -0.18205960503E+01 -0.42140374486E+01  0.21441900860E+02  0.21927785897E+02  0.51100000000E-03 0.  1.
        -11    1    3    3    0    0 -0.29962895536E+02  0.62027172394E+01 -0.14831085525E+01  0.30634105525E+02  0.51100000000E-03 0. -1.
         12    1    3    3    0    0  0.41845822543E+01  0.25258947645E+01 -0.46408334518E+01  0.67400451135E+01  0.00000000000E+00 0. -1.
</event>
<event>
 7    1  0.3750159E-013  0.5930194E+02  0.7816164E-02  0.1266605E+00
        -11   -1    0    0    0    0  0.00000000000E+00  0.00000000000E+00  0.45593999997E+02  0.45594000000E+02  0.51100000000E-03 0.  1.
         11   -1    0    0    0    0 -0.00000000000E+00 -0.00000000000E+00 -0.45593999997E+02  0.45594000000E+02  0.51100000000E-03 0. -1.
    9900012    2    1    2    0    0 -0.18238009012E+01 -0.31816751998E+02  0.10435463980E+01  0.59301938052E+02  0.49999989103E+02 0.  0.
        -12    1    1    2    0    0  0.18238009012E+01  0.31816751998E+02 -0.10435463980E+01  0.31886061948E+02  0.00000000000E+00 0.  1.
         11    1    3    3    0    0 -0.55675903091E+01 -0.32654050417E+02  0.10318317655E+02  0.34695140149E+02  0.51100000000E-03 0. -1.
        -11    1    3    3    0    0 -0.83497545662E+01 -0.24873250042E+01  0.46826236428E+00  0.87249330597E+01  0.51100000000E-03 0.  1.
         12    1    3    3    0    0  0.12093543974E+02  0.33246234233E+01 -0.97430336211E+01  0.15881864843E+02  0.00000000000E+00 0. -1.
</event>
<event>
 7    1  0.3750159E-013  0.5930194E+02  0.7816164E-02  0.1266605E+00
        -11   -1    0    0    0    0  0.00000000000E+00  0.00000000000E+00  0.45593999997E+02  0.45594000000E+02  0.51100000000E-03 0. -1.
         11   -1    0    0    0    0 -0.00000000000E+00 -0.00000000000E+00 -0.45593999997E+02  0.45594000000E+02  0.51100000000E-03 0.  1.
    9900012    2    1    2    0    0  0.28340970367E+02 -0.69068760757E+01  0.12876545999E+02  0.59301937601E+02  0.49999988279E+02 0.  0.
        -12    1    1    2    0    0 -0.28340970367E+02  0.69068760757E+01 -0.12876545999E+02  0.31886062399E+02  0.00000000000E+00 0.  1.
         11    1    3    3    0    0 -0.20747072175E+01 -0.27024425010E+01  0.80756933423E+01  0.87649545766E+01  0.51100000000E-03 0. -1.
        -11    1    3    3    0    0  0.18123303321E+02  0.61232658366E+01  0.20529877810E+02  0.28061083210E+02  0.51100000000E-03 0.  1.
        -12    1    3    3    0    0  0.12292374264E+02 -0.10327699411E+02 -0.15729025154E+02  0.22475899814E+02  0.00000000000E+00 0.  1.
</event>
<event>
 7    1  0.3750159E-013  0.5930195E+02  0.7816164E-02  0.1266605E+00
        -11   -1    0    0    0    0  0.00000000000E+00  0.00000000000E+00  0.45593999997E+02  0.45594000000E+02  0.51100000000E-03 0.  1.
         11   -1    0    0    0    0 -0.00000000000E+00 -0.00000000000E+00 -0.45593999997E+02  0.45594000000E+02  0.51100000000E-03 0. -1.
    9900012    2    1    2    0    0  0.40485594564E+01  0.28991632608E+02 -0.12641783954E+02  0.59301948246E+02  0.50000007693E+02 0.  0.
        -12    1    1    2    0    0 -0.40485594564E+01 -0.28991632608E+02  0.12641783954E+02  0.31886051754E+02  0.00000000000E+00 0.  1.
         11    1    3    3    0    0  0.33727103867E+01  0.21496091230E+02  0.33258648390E+01  0.22011780726E+02  0.51100000000E-03 0. -1.
        -11    1    3    3    0    0 -0.74876521473E+01  0.84785441268E+01  0.67209556665E+01  0.13157579204E+02  0.51100000000E-03 0.  1.
         12    1    3    3    0    0  0.81635012170E+01 -0.98300274948E+00 -0.22688604459E+02  0.24132588316E+02  0.00000000000E+00 0. -1.
</event>
<event>
 7    1  0.3750159E-013  0.5930195E+02  0.7816164E-02  0.1266605E+00
        -11   -1    0    0    0    0  0.00000000000E+00  0.00000000000E+00  0.45593999997E+02  0.45594000000E+02  0.51100000000E-03 0. -1.
         11   -1    0    0    0    0 -0.00000000000E+00 -0.00000000000E+00 -0.45593999997E+02  0.45594000000E+02  0.51100000000E-03 0.  1.
    9900012    2    1    2    0    0 -0.10689381110E+01 -0.28938489627E+02  0.13346971913E+02  0.59301945528E+02  0.50000002735E+02 0.  0.
        -12    1    1    2    0    0  0.10689381110E+01  0.28938489627E+02 -0.13346971913E+02  0.31886054472E+02  0.00000000000E+00 0.  1.
         11    1    3    3    0    0 -0.50038132121E+01 -0.22662784366E+02  0.51749108085E+01  0.23778554288E+02  0.51100000000E-03 0. -1.
        -11    1    3    3    0    0 -0.12010664035E+02 -0.50172514223E+01 -0.58327661989E+01  0.14263590859E+02  0.51100000000E-03 0.  1.
        -12    1    3    3    0    0  0.15945539136E+02 -0.12584538386E+01  0.14004827304E+02  0.21259800381E+02  0.00000000000E+00 0.  1.
</event>
<event>
 7    1  0.3750159E-013  0.5930193E+02  0.7816164E-02  0.1266605E+00
        -11   -1    0    0    0    0  0.00000000000E+00  0.00000000000E+00  0.45593999997E+02  0.45594000000E+02  0.51100000000E-03 0. -1.
         11   -1    0    0    0    0 -0.00000000000E+00 -0.00000000000E+00 -0.45593999997E+02  0.45594000000E+02  0.51100000000E-03 0.  1.
    9900012    2    1    2    0    0  0.14925475833E+02  0.26191704312E+02 -0.10389710369E+02  0.59301932742E+02  0.49999979417E+02 0.  0.
        -12    1    1    2    0    0 -0.14925475833E+02 -0.26191704312E+02  0.10389710369E+02  0.31886067258E+02  0.00000000000E+00 0.  1.
         11    1    3    3    0    0  0.78170018989E+01 -0.41249474008E+01  0.14054530177E+02  0.16602726538E+02  0.51100000000E-03 0. -1.
        -11    1    3    3    0    0  0.44463673047E+01  0.24269101062E+01  0.62515270805E+00  0.51040073512E+01  0.51100000000E-03 0.  1.
        -12    1    3    3    0    0  0.26621066295E+01  0.27889741607E+02 -0.25069393254E+02  0.37595198852E+02  0.00000000000E+00 0.  1.
</event>
<event>
 7    1  0.3750159E-013  0.5930195E+02  0.7816164E-02  0.1266605E+00
        -11   -1    0    0    0    0  0.00000000000E+00  0.00000000000E+00  0.45593999997E+02  0.45594000000E+02  0.51100000000E-03 0. -1.
         11   -1    0    0    0    0 -0.00000000000E+00 -0.00000000000E+00 -0.45593999997E+02  0.45594000000E+02  0.51100000000E-03 0.  1.
    9900012    2    1    2    0    0  0.50735633573E+01  0.30448343464E+02  0.79923555309E+01  0.59301946437E+02  0.50000004395E+02 0.  0.
        -12    1    1    2    0    0 -0.50735633573E+01 -0.30448343464E+02 -0.79923555309E+01  0.31886053563E+02  0.00000000000E+00 0.  1.
         11    1    3    3    0    0 -0.93301327546E+01 -0.88500166609E+00  0.43732594748E+01  0.10342146966E+02  0.51100000000E-03 0. -1.
        -11    1    3    3    0    0  0.21106872433E+02  0.13497069578E+02  0.12429537423E+02  0.27967201360E+02  0.51100000000E-03 0.  1.
         12    1    3    3    0    0 -0.67031763211E+01  0.17836275553E+02 -0.88104413673E+01  0.20992598112E+02  0.00000000000E+00 0. -1.
</event>
<event>
 7    1  0.3750159E-013  0.5930194E+02  0.7816164E-02  0.1266605E+00
        -11   -1    0    0    0    0  0.00000000000E+00  0.00000000000E+00  0.45593999997E+02  0.45594000000E+02  0.51100000000E-03 0.  1.
         11   -1    0    0    0    0 -0.00000000000E+00 -0.00000000000E+00 -0.45593999997E+02  0.45594000000E+02  0.51100000000E-03 0. -1.
    9900012    2    1    2    0    0  0.28667271727E+02  0.41920261805E+01 -0.13316723447E+02  0.59301942308E+02  0.49999996865E+02 0.  0.
        -12    1    1    2    0    0 -0.28667271727E+02 -0.41920261805E+01  0.13316723447E+02  0.31886057692E+02  0.00000000000E+00 0.  1.
         11    1    3    3    0    0  0.30097918135E+02 -0.66385276087E+01 -0.23663492565E+02  0.38857632525E+02  0.51100000000E-03 0. -1.
        -11    1    3    3    0    0 -0.56077351000E+01 -0.15170818013E+00  0.50799737739E+01  0.75680804785E+01  0.51100000000E-03 0.  1.
        -12    1    3    3    0    0  0.41770886920E+01  0.10982261969E+02  0.52667953443E+01  0.12876229305E+02  0.00000000000E+00 0.  1.
</event>
<event>
 7    1  0.3750159E-013  0.5930195E+02  0.7816164E-02  0.1266605E+00
        -11   -1    0    0    0    0  0.00000000000E+00  0.00000000000E+00  0.45593999997E+02  0.45594000000E+02  0.51100000000E-03 0. -1.
         11   -1    0    0    0    0 -0.00000000000E+00 -0.00000000000E+00 -0.45593999997E+02  0.45594000000E+02  0.51100000000E-03 0.  1.
    9900012    2    1    2    0    0  0.26777423816E+02  0.67958705846E+01  0.15921872433E+02  0.59301948112E+02  0.50000007448E+02 0.  0.
        -12    1    1    2    0    0 -0.26777423816E+02 -0.67958705846E+01 -0.15921872433E+02  0.31886051888E+02  0.00000000000E+00 0.  1.
         11    1    3    3    0    0  0.17880852770E+02 -0.15496230505E+01  0.11248563994E+02  0.21181511267E+02  0.51100000000E-03 0. -1.
        -11    1    3    3    0    0  0.10031746496E+02  0.18477719859E+02  0.13203271520E+02  0.24827171568E+02  0.51100000000E-03 0.  1.
         12    1    3    3    0    0 -0.11351754494E+01 -0.10132226224E+02 -0.85299630805E+01  0.13293265277E+02  0.00000000000E+00 0. -1.
</event>
<event>
 7    1  0.3750159E-013  0.5930194E+02  0.7816164E-02  0.1266605E+00
        -11   -1    0    0    0    0  0.00000000000E+00  0.00000000000E+00  0.45593999997E+02  0.45594000000E+02  0.51100000000E-03 0.  1.
         11   -1    0    0    0    0 -0.00000000000E+00 -0.00000000000E+00 -0.45593999997E+02  0.45594000000E+02  0.51100000000E-03 0. -1.
    9900012    2    1    2    0    0 -0.44831214312E+01  0.12015043836E+02 -0.29193515789E+02  0.59301936896E+02  0.49999986993E+02 0.  0.
        -12    1    1    2    0    0  0.44831214312E+01 -0.12015043836E+02  0.29193515789E+02  0.31886063104E+02  0.00000000000E+00 0.  1.
         11    1    3    3    0    0  0.13807098387E+02 -0.12485813918E+02 -0.10611771747E+02  0.21427580706E+02  0.51100000000E-03 0. -1.
        -11    1    3    3    0    0  0.10932308596E+01  0.85447827476E+00  0.86809617948E+00  0.16367278553E+01  0.51100000000E-03 0.  1.
        -12    1    3    3    0    0 -0.19383450677E+02  0.23646379480E+02 -0.19449840222E+02  0.36237628334E+02  0.00000000000E+00 0.  1.
</event>
<event>
 7    1  0.3750159E-013  0.5930194E+02  0.7816164E-02  0.1266605E+00
        -11   -1    0    0    0    0  0.00000000000E+00  0.00000000000E+00  0.45593999997E+02  0.45594000000E+02  0.51100000000E-03 0. -1.
         11   -1    0    0    0    0 -0.00000000000E+00 -0.00000000000E+00 -0.45593999997E+02  0.45594000000E+02  0.51100000000E-03 0.  1.
    9900012    2    1    2    0    0 -0.61095438595E+00  0.20856499544E+02  0.24111276802E+02  0.59301944937E+02  0.50000001658E+02 0.  0.
        -12    1    1    2    0    0  0.61095438595E+00 -0.20856499544E+02 -0.24111276802E+02  0.31886055063E+02  0.00000000000E+00 0.  1.
         11    1    3    3    0    0 -0.26110674069E+01  0.63129525235E+01  0.27264657774E+02  0.28107518681E+02  0.51100000000E-03 0. -1.
        -11    1    3    3    0    0  0.10915089462E+02  0.59047623208E+01  0.77844105841E+01  0.14649315493E+02  0.51100000000E-03 0.  1.
        -12    1    3    3    0    0 -0.89149764407E+01  0.86387846994E+01 -0.10937791557E+02  0.16545110763E+02  0.00000000000E+00 0.  1.
</event>
<event>
 7    1  0.3750159E-013  0.5930193E+02  0.7816164E-02  0.1266605E+00
        -11   -1    0    0    0    0  0.00000000000E+00  0.00000000000E+00  0.45593999997E+02  0.45594000000E+02  0.51100000000E-03 0. -1.
         11   -1    0    0    0    0 -0.00000000000E+00 -0.00000000000E+00 -0.45593999997E+02  0.45594000000E+02  0.51100000000E-03 0.  1.
    9900012    2    1    2    0    0 -0.22363120497E+02 -0.19138379897E+02 -0.12261095854E+02  0.59301933842E+02  0.49999981424E+02 0.  0.
        -12    1    1    2    0    0  0.22363120497E+02  0.19138379897E+02  0.12261095854E+02  0.31886066158E+02  0.00000000000E+00 0.  1.
         11    1    3    3    0    0  0.61594852446E+01 -0.19723303106E+02 -0.59655403509E+01  0.21506641203E+02  0.51100000000E-03 0. -1.
        -11    1    3    3    0    0  0.11430521225E+01  0.26351132105E+01 -0.75033651748E+01  0.80343561655E+01  0.51100000000E-03 0.  1.
         12    1    3    3    0    0 -0.29665657865E+02 -0.20501900013E+01  0.12078096716E+01  0.29760936474E+02  0.00000000000E+00 0. -1.
</event>
<event>
 7    1  0.3750159E-013  0.5930190E+02  0.7816164E-02  0.1266605E+00
        -11   -1    0    0    0    0  0.00000000000E+00  0.00000000000E+00  0.45593999997E+02  0.45594000000E+02  0.51100000000E-03 0.  1.
         11   -1    0    0    0    0 -0.00000000000E+00 -0.00000000000E+00 -0.45593999997E+02  0.45594000000E+02  0.51100000000E-03 0. -1.
    9900012    2    1    2    0    0  0.11888352832E+02 -0.29364042413E+02 -0.36254223039E+01  0.59301896338E+02  0.49999913025E+02 0.  0.
        -12    1    1    2    0    0 -0.11888352832E+02  0.29364042413E+02  0.36254223039E+01  0.31886103662E+02  0.00000000000E+00 0.  1.
         11    1    3    3    0    0  0.30051319067E+01  0.18741035685E+01 -0.87499866346E+00  0.36481097687E+01  0.51100000000E-03 0. -1.
        -11    1    3    3    0    0  0.19925898980E+02 -0.51892812786E+01  0.11911375567E+02  0.23787621960E+02  0.51100000000E-03 0.  1.
         12    1    3    3    0    0 -0.11042678054E+02 -0.26048864703E+02 -0.14661799208E+02  0.31866164609E+02  0.00000000000E+00 0. -1.
</event>
<event>
 7    1  0.3750159E-013  0.5930194E+02  0.7816164E-02  0.1266605E+00
        -11   -1    0    0    0    0  0.00000000000E+00  0.00000000000E+00  0.45593999997E+02  0.45594000000E+02  0.51100000000E-03 0. -1.
         11   -1    0    0    0    0 -0.00000000000E+00 -0.00000000000E+00 -0.45593999997E+02  0.45594000000E+02  0.51100000000E-03 0.  1.
    9900012    2    1    2    0    0 -0.21695264002E+02 -0.19542482386E+01  0.23285556737E+02  0.59301941623E+02  0.49999995615E+02 0.  0.
        -12    1    1    2    0    0  0.21695264002E+02  0.19542482386E+01 -0.23285556737E+02  0.31886058377E+02  0.00000000000E+00 0.  1.
         11    1    3    3    0    0 -0.18085766446E+01  0.36315115903E+00 -0.70917081993E+01  0.73276977072E+01  0.51100000000E-03 0. -1.
        -11    1    3    3    0    0 -0.26715981620E+02 -0.26785185774E+01  0.71849373573E+01  0.27794630071E+02  0.51100000000E-03 0.  1.
         12    1    3    3    0    0  0.68292942627E+01  0.36111917985E+00  0.23192327579E+02  0.24179613845E+02  0.00000000000E+00 0. -1.
</event>
<event>
 7    1  0.3750159E-013  0.5930194E+02  0.7816164E-02  0.1266605E+00
        -11   -1    0    0    0    0  0.00000000000E+00  0.00000000000E+00  0.45593999997E+02  0.45594000000E+02  0.51100000000E-03 0.  1.
         11   -1    0    0    0    0 -0.00000000000E+00 -0.00000000000E+00 -0.45593999997E+02  0.45594000000E+02  0.51100000000E-03 0. -1.
    9900012    2    1    2    0    0 -0.18356841133E+02  0.21612602572E+02 -0.14582260007E+02  0.59301944847E+02  0.50000001494E+02 0.  0.
        -12    1    1    2    0    0  0.18356841133E+02 -0.21612602572E+02  0.14582260007E+02  0.31886055153E+02  0.00000000000E+00 0.  1.
         11    1    3    3    0    0  0.13418760543E+02  0.35806175787E+01  0.25290399181E+01  0.14116656825E+02  0.51100000000E-03 0. -1.
        -11    1    3    3    0    0 -0.40697339147E+01 -0.44812457740E+01 -0.15988205001E+01  0.62610322692E+01  0.51100000000E-03 0.  1.
         12    1    3    3    0    0 -0.27705867761E+02  0.22513230767E+02 -0.15512479425E+02  0.38924255752E+02  0.00000000000E+00 0. -1.
</event>
<event>
 7    1  0.3750159E-013  0.5930196E+02  0.7816164E-02  0.1266605E+00
        -11   -1    0    0    0    0  0.00000000000E+00  0.00000000000E+00  0.45593999997E+02  0.45594000000E+02  0.51100000000E-03 0.  1.
         11   -1    0    0    0    0 -0.00000000000E+00 -0.00000000000E+00 -0.45593999997E+02  0.45594000000E+02  0.51100000000E-03 0. -1.
    9900012    2    1    2    0    0 -0.60262303539E+01 -0.27689692372E+02 -0.14617977878E+02  0.59301956138E+02  0.50000022087E+02 0.  0.
        -12    1    1    2    0    0  0.60262303539E+01  0.27689692372E+02  0.14617977878E+02  0.31886043862E+02  0.00000000000E+00 0.  1.
         11    1    3    3    0    0 -0.24127275338E+01 -0.11137356474E+02  0.73398060912E+00  0.11419312203E+02  0.51100000000E-03 0. -1.
        -11    1    3    3    0    0  0.11004777249E+02 -0.45368484470E+00  0.97232216162E+01  0.14691902228E+02  0.51100000000E-03 0.  1.
        -12    1    3    3    0    0 -0.14618280069E+02 -0.16098651053E+02 -0.25075180103E+02  0.33190741707E+02  0.00000000000E+00 0.  1.
</event>
<event>
 7    1  0.3750159E-013  0.5930194E+02  0.7816164E-02  0.1266605E+00
        -11   -1    0    0    0    0  0.00000000000E+00  0.00000000000E+00  0.45593999997E+02  0.45594000000E+02  0.51100000000E-03 0.  1.
         11   -1    0    0    0    0 -0.00000000000E+00 -0.00000000000E+00 -0.45593999997E+02  0.45594000000E+02  0.51100000000E-03 0. -1.
    9900012    2    1    2    0    0  0.32908692446E+00  0.75276687066E+01 -0.30983005727E+02  0.59301941319E+02  0.49999995059E+02 0.  0.
        -12    1    1    2    0    0 -0.32908692446E+00 -0.75276687066E+01  0.30983005727E+02  0.31886058681E+02  0.00000000000E+00 0.  1.
         11    1    3    3    0    0 -0.14090088650E+01  0.12782185162E+02 -0.21579919278E+02  0.25120956984E+02  0.51100000000E-03 0. -1.
        -11    1    3    3    0    0  0.10933366270E+02 -0.21015616332E+01 -0.18025826475E+02  0.21186917654E+02  0.51100000000E-03 0.  1.
         12    1    3    3    0    0 -0.91952704806E+01 -0.31529548225E+01  0.86227400265E+01  0.12994066680E+02  0.00000000000E+00 0. -1.
</event>
<event>
 7    1  0.3750159E-013  0.5930192E+02  0.7816164E-02  0.1266605E+00
        -11   -1    0    0    0    0  0.00000000000E+00  0.00000000000E+00  0.45593999997E+02  0.45594000000E+02  0.51100000000E-03 0. -1.
         11   -1    0    0    0    0 -0.00000000000E+00 -0.00000000000E+00 -0.45593999997E+02  0.45594000000E+02  0.51100000000E-03 0.  1.
    9900012    2    1    2    0    0  0.29437170583E+02 -0.78144460420E+01  0.94397844845E+01  0.59301919809E+02  0.49999955830E+02 0.  0.
        -12    1    1    2    0    0 -0.29437170583E+02  0.78144460420E+01 -0.94397844845E+01  0.31886080191E+02  0.00000000000E+00 0.  1.
         11    1    3    3    0    0  0.15139939128E+02  0.82914545011E+01  0.71654711282E-01  0.17261839682E+02  0.51100000000E-03 0. -1.
        -11    1    3    3    0    0  0.74133459558E+00  0.10777834738E+02  0.13859287814E+01  0.10891836276E+02  0.51100000000E-03 0.  1.
        -12    1    3    3    0    0  0.13555896859E+02 -0.26883735281E+02  0.79822009919E+01  0.31148243851E+02  0.00000000000E+00 0.  1.
</event>
<event>
 7    1  0.3750159E-013  0.5930194E+02  0.7816164E-02  0.1266605E+00
        -11   -1    0    0    0    0  0.00000000000E+00  0.00000000000E+00  0.45593999997E+02  0.45594000000E+02  0.51100000000E-03 0.  1.
         11   -1    0    0    0    0 -0.00000000000E+00 -0.00000000000E+00 -0.45593999997E+02  0.45594000000E+02  0.51100000000E-03 0. -1.
    9900012    2    1    2    0    0  0.13832983025E+02  0.28121093156E+02 -0.58799365641E+01  0.59301937941E+02  0.49999988899E+02 0.  0.
        -12    1    1    2    0    0 -0.13832983025E+02 -0.28121093156E+02  0.58799365641E+01  0.31886062059E+02  0.00000000000E+00 0.  1.
         11    1    3    3    0    0  0.95373889528E+01  0.19567001066E+01 -0.18528883054E+02  0.20931076677E+02  0.51100000000E-03 0. -1.
        -11    1    3    3    0    0 -0.94528391516E+00  0.13525964349E+02 -0.63385705938E+01  0.14967389575E+02  0.51100000000E-03 0.  1.
        -12    1    3    3    0    0  0.52408779872E+01  0.12638428700E+02  0.18987517084E+02  0.23403471689E+02  0.00000000000E+00 0.  1.
</event>
<event>
 7    1  0.3750159E-013  0.5930193E+02  0.7816164E-02  0.1266605E+00
        -11   -1    0    0    0    0  0.00000000000E+00  0.00000000000E+00  0.45593999997E+02  0.45594000000E+02  0.51100000000E-03 0.  1.
         11   -1    0    0    0    0 -0.00000000000E+00 -0.00000000000E+00 -0.45593999997E+02  0.45594000000E+02  0.51100000000E-03 0. -1.
    9900012    2    1    2    0    0  0.40161726580E+01  0.22975687104E+02 -0.21741883576E+02  0.59301931848E+02  0.49999977788E+02 0.  0.
        -12    1    1    2    0    0 -0.40161726580E+01 -0.22975687104E+02  0.21741883576E+02  0.31886068152E+02  0.00000000000E+00 0.  1.
         11    1    3    3    0    0  0.98667518986E+01  0.36936182093E+01 -0.25476264055E+02  0.27568743877E+02  0.51100000000E-03 0. -1.
        -11    1    3    3    0    0  0.53172044680E+01  0.74322889686E+01 -0.76065552657E+01  0.11889964926E+02  0.51100000000E-03 0.  1.
        -12    1    3    3    0    0 -0.11167783709E+02  0.11849779926E+02  0.11340935744E+02  0.19843223045E+02  0.00000000000E+00 0.  1.
</event>
<event>
 7    1  0.3750159E-013  0.5930194E+02  0.7816164E-02  0.1266605E+00
        -11   -1    0    0    0    0  0.00000000000E+00  0.00000000000E+00  0.45593999997E+02  0.45594000000E+02  0.51100000000E-03 0.  1.
         11   -1    0    0    0    0 -0.00000000000E+00 -0.00000000000E+00 -0.45593999997E+02  0.45594000000E+02  0.51100000000E-03 0. -1.
    9900012    2    1    2    0    0 -0.13060332601E+02 -0.44999419683E+01 -0.28738455727E+02  0.59301943440E+02  0.49999998928E+02 0.  0.
        -12    1    1    2    0    0  0.13060332601E+02  0.44999419683E+01  0.28738455727E+02  0.31886056560E+02  0.00000000000E+00 0.  1.
         11    1    3    3    0    0  0.18327662293E+01 -0.12215090853E+02  0.63130791308E+01  0.13871641755E+02  0.51100000000E-03 0. -1.
        -11    1    3    3    0    0 -0.65684361898E+01  0.84259165959E+01 -0.14213096570E+01  0.10777780192E+02  0.51100000000E-03 0.  1.
         12    1    3    3    0    0 -0.83246626401E+01 -0.71076771138E+00 -0.33630225201E+02  0.34652521494E+02  0.00000000000E+00 0. -1.
</event>
<event>
 7    1  0.3750159E-013  0.5930195E+02  0.7816164E-02  0.1266605E+00
        -11   -1    0    0    0    0  0.00000000000E+00  0.00000000000E+00  0.45593999997E+02  0.45594000000E+02  0.51100000000E-03 0.  1.
         11   -1    0    0    0    0 -0.00000000000E+00 -0.00000000000E+00 -0.45593999997E+02  0.45594000000E+02  0.51100000000E-03 0. -1.
    9900012    2    1    2    0    0 -0.29474477972E+02 -0.97340235582E+01 -0.72954798194E+01  0.59301951450E+02  0.50000013536E+02 0.  0.
        -12    1    1    2    0    0  0.29474477972E+02  0.97340235582E+01  0.72954798194E+01  0.31886048550E+02  0.00000000000E+00 0.  1.
         11    1    3    3    0    0  0.66631992406E+01  0.59287837399E-01 -0.18226789161E+02  0.19406637590E+02  0.51100000000E-03 0.  1.
        -11    1    3    3    0    0 -0.10480110347E+02 -0.59476144223E+01  0.91536185824E+00  0.12084896267E+02  0.51100000000E-03 0. -1.
        -12    1    3    3    0    0 -0.25657566866E+02 -0.38456969733E+01  0.10015947484E+02  0.27810417593E+02  0.00000000000E+00 0.  1.
</event>
<event>
 7    1  0.3750159E-013  0.5930194E+02  0.7816164E-02  0.1266605E+00
        -11   -1    0    0    0    0  0.00000000000E+00  0.00000000000E+00  0.45593999997E+02  0.45594000000E+02  0.51100000000E-03 0. -1.
         11   -1    0    0    0    0 -0.00000000000E+00 -0.00000000000E+00 -0.45593999997E+02  0.45594000000E+02  0.51100000000E-03 0.  1.
    9900012    2    1    2    0    0  0.19457630547E+02  0.24985514369E+02  0.37209753756E+01  0.59301937645E+02  0.49999988359E+02 0.  0.
        -12    1    1    2    0    0 -0.19457630547E+02 -0.24985514369E+02 -0.37209753756E+01  0.31886062355E+02  0.00000000000E+00 0.  1.
         11    1    3    3    0    0  0.25536057816E+02 -0.34934865200E+00  0.11391537469E+02  0.27963894926E+02  0.51100000000E-03 0. -1.
        -11    1    3    3    0    0  0.38678985174E+01  0.12792021137E+02 -0.75094971890E+01  0.15329350671E+02  0.51100000000E-03 0.  1.
        -12    1    3    3    0    0 -0.99463257865E+01  0.12542841884E+02 -0.16106490441E+00  0.16008692048E+02  0.00000000000E+00 0.  1.
</event>
<event>
 7    1  0.3750159E-013  0.5930194E+02  0.7816164E-02  0.1266605E+00
        -11   -1    0    0    0    0  0.00000000000E+00  0.00000000000E+00  0.45593999997E+02  0.45594000000E+02  0.51100000000E-03 0.  1.
         11   -1    0    0    0    0 -0.00000000000E+00 -0.00000000000E+00 -0.45593999997E+02  0.45594000000E+02  0.51100000000E-03 0. -1.
    9900012    2    1    2    0    0 -0.23851440115E+02 -0.18586572073E+02 -0.10117749777E+02  0.59301941644E+02  0.49999995652E+02 0.  0.
        -12    1    1    2    0    0  0.23851440115E+02  0.18586572073E+02  0.10117749777E+02  0.31886058356E+02  0.00000000000E+00 0.  1.
         11    1    3    3    0    0  0.20117208966E+00 -0.12432512268E+02 -0.93137269805E+01  0.15535550909E+02  0.51100000000E-03 0. -1.
        -11    1    3    3    0    0 -0.33542673824E+01 -0.17479384300E+02 -0.73880715407E+01  0.19270796209E+02  0.51100000000E-03 0.  1.
        -12    1    3    3    0    0 -0.20698344822E+02  0.11325324496E+02  0.65840487446E+01  0.24495594526E+02  0.00000000000E+00 0.  1.
</event>
<event>
 7    1  0.3750159E-013  0.5930235E+02  0.7816164E-02  0.1266603E+00
        -11   -1    0    0    0    0  0.00000000000E+00  0.00000000000E+00  0.45593999997E+02  0.45594000000E+02  0.51100000000E-03 0. -1.
         11   -1    0    0    0    0 -0.00000000000E+00 -0.00000000000E+00 -0.45593999997E+02  0.45594000000E+02  0.51100000000E-03 0.  1.
    9900012    2    1    2    0    0 -0.27331699172E+01 -0.70184892352E+01  0.30983307015E+02  0.59302349269E+02  0.50000739058E+02 0.  0.
        -12    1    1    2    0    0  0.27331699172E+01  0.70184892352E+01 -0.30983307015E+02  0.31885650731E+02  0.00000000000E+00 0.  1.
         11    1    3    3    0    0 -0.70990616313E+01 -0.10525640195E+01  0.82243814468E+01  0.10915356957E+02  0.51100000000E-03 0. -1.
        -11    1    3    3    0    0 -0.46947433507E+01 -0.22103064900E+02  0.59028902355E+01  0.23354447253E+02  0.51100000000E-03 0.  1.
         12    1    3    3    0    0  0.90606350647E+01  0.16137139685E+02  0.16856035333E+02  0.25032545059E+02  0.00000000000E+00 0. -1.
</event>
<event>
 7    1  0.3750159E-013  0.5930197E+02  0.7816164E-02  0.1266605E+00
        -11   -1    0    0    0    0  0.00000000000E+00  0.00000000000E+00  0.45593999997E+02  0.45594000000E+02  0.51100000000E-03 0. -1.
         11   -1    0    0    0    0 -0.00000000000E+00 -0.00000000000E+00 -0.45593999997E+02  0.45594000000E+02  0.51100000000E-03 0.  1.
    9900012    2    1    2    0    0 -0.16846849196E+02 -0.33722931654E+01  0.26861318112E+02  0.59301967012E+02  0.50000041918E+02 0.  0.
        -12    1    1    2    0    0  0.16846849196E+02  0.33722931654E+01 -0.26861318112E+02  0.31886032988E+02  0.00000000000E+00 0.  1.
         11    1    3    3    0    0  0.56891608942E+01  0.41795405052E+01  0.14859736687E+02  0.16451349038E+02  0.51100000000E-03 0. -1.
        -11    1    3    3    0    0 -0.90689769072E+01  0.11955528223E+02  0.11890629433E+02  0.19145967351E+02  0.51100000000E-03 0.  1.
         12    1    3    3    0    0 -0.13467033183E+02 -0.19507361894E+02  0.11095199189E+00  0.23704650623E+02  0.00000000000E+00 0. -1.
</event>
<event>
 7    1  0.3750159E-013  0.5930196E+02  0.7816164E-02  0.1266605E+00
        -11   -1    0    0    0    0  0.00000000000E+00  0.00000000000E+00  0.45593999997E+02  0.45594000000E+02  0.51100000000E-03 0. -1.
         11   -1    0    0    0    0 -0.00000000000E+00 -0.00000000000E+00 -0.45593999997E+02  0.45594000000E+02  0.51100000000E-03 0.  1.
    9900012    2    1    2    0    0 -0.23672536663E+02 -0.20972225488E+02 -0.40615914195E+01  0.59301956676E+02  0.50000023068E+02 0.  0.
        -12    1    1    2    0    0  0.23672536663E+02  0.20972225488E+02  0.40615914195E+01  0.31886043324E+02  0.00000000000E+00 0.  1.
         11    1    3    3    0    0 -0.99710799825E+01 -0.11842216956E+02  0.80282571934E+01  0.17438848938E+02  0.51100000000E-03 0. -1.
        -11    1    3    3    0    0  0.68353274629E+00 -0.55539321865E+01  0.12191789189E+02  0.13414660027E+02  0.51100000000E-03 0.  1.
        -12    1    3    3    0    0 -0.14384989427E+02 -0.35760763456E+01 -0.24281637802E+02  0.28448447711E+02  0.00000000000E+00 0.  1.
</event>
<event>
 7    1  0.3750159E-013  0.5930211E+02  0.7816164E-02  0.1266604E+00
        -11   -1    0    0    0    0  0.00000000000E+00  0.00000000000E+00  0.45593999997E+02  0.45594000000E+02  0.51100000000E-03 0.  1.
         11   -1    0    0    0    0 -0.00000000000E+00 -0.00000000000E+00 -0.45593999997E+02  0.45594000000E+02  0.51100000000E-03 0. -1.
    9900012    2    1    2    0    0 -0.76831753806E+01 -0.87554509617E+01 -0.29681996521E+02  0.59302109343E+02  0.50000301495E+02 0.  0.
        -12    1    1    2    0    0  0.76831753806E+01  0.87554509617E+01  0.29681996521E+02  0.31885890657E+02  0.00000000000E+00 0.  1.
         11    1    3    3    0    0 -0.17495737578E+02  0.27750207864E+01 -0.34656422243E+01  0.18050270083E+02  0.51100000000E-03 0. -1.
        -11    1    3    3    0    0  0.52326547155E+01 -0.18005857688E+02 -0.62452938429E+01  0.19763483547E+02  0.51100000000E-03 0.  1.
         12    1    3    3    0    0  0.45799074823E+01  0.64753859400E+01 -0.19971060454E+02  0.21488355714E+02  0.00000000000E+00 0. -1.
</event>
<event>
 7    1  0.3750159E-013  0.5930192E+02  0.7816164E-02  0.1266605E+00
        -11   -1    0    0    0    0  0.00000000000E+00  0.00000000000E+00  0.45593999997E+02  0.45594000000E+02  0.51100000000E-03 0.  1.
         11   -1    0    0    0    0 -0.00000000000E+00 -0.00000000000E+00 -0.45593999997E+02  0.45594000000E+02  0.51100000000E-03 0. -1.
    9900012    2    1    2    0    0  0.68438597577E+01  0.29077503477E+01 -0.31006910222E+02  0.59301922945E+02  0.49999961550E+02 0.  0.
        -12    1    1    2    0    0 -0.68438597577E+01 -0.29077503477E+01  0.31006910222E+02  0.31886077055E+02  0.00000000000E+00 0.  1.
         11    1    3    3    0    0 -0.13671782264E+02  0.84314555384E+01 -0.77711238255E+00  0.16081386031E+02  0.51100000000E-03 0. -1.
        -11    1    3    3    0    0 -0.58912920750E+00  0.54532653335E+00  0.31578598583E+01  0.32583022261E+01  0.51100000000E-03 0.  1.
         12    1    3    3    0    0  0.21104771229E+02 -0.60690317240E+01 -0.33387657698E+02  0.39962234688E+02  0.00000000000E+00 0. -1.
</event>
<event>
 7    1  0.3750159E-013  0.5930192E+02  0.7816164E-02  0.1266605E+00
        -11   -1    0    0    0    0  0.00000000000E+00  0.00000000000E+00  0.45593999997E+02  0.45594000000E+02  0.51100000000E-03 0. -1.
         11   -1    0    0    0    0 -0.00000000000E+00 -0.00000000000E+00 -0.45593999997E+02  0.45594000000E+02  0.51100000000E-03 0.  1.
    9900012    2    1    2    0    0 -0.17967536656E+02  0.19116851248E+02 -0.18122802499E+02  0.59301916115E+02  0.49999949094E+02 0.  0.
        -12    1    1    2    0    0  0.17967536656E+02 -0.19116851248E+02  0.18122802499E+02  0.31886083885E+02  0.00000000000E+00 0.  1.
         11    1    3    3    0    0  0.56964510946E+01 -0.29417371642E+01 -0.18561063024E-01  0.64112180894E+01  0.51100000000E-03 0. -1.
        -11    1    3    3    0    0 -0.26095185557E+02  0.36756356466E+01 -0.21535325386E+02  0.34032914163E+02  0.51100000000E-03 0.  1.
         12    1    3    3    0    0  0.24311978069E+01  0.18382952765E+02  0.34310839501E+01  0.18857783863E+02  0.00000000000E+00 0. -1.
</event>
<event>
 7    1  0.3750159E-013  0.5930197E+02  0.7816164E-02  0.1266605E+00
        -11   -1    0    0    0    0  0.00000000000E+00  0.00000000000E+00  0.45593999997E+02  0.45594000000E+02  0.51100000000E-03 0.  1.
         11   -1    0    0    0    0 -0.00000000000E+00 -0.00000000000E+00 -0.45593999997E+02  0.45594000000E+02  0.51100000000E-03 0. -1.
    9900012    2    1    2    0    0 -0.12133430495E+02 -0.35856514080E+01 -0.29268441204E+02  0.59301973561E+02  0.50000053861E+02 0.  0.
        -12    1    1    2    0    0  0.12133430495E+02  0.35856514080E+01  0.29268441204E+02  0.31886026439E+02  0.00000000000E+00 0.  1.
         11    1    3    3    0    0 -0.21751596188E+02  0.18152426389E+01 -0.20442307174E+02  0.29905099321E+02  0.51100000000E-03 0. -1.
        -11    1    3    3    0    0  0.71819036250E+01 -0.15378856889E+02 -0.88151428539E+01  0.19125786851E+02  0.51100000000E-03 0.  1.
        -12    1    3    3    0    0  0.24362620681E+01  0.99779628416E+01 -0.10991176032E-01  0.10271087388E+02  0.00000000000E+00 0.  1.
</event>
<event>
 7    1  0.3750159E-013  0.5930197E+02  0.7816164E-02  0.1266605E+00
        -11   -1    0    0    0    0  0.00000000000E+00  0.00000000000E+00  0.45593999997E+02  0.45594000000E+02  0.51100000000E-03 0.  1.
         11   -1    0    0    0    0 -0.00000000000E+00 -0.00000000000E+00 -0.45593999997E+02  0.45594000000E+02  0.51100000000E-03 0. -1.
    9900012    2    1    2    0    0  0.23480976764E+02  0.20370247081E+02 -0.71003785809E+01  0.59301974661E+02  0.50000055868E+02 0.  0.
        -12    1    1    2    0    0 -0.23480976764E+02 -0.20370247081E+02  0.71003785809E+01  0.31886025339E+02  0.00000000000E+00 0.  1.
         11    1    3    3    0    0  0.16167384951E+02 -0.62979240156E+01 -0.19515795018E+02  0.26113491503E+02  0.51100000000E-03 0. -1.
        -11    1    3    3    0    0  0.10841970764E+02  0.16901438078E+02  0.58984776374E+01  0.20928425116E+02  0.51100000000E-03 0.  1.
        -12    1    3    3    0    0 -0.35283789508E+01  0.97667330189E+01  0.65169387993E+01  0.12260058042E+02  0.00000000000E+00 0.  1.
</event>
<event>
 7    1  0.3750159E-013  0.5930195E+02  0.7816164E-02  0.1266605E+00
        -11   -1    0    0    0    0  0.00000000000E+00  0.00000000000E+00  0.45593999997E+02  0.45594000000E+02  0.51100000000E-03 0.  1.
         11   -1    0    0    0    0 -0.00000000000E+00 -0.00000000000E+00 -0.45593999997E+02  0.45594000000E+02  0.51100000000E-03 0. -1.
    9900012    2    1    2    0    0  0.70108143098E+00 -0.28502088798E+02 -0.14277950177E+02  0.59301945960E+02  0.50000003523E+02 0.  0.
        -12    1    1    2    0    0 -0.70108143098E+00  0.28502088798E+02  0.14277950177E+02  0.31886054040E+02  0.00000000000E+00 0.  1.
         11    1    3    3    0    0 -0.92393335744E+01 -0.16963587301E+02 -0.12760425518E+02  0.23150745964E+02  0.51100000000E-03 0. -1.
        -11    1    3    3    0    0 -0.68493312082E+01  0.78236824141E+01 -0.16162598273E+01  0.10523100332E+02  0.51100000000E-03 0.  1.
        -12    1    3    3    0    0  0.16789746214E+02 -0.19362183911E+02  0.98735168561E-01  0.25628099663E+02  0.00000000000E+00 0.  1.
</event>
<event>
 7    1  0.3750159E-013  0.5930191E+02  0.7816164E-02  0.1266605E+00
        -11   -1    0    0    0    0  0.00000000000E+00  0.00000000000E+00  0.45593999997E+02  0.45594000000E+02  0.51100000000E-03 0. -1.
         11   -1    0    0    0    0 -0.00000000000E+00 -0.00000000000E+00 -0.45593999997E+02  0.45594000000E+02  0.51100000000E-03 0.  1.
    9900012    2    1    2    0    0 -0.59816756660E+01  0.15301540111E+02  0.27327736651E+02  0.59301909553E+02  0.49999937127E+02 0.  0.
        -12    1    1    2    0    0  0.59816756660E+01 -0.15301540111E+02 -0.27327736651E+02  0.31886090447E+02  0.00000000000E+00 0.  1.
         11    1    3    3    0    0  0.16311521141E+01  0.10584158948E+02  0.32216039544E+02  0.33949348771E+02  0.51100000000E-03 0. -1.
        -11    1    3    3    0    0 -0.84708972270E+01  0.25103769388E+00  0.80191392066E+01  0.11667292472E+02  0.51100000000E-03 0.  1.
         12    1    3    3    0    0  0.85806944686E+00  0.44663434686E+01 -0.12907442100E+02  0.13685268310E+02  0.00000000000E+00 0. -1.
</event>
<event>
 7    1  0.3750159E-013  0.5930197E+02  0.7816164E-02  0.1266605E+00
        -11   -1    0    0    0    0  0.00000000000E+00  0.00000000000E+00  0.45593999997E+02  0.45594000000E+02  0.51100000000E-03 0.  1.
         11   -1    0    0    0    0 -0.00000000000E+00 -0.00000000000E+00 -0.45593999997E+02  0.45594000000E+02  0.51100000000E-03 0. -1.
    9900012    2    1    2    0    0 -0.15133824294E+02  0.20036903292E+02 -0.19652201157E+02  0.59301966355E+02  0.50000040719E+02 0.  0.
        -12    1    1    2    0    0  0.15133824294E+02 -0.20036903292E+02  0.19652201157E+02  0.31886033645E+02  0.00000000000E+00 0.  1.
         11    1    3    3    0    0 -0.12387648013E+01 -0.60463038167E+01  0.53640161352E+01  0.81771020195E+01  0.51100000000E-03 0. -1.
        -11    1    3    3    0    0 -0.18146759363E+01 -0.49546825207E+01 -0.15666861270E+02  0.16531559816E+02  0.51100000000E-03 0.  1.
         12    1    3    3    0    0 -0.12080383556E+02  0.31037889630E+02 -0.93493560220E+01  0.34593304519E+02  0.00000000000E+00 0. -1.
</event>
<event>
 7    1  0.3750159E-013  0.5930192E+02  0.7816164E-02  0.1266605E+00
        -11   -1    0    0    0    0  0.00000000000E+00  0.00000000000E+00  0.45593999997E+02  0.45594000000E+02  0.51100000000E-03 0.  1.
         11   -1    0    0    0    0 -0.00000000000E+00 -0.00000000000E+00 -0.45593999997E+02  0.45594000000E+02  0.51100000000E-03 0. -1.
    9900012    2    1    2    0    0  0.12163238093E+02 -0.26367558763E+02 -0.13173051952E+02  0.59301924453E+02  0.49999964301E+02 0.  0.
        -12    1    1    2    0    0 -0.12163238093E+02  0.26367558763E+02  0.13173051952E+02  0.31886075547E+02  0.00000000000E+00 0.  1.
         11    1    3    3    0    0  0.11469192186E+02 -0.12219626225E+02  0.71437002988E+01  0.18217960608E+02  0.51100000000E-03 0. -1.
        -11    1    3    3    0    0 -0.35891182258E+01  0.82075228504E+01  0.20308191183E+01  0.91852832037E+01  0.51100000000E-03 0.  1.
         12    1    3    3    0    0  0.42831641323E+01 -0.22355455389E+02 -0.22347571369E+02  0.31898680642E+02  0.00000000000E+00 0. -1.
</event>
<event>
 7    1  0.3750159E-013  0.5930195E+02  0.7816164E-02  0.1266605E+00
        -11   -1    0    0    0    0  0.00000000000E+00  0.00000000000E+00  0.45593999997E+02  0.45594000000E+02  0.51100000000E-03 0.  1.
         11   -1    0    0    0    0 -0.00000000000E+00 -0.00000000000E+00 -0.45593999997E+02  0.45594000000E+02  0.51100000000E-03 0. -1.
    9900012    2    1    2    0    0  0.14766549536E+02 -0.25804530216E+02 -0.11523696199E+02  0.59301947580E+02  0.50000006478E+02 0.  0.
        -12    1    1    2    0    0 -0.14766549536E+02  0.25804530216E+02  0.11523696199E+02  0.31886052420E+02  0.00000000000E+00 0.  1.
         11    1    3    3    0    0  0.15337787665E+02 -0.30024073333E+02 -0.95939903935E+01  0.35053350224E+02  0.51100000000E-03 0. -1.
        -11    1    3    3    0    0  0.79182334986E+01  0.50046850369E+01 -0.91364096422E+01  0.13085078352E+02  0.51100000000E-03 0.  1.
         12    1    3    3    0    0 -0.84894716283E+01 -0.78514191994E+00  0.72067038372E+01  0.11163519004E+02  0.00000000000E+00 0. -1.
</event>
<event>
 7    1  0.3750159E-013  0.5930194E+02  0.7816164E-02  0.1266605E+00
        -11   -1    0    0    0    0  0.00000000000E+00  0.00000000000E+00  0.45593999997E+02  0.45594000000E+02  0.51100000000E-03 0. -1.
         11   -1    0    0    0    0 -0.00000000000E+00 -0.00000000000E+00 -0.45593999997E+02  0.45594000000E+02  0.51100000000E-03 0.  1.
    9900012    2    1    2    0    0  0.24130175537E+02 -0.14653775018E+02  0.14823032452E+02  0.59301940588E+02  0.49999993727E+02 0.  0.
        -12    1    1    2    0    0 -0.24130175537E+02  0.14653775018E+02 -0.14823032452E+02  0.31886059412E+02  0.00000000000E+00 0.  1.
         11    1    3    3    0    0  0.21954139359E+01  0.43206349717E+01  0.95213122645E+01  0.10683778190E+02  0.51100000000E-03 0. -1.
        -11    1    3    3    0    0  0.13133196195E+02  0.33309745123E+01 -0.12749214726E+02  0.18604265906E+02  0.51100000000E-03 0.  1.
         12    1    3    3    0    0  0.88015654070E+01 -0.22305384502E+02  0.18050934914E+02  0.30013896493E+02  0.00000000000E+00 0. -1.
</event>
<event>
 7    1  0.3750159E-013  0.5930197E+02  0.7816164E-02  0.1266605E+00
        -11   -1    0    0    0    0  0.00000000000E+00  0.00000000000E+00  0.45593999997E+02  0.45594000000E+02  0.51100000000E-03 0.  1.
         11   -1    0    0    0    0 -0.00000000000E+00 -0.00000000000E+00 -0.45593999997E+02  0.45594000000E+02  0.51100000000E-03 0. -1.
    9900012    2    1    2    0    0  0.22018187231E+02  0.22770363185E+02  0.36645044896E+01  0.59301974822E+02  0.50000056161E+02 0.  0.
        -12    1    1    2    0    0 -0.22018187231E+02 -0.22770363185E+02 -0.36645044896E+01  0.31886025178E+02  0.00000000000E+00 0.  1.
         11    1    3    3    0    0 -0.10912437559E+02  0.36701693888E+01 -0.83011888183E+01  0.14193701874E+02  0.51100000000E-03 0. -1.
        -11    1    3    3    0    0  0.23248036552E+01 -0.17933341913E+01  0.71623495067E+01  0.77408016557E+01  0.51100000000E-03 0.  1.
         12    1    3    3    0    0  0.30605821135E+02  0.20893527987E+02  0.48033438013E+01  0.37367471292E+02  0.00000000000E+00 0. -1.
</event>
<event>
 7    1  0.3750159E-013  0.5930196E+02  0.7816164E-02  0.1266605E+00
        -11   -1    0    0    0    0  0.00000000000E+00  0.00000000000E+00  0.45593999997E+02  0.45594000000E+02  0.51100000000E-03 0.  1.
         11   -1    0    0    0    0 -0.00000000000E+00 -0.00000000000E+00 -0.45593999997E+02  0.45594000000E+02  0.51100000000E-03 0. -1.
    9900012    2    1    2    0    0 -0.22991984260E+01  0.41833440108E+01 -0.31526704231E+02  0.59301956655E+02  0.50000023029E+02 0.  0.
        -12    1    1    2    0    0  0.22991984260E+01 -0.41833440108E+01  0.31526704231E+02  0.31886043345E+02  0.00000000000E+00 0.  1.
         11    1    3    3    0    0 -0.11998568615E+02  0.11780435733E+02 -0.67663456948E+01  0.18125334457E+02  0.51100000000E-03 0. -1.
        -11    1    3    3    0    0 -0.41232965384E+01  0.55805188354E+01  0.29361242135E+01  0.75342279282E+01  0.51100000000E-03 0.  1.
         12    1    3    3    0    0  0.13822666728E+02 -0.13177610557E+02 -0.27696482750E+02  0.33642394269E+02  0.00000000000E+00 0. -1.
</event>
<event>
 7    1  0.3750159E-013  0.5930197E+02  0.7816164E-02  0.1266605E+00
        -11   -1    0    0    0    0  0.00000000000E+00  0.00000000000E+00  0.45593999997E+02  0.45594000000E+02  0.51100000000E-03 0.  1.
         11   -1    0    0    0    0 -0.00000000000E+00 -0.00000000000E+00 -0.45593999997E+02  0.45594000000E+02  0.51100000000E-03 0. -1.
    9900012    2    1    2    0    0 -0.41465674964E+01 -0.28960396864E+02 -0.12681496596E+02  0.59301969133E+02  0.50000045786E+02 0.  0.
        -12    1    1    2    0    0  0.41465674964E+01  0.28960396864E+02  0.12681496596E+02  0.31886030867E+02  0.00000000000E+00 0.  1.
         11    1    3    3    0    0 -0.15118022831E+02 -0.89143854155E+01 -0.22583283945E+02  0.28601146755E+02  0.51100000000E-03 0. -1.
        -11    1    3    3    0    0 -0.17930262449E+01  0.10785085705E+01  0.51597819745E+01  0.55678967427E+01  0.51100000000E-03 0.  1.
        -12    1    3    3    0    0  0.12764481580E+02 -0.21124520019E+02  0.47420053751E+01  0.25132925636E+02  0.00000000000E+00 0.  1.
</event>
<event>
 7    1  0.3750159E-013  0.5930195E+02  0.7816164E-02  0.1266605E+00
        -11   -1    0    0    0    0  0.00000000000E+00  0.00000000000E+00  0.45593999997E+02  0.45594000000E+02  0.51100000000E-03 0.  1.
         11   -1    0    0    0    0 -0.00000000000E+00 -0.00000000000E+00 -0.45593999997E+02  0.45594000000E+02  0.51100000000E-03 0. -1.
    9900012    2    1    2    0    0  0.26095801898E+02  0.43325048422E+01  0.17803329274E+02  0.59301952767E+02  0.50000015938E+02 0.  0.
        -12    1    1    2    0    0 -0.26095801898E+02 -0.43325048422E+01 -0.17803329274E+02  0.31886047233E+02  0.00000000000E+00 0.  1.
         11    1    3    3    0    0  0.55343458792E+01  0.16402146658E+02 -0.62090919751E-01  0.17310784351E+02  0.51100000000E-03 0. -1.
        -11    1    3    3    0    0 -0.22516448154E+01  0.31747990054E+01  0.13696136607E+02  0.14238448346E+02  0.51100000000E-03 0.  1.
        -12    1    3    3    0    0  0.22813100835E+02 -0.15244440821E+02  0.41692835872E+01  0.27752720070E+02  0.00000000000E+00 0.  1.
</event>
<event>
 7    1  0.3750159E-013  0.5930195E+02  0.7816164E-02  0.1266605E+00
        -11   -1    0    0    0    0  0.00000000000E+00  0.00000000000E+00  0.45593999997E+02  0.45594000000E+02  0.51100000000E-03 0.  1.
         11   -1    0    0    0    0 -0.00000000000E+00 -0.00000000000E+00 -0.45593999997E+02  0.45594000000E+02  0.51100000000E-03 0. -1.
    9900012    2    1    2    0    0 -0.30668384368E+02 -0.66370477162E+01 -0.56674637797E+01  0.59301947440E+02  0.50000006224E+02 0.  0.
        -12    1    1    2    0    0  0.30668384368E+02  0.66370477162E+01  0.56674637797E+01  0.31886052560E+02  0.00000000000E+00 0.  1.
         11    1    3    3    0    0 -0.24678607580E+02 -0.17024916327E+02 -0.81167300439E+01  0.31060630304E+02  0.51100000000E-03 0. -1.
        -11    1    3    3    0    0  0.37023775460E+01 -0.18574944008E+01  0.10052095485E+02  0.10872097721E+02  0.51100000000E-03 0.  1.
         12    1    3    3    0    0 -0.96921543345E+01  0.12245363012E+02 -0.76028292208E+01  0.17369219415E+02  0.00000000000E+00 0. -1.
</event>
<event>
 7    1  0.3750159E-013  0.5930193E+02  0.7816164E-02  0.1266605E+00
        -11   -1    0    0    0    0  0.00000000000E+00  0.00000000000E+00  0.45593999997E+02  0.45594000000E+02  0.51100000000E-03 0.  1.
         11   -1    0    0    0    0 -0.00000000000E+00 -0.00000000000E+00 -0.45593999997E+02  0.45594000000E+02  0.51100000000E-03 0. -1.
    9900012    2    1    2    0    0  0.31383817017E+02 -0.36430594253E+00  0.56253525522E+01  0.59301932812E+02  0.49999979546E+02 0.  0.
        -12    1    1    2    0    0 -0.31383817017E+02  0.36430594253E+00 -0.56253525522E+01  0.31886067188E+02  0.00000000000E+00 0.  1.
         11    1    3    3    0    0  0.10461596480E+02  0.78302257554E+01 -0.24568726931E+01  0.13296377702E+02  0.51100000000E-03 0. -1.
        -11    1    3    3    0    0 -0.46889733168E+01  0.10660351381E+02  0.81288371833E+01  0.14202378553E+02  0.51100000000E-03 0.  1.
         12    1    3    3    0    0  0.25611193853E+02 -0.18854883079E+02 -0.46611938020E-01  0.31803176558E+02  0.00000000000E+00 0. -1.
</event>
<event>
 7    1  0.3750159E-013  0.5930198E+02  0.7816164E-02  0.1266605E+00
        -11   -1    0    0    0    0  0.00000000000E+00  0.00000000000E+00  0.45593999997E+02  0.45594000000E+02  0.51100000000E-03 0.  1.
         11   -1    0    0    0    0 -0.00000000000E+00 -0.00000000000E+00 -0.45593999997E+02  0.45594000000E+02  0.51100000000E-03 0. -1.
    9900012    2    1    2    0    0  0.14101184446E+02 -0.97922882129E+01 -0.26869797694E+02  0.59301978935E+02  0.50000063662E+02 0.  0.
        -12    1    1    2    0    0 -0.14101184446E+02  0.97922882129E+01  0.26869797694E+02  0.31886021065E+02  0.00000000000E+00 0.  1.
         11    1    3    3    0    0 -0.18714496766E+01 -0.78025201189E+01 -0.32527303945E+02  0.33502345385E+02  0.51100000000E-03 0. -1.
        -11    1    3    3    0    0 -0.41394014763E+01  0.18790562731E+01 -0.21913486647E-01  0.45459847692E+01  0.51100000000E-03 0.  1.
         12    1    3    3    0    0  0.20112035599E+02 -0.38688243671E+01  0.56794197374E+01  0.21253648781E+02  0.00000000000E+00 0. -1.
</event>
<event>
 7    1  0.3750159E-013  0.5930195E+02  0.7816164E-02  0.1266605E+00
        -11   -1    0    0    0    0  0.00000000000E+00  0.00000000000E+00  0.45593999997E+02  0.45594000000E+02  0.51100000000E-03 0. -1.
         11   -1    0    0    0    0 -0.00000000000E+00 -0.00000000000E+00 -0.45593999997E+02  0.45594000000E+02  0.51100000000E-03 0.  1.
    9900012    2    1    2    0    0 -0.22797103931E+02  0.87299306626E+01  0.20513420206E+02  0.59301952180E+02  0.50000014868E+02 0.  0.
        -12    1    1    2    0    0  0.22797103931E+02 -0.87299306626E+01 -0.20513420206E+02  0.31886047820E+02  0.00000000000E+00 0.  1.
         11    1    3    3    0    0 -0.65864438800E+01  0.73574775337E+01 -0.11531148639E+02  0.15181604258E+02  0.51100000000E-03 0. -1.
        -11    1    3    3    0    0 -0.45160316251E+01  0.14567566519E+01 -0.40124091496E+01  0.62141861113E+01  0.51100000000E-03 0.  1.
         12    1    3    3    0    0 -0.11694628426E+02 -0.84303522883E-01  0.36056977995E+02  0.37906161811E+02  0.00000000000E+00 0. -1.
</event>
<event>
 7    1  0.3750159E-013  0.5930196E+02  0.7816164E-02  0.1266605E+00
        -11   -1    0    0    0    0  0.00000000000E+00  0.00000000000E+00  0.45593999997E+02  0.45594000000E+02  0.51100000000E-03 0.  1.
         11   -1    0    0    0    0 -0.00000000000E+00 -0.00000000000E+00 -0.45593999997E+02  0.45594000000E+02  0.51100000000E-03 0. -1.
    9900012    2    1    2    0    0  0.26837072825E+02 -0.91079478012E+01 -0.14612888894E+02  0.59301957399E+02  0.50000024385E+02 0.  0.
        -12    1    1    2    0    0 -0.26837072825E+02  0.91079478012E+01  0.14612888894E+02  0.31886042601E+02  0.00000000000E+00 0.  1.
         11    1    3    3    0    0 -0.22931435786E+01 -0.13332121232E+02  0.11319572702E+02  0.17639067164E+02  0.51100000000E-03 0.  1.
        -11    1    3    3    0    0  0.77143061310E+01 -0.16012184889E+01 -0.14952669746E+02  0.16901383154E+02  0.51100000000E-03 0. -1.
        -12    1    3    3    0    0  0.21415910272E+02  0.58253919197E+01 -0.10979791850E+02  0.24761507080E+02  0.00000000000E+00 0.  1.
</event>
<event>
 7    1  0.3750159E-013  0.5930193E+02  0.7816164E-02  0.1266605E+00
        -11   -1    0    0    0    0  0.00000000000E+00  0.00000000000E+00  0.45593999997E+02  0.45594000000E+02  0.51100000000E-03 0.  1.
         11   -1    0    0    0    0 -0.00000000000E+00 -0.00000000000E+00 -0.45593999997E+02  0.45594000000E+02  0.51100000000E-03 0. -1.
    9900012    2    1    2    0    0  0.22071071900E+02 -0.22817670751E+02  0.29904629783E+01  0.59301934358E+02  0.49999982364E+02 0.  0.
        -12    1    1    2    0    0 -0.22071071900E+02  0.22817670751E+02 -0.29904629783E+01  0.31886065642E+02  0.00000000000E+00 0.  1.
         11    1    3    3    0    0  0.68355744990E+01 -0.11152358834E+02 -0.66102007370E+01  0.14655884154E+02  0.51100000000E-03 0. -1.
        -11    1    3    3    0    0  0.12671459887E+02 -0.19640981614E+02 -0.83630132301E+01  0.24824867472E+02  0.51100000000E-03 0.  1.
        -12    1    3    3    0    0  0.25640375137E+01  0.79756696969E+01  0.17963676945E+02  0.19821182732E+02  0.00000000000E+00 0.  1.
</event>
<event>
 7    1  0.3750159E-013  0.5930196E+02  0.7816164E-02  0.1266605E+00
        -11   -1    0    0    0    0  0.00000000000E+00  0.00000000000E+00  0.45593999997E+02  0.45594000000E+02  0.51100000000E-03 0.  1.
         11   -1    0    0    0    0 -0.00000000000E+00 -0.00000000000E+00 -0.45593999997E+02  0.45594000000E+02  0.51100000000E-03 0. -1.
    9900012    2    1    2    0    0  0.24958322060E+02 -0.10942854495E+02  0.16554623920E+02  0.59301961086E+02  0.50000031109E+02 0.  0.
        -12    1    1    2    0    0 -0.24958322060E+02  0.10942854495E+02 -0.16554623920E+02  0.31886038914E+02  0.00000000000E+00 0.  1.
         11    1    3    3    0    0  0.17096995326E+01 -0.14879721189E+02  0.34503447893E+01  0.15369907436E+02  0.51100000000E-03 0. -1.
        -11    1    3    3    0    0  0.17533855529E+02 -0.13724104594E+02  0.12101752374E+02  0.25342445569E+02  0.51100000000E-03 0.  1.
        -12    1    3    3    0    0  0.57147669982E+01  0.17660971289E+02  0.10025267562E+01  0.18589608081E+02  0.00000000000E+00 0.  1.
</event>
<event>
 7    1  0.3750159E-013  0.5930195E+02  0.7816164E-02  0.1266605E+00
        -11   -1    0    0    0    0  0.00000000000E+00  0.00000000000E+00  0.45593999997E+02  0.45594000000E+02  0.51100000000E-03 0. -1.
         11   -1    0    0    0    0 -0.00000000000E+00 -0.00000000000E+00 -0.45593999997E+02  0.45594000000E+02  0.51100000000E-03 0.  1.
    9900012    2    1    2    0    0  0.65442098029E+00  0.19014517761E+02  0.25587892252E+02  0.59301946898E+02  0.50000005235E+02 0.  0.
        -12    1    1    2    0    0 -0.65442098029E+00 -0.19014517761E+02 -0.25587892252E+02  0.31886053102E+02  0.00000000000E+00 0.  1.
         11    1    3    3    0    0 -0.10722353268E+02  0.23724245664E+02  0.27187603247E+02  0.37642721242E+02  0.51100000000E-03 0. -1.
        -11    1    3    3    0    0 -0.52340315840E+00  0.56303036678E+01 -0.16636919584E+01  0.58942464702E+01  0.51100000000E-03 0.  1.
        -12    1    3    3    0    0  0.11900177406E+02 -0.10340031571E+02  0.63980963776E-01  0.15764979186E+02  0.00000000000E+00 0.  1.
</event>
<event>
 7    1  0.3750159E-013  0.5930197E+02  0.7816164E-02  0.1266605E+00
        -11   -1    0    0    0    0  0.00000000000E+00  0.00000000000E+00  0.45593999997E+02  0.45594000000E+02  0.51100000000E-03 0.  1.
         11   -1    0    0    0    0 -0.00000000000E+00 -0.00000000000E+00 -0.45593999997E+02  0.45594000000E+02  0.51100000000E-03 0. -1.
    9900012    2    1    2    0    0  0.24849738552E+02 -0.18330162819E+02  0.79507551820E+01  0.59301970410E+02  0.50000048114E+02 0.  0.
        -12    1    1    2    0    0 -0.24849738552E+02  0.18330162819E+02 -0.79507551820E+01  0.31886029590E+02  0.00000000000E+00 0.  1.
         11    1    3    3    0    0 -0.35298635359E+00  0.63553197774E+00  0.11403845276E+02  0.11426993813E+02  0.51100000000E-03 0. -1.
        -11    1    3    3    0    0 -0.62051025981E+01 -0.13508660528E+01  0.78828864965E+01  0.10122649709E+02  0.51100000000E-03 0.  1.
         12    1    3    3    0    0  0.31407827503E+02 -0.17614828744E+02 -0.11335976591E+02  0.37752326888E+02  0.00000000000E+00 0. -1.
</event>
<event>
 7    1  0.3750159E-013  0.5930196E+02  0.7816164E-02  0.1266605E+00
        -11   -1    0    0    0    0  0.00000000000E+00  0.00000000000E+00  0.45593999997E+02  0.45594000000E+02  0.51100000000E-03 0.  1.
         11   -1    0    0    0    0 -0.00000000000E+00 -0.00000000000E+00 -0.45593999997E+02  0.45594000000E+02  0.51100000000E-03 0. -1.
    9900012    2    1    2    0    0 -0.31301210299E+02 -0.35225957576E+01 -0.49543041547E+01  0.59301959532E+02  0.50000028277E+02 0.  0.
        -12    1    1    2    0    0  0.31301210299E+02  0.35225957576E+01  0.49543041547E+01  0.31886040468E+02  0.00000000000E+00 0.  1.
         11    1    3    3    0    0 -0.34258825901E+02 -0.98683714173E+01 -0.20735912807E+01  0.35712066415E+02  0.51100000000E-03 0. -1.
        -11    1    3    3    0    0 -0.83691101195E+01  0.74158527209E+01 -0.45855672039E+01  0.12085706542E+02  0.51100000000E-03 0.  1.
        -12    1    3    3    0    0  0.11326725722E+02 -0.10700770612E+01  0.17048543300E+01  0.11504186576E+02  0.00000000000E+00 0.  1.
</event>
<event>
 7    1  0.3750159E-013  0.5930194E+02  0.7816164E-02  0.1266605E+00
        -11   -1    0    0    0    0  0.00000000000E+00  0.00000000000E+00  0.45593999997E+02  0.45594000000E+02  0.51100000000E-03 0. -1.
         11   -1    0    0    0    0 -0.00000000000E+00 -0.00000000000E+00 -0.45593999997E+02  0.45594000000E+02  0.51100000000E-03 0.  1.
    9900012    2    1    2    0    0  0.19841592058E+02 -0.19223460990E+01  0.24886476441E+02  0.59301938789E+02  0.49999990445E+02 0.  0.
        -12    1    1    2    0    0 -0.19841592058E+02  0.19223460990E+01 -0.24886476441E+02  0.31886061211E+02  0.00000000000E+00 0.  1.
         11    1    3    3    0    0 -0.76332276650E+00  0.21313412204E+01 -0.86055933511E-01  0.22655425241E+01  0.51100000000E-03 0. -1.
        -11    1    3    3    0    0  0.85045408963E+01 -0.18695412737E+02 -0.53786361915E+01  0.21231471942E+02  0.51100000000E-03 0.  1.
         12    1    3    3    0    0  0.12100373929E+02  0.14641725418E+02  0.30351168566E+02  0.35804924323E+02  0.00000000000E+00 0. -1.
</event>
<event>
 7    1  0.3750159E-013  0.5930198E+02  0.7816164E-02  0.1266605E+00
        -11   -1    0    0    0    0  0.00000000000E+00  0.00000000000E+00  0.45593999997E+02  0.45594000000E+02  0.51100000000E-03 0.  1.
         11   -1    0    0    0    0 -0.00000000000E+00 -0.00000000000E+00 -0.45593999997E+02  0.45594000000E+02  0.51100000000E-03 0. -1.
    9900012    2    1    2    0    0 -0.30682670725E+02 -0.81432362518E+01 -0.29966537665E+01  0.59301976208E+02  0.50000058690E+02 0.  0.
        -12    1    1    2    0    0  0.30682670725E+02  0.81432362518E+01  0.29966537665E+01  0.31886023792E+02  0.00000000000E+00 0.  1.
         11    1    3    3    0    0 -0.76540074938E+01  0.81202397128E+01  0.85491131676E+01  0.14057363192E+02  0.51100000000E-03 0. -1.
        -11    1    3    3    0    0 -0.10722656916E+02  0.70655755511E+01  0.53609840300E+01  0.13915382827E+02  0.51100000000E-03 0.  1.
         12    1    3    3    0    0 -0.12306006315E+02 -0.23329051516E+02 -0.16906750964E+02  0.31329230189E+02  0.00000000000E+00 0. -1.
</event>
<event>
 7    1  0.3750159E-013  0.5930191E+02  0.7816164E-02  0.1266605E+00
        -11   -1    0    0    0    0  0.00000000000E+00  0.00000000000E+00  0.45593999997E+02  0.45594000000E+02  0.51100000000E-03 0. -1.
         11   -1    0    0    0    0 -0.00000000000E+00 -0.00000000000E+00 -0.45593999997E+02  0.45594000000E+02  0.51100000000E-03 0.  1.
    9900012    2    1    2    0    0 -0.16451959820E+02  0.24344857866E+02  0.12384816395E+02  0.59301909559E+02  0.49999937138E+02 0.  0.
        -12    1    1    2    0    0  0.16451959820E+02 -0.24344857866E+02 -0.12384816395E+02  0.31886090441E+02  0.00000000000E+00 0.  1.
         11    1    3    3    0    0 -0.18395431778E+02  0.85341429504E+01 -0.25120878790E+01  0.20433650970E+02  0.51100000000E-03 0. -1.
        -11    1    3    3    0    0 -0.31708090656E+01  0.81783649501E+01 -0.94212670101E+01  0.12872449484E+02  0.51100000000E-03 0.  1.
         12    1    3    3    0    0  0.51142810238E+01  0.76323499657E+01  0.24318171284E+02  0.25995809105E+02  0.00000000000E+00 0. -1.
</event>
<event>
 7    1  0.3750159E-013  0.5930192E+02  0.7816164E-02  0.1266605E+00
        -11   -1    0    0    0    0  0.00000000000E+00  0.00000000000E+00  0.45593999997E+02  0.45594000000E+02  0.51100000000E-03 0. -1.
         11   -1    0    0    0    0 -0.00000000000E+00 -0.00000000000E+00 -0.45593999997E+02  0.45594000000E+02  0.51100000000E-03 0.  1.
    9900012    2    1    2    0    0  0.33985679700E+01 -0.21513757295E+02  0.23287975847E+02  0.59301924100E+02  0.49999963657E+02 0.  0.
        -12    1    1    2    0    0 -0.33985679700E+01  0.21513757295E+02 -0.23287975847E+02  0.31886075900E+02  0.00000000000E+00 0.  1.
         11    1    3    3    0    0 -0.86231416374E+01 -0.38166919984E+01 -0.65592861573E+01  0.11486946708E+02  0.51100000000E-03 0. -1.
        -11    1    3    3    0    0 -0.57553220959E+01 -0.10605098604E+02 -0.34075329105E+00  0.12070955302E+02  0.51100000000E-03 0.  1.
         12    1    3    3    0    0  0.17777031703E+02 -0.70919666931E+01  0.30188015296E+02  0.35744022091E+02  0.00000000000E+00 0. -1.
</event>
<event>
 7    1  0.3750159E-013  0.5930194E+02  0.7816164E-02  0.1266605E+00
        -11   -1    0    0    0    0  0.00000000000E+00  0.00000000000E+00  0.45593999997E+02  0.45594000000E+02  0.51100000000E-03 0. -1.
         11   -1    0    0    0    0 -0.00000000000E+00 -0.00000000000E+00 -0.45593999997E+02  0.45594000000E+02  0.51100000000E-03 0.  1.
    9900012    2    1    2    0    0 -0.31827724379E+01 -0.74463766434E+00  0.31718072373E+02  0.59301942848E+02  0.49999997849E+02 0.  0.
        -12    1    1    2    0    0  0.31827724379E+01  0.74463766434E+00 -0.31718072373E+02  0.31886057152E+02  0.00000000000E+00 0.  1.
         11    1    3    3    0    0  0.10678413195E+02 -0.75398713302E+01  0.23392816226E+02  0.26797425610E+02  0.51100000000E-03 0. -1.
        -11    1    3    3    0    0  0.70205859721E+01  0.18432526655E+01 -0.34375648768E+01  0.80313797273E+01  0.51100000000E-03 0.  1.
        -12    1    3    3    0    0 -0.20881771605E+02  0.49519810004E+01  0.11762821024E+02  0.24473137511E+02  0.00000000000E+00 0.  1.
</event>
<event>
 7    1  0.3750159E-013  0.5930194E+02  0.7816164E-02  0.1266605E+00
        -11   -1    0    0    0    0  0.00000000000E+00  0.00000000000E+00  0.45593999997E+02  0.45594000000E+02  0.51100000000E-03 0. -1.
         11   -1    0    0    0    0 -0.00000000000E+00 -0.00000000000E+00 -0.45593999997E+02  0.45594000000E+02  0.51100000000E-03 0.  1.
    9900012    2    1    2    0    0 -0.69653596655E+01  0.21484324436E+02  0.22508401341E+02  0.59301944072E+02  0.50000000081E+02 0.  0.
        -12    1    1    2    0    0  0.69653596655E+01 -0.21484324436E+02 -0.22508401341E+02  0.31886055928E+02  0.00000000000E+00 0.  1.
         11    1    3    3    0    0 -0.47812089705E+01  0.14817971665E+02  0.17136016353E+02  0.23153299985E+02  0.51100000000E-03 0. -1.
        -11    1    3    3    0    0  0.13906298702E+01  0.20959452580E+02  0.27738700075E+01  0.21187894161E+02  0.51100000000E-03 0.  1.
         12    1    3    3    0    0 -0.35747805651E+01 -0.14293099809E+02  0.25985149800E+01  0.14960749926E+02  0.00000000000E+00 0. -1.
</event>
<event>
 7    1  0.3750159E-013  0.5930194E+02  0.7816164E-02  0.1266605E+00
        -11   -1    0    0    0    0  0.00000000000E+00  0.00000000000E+00  0.45593999997E+02  0.45594000000E+02  0.51100000000E-03 0. -1.
         11   -1    0    0    0    0 -0.00000000000E+00 -0.00000000000E+00 -0.45593999997E+02  0.45594000000E+02  0.51100000000E-03 0.  1.
    9900012    2    1    2    0    0 -0.52868639737E+01 -0.30161681797E+01  0.31299722891E+02  0.59301939500E+02  0.49999991742E+02 0.  0.
        -12    1    1    2    0    0  0.52868639737E+01  0.30161681797E+01 -0.31299722891E+02  0.31886060500E+02  0.00000000000E+00 0.  1.
         11    1    3    3    0    0  0.13224554174E+02 -0.77318275955E+01 -0.16836947197E+01  0.15411191363E+02  0.51100000000E-03 0. -1.
        -11    1    3    3    0    0 -0.35655622452E+01  0.54565086062E+01 -0.11521724315E+01  0.66192312142E+01  0.51100000000E-03 0.  1.
        -12    1    3    3    0    0 -0.14945855902E+02 -0.74084919041E+00  0.34135590042E+02  0.37271516923E+02  0.00000000000E+00 0.  1.
</event>
<event>
 7    1  0.3750159E-013  0.5930194E+02  0.7816164E-02  0.1266605E+00
        -11   -1    0    0    0    0  0.00000000000E+00  0.00000000000E+00  0.45593999997E+02  0.45594000000E+02  0.51100000000E-03 0. -1.
         11   -1    0    0    0    0 -0.00000000000E+00 -0.00000000000E+00 -0.45593999997E+02  0.45594000000E+02  0.51100000000E-03 0.  1.
    9900012    2    1    2    0    0 -0.82408733134E+01  0.15399518973E+02  0.26677028063E+02  0.59301937154E+02  0.49999987463E+02 0.  0.
        -12    1    1    2    0    0  0.82408733134E+01 -0.15399518973E+02 -0.26677028063E+02  0.31886062846E+02  0.00000000000E+00 0.  1.
         11    1    3    3    0    0  0.21272817777E+01  0.67916808142E+01  0.14705423309E+02  0.16337127379E+02  0.51100000000E-03 0. -1.
        -11    1    3    3    0    0  0.75518399451E+01  0.12416023799E+01  0.20435691521E+02  0.21821763248E+02  0.51100000000E-03 0.  1.
        -12    1    3    3    0    0 -0.17919995036E+02  0.73662357787E+01 -0.84640867669E+01  0.21143046527E+02  0.00000000000E+00 0.  1.
</event>
<event>
 7    1  0.3750159E-013  0.5930196E+02  0.7816164E-02  0.1266605E+00
        -11   -1    0    0    0    0  0.00000000000E+00  0.00000000000E+00  0.45593999997E+02  0.45594000000E+02  0.51100000000E-03 0. -1.
         11   -1    0    0    0    0 -0.00000000000E+00 -0.00000000000E+00 -0.45593999997E+02  0.45594000000E+02  0.51100000000E-03 0.  1.
    9900012    2    1    2    0    0  0.26877791825E+02  0.15323206349E+02  0.77138237677E+01  0.59301961937E+02  0.50000032662E+02 0.  0.
        -12    1    1    2    0    0 -0.26877791825E+02 -0.15323206349E+02 -0.77138237677E+01  0.31886038063E+02  0.00000000000E+00 0.  1.
         11    1    3    3    0    0  0.37280450021E+02  0.51703581271E+01  0.20638943698E+00  0.37637842044E+02  0.51100000000E-03 0. -1.
        -11    1    3    3    0    0  0.31597963935E+01  0.24187069547E+01 -0.67669876525E+00  0.40363818032E+01  0.51100000000E-03 0.  1.
         12    1    3    3    0    0 -0.13562454589E+02  0.77341412675E+01  0.81841330960E+01  0.17627738089E+02  0.00000000000E+00 0. -1.
</event>
<event>
 7    1  0.3750159E-013  0.5930194E+02  0.7816164E-02  0.1266605E+00
        -11   -1    0    0    0    0  0.00000000000E+00  0.00000000000E+00  0.45593999997E+02  0.45594000000E+02  0.51100000000E-03 0. -1.
         11   -1    0    0    0    0 -0.00000000000E+00 -0.00000000000E+00 -0.45593999997E+02  0.45594000000E+02  0.51100000000E-03 0.  1.
    9900012    2    1    2    0    0 -0.44928485815E+01 -0.18868685740E+02  0.25308261209E+02  0.59301936032E+02  0.49999985418E+02 0.  0.
        -12    1    1    2    0    0  0.44928485815E+01  0.18868685740E+02 -0.25308261209E+02  0.31886063968E+02  0.00000000000E+00 0.  1.
         11    1    3    3    0    0  0.33940923893E+01  0.88903936349E+00  0.95269952999E+01  0.10152531401E+02  0.51100000000E-03 0. -1.
        -11    1    3    3    0    0 -0.19565582477E+02 -0.10320799001E+02  0.23494250330E+02  0.32269346267E+02  0.51100000000E-03 0.  1.
         12    1    3    3    0    0  0.11678641506E+02 -0.94369261024E+01 -0.77129844203E+01  0.16880058364E+02  0.00000000000E+00 0. -1.
</event>
<event>
 7    1  0.3750159E-013  0.5930194E+02  0.7816164E-02  0.1266605E+00
        -11   -1    0    0    0    0  0.00000000000E+00  0.00000000000E+00  0.45593999997E+02  0.45594000000E+02  0.51100000000E-03 0.  1.
         11   -1    0    0    0    0 -0.00000000000E+00 -0.00000000000E+00 -0.45593999997E+02  0.45594000000E+02  0.51100000000E-03 0. -1.
    9900012    2    1    2    0    0 -0.83357532879E+01  0.20969311681E+02 -0.22528287816E+02  0.59301944001E+02  0.49999999951E+02 0.  0.
        -12    1    1    2    0    0  0.83357532879E+01 -0.20969311681E+02  0.22528287816E+02  0.31886055999E+02  0.00000000000E+00 0.  1.
         11    1    3    3    0    0  0.35840514132E+01  0.13489202364E+02 -0.33740733290E+02  0.36513574026E+02  0.51100000000E-03 0. -1.
        -11    1    3    3    0    0 -0.30368111987E+01 -0.28277156891E+01 -0.12529383549E+01  0.43345187804E+01  0.51100000000E-03 0.  1.
         12    1    3    3    0    0 -0.88829935024E+01  0.10307825005E+02  0.12465383829E+02  0.18453851194E+02  0.00000000000E+00 0. -1.
</event>
<event>
 7    1  0.3750159E-013  0.5930195E+02  0.7816164E-02  0.1266605E+00
        -11   -1    0    0    0    0  0.00000000000E+00  0.00000000000E+00  0.45593999997E+02  0.45594000000E+02  0.51100000000E-03 0.  1.
         11   -1    0    0    0    0 -0.00000000000E+00 -0.00000000000E+00 -0.45593999997E+02  0.45594000000E+02  0.51100000000E-03 0. -1.
    9900012    2    1    2    0    0 -0.23139727204E+02 -0.17454830131E+02 -0.13289183981E+02  0.59301945354E+02  0.50000002419E+02 0.  0.
        -12    1    1    2    0    0  0.23139727204E+02  0.17454830131E+02  0.13289183981E+02  0.31886054646E+02  0.00000000000E+00 0.  1.
         11    1    3    3    0    0  0.14900701302E+00  0.71454539255E+01 -0.75966848541E+01  0.10430212650E+02  0.51100000000E-03 0. -1.
        -11    1    3    3    0    0 -0.50212265921E+01  0.87083854282E+01 -0.40791626184E+01  0.10848422060E+02  0.51100000000E-03 0.  1.
         12    1    3    3    0    0 -0.18267507625E+02 -0.33308669485E+02 -0.16133365084E+01  0.38023310645E+02  0.00000000000E+00 0. -1.
</event>
<event>
 7    1  0.3750159E-013  0.5930196E+02  0.7816164E-02  0.1266605E+00
        -11   -1    0    0    0    0  0.00000000000E+00  0.00000000000E+00  0.45593999997E+02  0.45594000000E+02  0.51100000000E-03 0.  1.
         11   -1    0    0    0    0 -0.00000000000E+00 -0.00000000000E+00 -0.45593999997E+02  0.45594000000E+02  0.51100000000E-03 0. -1.
    9900012    2    1    2    0    0  0.71903179918E+01 -0.24379973912E+02 -0.19251902878E+02  0.59301959712E+02  0.50000028605E+02 0.  0.
        -12    1    1    2    0    0 -0.71903179918E+01  0.24379973912E+02  0.19251902878E+02  0.31886040288E+02  0.00000000000E+00 0.  1.
         11    1    3    3    0    0  0.38966843792E-01  0.91463493295E+01  0.18097502769E+01  0.93237557238E+01  0.51100000000E-03 0. -1.
        -11    1    3    3    0    0 -0.99831228498E+01 -0.84815690700E+01 -0.13274643323E+02  0.18649823359E+02  0.51100000000E-03 0.  1.
        -12    1    3    3    0    0  0.17134473998E+02 -0.25044754172E+02 -0.77870098322E+01  0.31328380629E+02  0.00000000000E+00 0.  1.
</event>
<event>
 7    1  0.3750159E-013  0.5930196E+02  0.7816164E-02  0.1266605E+00
        -11   -1    0    0    0    0  0.00000000000E+00  0.00000000000E+00  0.45593999997E+02  0.45594000000E+02  0.51100000000E-03 0.  1.
         11   -1    0    0    0    0 -0.00000000000E+00 -0.00000000000E+00 -0.45593999997E+02  0.45594000000E+02  0.51100000000E-03 0. -1.
    9900012    2    1    2    0    0 -0.10818741709E+02 -0.29489575952E+02 -0.54808365633E+01  0.59301955538E+02  0.50000020991E+02 0.  0.
        -12    1    1    2    0    0  0.10818741709E+02  0.29489575952E+02  0.54808365633E+01  0.31886044462E+02  0.00000000000E+00 0.  1.
         11    1    3    3    0    0 -0.71675879537E-01 -0.71015196269E+01 -0.10945024964E+02  0.13047233046E+02  0.51100000000E-03 0. -1.
        -11    1    3    3    0    0 -0.52053978571E+01 -0.29907849034E+02 -0.65303240239E+01  0.31051903852E+02  0.51100000000E-03 0.  1.
        -12    1    3    3    0    0 -0.55416679724E+01  0.75197927089E+01  0.11994512424E+02  0.15202818640E+02  0.00000000000E+00 0.  1.
</event>
<event>
 7    1  0.3750159E-013  0.5930195E+02  0.7816164E-02  0.1266605E+00
        -11   -1    0    0    0    0  0.00000000000E+00  0.00000000000E+00  0.45593999997E+02  0.45594000000E+02  0.51100000000E-03 0. -1.
         11   -1    0    0    0    0 -0.00000000000E+00 -0.00000000000E+00 -0.45593999997E+02  0.45594000000E+02  0.51100000000E-03 0.  1.
    9900012    2    1    2    0    0 -0.26310123476E+02 -0.15498644237E+02  0.91809538377E+01  0.59301945307E+02  0.50000002333E+02 0.  0.
        -12    1    1    2    0    0  0.26310123476E+02  0.15498644237E+02 -0.91809538377E+01  0.31886054693E+02  0.00000000000E+00 0.  1.
         11    1    3    3    0    0 -0.18317990457E+02  0.79315265819E+01  0.17661012399E+02  0.26652753095E+02  0.51100000000E-03 0. -1.
        -11    1    3    3    0    0 -0.29787484881E+01  0.46914954031E+00  0.41712408439E+01  0.51470665710E+01  0.51100000000E-03 0.  1.
        -12    1    3    3    0    0 -0.50133845308E+01 -0.23899320359E+02 -0.12651299406E+02  0.27502125641E+02  0.00000000000E+00 0.  1.
</event>
<event>
 7    1  0.3750159E-013  0.5930196E+02  0.7816164E-02  0.1266605E+00
        -11   -1    0    0    0    0  0.00000000000E+00  0.00000000000E+00  0.45593999997E+02  0.45594000000E+02  0.51100000000E-03 0.  1.
         11   -1    0    0    0    0 -0.00000000000E+00 -0.00000000000E+00 -0.45593999997E+02  0.45594000000E+02  0.51100000000E-03 0. -1.
    9900012    2    1    2    0    0  0.29174890574E+01  0.29273049030E+02 -0.12300259485E+02  0.59301960338E+02  0.50000029746E+02 0.  0.
        -12    1    1    2    0    0 -0.29174890574E+01 -0.29273049030E+02  0.12300259485E+02  0.31886039662E+02  0.00000000000E+00 0.  1.
         11    1    3    3    0    0 -0.84346384670E+01  0.17145117482E+00 -0.13402088600E+02  0.15836303252E+02  0.51100000000E-03 0. -1.
        -11    1    3    3    0    0 -0.37799291026E+01 -0.20781964782E+01 -0.66737148265E+01  0.79463975782E+01  0.51100000000E-03 0.  1.
        -12    1    3    3    0    0  0.15132056627E+02  0.31179794333E+02  0.77755439412E+01  0.35519259508E+02  0.00000000000E+00 0.  1.
</event>
<event>
 7    1  0.3750159E-013  0.5930215E+02  0.7816164E-02  0.1266604E+00
        -11   -1    0    0    0    0  0.00000000000E+00  0.00000000000E+00  0.45593999997E+02  0.45594000000E+02  0.51100000000E-03 0.  1.
         11   -1    0    0    0    0 -0.00000000000E+00 -0.00000000000E+00 -0.45593999997E+02  0.45594000000E+02  0.51100000000E-03 0. -1.
    9900012    2    1    2    0    0 -0.61428318782E+01 -0.11443275453E+02 -0.29120864000E+02  0.59302146449E+02  0.50000369167E+02 0.  0.
        -12    1    1    2    0    0  0.61428318782E+01  0.11443275453E+02  0.29120864000E+02  0.31885853551E+02  0.00000000000E+00 0.  1.
         11    1    3    3    0    0  0.10674076118E+02 -0.16641206226E+02 -0.10543096528E+02  0.22405859285E+02  0.51100000000E-03 0. -1.
        -11    1    3    3    0    0  0.63265086060E+01  0.39190381800E+01 -0.42306449073E+00  0.74540294622E+01  0.51100000000E-03 0.  1.
        -12    1    3    3    0    0 -0.23143416602E+02  0.12788925930E+01 -0.18154702981E+02  0.29442257703E+02  0.00000000000E+00 0.  1.
</event>
<event>
 7    1  0.3750159E-013  0.5930194E+02  0.7816164E-02  0.1266605E+00
        -11   -1    0    0    0    0  0.00000000000E+00  0.00000000000E+00  0.45593999997E+02  0.45594000000E+02  0.51100000000E-03 0.  1.
         11   -1    0    0    0    0 -0.00000000000E+00 -0.00000000000E+00 -0.45593999997E+02  0.45594000000E+02  0.51100000000E-03 0. -1.
    9900012    2    1    2    0    0  0.72632157063E+01  0.15272362979E+02 -0.27031858453E+02  0.59301941216E+02  0.49999994872E+02 0.  0.
        -12    1    1    2    0    0 -0.72632157063E+01 -0.15272362979E+02  0.27031858453E+02  0.31886058784E+02  0.00000000000E+00 0.  1.
         11    1    3    3    0    0  0.16615349981E+01 -0.12021614742E+00  0.22296580598E+01  0.27832581261E+01  0.51100000000E-03 0. -1.
        -11    1    3    3    0    0  0.18773980405E+02 -0.40569721172E+01 -0.27538964122E+00  0.19209299902E+02  0.51100000000E-03 0.  1.
         12    1    3    3    0    0 -0.13172299697E+02  0.19449551243E+02 -0.28986126871E+02  0.37309383188E+02  0.00000000000E+00 0. -1.
</event>
<event>
 7    1  0.3750159E-013  0.5930194E+02  0.7816164E-02  0.1266605E+00
        -11   -1    0    0    0    0  0.00000000000E+00  0.00000000000E+00  0.45593999997E+02  0.45594000000E+02  0.51100000000E-03 0. -1.
         11   -1    0    0    0    0 -0.00000000000E+00 -0.00000000000E+00 -0.45593999997E+02  0.45594000000E+02  0.51100000000E-03 0.  1.
    9900012    2    1    2    0    0 -0.27694755230E+02  0.15329697508E+02  0.38368583908E+01  0.59301943874E+02  0.49999999720E+02 0.  0.
        -12    1    1    2    0    0  0.27694755230E+02 -0.15329697508E+02 -0.38368583908E+01  0.31886056126E+02  0.00000000000E+00 0.  1.
         11    1    3    3    0    0  0.33350705561E+01  0.37045321069E+01  0.16822310905E+02  0.17545267116E+02  0.51100000000E-03 0. -1.
        -11    1    3    3    0    0 -0.12566604459E+01  0.96585186194E+01 -0.18846893440E+01  0.99205963320E+01  0.51100000000E-03 0.  1.
         12    1    3    3    0    0 -0.29773165340E+02  0.19666467821E+01 -0.11100763170E+02  0.31836080426E+02  0.00000000000E+00 0. -1.
</event>
<event>
 7    1  0.3750159E-013  0.5930195E+02  0.7816164E-02  0.1266605E+00
        -11   -1    0    0    0    0  0.00000000000E+00  0.00000000000E+00  0.45593999997E+02  0.45594000000E+02  0.51100000000E-03 0.  1.
         11   -1    0    0    0    0 -0.00000000000E+00 -0.00000000000E+00 -0.45593999997E+02  0.45594000000E+02  0.51100000000E-03 0. -1.
    9900012    2    1    2    0    0  0.22291482864E+02 -0.49778353953E+01 -0.22249292740E+02  0.59301951626E+02  0.50000013857E+02 0.  0.
        -12    1    1    2    0    0 -0.22291482864E+02  0.49778353953E+01  0.22249292740E+02  0.31886048374E+02  0.00000000000E+00 0.  1.
         11    1    3    3    0    0  0.11033925927E+02 -0.60019861291E+01 -0.36069637013E+02  0.38194110454E+02  0.51100000000E-03 0. -1.
        -11    1    3    3    0    0 -0.15312360692E+01  0.24517638313E+01  0.13565992327E+01  0.31931475887E+01  0.51100000000E-03 0.  1.
        -12    1    3    3    0    0  0.12788793007E+02 -0.14276130974E+01  0.12463745041E+02  0.17914693583E+02  0.00000000000E+00 0.  1.
</event>
<event>
 7    1  0.3750159E-013  0.5930198E+02  0.7816164E-02  0.1266605E+00
        -11   -1    0    0    0    0  0.00000000000E+00  0.00000000000E+00  0.45593999997E+02  0.45594000000E+02  0.51100000000E-03 0.  1.
         11   -1    0    0    0    0 -0.00000000000E+00 -0.00000000000E+00 -0.45593999997E+02  0.45594000000E+02  0.51100000000E-03 0. -1.
    9900012    2    1    2    0    0  0.26775528697E+02 -0.59304596152E+01 -0.16267116836E+02  0.59301978322E+02  0.50000062545E+02 0.  0.
        -12    1    1    2    0    0 -0.26775528697E+02  0.59304596152E+01  0.16267116836E+02  0.31886021678E+02  0.00000000000E+00 0.  1.
         11    1    3    3    0    0 -0.24053545344E+01 -0.57011459369E+01 -0.10519986330E+02  0.12204872308E+02  0.51100000000E-03 0. -1.
        -11    1    3    3    0    0 -0.67137098893E+01  0.72249989745E+01  0.64377113246E+00  0.98837721641E+01  0.51100000000E-03 0.  1.
         12    1    3    3    0    0  0.35894593121E+02 -0.74543126528E+01 -0.63909016393E+01  0.37213333850E+02  0.00000000000E+00 0. -1.
</event>
<event>
 7    1  0.3750159E-013  0.5930199E+02  0.7816164E-02  0.1266605E+00
        -11   -1    0    0    0    0  0.00000000000E+00  0.00000000000E+00  0.45593999997E+02  0.45594000000E+02  0.51100000000E-03 0. -1.
         11   -1    0    0    0    0 -0.00000000000E+00 -0.00000000000E+00 -0.45593999997E+02  0.45594000000E+02  0.51100000000E-03 0.  1.
    9900012    2    1    2    0    0 -0.77162639045E+01  0.30122778175E+02 -0.70565590496E+01  0.59301991795E+02  0.50000087116E+02 0.  0.
        -12    1    1    2    0    0  0.77162639045E+01 -0.30122778175E+02  0.70565590496E+01  0.31886008205E+02  0.00000000000E+00 0.  1.
         11    1    3    3    0    0 -0.81720706731E+01  0.63153094270E+01  0.93001214733E+01  0.13898134117E+02  0.51100000000E-03 0. -1.
        -11    1    3    3    0    0  0.95240704121E+00  0.15528989484E+02  0.95138642078E+01  0.18236507505E+02  0.51100000000E-03 0.  1.
        -12    1    3    3    0    0 -0.49660027258E+00  0.82784792643E+01 -0.25870544731E+02  0.27167350173E+02  0.00000000000E+00 0.  1.
</event>
<event>
 7    1  0.3750159E-013  0.5930193E+02  0.7816164E-02  0.1266605E+00
        -11   -1    0    0    0    0  0.00000000000E+00  0.00000000000E+00  0.45593999997E+02  0.45594000000E+02  0.51100000000E-03 0.  1.
         11   -1    0    0    0    0 -0.00000000000E+00 -0.00000000000E+00 -0.45593999997E+02  0.45594000000E+02  0.51100000000E-03 0. -1.
    9900012    2    1    2    0    0 -0.27088489281E+02  0.70898755833E+01 -0.15253489187E+02  0.59301929065E+02  0.49999972711E+02 0.  0.
        -12    1    1    2    0    0  0.27088489281E+02 -0.70898755833E+01  0.15253489187E+02  0.31886070935E+02  0.00000000000E+00 0.  1.
         11    1    3    3    0    0 -0.89017475633E+01  0.14239302944E+02 -0.97537961096E+01  0.19419974171E+02  0.51100000000E-03 0. -1.
        -11    1    3    3    0    0 -0.12264958452E+02 -0.79959959531E+01 -0.19658306798E+02  0.24511511245E+02  0.51100000000E-03 0.  1.
        -12    1    3    3    0    0 -0.59217832660E+01  0.84656859253E+00  0.14158613721E+02  0.15370443648E+02  0.00000000000E+00 0.  1.
</event>
<event>
 7    1  0.3750159E-013  0.5930196E+02  0.7816164E-02  0.1266605E+00
        -11   -1    0    0    0    0  0.00000000000E+00  0.00000000000E+00  0.45593999997E+02  0.45594000000E+02  0.51100000000E-03 0. -1.
         11   -1    0    0    0    0 -0.00000000000E+00 -0.00000000000E+00 -0.45593999997E+02  0.45594000000E+02  0.51100000000E-03 0.  1.
    9900012    2    1    2    0    0 -0.20486515539E+01 -0.20807813198E+02  0.24073995787E+02  0.59301963300E+02  0.50000035149E+02 0.  0.
        -12    1    1    2    0    0  0.20486515539E+01  0.20807813198E+02 -0.24073995787E+02  0.31886036700E+02  0.00000000000E+00 0.  1.
         11    1    3    3    0    0 -0.12209038764E+02  0.81913720016E+00  0.10642451712E+02  0.16217071005E+02  0.51100000000E-03 0. -1.
        -11    1    3    3    0    0  0.63320377533E+01  0.66984296783E+01  0.11069158475E+02  0.14404510816E+02  0.51100000000E-03 0.  1.
         12    1    3    3    0    0  0.38283494565E+01 -0.28325380077E+02  0.23623856003E+01  0.28680381479E+02  0.00000000000E+00 0. -1.
</event>
<event>
 7    1  0.3750159E-013  0.5930179E+02  0.7816164E-02  0.1266605E+00
        -11   -1    0    0    0    0  0.00000000000E+00  0.00000000000E+00  0.45593999997E+02  0.45594000000E+02  0.51100000000E-03 0.  1.
         11   -1    0    0    0    0 -0.00000000000E+00 -0.00000000000E+00 -0.45593999997E+02  0.45594000000E+02  0.51100000000E-03 0. -1.
    9900012    2    1    2    0    0  0.19375810767E+02 -0.74545751381E+01 -0.24202011802E+02  0.59301794383E+02  0.49999727084E+02 0.  0.
        -12    1    1    2    0    0 -0.19375810767E+02  0.74545751381E+01  0.24202011802E+02  0.31886205617E+02  0.00000000000E+00 0.  1.
         11    1    3    3    0    0  0.24553708848E+02 -0.17745898291E+02 -0.17031084168E+02  0.34754270997E+02  0.51100000000E-03 0. -1.
        -11    1    3    3    0    0  0.47010904598E+01  0.92211978290E+01  0.25358133223E+01  0.10656504604E+02  0.51100000000E-03 0.  1.
         12    1    3    3    0    0 -0.98789885408E+01  0.10701253239E+01 -0.97067409562E+01  0.13891018782E+02  0.00000000000E+00 0. -1.
</event>
<event>
 7    1  0.3750159E-013  0.5930192E+02  0.7816164E-02  0.1266605E+00
        -11   -1    0    0    0    0  0.00000000000E+00  0.00000000000E+00  0.45593999997E+02  0.45594000000E+02  0.51100000000E-03 0.  1.
         11   -1    0    0    0    0 -0.00000000000E+00 -0.00000000000E+00 -0.45593999997E+02  0.45594000000E+02  0.51100000000E-03 0. -1.
    9900012    2    1    2    0    0 -0.26488478011E+02 -0.11887213688E+02 -0.13182435593E+02  0.59301922713E+02  0.49999961127E+02 0.  0.
        -12    1    1    2    0    0  0.26488478011E+02  0.11887213688E+02  0.13182435593E+02  0.31886077287E+02  0.00000000000E+00 0.  1.
         11    1    3    3    0    0 -0.12837074454E+02  0.64245789961E+01 -0.14831193796E+02  0.20640494313E+02  0.51100000000E-03 0. -1.
        -11    1    3    3    0    0 -0.25071556290E+01 -0.10826127040E+02  0.15695380286E+02  0.19231115897E+02  0.51100000000E-03 0.  1.
         12    1    3    3    0    0 -0.11144247928E+02 -0.74856656445E+01 -0.14046622084E+02  0.19430312503E+02  0.00000000000E+00 0. -1.
</event>
<event>
 7    1  0.3750159E-013  0.5930195E+02  0.7816164E-02  0.1266605E+00
        -11   -1    0    0    0    0  0.00000000000E+00  0.00000000000E+00  0.45593999997E+02  0.45594000000E+02  0.51100000000E-03 0.  1.
         11   -1    0    0    0    0 -0.00000000000E+00 -0.00000000000E+00 -0.45593999997E+02  0.45594000000E+02  0.51100000000E-03 0. -1.
    9900012    2    1    2    0    0  0.15685178417E+01  0.45389833986E+01 -0.31522331748E+02  0.59301952623E+02  0.50000015676E+02 0.  0.
        -12    1    1    2    0    0 -0.15685178417E+01 -0.45389833986E+01  0.31522331748E+02  0.31886047377E+02  0.00000000000E+00 0.  1.
         11    1    3    3    0    0  0.34146691732E+01 -0.71320485943E+01 -0.39019623819E+01  0.88176750567E+01  0.51100000000E-03 0.  1.
        -11    1    3    3    0    0 -0.34919351059E+01 -0.14738013127E+02 -0.59135376231E+01  0.16259537791E+02  0.51100000000E-03 0. -1.
         12    1    3    3    0    0  0.16457837744E+01  0.26409045120E+02 -0.21706831743E+02  0.34224739775E+02  0.00000000000E+00 0. -1.
</event>
<event>
 7    1  0.3750159E-013  0.5930194E+02  0.7816164E-02  0.1266605E+00
        -11   -1    0    0    0    0  0.00000000000E+00  0.00000000000E+00  0.45593999997E+02  0.45594000000E+02  0.51100000000E-03 0. -1.
         11   -1    0    0    0    0 -0.00000000000E+00 -0.00000000000E+00 -0.45593999997E+02  0.45594000000E+02  0.51100000000E-03 0.  1.
    9900012    2    1    2    0    0 -0.23417513456E+02  0.35659471899E+01  0.21345368181E+02  0.59301942567E+02  0.49999997336E+02 0.  0.
        -12    1    1    2    0    0  0.23417513456E+02 -0.35659471899E+01 -0.21345368181E+02  0.31886057433E+02  0.00000000000E+00 0.  1.
         11    1    3    3    0    0 -0.36402990176E+01  0.14910883165E+02  0.35509301525E+01  0.15754215909E+02  0.51100000000E-03 0. -1.
        -11    1    3    3    0    0 -0.24783241037E+02  0.25411089836E+01  0.12434053190E+02  0.27843705755E+02  0.51100000000E-03 0.  1.
        -12    1    3    3    0    0  0.50060265984E+01 -0.13886044959E+02  0.53603848391E+01  0.15704020903E+02  0.00000000000E+00 0.  1.
</event>
<event>
 7    1  0.3750159E-013  0.5930196E+02  0.7816164E-02  0.1266605E+00
        -11   -1    0    0    0    0  0.00000000000E+00  0.00000000000E+00  0.45593999997E+02  0.45594000000E+02  0.51100000000E-03 0.  1.
         11   -1    0    0    0    0 -0.00000000000E+00 -0.00000000000E+00 -0.45593999997E+02  0.45594000000E+02  0.51100000000E-03 0. -1.
    9900012    2    1    2    0    0  0.27727716086E+02  0.12848707618E+02 -0.90996840978E+01  0.59301956384E+02  0.50000022536E+02 0.  0.
        -12    1    1    2    0    0 -0.27727716086E+02 -0.12848707618E+02  0.90996840978E+01  0.31886043616E+02  0.00000000000E+00 0.  1.
         11    1    3    3    0    0  0.32192221003E+01 -0.47893229759E+00  0.76387671605E+01  0.83032241371E+01  0.51100000000E-03 0. -1.
        -11    1    3    3    0    0 -0.54006253227E+01 -0.12052985185E+01  0.78769298570E+01  0.96262932964E+01  0.51100000000E-03 0.  1.
         12    1    3    3    0    0  0.29909119308E+02  0.14532938434E+02 -0.24615381115E+02  0.41372438951E+02  0.00000000000E+00 0. -1.
</event>
<event>
 7    1  0.3750159E-013  0.5930195E+02  0.7816164E-02  0.1266605E+00
        -11   -1    0    0    0    0  0.00000000000E+00  0.00000000000E+00  0.45593999997E+02  0.45594000000E+02  0.51100000000E-03 0.  1.
         11   -1    0    0    0    0 -0.00000000000E+00 -0.00000000000E+00 -0.45593999997E+02  0.45594000000E+02  0.51100000000E-03 0. -1.
    9900012    2    1    2    0    0  0.27073873466E+02 -0.12201545946E+02 -0.11612401430E+02  0.59301949525E+02  0.50000010026E+02 0.  0.
        -12    1    1    2    0    0 -0.27073873466E+02  0.12201545946E+02  0.11612401430E+02  0.31886050475E+02  0.00000000000E+00 0.  1.
         11    1    3    3    0    0  0.11941947573E+02  0.15233415162E+02 -0.14603552793E+02  0.24247284462E+02  0.51100000000E-03 0. -1.
        -11    1    3    3    0    0  0.81389102496E+01 -0.11668524109E+02  0.89487563898E+01  0.16807038886E+02  0.51100000000E-03 0.  1.
        -12    1    3    3    0    0  0.69930156426E+01 -0.15766437000E+02 -0.59576050271E+01  0.18247626177E+02  0.00000000000E+00 0.  1.
</event>
<event>
 7    1  0.3750159E-013  0.5930194E+02  0.7816164E-02  0.1266605E+00
        -11   -1    0    0    0    0  0.00000000000E+00  0.00000000000E+00  0.45593999997E+02  0.45594000000E+02  0.51100000000E-03 0. -1.
         11   -1    0    0    0    0 -0.00000000000E+00 -0.00000000000E+00 -0.45593999997E+02  0.45594000000E+02  0.51100000000E-03 0.  1.
    9900012    2    1    2    0    0 -0.10356794890E+02  0.13139393301E+02  0.27144313675E+02  0.59301943147E+02  0.49999998395E+02 0.  0.
        -12    1    1    2    0    0  0.10356794890E+02 -0.13139393301E+02 -0.27144313675E+02  0.31886056853E+02  0.00000000000E+00 0.  1.
         11    1    3    3    0    0 -0.92893044975E+01 -0.27057640887E+01  0.26827886785E+01  0.10040403015E+02  0.51100000000E-03 0. -1.
        -11    1    3    3    0    0 -0.16877515310E+02  0.17548760697E+02  0.63543320580E+01  0.25163208484E+02  0.51100000000E-03 0.  1.
        -12    1    3    3    0    0  0.15810024918E+02 -0.17036033067E+01  0.18107192938E+02  0.24098331648E+02  0.00000000000E+00 0.  1.
</event>
<event>
 7    1  0.3750159E-013  0.5930192E+02  0.7816164E-02  0.1266605E+00
        -11   -1    0    0    0    0  0.00000000000E+00  0.00000000000E+00  0.45593999997E+02  0.45594000000E+02  0.51100000000E-03 0.  1.
         11   -1    0    0    0    0 -0.00000000000E+00 -0.00000000000E+00 -0.45593999997E+02  0.45594000000E+02  0.51100000000E-03 0. -1.
    9900012    2    1    2    0    0 -0.13755316149E+00  0.31848958947E+02 -0.15319262798E+01  0.59301923023E+02  0.49999961692E+02 0.  0.
        -12    1    1    2    0    0  0.13755316149E+00 -0.31848958947E+02  0.15319262798E+01  0.31886076977E+02  0.00000000000E+00 0.  1.
         11    1    3    3    0    0  0.14334791827E+01  0.25066185126E+02 -0.17221816521E+02  0.30446008998E+02  0.51100000000E-03 0. -1.
        -11    1    3    3    0    0  0.14937244536E+01 -0.40326754599E+01 -0.41987412034E+01  0.60102505823E+01  0.51100000000E-03 0.  1.
         12    1    3    3    0    0 -0.30647567978E+01  0.10815449280E+02  0.19888631445E+02  0.22845663442E+02  0.00000000000E+00 0. -1.
</event>
<event>
 7    1  0.3750159E-013  0.5930199E+02  0.7816164E-02  0.1266605E+00
        -11   -1    0    0    0    0  0.00000000000E+00  0.00000000000E+00  0.45593999997E+02  0.45594000000E+02  0.51100000000E-03 0. -1.
         11   -1    0    0    0    0 -0.00000000000E+00 -0.00000000000E+00 -0.45593999997E+02  0.45594000000E+02  0.51100000000E-03 0.  1.
    9900012    2    1    2    0    0  0.71414641616E+01  0.13453162947E+02  0.28013022721E+02  0.59301991381E+02  0.50000086361E+02 0.  0.
        -12    1    1    2    0    0 -0.71414641616E+01 -0.13453162947E+02 -0.28013022721E+02  0.31886008619E+02  0.00000000000E+00 0.  1.
         11    1    3    3    0    0 -0.10839063606E+02  0.24355644773E+02  0.24073476744E+02  0.35919563123E+02  0.51100000000E-03 0. -1.
        -11    1    3    3    0    0  0.20845773186E+01  0.44166125084E+00 -0.20489654378E+01  0.29561439214E+01  0.51100000000E-03 0.  1.
        -12    1    3    3    0    0  0.15895950449E+02 -0.11344143077E+02  0.59885114152E+01  0.20426284336E+02  0.00000000000E+00 0.  1.
</event>
<event>
 7    1  0.3750159E-013  0.5930194E+02  0.7816164E-02  0.1266605E+00
        -11   -1    0    0    0    0  0.00000000000E+00  0.00000000000E+00  0.45593999997E+02  0.45594000000E+02  0.51100000000E-03 0.  1.
         11   -1    0    0    0    0 -0.00000000000E+00 -0.00000000000E+00 -0.45593999997E+02  0.45594000000E+02  0.51100000000E-03 0. -1.
    9900012    2    1    2    0    0  0.85750318517E+01  0.27394463601E+02  0.13882820199E+02  0.59301944992E+02  0.50000001759E+02 0.  0.
        -12    1    1    2    0    0 -0.85750318517E+01 -0.27394463601E+02 -0.13882820199E+02  0.31886055008E+02  0.00000000000E+00 0.  1.
         11    1    3    3    0    0  0.15838782793E+02  0.75335842501E+01  0.30529933376E+01  0.17802884615E+02  0.51100000000E-03 0. -1.
        -11    1    3    3    0    0 -0.64115746576E+01 -0.86411482968E+01  0.67292484464E+01  0.12690962075E+02  0.51100000000E-03 0.  1.
         12    1    3    3    0    0 -0.85217628378E+00  0.28502027648E+02  0.41005784151E+01  0.28808098303E+02  0.00000000000E+00 0. -1.
</event>
<event>
 7    1  0.3750159E-013  0.5930191E+02  0.7816164E-02  0.1266605E+00
        -11   -1    0    0    0    0  0.00000000000E+00  0.00000000000E+00  0.45593999997E+02  0.45594000000E+02  0.51100000000E-03 0. -1.
         11   -1    0    0    0    0 -0.00000000000E+00 -0.00000000000E+00 -0.45593999997E+02  0.45594000000E+02  0.51100000000E-03 0.  1.
    9900012    2    1    2    0    0  0.62279154040E+01  0.17528130981E+02  0.25897888913E+02  0.59301906541E+02  0.49999931633E+02 0.  0.
        -12    1    1    2    0    0 -0.62279154040E+01 -0.17528130981E+02 -0.25897888913E+02  0.31886093459E+02  0.00000000000E+00 0.  1.
         11    1    3    3    0    0 -0.40229473489E+01  0.22257551694E+02  0.42356771477E+01  0.23011381400E+02  0.51100000000E-03 0. -1.
        -11    1    3    3    0    0 -0.76737718744E+01 -0.58833742712E+01  0.13387461123E+02  0.16514387158E+02  0.51100000000E-03 0.  1.
         12    1    3    3    0    0  0.17924634627E+02  0.11539535580E+01  0.82747506415E+01  0.19776137983E+02  0.00000000000E+00 0. -1.
</event>
<event>
 7    1  0.3750159E-013  0.5930196E+02  0.7816164E-02  0.1266605E+00
        -11   -1    0    0    0    0  0.00000000000E+00  0.00000000000E+00  0.45593999997E+02  0.45594000000E+02  0.51100000000E-03 0.  1.
         11   -1    0    0    0    0 -0.00000000000E+00 -0.00000000000E+00 -0.45593999997E+02  0.45594000000E+02  0.51100000000E-03 0. -1.
    9900012    2    1    2    0    0 -0.53630624504E+00 -0.25343727273E+02 -0.19342376435E+02  0.59301958185E+02  0.50000025819E+02 0.  0.
        -12    1    1    2    0    0  0.53630624504E+00  0.25343727273E+02  0.19342376435E+02  0.31886041815E+02  0.00000000000E+00 0.  1.
         11    1    3    3    0    0 -0.83719756424E+01 -0.24053309808E+01 -0.90781240446E+01  0.12581253106E+02  0.51100000000E-03 0. -1.
        -11    1    3    3    0    0 -0.12355805801E+02 -0.16986603023E+02 -0.14133958763E+02  0.25317571168E+02  0.51100000000E-03 0.  1.
        -12    1    3    3    0    0  0.20191475198E+02 -0.59517932695E+01  0.38697063725E+01  0.21403133911E+02  0.00000000000E+00 0.  1.
</event>
<event>
 7    1  0.3750159E-013  0.5930193E+02  0.7816164E-02  0.1266605E+00
        -11   -1    0    0    0    0  0.00000000000E+00  0.00000000000E+00  0.45593999997E+02  0.45594000000E+02  0.51100000000E-03 0. -1.
         11   -1    0    0    0    0 -0.00000000000E+00 -0.00000000000E+00 -0.45593999997E+02  0.45594000000E+02  0.51100000000E-03 0.  1.
    9900012    2    1    2    0    0  0.25757749099E+02  0.16230751044E+02 -0.94774792969E+01  0.59301928873E+02  0.49999972362E+02 0.  0.
        -12    1    1    2    0    0 -0.25757749099E+02 -0.16230751044E+02  0.94774792969E+01  0.31886071127E+02  0.00000000000E+00 0.  1.
         11    1    3    3    0    0 -0.85781198010E+00 -0.43627586713E+01  0.42704583242E+01  0.61649265346E+01  0.51100000000E-03 0. -1.
        -11    1    3    3    0    0 -0.29444567217E+01  0.57815436182E+01  0.10355694073E+02  0.12220330273E+02  0.51100000000E-03 0.  1.
        -12    1    3    3    0    0  0.29560017801E+02  0.14811966097E+02 -0.24103631694E+02  0.40916672065E+02  0.00000000000E+00 0.  1.
</event>
<event>
 7    1  0.3750159E-013  0.5930196E+02  0.7816164E-02  0.1266605E+00
        -11   -1    0    0    0    0  0.00000000000E+00  0.00000000000E+00  0.45593999997E+02  0.45594000000E+02  0.51100000000E-03 0.  1.
         11   -1    0    0    0    0 -0.00000000000E+00 -0.00000000000E+00 -0.45593999997E+02  0.45594000000E+02  0.51100000000E-03 0. -1.
    9900012    2    1    2    0    0  0.65150367289E+01 -0.13108151261E+02 -0.28327557470E+02  0.59301955321E+02  0.50000020596E+02 0.  0.
        -12    1    1    2    0    0 -0.65150367289E+01  0.13108151261E+02  0.28327557470E+02  0.31886044679E+02  0.00000000000E+00 0.  1.
         11    1    3    3    0    0 -0.13105085925E+01 -0.76502586263E+01 -0.64539373082E+01  0.10094414142E+02  0.51100000000E-03 0. -1.
        -11    1    3    3    0    0  0.13607891954E+01 -0.21833872287E+02 -0.22773768969E+02  0.31578699776E+02  0.51100000000E-03 0.  1.
         12    1    3    3    0    0  0.64647561260E+01  0.16375979652E+02  0.90014880696E+00  0.17628841403E+02  0.00000000000E+00 0. -1.
</event>
<event>
 7    1  0.3750159E-013  0.5930192E+02  0.7816164E-02  0.1266605E+00
        -11   -1    0    0    0    0  0.00000000000E+00  0.00000000000E+00  0.45593999997E+02  0.45594000000E+02  0.51100000000E-03 0.  1.
         11   -1    0    0    0    0 -0.00000000000E+00 -0.00000000000E+00 -0.45593999997E+02  0.45594000000E+02  0.51100000000E-03 0. -1.
    9900012    2    1    2    0    0  0.15935629815E+01 -0.14498386146E+02 -0.28354528529E+02  0.59301922601E+02  0.49999960923E+02 0.  0.
        -12    1    1    2    0    0 -0.15935629815E+01  0.14498386146E+02  0.28354528529E+02  0.31886077399E+02  0.00000000000E+00 0.  1.
         11    1    3    3    0    0 -0.96047774250E+01 -0.11025961706E+01 -0.49649783917E+00  0.96805980221E+01  0.51100000000E-03 0. -1.
        -11    1    3    3    0    0 -0.73939564652E+01 -0.47897991996E+01  0.55639628131E+01  0.10419714537E+02  0.51100000000E-03 0.  1.
         12    1    3    3    0    0  0.18592296872E+02 -0.86059907763E+01 -0.33421993502E+02  0.39201610042E+02  0.00000000000E+00 0. -1.
</event>
<event>
 7    1  0.3750159E-013  0.5930205E+02  0.7816164E-02  0.1266604E+00
        -11   -1    0    0    0    0  0.00000000000E+00  0.00000000000E+00  0.45593999997E+02  0.45594000000E+02  0.51100000000E-03 0.  1.
         11   -1    0    0    0    0 -0.00000000000E+00 -0.00000000000E+00 -0.45593999997E+02  0.45594000000E+02  0.51100000000E-03 0. -1.
    9900012    2    1    2    0    0 -0.15179914418E+02 -0.26355497339E+02 -0.95745248820E+01  0.59302053747E+02  0.50000200102E+02 0.  0.
        -12    1    1    2    0    0  0.15179914418E+02  0.26355497339E+02  0.95745248820E+01  0.31885946253E+02  0.00000000000E+00 0.  1.
         11    1    3    3    0    0 -0.42233417029E+01 -0.30577481315E+02 -0.18398277778E+02  0.35934880050E+02  0.51100000000E-03 0. -1.
        -11    1    3    3    0    0 -0.50349396799E+01  0.35154274089E+01 -0.52518883870E+01  0.80802957457E+01  0.51100000000E-03 0.  1.
        -12    1    3    3    0    0 -0.59216330356E+01  0.70655656748E+00  0.14075641283E+02  0.15286877952E+02  0.00000000000E+00 0.  1.
</event>
<event>
 7    1  0.3750159E-013  0.5930198E+02  0.7816164E-02  0.1266605E+00
        -11   -1    0    0    0    0  0.00000000000E+00  0.00000000000E+00  0.45593999997E+02  0.45594000000E+02  0.51100000000E-03 0.  1.
         11   -1    0    0    0    0 -0.00000000000E+00 -0.00000000000E+00 -0.45593999997E+02  0.45594000000E+02  0.51100000000E-03 0. -1.
    9900012    2    1    2    0    0  0.58750383946E+01 -0.88701047872E+00 -0.31327552647E+02  0.59301977693E+02  0.50000061397E+02 0.  0.
        -12    1    1    2    0    0 -0.58750383946E+01  0.88701047872E+00  0.31327552647E+02  0.31886022307E+02  0.00000000000E+00 0.  1.
         11    1    3    3    0    0 -0.25930635224E+01 -0.19493315611E+02 -0.12827481589E+02  0.23478875955E+02  0.51100000000E-03 0. -1.
        -11    1    3    3    0    0 -0.98036117351E+00  0.15162446379E+02 -0.20552705256E+02  0.25559236723E+02  0.51100000000E-03 0.  1.
         12    1    3    3    0    0  0.94484630905E+01  0.34438587528E+01  0.20526341989E+01  0.10263865015E+02  0.00000000000E+00 0. -1.
</event>
<event>
 7    1  0.3750159E-013  0.5930192E+02  0.7816164E-02  0.1266605E+00
        -11   -1    0    0    0    0  0.00000000000E+00  0.00000000000E+00  0.45593999997E+02  0.45594000000E+02  0.51100000000E-03 0.  1.
         11   -1    0    0    0    0 -0.00000000000E+00 -0.00000000000E+00 -0.45593999997E+02  0.45594000000E+02  0.51100000000E-03 0. -1.
    9900012    2    1    2    0    0 -0.29510369755E+02 -0.81788012689E+01 -0.88863656591E+01  0.59301918273E+02  0.49999953030E+02 0.  0.
        -12    1    1    2    0    0  0.29510369755E+02  0.81788012689E+01  0.88863656591E+01  0.31886081727E+02  0.00000000000E+00 0.  1.
         11    1    3    3    0    0  0.10996679819E+02 -0.11841975523E+02 -0.20985991875E+01  0.16296118254E+02  0.51100000000E-03 0. -1.
        -11    1    3    3    0    0 -0.21180594462E+02 -0.42123818363E+01 -0.36518635433E+01  0.21902005619E+02  0.51100000000E-03 0.  1.
        -12    1    3    3    0    0 -0.19326455112E+02  0.78755560905E+01 -0.31359029283E+01  0.21103794401E+02  0.00000000000E+00 0.  1.
</event>
<event>
 7    1  0.3750159E-013  0.5930192E+02  0.7816164E-02  0.1266605E+00
        -11   -1    0    0    0    0  0.00000000000E+00  0.00000000000E+00  0.45593999997E+02  0.45594000000E+02  0.51100000000E-03 0.  1.
         11   -1    0    0    0    0 -0.00000000000E+00 -0.00000000000E+00 -0.45593999997E+02  0.45594000000E+02  0.51100000000E-03 0. -1.
    9900012    2    1    2    0    0  0.27270259093E+02  0.16523383206E+02  0.18093562282E+00  0.59301922141E+02  0.49999960083E+02 0.  0.
        -12    1    1    2    0    0 -0.27270259093E+02 -0.16523383206E+02 -0.18093562282E+00  0.31886077859E+02  0.00000000000E+00 0.  1.
         11    1    3    3    0    0  0.45276865117E+01  0.50716076056E+00  0.26849274178E+00  0.45639068569E+01  0.51100000000E-03 0. -1.
        -11    1    3    3    0    0  0.20539660780E+02 -0.75003116804E+01 -0.15260551040E+02  0.26664897498E+02  0.51100000000E-03 0.  1.
         12    1    3    3    0    0  0.22029118009E+01  0.23516534126E+02  0.15172993921E+02  0.28073117786E+02  0.00000000000E+00 0. -1.
</event>
<event>
 7    1  0.3750159E-013  0.5930159E+02  0.7816164E-02  0.1266606E+00
        -11   -1    0    0    0    0  0.00000000000E+00  0.00000000000E+00  0.45593999997E+02  0.45594000000E+02  0.51100000000E-03 0.  1.
         11   -1    0    0    0    0 -0.00000000000E+00 -0.00000000000E+00 -0.45593999997E+02  0.45594000000E+02  0.51100000000E-03 0. -1.
    9900012    2    1    2    0    0 -0.14387353220E+02 -0.11659531261E+02 -0.25957708315E+02  0.59301588743E+02  0.49999352042E+02 0.  0.
        -12    1    1    2    0    0  0.14387353220E+02  0.11659531261E+02  0.25957708315E+02  0.31886411257E+02  0.00000000000E+00 0.  1.
         11    1    3    3    0    0 -0.31590850254E+01 -0.20337996919E+02 -0.11636441316E+02  0.23643618666E+02  0.51100000000E-03 0. -1.
        -11    1    3    3    0    0  0.22733495839E+01 -0.21282230564E+00 -0.18755986641E+02  0.18894455451E+02  0.51100000000E-03 0.  1.
        -12    1    3    3    0    0 -0.13501617779E+02  0.88912879643E+01  0.44347196415E+01  0.16763514626E+02  0.00000000000E+00 0.  1.
</event>
<event>
 7    1  0.3750159E-013  0.5930194E+02  0.7816164E-02  0.1266605E+00
        -11   -1    0    0    0    0  0.00000000000E+00  0.00000000000E+00  0.45593999997E+02  0.45594000000E+02  0.51100000000E-03 0.  1.
         11   -1    0    0    0    0 -0.00000000000E+00 -0.00000000000E+00 -0.45593999997E+02  0.45594000000E+02  0.51100000000E-03 0. -1.
    9900012    2    1    2    0    0  0.47210156141E+01 -0.29781705067E+02 -0.10367394617E+02  0.59301940094E+02  0.49999992827E+02 0.  0.
        -12    1    1    2    0    0 -0.47210156141E+01  0.29781705067E+02  0.10367394617E+02  0.31886059906E+02  0.00000000000E+00 0.  1.
         11    1    3    3    0    0 -0.62352847113E+01 -0.11485619569E+02 -0.57719892031E+01  0.14286850316E+02  0.51100000000E-03 0. -1.
        -11    1    3    3    0    0 -0.14250056932E+02 -0.13984119667E+01  0.29146309012E-01  0.14318537927E+02  0.51100000000E-03 0.  1.
         12    1    3    3    0    0  0.25206357257E+02 -0.16897673532E+02 -0.46245517232E+01  0.30696551852E+02  0.00000000000E+00 0. -1.
</event>
<event>
 7    1  0.3750159E-013  0.5930192E+02  0.7816164E-02  0.1266605E+00
        -11   -1    0    0    0    0  0.00000000000E+00  0.00000000000E+00  0.45593999997E+02  0.45594000000E+02  0.51100000000E-03 0.  1.
         11   -1    0    0    0    0 -0.00000000000E+00 -0.00000000000E+00 -0.45593999997E+02  0.45594000000E+02  0.51100000000E-03 0. -1.
    9900012    2    1    2    0    0  0.10884496450E+02  0.26919713342E+02 -0.13174926013E+02  0.59301923025E+02  0.49999961697E+02 0.  0.
        -12    1    1    2    0    0 -0.10884496450E+02 -0.26919713342E+02  0.13174926013E+02  0.31886076975E+02  0.00000000000E+00 0.  1.
         11    1    3    3    0    0  0.49302501123E+01  0.11945206002E+02 -0.15341408016E+02  0.20058766482E+02  0.51100000000E-03 0. -1.
        -11    1    3    3    0    0 -0.25129516796E+01 -0.12285283806E+01 -0.14341028025E+02  0.14611272812E+02  0.51100000000E-03 0.  1.
        -12    1    3    3    0    0  0.84671980171E+01  0.16203035720E+02  0.16507510028E+02  0.24631883731E+02  0.00000000000E+00 0.  1.
</event>
<event>
 7    1  0.3750159E-013  0.5930195E+02  0.7816164E-02  0.1266605E+00
        -11   -1    0    0    0    0  0.00000000000E+00  0.00000000000E+00  0.45593999997E+02  0.45594000000E+02  0.51100000000E-03 0. -1.
         11   -1    0    0    0    0 -0.00000000000E+00 -0.00000000000E+00 -0.45593999997E+02  0.45594000000E+02  0.51100000000E-03 0.  1.
    9900012    2    1    2    0    0 -0.22131051119E+02  0.16012280128E+02  0.16448213454E+02  0.59301948749E+02  0.50000008611E+02 0.  0.
        -12    1    1    2    0    0  0.22131051119E+02 -0.16012280128E+02 -0.16448213454E+02  0.31886051251E+02  0.00000000000E+00 0.  1.
         11    1    3    3    0    0 -0.16486419726E+01 -0.48822748808E+01 -0.11985514813E+00  0.51545119927E+01  0.51100000000E-03 0. -1.
        -11    1    3    3    0    0 -0.97547135982E+01 -0.55911350782E+01 -0.10060808636E+02  0.15087580970E+02  0.51100000000E-03 0.  1.
         12    1    3    3    0    0 -0.10727695549E+02  0.26485690087E+02  0.26628877238E+02  0.39059855787E+02  0.00000000000E+00 0. -1.
</event>
<event>
 7    1  0.3750159E-013  0.5930195E+02  0.7816164E-02  0.1266605E+00
        -11   -1    0    0    0    0  0.00000000000E+00  0.00000000000E+00  0.45593999997E+02  0.45594000000E+02  0.51100000000E-03 0.  1.
         11   -1    0    0    0    0 -0.00000000000E+00 -0.00000000000E+00 -0.45593999997E+02  0.45594000000E+02  0.51100000000E-03 0. -1.
    9900012    2    1    2    0    0  0.31801630635E+02 -0.21138384459E+01 -0.95312583390E+00  0.59301945479E+02  0.50000002647E+02 0.  0.
        -12    1    1    2    0    0 -0.31801630635E+02  0.21138384459E+01  0.95312583390E+00  0.31886054521E+02  0.00000000000E+00 0.  1.
         11    1    3    3    0    0  0.39284225211E+01  0.65649290969E+01  0.11623682274E+02  0.13915487322E+02  0.51100000000E-03 0. -1.
        -11    1    3    3    0    0 -0.67449218364E+01 -0.56377446727E+01 -0.15412530469E+01  0.89248863740E+01  0.51100000000E-03 0.  1.
         12    1    3    3    0    0  0.34618129951E+02 -0.30410228702E+01 -0.11035555061E+02  0.36461571783E+02  0.00000000000E+00 0. -1.
</event>
<event>
 7    1  0.3750159E-013  0.5930186E+02  0.7816164E-02  0.1266605E+00
        -11   -1    0    0    0    0  0.00000000000E+00  0.00000000000E+00  0.45593999997E+02  0.45594000000E+02  0.51100000000E-03 0. -1.
         11   -1    0    0    0    0 -0.00000000000E+00 -0.00000000000E+00 -0.45593999997E+02  0.45594000000E+02  0.51100000000E-03 0.  1.
    9900012    2    1    2    0    0  0.28133781703E+02  0.13431896450E+02 -0.66933147557E+01  0.59301859162E+02  0.49999845224E+02 0.  0.
        -12    1    1    2    0    0 -0.28133781703E+02 -0.13431896450E+02  0.66933147557E+01  0.31886140838E+02  0.00000000000E+00 0.  1.
         11    1    3    3    0    0  0.82200260960E+01  0.38146444792E+01  0.11860799446E+02  0.14926449855E+02  0.51100000000E-03 0. -1.
        -11    1    3    3    0    0  0.37605206926E+01  0.20251948479E+02 -0.65561060526E+01  0.21616323922E+02  0.51100000000E-03 0.  1.
         12    1    3    3    0    0  0.16153234914E+02 -0.10634696508E+02 -0.11998008149E+02  0.22759085385E+02  0.00000000000E+00 0. -1.
</event>
<event>
 7    1  0.3750159E-013  0.5930192E+02  0.7816164E-02  0.1266605E+00
        -11   -1    0    0    0    0  0.00000000000E+00  0.00000000000E+00  0.45593999997E+02  0.45594000000E+02  0.51100000000E-03 0.  1.
         11   -1    0    0    0    0 -0.00000000000E+00 -0.00000000000E+00 -0.45593999997E+02  0.45594000000E+02  0.51100000000E-03 0. -1.
    9900012    2    1    2    0    0  0.10136730424E+02  0.13385065204E+02 -0.27107354491E+02  0.59301922448E+02  0.49999960643E+02 0.  0.
        -12    1    1    2    0    0 -0.10136730424E+02 -0.13385065204E+02  0.27107354491E+02  0.31886077552E+02  0.00000000000E+00 0.  1.
         11    1    3    3    0    0 -0.63027652710E+01 -0.19731952127E+01 -0.27055824250E+01  0.71371230848E+01  0.51100000000E-03 0. -1.
        -11    1    3    3    0    0 -0.62195370033E+01  0.63768861517E+01 -0.26250507157E+02  0.27720686207E+02  0.51100000000E-03 0.  1.
        -12    1    3    3    0    0  0.22659032699E+02  0.89813742645E+01  0.18487350916E+01  0.24444113156E+02  0.00000000000E+00 0.  1.
</event>
<event>
 7    1  0.3750159E-013  0.5930190E+02  0.7816164E-02  0.1266605E+00
        -11   -1    0    0    0    0  0.00000000000E+00  0.00000000000E+00  0.45593999997E+02  0.45594000000E+02  0.51100000000E-03 0.  1.
         11   -1    0    0    0    0 -0.00000000000E+00 -0.00000000000E+00 -0.45593999997E+02  0.45594000000E+02  0.51100000000E-03 0. -1.
    9900012    2    1    2    0    0 -0.43750875969E+01 -0.31396331321E+02 -0.34427468230E+01  0.59301897736E+02  0.49999915576E+02 0.  0.
        -12    1    1    2    0    0  0.43750875969E+01  0.31396331321E+02  0.34427468230E+01  0.31886102264E+02  0.00000000000E+00 0.  1.
         11    1    3    3    0    0  0.63074981539E+01 -0.12362278148E+02 -0.65284511750E+01  0.15337246460E+02  0.51100000000E-03 0. -1.
        -11    1    3    3    0    0  0.23351840282E+01  0.37231671504E+01 -0.12647082951E+02  0.13388941911E+02  0.51100000000E-03 0.  1.
         12    1    3    3    0    0 -0.13017769779E+02 -0.22757220324E+02  0.15732787303E+02  0.30575709365E+02  0.00000000000E+00 0. -1.
</event>
<event>
 7    1  0.3750159E-013  0.5930198E+02  0.7816164E-02  0.1266605E+00
        -11   -1    0    0    0    0  0.00000000000E+00  0.00000000000E+00  0.45593999997E+02  0.45594000000E+02  0.51100000000E-03 0.  1.
         11   -1    0    0    0    0 -0.00000000000E+00 -0.00000000000E+00 -0.45593999997E+02  0.45594000000E+02  0.51100000000E-03 0. -1.
    9900012    2    1    2    0    0 -0.31158945953E+01  0.26742599321E+02 -0.17083408753E+02  0.59301979988E+02  0.50000065583E+02 0.  0.
        -12    1    1    2    0    0  0.31158945953E+01 -0.26742599321E+02  0.17083408753E+02  0.31886020012E+02  0.00000000000E+00 0.  1.
         11    1    3    3    0    0  0.31158145831E+01  0.21436368602E+01 -0.95009355583E+00  0.38995073447E+01  0.51100000000E-03 0. -1.
        -11    1    3    3    0    0 -0.58021416801E+01 -0.12926279129E+02 -0.10082852117E+02  0.17390153744E+02  0.51100000000E-03 0.  1.
         12    1    3    3    0    0 -0.42956749835E+00  0.37525241589E+02 -0.60504630809E+01  0.38012318899E+02  0.00000000000E+00 0. -1.
</event>
<event>
 7    1  0.3750159E-013  0.5930206E+02  0.7816164E-02  0.1266604E+00
        -11   -1    0    0    0    0  0.00000000000E+00  0.00000000000E+00  0.45593999997E+02  0.45594000000E+02  0.51100000000E-03 0.  1.
         11   -1    0    0    0    0 -0.00000000000E+00 -0.00000000000E+00 -0.45593999997E+02  0.45594000000E+02  0.51100000000E-03 0. -1.
    9900012    2    1    2    0    0  0.29773562962E+02  0.22610377744E+00 -0.11410389951E+02  0.59302059945E+02  0.50000211405E+02 0.  0.
        -12    1    1    2    0    0 -0.29773562962E+02 -0.22610377744E+00  0.11410389951E+02  0.31885940055E+02  0.00000000000E+00 0.  1.
         11    1    3    3    0    0  0.14764560816E+01  0.42606313778E+01 -0.35515728593E+01  0.57399104814E+01  0.51100000000E-03 0. -1.
        -11    1    3    3    0    0 -0.69752767942E+01 -0.13725918327E+02  0.23733519269E+01  0.15578450498E+02  0.51100000000E-03 0.  1.
         12    1    3    3    0    0  0.35272383674E+02  0.96913907270E+01 -0.10232169019E+02  0.37983698966E+02  0.00000000000E+00 0. -1.
</event>
<event>
 7    1  0.3750159E-013  0.5930194E+02  0.7816164E-02  0.1266605E+00
        -11   -1    0    0    0    0  0.00000000000E+00  0.00000000000E+00  0.45593999997E+02  0.45594000000E+02  0.51100000000E-03 0.  1.
         11   -1    0    0    0    0 -0.00000000000E+00 -0.00000000000E+00 -0.45593999997E+02  0.45594000000E+02  0.51100000000E-03 0. -1.
    9900012    2    1    2    0    0  0.82916085249E+01 -0.12480526127E+02 -0.28146158915E+02  0.59301944019E+02  0.49999999985E+02 0.  0.
        -12    1    1    2    0    0 -0.82916085249E+01  0.12480526127E+02  0.28146158915E+02  0.31886055981E+02  0.00000000000E+00 0.  1.
         11    1    3    3    0    0  0.11329790401E+02 -0.35812500885E+01  0.93514621243E+00  0.11919060426E+02  0.51100000000E-03 0. -1.
        -11    1    3    3    0    0  0.14085535211E+02  0.50988689658E+01 -0.14784841632E+02  0.21047382480E+02  0.51100000000E-03 0.  1.
        -12    1    3    3    0    0 -0.17123717087E+02 -0.13998145004E+02 -0.14296463496E+02  0.26335501114E+02  0.00000000000E+00 0.  1.
</event>
<event>
 7    1  0.3750159E-013  0.5930211E+02  0.7816164E-02  0.1266604E+00
        -11   -1    0    0    0    0  0.00000000000E+00  0.00000000000E+00  0.45593999997E+02  0.45594000000E+02  0.51100000000E-03 0.  1.
         11   -1    0    0    0    0 -0.00000000000E+00 -0.00000000000E+00 -0.45593999997E+02  0.45594000000E+02  0.51100000000E-03 0. -1.
    9900012    2    1    2    0    0 -0.29332177717E+01  0.31750077770E+02 -0.19625935669E+00  0.59302114053E+02  0.50000310084E+02 0.  0.
        -12    1    1    2    0    0  0.29332177717E+01 -0.31750077770E+02  0.19625935669E+00  0.31885885947E+02  0.00000000000E+00 0.  1.
         11    1    3    3    0    0 -0.73943239139E+00  0.39947669515E+01 -0.40064815809E+01  0.57058582332E+01  0.51100000000E-03 0. -1.
        -11    1    3    3    0    0 -0.82501126528E+01 -0.29684073720E+01 -0.14775564270E+02  0.17181184502E+02  0.51100000000E-03 0.  1.
        -12    1    3    3    0    0  0.60563272725E+01  0.30723718190E+02  0.18585786495E+02  0.36415071318E+02  0.00000000000E+00 0.  1.
</event>
<event>
 7    1  0.3750159E-013  0.5930195E+02  0.7816164E-02  0.1266605E+00
        -11   -1    0    0    0    0  0.00000000000E+00  0.00000000000E+00  0.45593999997E+02  0.45594000000E+02  0.51100000000E-03 0. -1.
         11   -1    0    0    0    0 -0.00000000000E+00 -0.00000000000E+00 -0.45593999997E+02  0.45594000000E+02  0.51100000000E-03 0.  1.
    9900012    2    1    2    0    0 -0.28664914143E+02 -0.11901170863E+02  0.73078585492E+01  0.59301953408E+02  0.50000017106E+02 0.  0.
        -12    1    1    2    0    0  0.28664914143E+02  0.11901170863E+02 -0.73078585492E+01  0.31886046592E+02  0.00000000000E+00 0.  1.
         11    1    3    3    0    0 -0.25022185719E+01 -0.56634135283E+01 -0.55067637345E+01  0.82861207850E+01  0.51100000000E-03 0. -1.
        -11    1    3    3    0    0  0.89823438644E+01  0.72729636408E+01  0.12375916067E+01  0.11623688514E+02  0.51100000000E-03 0.  1.
         12    1    3    3    0    0 -0.35145039435E+02 -0.13510720975E+02  0.11577030677E+02  0.39392144109E+02  0.00000000000E+00 0. -1.
</event>
<event>
 7    1  0.3750159E-013  0.5930191E+02  0.7816164E-02  0.1266605E+00
        -11   -1    0    0    0    0  0.00000000000E+00  0.00000000000E+00  0.45593999997E+02  0.45594000000E+02  0.51100000000E-03 0. -1.
         11   -1    0    0    0    0 -0.00000000000E+00 -0.00000000000E+00 -0.45593999997E+02  0.45594000000E+02  0.51100000000E-03 0.  1.
    9900012    2    1    2    0    0  0.17265624788E+02  0.23994361115E+02  0.11953735875E+02  0.59301906385E+02  0.49999931349E+02 0.  0.
        -12    1    1    2    0    0 -0.17265624788E+02 -0.23994361115E+02 -0.11953735875E+02  0.31886093615E+02  0.00000000000E+00 0.  1.
         11    1    3    3    0    0 -0.12328320184E+02  0.22682764520E+01  0.45924074372E+01  0.13350009849E+02  0.51100000000E-03 0. -1.
        -11    1    3    3    0    0  0.97509066207E+01 -0.40732159884E+00  0.12423046937E+02  0.15798043749E+02  0.51100000000E-03 0.  1.
        -12    1    3    3    0    0  0.19843038352E+02  0.22133406262E+02 -0.50617184997E+01  0.30153852788E+02  0.00000000000E+00 0.  1.
</event>
<event>
 7    1  0.3750159E-013  0.5930194E+02  0.7816164E-02  0.1266605E+00
        -11   -1    0    0    0    0  0.00000000000E+00  0.00000000000E+00  0.45593999997E+02  0.45594000000E+02  0.51100000000E-03 0.  1.
         11   -1    0    0    0    0 -0.00000000000E+00 -0.00000000000E+00 -0.45593999997E+02  0.45594000000E+02  0.51100000000E-03 0. -1.
    9900012    2    1    2    0    0  0.15024231463E+02  0.12751778578E+02 -0.25067612224E+02  0.59301943948E+02  0.49999999854E+02 0.  0.
        -12    1    1    2    0    0 -0.15024231463E+02 -0.12751778578E+02  0.25067612224E+02  0.31886056052E+02  0.00000000000E+00 0.  1.
         11    1    3    3    0    0  0.15476722990E+02 -0.49732878257E+01 -0.52474226447E+01  0.17082095626E+02  0.51100000000E-03 0. -1.
        -11    1    3    3    0    0 -0.11966539552E+02  0.51022794057E+01  0.33483364738E+01  0.13432895496E+02  0.51100000000E-03 0.  1.
        -12    1    3    3    0    0  0.11514048025E+02  0.12622786998E+02 -0.23168526053E+02  0.28786952826E+02  0.00000000000E+00 0.  1.
</event>
<event>
 7    1  0.3750159E-013  0.5930195E+02  0.7816164E-02  0.1266605E+00
        -11   -1    0    0    0    0  0.00000000000E+00  0.00000000000E+00  0.45593999997E+02  0.45594000000E+02  0.51100000000E-03 0.  1.
         11   -1    0    0    0    0 -0.00000000000E+00 -0.00000000000E+00 -0.45593999997E+02  0.45594000000E+02  0.51100000000E-03 0. -1.
    9900012    2    1    2    0    0 -0.61841194008E+01 -0.12324259575E+02 -0.28750473807E+02  0.59301945823E+02  0.50000003274E+02 0.  0.
        -12    1    1    2    0    0  0.61841194008E+01  0.12324259575E+02  0.28750473807E+02  0.31886054177E+02  0.00000000000E+00 0.  1.
         11    1    3    3    0    0  0.89203491790E+01 -0.79040595777E+01  0.15559042153E+01  0.12019468602E+02  0.51100000000E-03 0. -1.
        -11    1    3    3    0    0  0.19216288504E+01 -0.10422717472E+02  0.15056953589E+01  0.10704803395E+02  0.51100000000E-03 0.  1.
         12    1    3    3    0    0 -0.17026097430E+02  0.60025174745E+01 -0.31812073381E+02  0.36577673826E+02  0.00000000000E+00 0. -1.
</event>
<event>
 7    1  0.3750159E-013  0.5930195E+02  0.7816164E-02  0.1266605E+00
        -11   -1    0    0    0    0  0.00000000000E+00  0.00000000000E+00  0.45593999997E+02  0.45594000000E+02  0.51100000000E-03 0.  1.
         11   -1    0    0    0    0 -0.00000000000E+00 -0.00000000000E+00 -0.45593999997E+02  0.45594000000E+02  0.51100000000E-03 0. -1.
    9900012    2    1    2    0    0 -0.19879715279E+02  0.12164036809E+02 -0.21761276452E+02  0.59301952520E+02  0.50000015488E+02 0.  0.
        -12    1    1    2    0    0  0.19879715279E+02 -0.12164036809E+02  0.21761276452E+02  0.31886047480E+02  0.00000000000E+00 0.  1.
         11    1    3    3    0    0 -0.14677726944E+02 -0.42913181126E+01 -0.10400971936E+02  0.18494088160E+02  0.51100000000E-03 0. -1.
        -11    1    3    3    0    0 -0.11316642708E+02 -0.73833181328E+01  0.42987460942E+00  0.13519045131E+02  0.51100000000E-03 0.  1.
        -12    1    3    3    0    0  0.61146543730E+01  0.23838673054E+02 -0.11790179125E+02  0.27288819229E+02  0.00000000000E+00 0.  1.
</event>
<event>
 7    1  0.3750159E-013  0.5930192E+02  0.7816164E-02  0.1266605E+00
        -11   -1    0    0    0    0  0.00000000000E+00  0.00000000000E+00  0.45593999997E+02  0.45594000000E+02  0.51100000000E-03 0.  1.
         11   -1    0    0    0    0 -0.00000000000E+00 -0.00000000000E+00 -0.45593999997E+02  0.45594000000E+02  0.51100000000E-03 0. -1.
    9900012    2    1    2    0    0  0.27891890624E+02  0.11268670704E+02 -0.10572671908E+02  0.59301923207E+02  0.49999962027E+02 0.  0.
        -12    1    1    2    0    0 -0.27891890624E+02 -0.11268670704E+02  0.10572671908E+02  0.31886076793E+02  0.00000000000E+00 0.  1.
         11    1    3    3    0    0  0.84853547027E+01  0.14558208891E+02 -0.11284637466E+02  0.20280180806E+02  0.51100000000E-03 0. -1.
        -11    1    3    3    0    0  0.23044597349E+02  0.10084975537E+02  0.48381347105E+00  0.25159377462E+02  0.51100000000E-03 0.  1.
        -12    1    3    3    0    0 -0.36380614277E+01 -0.13374513724E+02  0.22815208721E+00  0.13862364938E+02  0.00000000000E+00 0.  1.
</event>
<event>
 7    1  0.3750159E-013  0.5930194E+02  0.7816164E-02  0.1266605E+00
        -11   -1    0    0    0    0  0.00000000000E+00  0.00000000000E+00  0.45593999997E+02  0.45594000000E+02  0.51100000000E-03 0. -1.
         11   -1    0    0    0    0 -0.00000000000E+00 -0.00000000000E+00 -0.45593999997E+02  0.45594000000E+02  0.51100000000E-03 0.  1.
    9900012    2    1    2    0    0 -0.14838557820E+02 -0.26557399954E+02  0.95520890066E+01  0.59301941999E+02  0.49999996299E+02 0.  0.
        -12    1    1    2    0    0  0.14838557820E+02  0.26557399954E+02 -0.95520890066E+01  0.31886058001E+02  0.00000000000E+00 0.  1.
         11    1    3    3    0    0 -0.15030335202E+02 -0.34418732821E+02  0.55284982116E+01  0.37962144803E+02  0.51100000000E-03 0.  1.
        -11    1    3    3    0    0 -0.55012504057E+01  0.30676141131E+01  0.99839504016E+01  0.11804798950E+02  0.51100000000E-03 0. -1.
        -12    1    3    3    0    0  0.56930277884E+01  0.47937187543E+01 -0.59603596066E+01  0.95349982451E+01  0.00000000000E+00 0.  1.
</event>
<event>
 7    1  0.3750159E-013  0.5930196E+02  0.7816164E-02  0.1266605E+00
        -11   -1    0    0    0    0  0.00000000000E+00  0.00000000000E+00  0.45593999997E+02  0.45594000000E+02  0.51100000000E-03 0. -1.
         11   -1    0    0    0    0 -0.00000000000E+00 -0.00000000000E+00 -0.45593999997E+02  0.45594000000E+02  0.51100000000E-03 0.  1.
    9900012    2    1    2    0    0 -0.82526007851E+01  0.18985846359E+02  0.24251845560E+02  0.59301956113E+02  0.50000022041E+02 0.  0.
        -12    1    1    2    0    0  0.82526007851E+01 -0.18985846359E+02 -0.24251845560E+02  0.31886043887E+02  0.00000000000E+00 0.  1.
         11    1    3    3    0    0 -0.15165971086E+02 -0.25546013687E+01  0.26204330268E+01  0.15601260739E+02  0.51100000000E-03 0. -1.
        -11    1    3    3    0    0  0.65219124419E+00 -0.76456997900E+01  0.18574794966E+01  0.78950813193E+01  0.51100000000E-03 0.  1.
         12    1    3    3    0    0  0.62611790568E+01  0.29186147517E+02  0.19773933037E+02  0.35805614055E+02  0.00000000000E+00 0. -1.
</event>
<event>
 7    1  0.3750159E-013  0.5930195E+02  0.7816164E-02  0.1266605E+00
        -11   -1    0    0    0    0  0.00000000000E+00  0.00000000000E+00  0.45593999997E+02  0.45594000000E+02  0.51100000000E-03 0.  1.
         11   -1    0    0    0    0 -0.00000000000E+00 -0.00000000000E+00 -0.45593999997E+02  0.45594000000E+02  0.51100000000E-03 0. -1.
    9900012    2    1    2    0    0  0.31358820164E+02 -0.39261328605E+01  0.42343929351E+01  0.59301949682E+02  0.50000010313E+02 0.  0.
        -12    1    1    2    0    0 -0.31358820164E+02  0.39261328605E+01 -0.42343929351E+01  0.31886050318E+02  0.00000000000E+00 0.  1.
         11    1    3    3    0    0  0.17115826141E+02 -0.10835667806E+02  0.12613623520E+02  0.23863501417E+02  0.51100000000E-03 0. -1.
        -11    1    3    3    0    0  0.16337581952E+02  0.11270774254E+02  0.56186425621E+01  0.20628041129E+02  0.51100000000E-03 0.  1.
        -12    1    3    3    0    0 -0.20945879290E+01 -0.43612393090E+01 -0.13997873147E+02  0.14810407137E+02  0.00000000000E+00 0.  1.
</event>
<event>
 7    1  0.3750159E-013  0.5930195E+02  0.7816164E-02  0.1266605E+00
        -11   -1    0    0    0    0  0.00000000000E+00  0.00000000000E+00  0.45593999997E+02  0.45594000000E+02  0.51100000000E-03 0. -1.
         11   -1    0    0    0    0 -0.00000000000E+00 -0.00000000000E+00 -0.45593999997E+02  0.45594000000E+02  0.51100000000E-03 0.  1.
    9900012    2    1    2    0    0 -0.28848190200E+02  0.22880126507E+01 -0.13389057749E+02  0.59301953724E+02  0.50000017683E+02 0.  0.
        -12    1    1    2    0    0  0.28848190200E+02 -0.22880126507E+01  0.13389057749E+02  0.31886046276E+02  0.00000000000E+00 0.  1.
         11    1    3    3    0    0 -0.17190523009E+02 -0.18803210588E+02  0.23444207767E+01  0.25584587524E+02  0.51100000000E-03 0. -1.
        -11    1    3    3    0    0 -0.11414025652E+01  0.52187952308E+01  0.37098525557E+01  0.65039703046E+01  0.51100000000E-03 0.  1.
        -12    1    3    3    0    0 -0.10516264626E+02  0.15872428008E+02 -0.19443331082E+02  0.27213395895E+02  0.00000000000E+00 0.  1.
</event>
<event>
 7    1  0.3750159E-013  0.5930197E+02  0.7816164E-02  0.1266605E+00
        -11   -1    0    0    0    0  0.00000000000E+00  0.00000000000E+00  0.45593999997E+02  0.45594000000E+02  0.51100000000E-03 0. -1.
         11   -1    0    0    0    0 -0.00000000000E+00 -0.00000000000E+00 -0.45593999997E+02  0.45594000000E+02  0.51100000000E-03 0.  1.
    9900012    2    1    2    0    0 -0.37727783604E+01  0.13913482452E+01  0.31631461887E+02  0.59301967201E+02  0.50000042263E+02 0.  0.
        -12    1    1    2    0    0  0.37727783604E+01 -0.13913482452E+01 -0.31631461887E+02  0.31886032799E+02  0.00000000000E+00 0.  1.
         11    1    3    3    0    0 -0.17432435017E+01 -0.17025728832E+02  0.22051684635E+02  0.27913995337E+02  0.51100000000E-03 0. -1.
        -11    1    3    3    0    0 -0.38294813605E+01  0.65257348331E+01 -0.73979386639E+01  0.10582043250E+02  0.51100000000E-03 0.  1.
         12    1    3    3    0    0  0.17999465018E+01  0.11891342244E+02  0.16977715916E+02  0.20805928614E+02  0.00000000000E+00 0. -1.
</event>
<event>
 7    1  0.3750159E-013  0.5930193E+02  0.7816164E-02  0.1266605E+00
        -11   -1    0    0    0    0  0.00000000000E+00  0.00000000000E+00  0.45593999997E+02  0.45594000000E+02  0.51100000000E-03 0.  1.
         11   -1    0    0    0    0 -0.00000000000E+00 -0.00000000000E+00 -0.45593999997E+02  0.45594000000E+02  0.51100000000E-03 0. -1.
    9900012    2    1    2    0    0 -0.91975577780E+01  0.45189939041E+01 -0.30194455330E+02  0.59301929254E+02  0.49999973056E+02 0.  0.
        -12    1    1    2    0    0  0.91975577780E+01 -0.45189939041E+01  0.30194455330E+02  0.31886070746E+02  0.00000000000E+00 0.  1.
         11    1    3    3    0    0  0.25578619792E+01  0.82776159909E+01 -0.76271112360E+01  0.11542721103E+02  0.51100000000E-03 0. -1.
        -11    1    3    3    0    0  0.20325743200E+00  0.17397420493E+02 -0.12651203055E+02  0.21511961612E+02  0.51100000000E-03 0.  1.
        -12    1    3    3    0    0 -0.11958677189E+02 -0.21156042580E+02 -0.99161410390E+01  0.26247246539E+02  0.00000000000E+00 0.  1.
</event>
<event>
 7    1  0.3750159E-013  0.5930195E+02  0.7816164E-02  0.1266605E+00
        -11   -1    0    0    0    0  0.00000000000E+00  0.00000000000E+00  0.45593999997E+02  0.45594000000E+02  0.51100000000E-03 0.  1.
         11   -1    0    0    0    0 -0.00000000000E+00 -0.00000000000E+00 -0.45593999997E+02  0.45594000000E+02  0.51100000000E-03 0. -1.
    9900012    2    1    2    0    0  0.27766667736E+02 -0.15303938944E+02  0.33943986736E+01  0.59301947771E+02  0.50000006828E+02 0.  0.
        -12    1    1    2    0    0 -0.27766667736E+02  0.15303938944E+02 -0.33943986736E+01  0.31886052229E+02  0.00000000000E+00 0.  1.
         11    1    3    3    0    0  0.12869422706E+02 -0.85927979193E+01 -0.14853506331E+02  0.21449588981E+02  0.51100000000E-03 0. -1.
        -11    1    3    3    0    0  0.77953794122E+01  0.10069002476E+01 -0.69920207163E+01  0.10519987749E+02  0.51100000000E-03 0.  1.
        -12    1    3    3    0    0  0.71018656178E+01 -0.77180412724E+01  0.25239925721E+02  0.27332371041E+02  0.00000000000E+00 0.  1.
</event>
<event>
 7    1  0.3750159E-013  0.5930194E+02  0.7816164E-02  0.1266605E+00
        -11   -1    0    0    0    0  0.00000000000E+00  0.00000000000E+00  0.45593999997E+02  0.45594000000E+02  0.51100000000E-03 0.  1.
         11   -1    0    0    0    0 -0.00000000000E+00 -0.00000000000E+00 -0.45593999997E+02  0.45594000000E+02  0.51100000000E-03 0. -1.
    9900012    2    1    2    0    0  0.20684189832E+01  0.17370013239E+02 -0.26659427379E+02  0.59301940583E+02  0.49999993717E+02 0.  0.
        -12    1    1    2    0    0 -0.20684189832E+01 -0.17370013239E+02  0.26659427379E+02  0.31886059417E+02  0.00000000000E+00 0.  1.
         11    1    3    3    0    0  0.27514351214E+01  0.24814635508E+02 -0.23533703744E+02  0.34309936503E+02  0.51100000000E-03 0. -1.
        -11    1    3    3    0    0 -0.21443148295E+01  0.76617721030E+01  0.31655530703E+01  0.85628011975E+01  0.51100000000E-03 0.  1.
         12    1    3    3    0    0  0.14612986914E+01 -0.15106394372E+02 -0.62912767044E+01  0.16429202882E+02  0.00000000000E+00 0. -1.
</event>
<event>
 7    1  0.3750159E-013  0.5930195E+02  0.7816164E-02  0.1266605E+00
        -11   -1    0    0    0    0  0.00000000000E+00  0.00000000000E+00  0.45593999997E+02  0.45594000000E+02  0.51100000000E-03 0.  1.
         11   -1    0    0    0    0 -0.00000000000E+00 -0.00000000000E+00 -0.45593999997E+02  0.45594000000E+02  0.51100000000E-03 0. -1.
    9900012    2    1    2    0    0 -0.57546540418E+01  0.17420974522E+02 -0.26078987479E+02  0.59301953140E+02  0.50000016618E+02 0.  0.
        -12    1    1    2    0    0  0.57546540418E+01 -0.17420974522E+02  0.26078987479E+02  0.31886046860E+02  0.00000000000E+00 0.  1.
         11    1    3    3    0    0  0.33008941424E+01  0.17314710138E+02  0.58070901038E+01  0.18558485527E+02  0.51100000000E-03 0. -1.
        -11    1    3    3    0    0  0.17864798824E+01 -0.50212892615E+01  0.12751592888E+01  0.54800444972E+01  0.51100000000E-03 0.  1.
        -12    1    3    3    0    0 -0.10842028067E+02  0.51275536448E+01 -0.33161236872E+02  0.35263423116E+02  0.00000000000E+00 0.  1.
</event>
<event>
 7    1  0.3750159E-013  0.5930180E+02  0.7816164E-02  0.1266605E+00
        -11   -1    0    0    0    0  0.00000000000E+00  0.00000000000E+00  0.45593999997E+02  0.45594000000E+02  0.51100000000E-03 0.  1.
         11   -1    0    0    0    0 -0.00000000000E+00 -0.00000000000E+00 -0.45593999997E+02  0.45594000000E+02  0.51100000000E-03 0. -1.
    9900012    2    1    2    0    0 -0.65713292017E+01  0.21631991924E+02 -0.22485650338E+02  0.59301797448E+02  0.49999732673E+02 0.  0.
        -12    1    1    2    0    0  0.65713292017E+01 -0.21631991924E+02  0.22485650338E+02  0.31886202552E+02  0.00000000000E+00 0.  1.
         11    1    3    3    0    0  0.19189493574E+01 -0.23182801762E+01  0.27522846719E+01  0.40782178446E+01  0.51100000000E-03 0. -1.
        -11    1    3    3    0    0 -0.38254209477E+00  0.30568244354E+02 -0.30887919703E+01  0.30726284147E+02  0.51100000000E-03 0.  1.
         12    1    3    3    0    0 -0.81077364643E+01 -0.66179722541E+01 -0.22149143039E+02  0.24497295457E+02  0.00000000000E+00 0. -1.
</event>
<event>
 7    1  0.3750159E-013  0.5930194E+02  0.7816164E-02  0.1266605E+00
        -11   -1    0    0    0    0  0.00000000000E+00  0.00000000000E+00  0.45593999997E+02  0.45594000000E+02  0.51100000000E-03 0. -1.
         11   -1    0    0    0    0 -0.00000000000E+00 -0.00000000000E+00 -0.45593999997E+02  0.45594000000E+02  0.51100000000E-03 0.  1.
    9900012    2    1    2    0    0  0.20311856115E+02  0.87110121985E+01  0.22984076336E+02  0.59301937255E+02  0.49999987648E+02 0.  0.
        -12    1    1    2    0    0 -0.20311856115E+02 -0.87110121985E+01 -0.22984076336E+02  0.31886062745E+02  0.00000000000E+00 0.  1.
         11    1    3    3    0    0  0.14833084140E+02  0.83892233813E+01  0.31194041158E+01  0.17324264381E+02  0.51100000000E-03 0. -1.
        -11    1    3    3    0    0  0.16866346987E+02  0.69901664033E+01  0.22022113394E+02  0.28606110635E+02  0.51100000000E-03 0.  1.
        -12    1    3    3    0    0 -0.11387575012E+02 -0.66683775861E+01 -0.21574411737E+01  0.13371562239E+02  0.00000000000E+00 0.  1.
</event>
<event>
 7    1  0.3750159E-013  0.5930198E+02  0.7816164E-02  0.1266605E+00
        -11   -1    0    0    0    0  0.00000000000E+00  0.00000000000E+00  0.45593999997E+02  0.45594000000E+02  0.51100000000E-03 0.  1.
         11   -1    0    0    0    0 -0.00000000000E+00 -0.00000000000E+00 -0.45593999997E+02  0.45594000000E+02  0.51100000000E-03 0. -1.
    9900012    2    1    2    0    0  0.15430596189E+02  0.22987349893E+02 -0.15817614621E+02  0.59301976633E+02  0.50000059464E+02 0.  0.
        -12    1    1    2    0    0 -0.15430596189E+02 -0.22987349893E+02  0.15817614621E+02  0.31886023367E+02  0.00000000000E+00 0.  1.
         11    1    3    3    0    0  0.16687264775E+02 -0.39580086313E+01 -0.13302487235E+02  0.21704534201E+02  0.51100000000E-03 0. -1.
        -11    1    3    3    0    0  0.11784761577E+02  0.12675003834E+02 -0.52201241659E+01  0.18077223907E+02  0.51100000000E-03 0.  1.
         12    1    3    3    0    0 -0.13041430163E+02  0.14270354690E+02  0.27049967798E+01  0.19520218525E+02  0.00000000000E+00 0. -1.
</event>
<event>
 7    1  0.3750159E-013  0.5930191E+02  0.7816164E-02  0.1266605E+00
        -11   -1    0    0    0    0  0.00000000000E+00  0.00000000000E+00  0.45593999997E+02  0.45594000000E+02  0.51100000000E-03 0. -1.
         11   -1    0    0    0    0 -0.00000000000E+00 -0.00000000000E+00 -0.45593999997E+02  0.45594000000E+02  0.51100000000E-03 0.  1.
    9900012    2    1    2    0    0 -0.17907883569E+02 -0.15885695107E+02  0.21063592382E+02  0.59301913270E+02  0.49999943905E+02 0.  0.
        -12    1    1    2    0    0  0.17907883569E+02  0.15885695107E+02 -0.21063592382E+02  0.31886086730E+02  0.00000000000E+00 0.  1.
         11    1    3    3    0    0 -0.19376234417E+02  0.54621004504E+01 -0.92396606415E+00  0.20152585815E+02  0.51100000000E-03 0. -1.
        -11    1    3    3    0    0  0.10915974876E+02 -0.44343593838E+01  0.33088804494E+01  0.12238085664E+02  0.51100000000E-03 0.  1.
        -12    1    3    3    0    0 -0.94476240277E+01 -0.16913436174E+02  0.18678677997E+02  0.26911241790E+02  0.00000000000E+00 0.  1.
</event>
<event>
 7    1  0.3750159E-013  0.5930193E+02  0.7816164E-02  0.1266605E+00
        -11   -1    0    0    0    0  0.00000000000E+00  0.00000000000E+00  0.45593999997E+02  0.45594000000E+02  0.51100000000E-03 0.  1.
         11   -1    0    0    0    0 -0.00000000000E+00 -0.00000000000E+00 -0.45593999997E+02  0.45594000000E+02  0.51100000000E-03 0. -1.
    9900012    2    1    2    0    0  0.22773066822E+02 -0.13053800517E+02 -0.18102678522E+02  0.59301933292E+02  0.49999980420E+02 0.  0.
        -12    1    1    2    0    0 -0.22773066822E+02  0.13053800517E+02  0.18102678522E+02  0.31886066708E+02  0.00000000000E+00 0.  1.
         11    1    3    3    0    0 -0.55349938131E+01 -0.93781872337E-01 -0.14719029185E+02  0.15725608794E+02  0.51100000000E-03 0. -1.
        -11    1    3    3    0    0 -0.56945032304E+01  0.20862680868E+01 -0.19327361430E+01  0.63651669915E+01  0.51100000000E-03 0.  1.
         12    1    3    3    0    0  0.34002563866E+02 -0.15046286731E+02 -0.14509131948E+01  0.37211157506E+02  0.00000000000E+00 0. -1.
</event>
<event>
 7    1  0.3750159E-013  0.5930191E+02  0.7816164E-02  0.1266605E+00
        -11   -1    0    0    0    0  0.00000000000E+00  0.00000000000E+00  0.45593999997E+02  0.45594000000E+02  0.51100000000E-03 0. -1.
         11   -1    0    0    0    0 -0.00000000000E+00 -0.00000000000E+00 -0.45593999997E+02  0.45594000000E+02  0.51100000000E-03 0.  1.
    9900012    2    1    2    0    0  0.19740367381E+02 -0.22731321975E+02  0.10503696010E+02  0.59301910040E+02  0.49999938015E+02 0.  0.
        -12    1    1    2    0    0 -0.19740367381E+02  0.22731321975E+02 -0.10503696010E+02  0.31886089960E+02  0.00000000000E+00 0.  1.
         11    1    3    3    0    0  0.55335051438E+01 -0.18962709518E+01  0.16688033658E+02  0.17683494856E+02  0.51100000000E-03 0. -1.
        -11    1    3    3    0    0  0.15476871802E+02 -0.55037568190E+01  0.10046829315E+02  0.19255224731E+02  0.51100000000E-03 0.  1.
        -12    1    3    3    0    0 -0.12700095651E+01 -0.15331294204E+02 -0.16231166963E+02  0.22363190453E+02  0.00000000000E+00 0.  1.
</event>
<event>
 7    1  0.3750159E-013  0.5930192E+02  0.7816164E-02  0.1266605E+00
        -11   -1    0    0    0    0  0.00000000000E+00  0.00000000000E+00  0.45593999997E+02  0.45594000000E+02  0.51100000000E-03 0.  1.
         11   -1    0    0    0    0 -0.00000000000E+00 -0.00000000000E+00 -0.45593999997E+02  0.45594000000E+02  0.51100000000E-03 0. -1.
    9900012    2    1    2    0    0 -0.20867391098E+02 -0.17152357915E+02 -0.16943156758E+02  0.59301922251E+02  0.49999960284E+02 0.  0.
        -12    1    1    2    0    0  0.20867391098E+02  0.17152357915E+02  0.16943156758E+02  0.31886077749E+02  0.00000000000E+00 0.  1.
         11    1    3    3    0    0 -0.17140123859E+02 -0.77016628883E+01 -0.21486446528E+02  0.28544120968E+02  0.51100000000E-03 0. -1.
        -11    1    3    3    0    0 -0.43549162055E+01 -0.17692049817E+02 -0.42296568273E+01  0.18704649663E+02  0.51100000000E-03 0.  1.
        -12    1    3    3    0    0  0.62764896742E+00  0.82413547897E+01  0.87729465965E+01  0.12053151620E+02  0.00000000000E+00 0.  1.
</event>
<event>
 7    1  0.3750159E-013  0.5930196E+02  0.7816164E-02  0.1266605E+00
        -11   -1    0    0    0    0  0.00000000000E+00  0.00000000000E+00  0.45593999997E+02  0.45594000000E+02  0.51100000000E-03 0.  1.
         11   -1    0    0    0    0 -0.00000000000E+00 -0.00000000000E+00 -0.45593999997E+02  0.45594000000E+02  0.51100000000E-03 0. -1.
    9900012    2    1    2    0    0 -0.19054166813E+02  0.14184230447E+01 -0.25527370550E+02  0.59301955340E+02  0.50000020630E+02 0.  0.
        -12    1    1    2    0    0  0.19054166813E+02 -0.14184230447E+01  0.25527370550E+02  0.31886044660E+02  0.00000000000E+00 0.  1.
         11    1    3    3    0    0 -0.10022478908E+02 -0.11209715685E+02 -0.48293508637E+01  0.15793366938E+02  0.51100000000E-03 0. -1.
        -11    1    3    3    0    0 -0.14803571147E+02  0.15001062301E+01  0.43470543110E+01  0.15501384418E+02  0.51100000000E-03 0.  1.
        -12    1    3    3    0    0  0.57718832429E+01  0.11128032499E+02 -0.25045073998E+02  0.28007203984E+02  0.00000000000E+00 0.  1.
</event>
<event>
 7    1  0.4685044E-013  0.5930204E+02  0.7816164E-02  0.1266604E+00
        -11   -1    0    0    0    0  0.00000000000E+00  0.00000000000E+00  0.45593999997E+02  0.45594000000E+02  0.51100000000E-03 0. -1.
         11   -1    0    0    0    0 -0.00000000000E+00 -0.00000000000E+00 -0.45593999997E+02  0.45594000000E+02  0.51100000000E-03 0.  1.
    9900012    2    1    2    0    0  0.36703521281E+01  0.31659981101E+02  0.94271189698E+00  0.59302037669E+02  0.50000170780E+02 0.  0.
        -12    1    1    2    0    0 -0.36703521281E+01 -0.31659981101E+02 -0.94271189698E+00  0.31885962331E+02  0.00000000000E+00 0.  1.
         11    1    3    3    0    0  0.63937493583E+01  0.18021743997E+02  0.14371532928E+02  0.23920791093E+02  0.51100000000E-03 0. -1.
        -11    1    3    3    0    0 -0.74084610328E+01  0.57104584115E+00  0.73112233448E+01  0.10424268573E+02  0.51100000000E-03 0.  1.
         12    1    3    3    0    0  0.46850638027E+01  0.13067191262E+02 -0.20740044376E+02  0.24956978003E+02  0.00000000000E+00 0. -1.
</event>
<event>
 7    1  0.3750159E-013  0.5930193E+02  0.7816164E-02  0.1266605E+00
        -11   -1    0    0    0    0  0.00000000000E+00  0.00000000000E+00  0.45593999997E+02  0.45594000000E+02  0.51100000000E-03 0. -1.
         11   -1    0    0    0    0 -0.00000000000E+00 -0.00000000000E+00 -0.45593999997E+02  0.45594000000E+02  0.51100000000E-03 0.  1.
    9900012    2    1    2    0    0  0.23334860297E+02 -0.18764316515E+02  0.10959290509E+02  0.59301932074E+02  0.49999978199E+02 0.  0.
        -12    1    1    2    0    0 -0.23334860297E+02  0.18764316515E+02 -0.10959290509E+02  0.31886067926E+02  0.00000000000E+00 0.  1.
         11    1    3    3    0    0  0.84734268817E+01 -0.64420671666E+01  0.92968494359E+01  0.14132607763E+02  0.51100000000E-03 0. -1.
        -11    1    3    3    0    0  0.20877234533E+02 -0.20599053783E+02  0.10993427742E+02  0.31321484516E+02  0.51100000000E-03 0.  1.
        -12    1    3    3    0    0 -0.60158011181E+01  0.82768044347E+01 -0.93309866694E+01  0.13847839794E+02  0.00000000000E+00 0.  1.
</event>
<event>
 7    1  0.3750159E-013  0.5930193E+02  0.7816164E-02  0.1266605E+00
        -11   -1    0    0    0    0  0.00000000000E+00  0.00000000000E+00  0.45593999997E+02  0.45594000000E+02  0.51100000000E-03 0. -1.
         11   -1    0    0    0    0 -0.00000000000E+00 -0.00000000000E+00 -0.45593999997E+02  0.45594000000E+02  0.51100000000E-03 0.  1.
    9900012    2    1    2    0    0  0.13544710496E+02 -0.27663774863E+02 -0.82448769485E+01  0.59301927523E+02  0.49999969900E+02 0.  0.
        -12    1    1    2    0    0 -0.13544710496E+02  0.27663774863E+02  0.82448769485E+01  0.31886072477E+02  0.00000000000E+00 0.  1.
         11    1    3    3    0    0  0.15628725729E+02 -0.27364797697E+02  0.65901001778E+01  0.32195009575E+02  0.51100000000E-03 0. -1.
        -11    1    3    3    0    0 -0.98726878793E+01 -0.75259467067E+00  0.48663797972E+00  0.99132830831E+01  0.51100000000E-03 0.  1.
        -12    1    3    3    0    0  0.77886726458E+01  0.45361750460E+00 -0.15321615106E+02  0.17193634865E+02  0.00000000000E+00 0.  1.
</event>
<event>
 7    1  0.3750159E-013  0.5930194E+02  0.7816164E-02  0.1266605E+00
        -11   -1    0    0    0    0  0.00000000000E+00  0.00000000000E+00  0.45593999997E+02  0.45594000000E+02  0.51100000000E-03 0. -1.
         11   -1    0    0    0    0 -0.00000000000E+00 -0.00000000000E+00 -0.45593999997E+02  0.45594000000E+02  0.51100000000E-03 0.  1.
    9900012    2    1    2    0    0  0.18226146647E+02  0.25952873600E+02  0.33131588698E+01  0.59301935781E+02  0.49999984961E+02 0.  0.
        -12    1    1    2    0    0 -0.18226146647E+02 -0.25952873600E+02 -0.33131588698E+01  0.31886064219E+02  0.00000000000E+00 0.  1.
         11    1    3    3    0    0  0.35500694111E+01  0.30021576914E+01  0.19904768779E+02  0.20440542166E+02  0.51100000000E-03 0. -1.
        -11    1    3    3    0    0  0.82503448259E+01  0.10423936948E+02  0.40308207936E+01  0.13891514236E+02  0.51100000000E-03 0.  1.
        -12    1    3    3    0    0  0.64257324095E+01  0.12526778960E+02 -0.20622430703E+02  0.24969879379E+02  0.00000000000E+00 0.  1.
</event>
<event>
 7    1  0.3750159E-013  0.5930194E+02  0.7816164E-02  0.1266605E+00
        -11   -1    0    0    0    0  0.00000000000E+00  0.00000000000E+00  0.45593999997E+02  0.45594000000E+02  0.51100000000E-03 0. -1.
         11   -1    0    0    0    0 -0.00000000000E+00 -0.00000000000E+00 -0.45593999997E+02  0.45594000000E+02  0.51100000000E-03 0.  1.
    9900012    2    1    2    0    0 -0.10210781000E+02 -0.27922256726E+02  0.11524260569E+02  0.59301936415E+02  0.49999986116E+02 0.  0.
        -12    1    1    2    0    0  0.10210781000E+02  0.27922256726E+02 -0.11524260569E+02  0.31886063585E+02  0.00000000000E+00 0.  1.
         11    1    3    3    0    0 -0.72895499481E+00 -0.18798117534E+02  0.11566709107E+02  0.22083689865E+02  0.51100000000E-03 0. -1.
        -11    1    3    3    0    0  0.52125267794E+00 -0.11683835676E+02 -0.15013848326E+02  0.19031535994E+02  0.51100000000E-03 0.  1.
         12    1    3    3    0    0 -0.10003078684E+02  0.25596964840E+01  0.14971399788E+02  0.18186710556E+02  0.00000000000E+00 0. -1.
</event>
<event>
 7    1  0.3750159E-013  0.5930198E+02  0.7816164E-02  0.1266605E+00
        -11   -1    0    0    0    0  0.00000000000E+00  0.00000000000E+00  0.45593999997E+02  0.45594000000E+02  0.51100000000E-03 0. -1.
         11   -1    0    0    0    0 -0.00000000000E+00 -0.00000000000E+00 -0.45593999997E+02  0.45594000000E+02  0.51100000000E-03 0.  1.
    9900012    2    1    2    0    0  0.43838456209E+01  0.20987927069E+02  0.23601000281E+02  0.59301977995E+02  0.50000061948E+02 0.  0.
        -12    1    1    2    0    0 -0.43838456209E+01 -0.20987927069E+02 -0.23601000281E+02  0.31886022005E+02  0.00000000000E+00 0.  1.
         11    1    3    3    0    0  0.11148124246E+01  0.15413271741E+01  0.12171697757E+01  0.22583176755E+01  0.51100000000E-03 0. -1.
        -11    1    3    3    0    0 -0.11866560134E+02  0.18907306010E+02 -0.74935565964E+01  0.23546865199E+02  0.51100000000E-03 0.  1.
         12    1    3    3    0    0  0.15135593330E+02  0.53929388458E+00  0.29877387101E+02  0.33496795121E+02  0.00000000000E+00 0. -1.
</event>
<event>
 7    1  0.4832035E-013  0.5930194E+02  0.7816164E-02  0.1266605E+00
        -11   -1    0    0    0    0  0.00000000000E+00  0.00000000000E+00  0.45593999997E+02  0.45594000000E+02  0.51100000000E-03 0. -1.
         11   -1    0    0    0    0 -0.00000000000E+00 -0.00000000000E+00 -0.45593999997E+02  0.45594000000E+02  0.51100000000E-03 0.  1.
    9900012    2    1    2    0    0 -0.34226811771E+01 -0.21584660479E+02  0.23218705496E+02  0.59301943496E+02  0.49999999031E+02 0.  0.
        -12    1    1    2    0    0  0.34226811771E+01  0.21584660479E+02 -0.23218705496E+02  0.31886056504E+02  0.00000000000E+00 0.  1.
         11    1    3    3    0    0 -0.88042866076E+01 -0.40366657251E+00  0.15990125838E+02  0.18258218258E+02  0.51100000000E-03 0. -1.
        -11    1    3    3    0    0  0.67286055148E+00 -0.18201577838E+02 -0.11475287125E+02  0.21527479926E+02  0.51100000000E-03 0.  1.
         12    1    3    3    0    0  0.47087448790E+01 -0.29794160685E+01  0.18703866783E+02  0.19516245312E+02  0.00000000000E+00 0. -1.
</event>
<event>
 7    1  0.3750159E-013  0.5930194E+02  0.7816164E-02  0.1266605E+00
        -11   -1    0    0    0    0  0.00000000000E+00  0.00000000000E+00  0.45593999997E+02  0.45594000000E+02  0.51100000000E-03 0.  1.
         11   -1    0    0    0    0 -0.00000000000E+00 -0.00000000000E+00 -0.45593999997E+02  0.45594000000E+02  0.51100000000E-03 0. -1.
    9900012    2    1    2    0    0  0.23018027544E+02 -0.14114164718E+02 -0.16961182708E+02  0.59301937895E+02  0.49999988816E+02 0.  0.
        -12    1    1    2    0    0 -0.23018027544E+02  0.14114164718E+02  0.16961182708E+02  0.31886062105E+02  0.00000000000E+00 0.  1.
         11    1    3    3    0    0  0.14268200749E+02 -0.99360100110E+01 -0.39250450656E+01  0.17824472687E+02  0.51100000000E-03 0. -1.
        -11    1    3    3    0    0  0.10225306410E+02  0.15271572222E+02 -0.68749949765E+00  0.18391586803E+02  0.51100000000E-03 0.  1.
        -12    1    3    3    0    0 -0.14754796155E+01 -0.19449726929E+02 -0.12348638145E+02  0.23085878405E+02  0.00000000000E+00 0.  1.
</event>
<event>
 7    1  0.3750159E-013  0.5930196E+02  0.7816164E-02  0.1266605E+00
        -11   -1    0    0    0    0  0.00000000000E+00  0.00000000000E+00  0.45593999997E+02  0.45594000000E+02  0.51100000000E-03 0.  1.
         11   -1    0    0    0    0 -0.00000000000E+00 -0.00000000000E+00 -0.45593999997E+02  0.45594000000E+02  0.51100000000E-03 0. -1.
    9900012    2    1    2    0    0  0.92826502644E+01  0.30449080505E+02 -0.18453079063E+01  0.59301964486E+02  0.50000037312E+02 0.  0.
        -12    1    1    2    0    0 -0.92826502644E+01 -0.30449080505E+02  0.18453079063E+01  0.31886035514E+02  0.00000000000E+00 0.  1.
         11    1    3    3    0    0  0.84338031738E+01  0.27735644472E+01  0.41815520798E+01  0.98136167530E+01  0.51100000000E-03 0. -1.
        -11    1    3    3    0    0 -0.75581603732E+01  0.71473051104E+00  0.13267126632E+02  0.15285721352E+02  0.51100000000E-03 0.  1.
         12    1    3    3    0    0  0.84070074637E+01  0.26960785546E+02 -0.19293986618E+02  0.34202626381E+02  0.00000000000E+00 0. -1.
</event>
<event>
 7    1  0.3750159E-013  0.5930192E+02  0.7816164E-02  0.1266605E+00
        -11   -1    0    0    0    0  0.00000000000E+00  0.00000000000E+00  0.45593999997E+02  0.45594000000E+02  0.51100000000E-03 0.  1.
         11   -1    0    0    0    0 -0.00000000000E+00 -0.00000000000E+00 -0.45593999997E+02  0.45594000000E+02  0.51100000000E-03 0. -1.
    9900012    2    1    2    0    0  0.24035806341E+02 -0.10728068228E+02 -0.17997512147E+02  0.59301923449E+02  0.49999962469E+02 0.  0.
        -12    1    1    2    0    0 -0.24035806341E+02  0.10728068228E+02  0.17997512147E+02  0.31886076551E+02  0.00000000000E+00 0.  1.
         11    1    3    3    0    0  0.10263065879E+02  0.17319963271E+01 -0.77783554880E+01  0.12993580987E+02  0.51100000000E-03 0. -1.
        -11    1    3    3    0    0  0.10295908635E+02 -0.10121328442E+01 -0.25138607674E+02  0.27184181863E+02  0.51100000000E-03 0.  1.
        -12    1    3    3    0    0  0.34768318267E+01 -0.11447931711E+02  0.14919451015E+02  0.19124160599E+02  0.00000000000E+00 0.  1.
</event>
<event>
 7    1  0.3750159E-013  0.5930196E+02  0.7816164E-02  0.1266605E+00
        -11   -1    0    0    0    0  0.00000000000E+00  0.00000000000E+00  0.45593999997E+02  0.45594000000E+02  0.51100000000E-03 0.  1.
         11   -1    0    0    0    0 -0.00000000000E+00 -0.00000000000E+00 -0.45593999997E+02  0.45594000000E+02  0.51100000000E-03 0. -1.
    9900012    2    1    2    0    0 -0.22475622823E+02  0.11078341894E+02 -0.19718939133E+02  0.59301955389E+02  0.50000020721E+02 0.  0.
        -12    1    1    2    0    0  0.22475622823E+02 -0.11078341894E+02  0.19718939133E+02  0.31886044611E+02  0.00000000000E+00 0.  1.
         11    1    3    3    0    0 -0.24172270841E+02 -0.75466389251E+01  0.43140027703E+00  0.25326597544E+02  0.51100000000E-03 0. -1.
        -11    1    3    3    0    0 -0.75947081090E+01  0.89516545139E+01 -0.28422497658E+01  0.12078497166E+02  0.51100000000E-03 0.  1.
         12    1    3    3    0    0  0.92913561275E+01  0.96733263047E+01 -0.17308089644E+02  0.21896860680E+02  0.00000000000E+00 0. -1.
</event>
<event>
 7    1  0.3750159E-013  0.5930195E+02  0.7816164E-02  0.1266605E+00
        -11   -1    0    0    0    0  0.00000000000E+00  0.00000000000E+00  0.45593999997E+02  0.45594000000E+02  0.51100000000E-03 0. -1.
         11   -1    0    0    0    0 -0.00000000000E+00 -0.00000000000E+00 -0.45593999997E+02  0.45594000000E+02  0.51100000000E-03 0.  1.
    9900012    2    1    2    0    0  0.22535736186E+02 -0.19358933190E+02  0.11579825398E+02  0.59301952017E+02  0.50000014571E+02 0.  0.
        -12    1    1    2    0    0 -0.22535736186E+02  0.19358933190E+02 -0.11579825398E+02  0.31886047983E+02  0.00000000000E+00 0.  1.
         11    1    3    3    0    0  0.29937764268E+02  0.12453545248E+01  0.31392922535E+01  0.30127658279E+02  0.51100000000E-03 0. -1.
        -11    1    3    3    0    0 -0.16057152635E+01  0.13586169537E+01 -0.30606040276E+01  0.37136853406E+01  0.51100000000E-03 0.  1.
         12    1    3    3    0    0 -0.57963128180E+01 -0.21962904668E+02  0.11501137172E+02  0.25460608398E+02  0.00000000000E+00 0. -1.
</event>
<event>
 7    1  0.3750159E-013  0.5930189E+02  0.7816164E-02  0.1266605E+00
        -11   -1    0    0    0    0  0.00000000000E+00  0.00000000000E+00  0.45593999997E+02  0.45594000000E+02  0.51100000000E-03 0. -1.
         11   -1    0    0    0    0 -0.00000000000E+00 -0.00000000000E+00 -0.45593999997E+02  0.45594000000E+02  0.51100000000E-03 0.  1.
    9900012    2    1    2    0    0 -0.11468470795E+01 -0.47068986493E+01  0.31515926724E+02  0.59301893458E+02  0.49999907773E+02 0.  0.
        -12    1    1    2    0    0  0.11468470795E+01  0.47068986493E+01 -0.31515926724E+02  0.31886106542E+02  0.00000000000E+00 0.  1.
         11    1    3    3    0    0  0.91126655861E+01  0.11939341612E+01  0.31386259192E+01  0.97117004580E+01  0.51100000000E-03 0. -1.
        -11    1    3    3    0    0 -0.39861375983E+01 -0.58473277455E+01 -0.91358120825E+01  0.11556106498E+02  0.51100000000E-03 0.  1.
         12    1    3    3    0    0 -0.62733750673E+01 -0.53505065002E-01  0.37513112888E+02  0.38034086502E+02  0.00000000000E+00 0. -1.
</event>
<event>
 7    1  0.3750159E-013  0.5930200E+02  0.7816164E-02  0.1266605E+00
        -11   -1    0    0    0    0  0.00000000000E+00  0.00000000000E+00  0.45593999997E+02  0.45594000000E+02  0.51100000000E-03 0.  1.
         11   -1    0    0    0    0 -0.00000000000E+00 -0.00000000000E+00 -0.45593999997E+02  0.45594000000E+02  0.51100000000E-03 0. -1.
    9900012    2    1    2    0    0 -0.89781793585E+01 -0.13510433299E+02 -0.27451361627E+02  0.59302003580E+02  0.50000108609E+02 0.  0.
        -12    1    1    2    0    0  0.89781793585E+01  0.13510433299E+02  0.27451361627E+02  0.31885996420E+02  0.00000000000E+00 0.  1.
         11    1    3    3    0    0 -0.19065713920E+02  0.56365990545E+01 -0.91293908458E+01  0.21877350700E+02  0.51100000000E-03 0. -1.
        -11    1    3    3    0    0  0.21998410114E+01 -0.16325355940E+02  0.85779698866E+00  0.16495222428E+02  0.51100000000E-03 0.  1.
         12    1    3    3    0    0  0.78876935497E+01 -0.28216764140E+01 -0.19179767770E+02  0.20929430452E+02  0.00000000000E+00 0. -1.
</event>
<event>
 7    1  0.3750159E-013  0.5930191E+02  0.7816164E-02  0.1266605E+00
        -11   -1    0    0    0    0  0.00000000000E+00  0.00000000000E+00  0.45593999997E+02  0.45594000000E+02  0.51100000000E-03 0.  1.
         11   -1    0    0    0    0 -0.00000000000E+00 -0.00000000000E+00 -0.45593999997E+02  0.45594000000E+02  0.51100000000E-03 0. -1.
    9900012    2    1    2    0    0  0.17939739048E+02 -0.13580647679E+02  0.22593236343E+02  0.59301912800E+02  0.49999943048E+02 0.  0.
        -12    1    1    2    0    0 -0.17939739048E+02  0.13580647679E+02 -0.22593236343E+02  0.31886087200E+02  0.00000000000E+00 0.  1.
         11    1    3    3    0    0  0.94266998013E+01 -0.10364907810E+02 -0.24221658614E+01  0.14218328691E+02  0.51100000000E-03 0. -1.
        -11    1    3    3    0    0  0.65973059047E+01 -0.19701638356E+02  0.12011381509E+02  0.23999005920E+02  0.51100000000E-03 0.  1.
        -12    1    3    3    0    0  0.19157333419E+01  0.16485898487E+02  0.13004020696E+02  0.21084578189E+02  0.00000000000E+00 0.  1.
</event>
<event>
 7    1  0.3750159E-013  0.5930196E+02  0.7816164E-02  0.1266605E+00
        -11   -1    0    0    0    0  0.00000000000E+00  0.00000000000E+00  0.45593999997E+02  0.45594000000E+02  0.51100000000E-03 0.  1.
         11   -1    0    0    0    0 -0.00000000000E+00 -0.00000000000E+00 -0.45593999997E+02  0.45594000000E+02  0.51100000000E-03 0. -1.
    9900012    2    1    2    0    0  0.10343002792E+02 -0.45676120050E+01 -0.29814072775E+02  0.59301957260E+02  0.50000024133E+02 0.  0.
        -12    1    1    2    0    0 -0.10343002792E+02  0.45676120050E+01  0.29814072775E+02  0.31886042740E+02  0.00000000000E+00 0.  1.
         11    1    3    3    0    0 -0.90105585291E+01  0.13858132938E+01 -0.11378875979E+02  0.14580447946E+02  0.51100000000E-03 0. -1.
        -11    1    3    3    0    0 -0.39351163416E+01 -0.15369115466E+01 -0.20497391059E+02  0.20928217273E+02  0.51100000000E-03 0.  1.
         12    1    3    3    0    0  0.23288677663E+02 -0.44165137521E+01  0.20621942631E+01  0.23793292042E+02  0.00000000000E+00 0. -1.
</event>
<event>
 7    1  0.3750159E-013  0.5930197E+02  0.7816164E-02  0.1266605E+00
        -11   -1    0    0    0    0  0.00000000000E+00  0.00000000000E+00  0.45593999997E+02  0.45594000000E+02  0.51100000000E-03 0. -1.
         11   -1    0    0    0    0 -0.00000000000E+00 -0.00000000000E+00 -0.45593999997E+02  0.45594000000E+02  0.51100000000E-03 0.  1.
    9900012    2    1    2    0    0 -0.28958164985E+02  0.68174526000E+01  0.11474567738E+02  0.59301973530E+02  0.50000053806E+02 0.  0.
        -12    1    1    2    0    0  0.28958164985E+02 -0.68174526000E+01 -0.11474567738E+02  0.31886026470E+02  0.00000000000E+00 0.  1.
         11    1    3    3    0    0 -0.11376179795E+02  0.29506071497E+01  0.26565430547E+02  0.29049021493E+02  0.51100000000E-03 0. -1.
        -11    1    3    3    0    0 -0.15240659839E+02  0.18001885755E+01 -0.52449188459E+00  0.15355568477E+02  0.51100000000E-03 0.  1.
        -12    1    3    3    0    0 -0.23413253508E+01  0.20666568748E+01 -0.14566370925E+02  0.14897383561E+02  0.00000000000E+00 0.  1.
</event>
<event>
 7    1  0.3750159E-013  0.5930194E+02  0.7816164E-02  0.1266605E+00
        -11   -1    0    0    0    0  0.00000000000E+00  0.00000000000E+00  0.45593999997E+02  0.45594000000E+02  0.51100000000E-03 0.  1.
         11   -1    0    0    0    0 -0.00000000000E+00 -0.00000000000E+00 -0.45593999997E+02  0.45594000000E+02  0.51100000000E-03 0. -1.
    9900012    2    1    2    0    0 -0.26906006730E+02  0.13364416624E+02 -0.10685508368E+02  0.59301938485E+02  0.49999989892E+02 0.  0.
        -12    1    1    2    0    0  0.26906006730E+02 -0.13364416624E+02  0.10685508368E+02  0.31886061515E+02  0.00000000000E+00 0.  1.
         11    1    3    3    0    0 -0.56998668888E+01 -0.75162362116E+01 -0.76860517967E+01  0.12167895538E+02  0.51100000000E-03 0. -1.
        -11    1    3    3    0    0  0.25688186026E+01 -0.40624059663E+01 -0.10784272295E+02  0.11806883604E+02  0.51100000000E-03 0.  1.
        -12    1    3    3    0    0 -0.23774958443E+02  0.24943058802E+02  0.77848157239E+01  0.35327159343E+02  0.00000000000E+00 0.  1.
</event>
<event>
 7    1  0.3750159E-013  0.5930196E+02  0.7816164E-02  0.1266605E+00
        -11   -1    0    0    0    0  0.00000000000E+00  0.00000000000E+00  0.45593999997E+02  0.45594000000E+02  0.51100000000E-03 0.  1.
         11   -1    0    0    0    0 -0.00000000000E+00 -0.00000000000E+00 -0.45593999997E+02  0.45594000000E+02  0.51100000000E-03 0. -1.
    9900012    2    1    2    0    0 -0.10720037832E+02  0.80642802273E+00 -0.30019163395E+02  0.59301957471E+02  0.50000024517E+02 0.  0.
        -12    1    1    2    0    0  0.10720037832E+02 -0.80642802273E+00  0.30019163395E+02  0.31886042529E+02  0.00000000000E+00 0.  1.
         11    1    3    3    0    0  0.10229820063E+02  0.11622898961E+02 -0.18790623998E+02  0.24348070751E+02  0.51100000000E-03 0. -1.
        -11    1    3    3    0    0 -0.63194127242E+01 -0.14608478528E+02  0.34059946500E+00  0.15920384114E+02  0.51100000000E-03 0.  1.
        -12    1    3    3    0    0 -0.14630445171E+02  0.37920075897E+01 -0.11569138862E+02  0.19033502606E+02  0.00000000000E+00 0.  1.
</event>
<event>
 7    1  0.3750159E-013  0.5930190E+02  0.7816164E-02  0.1266605E+00
        -11   -1    0    0    0    0  0.00000000000E+00  0.00000000000E+00  0.45593999997E+02  0.45594000000E+02  0.51100000000E-03 0.  1.
         11   -1    0    0    0    0 -0.00000000000E+00 -0.00000000000E+00 -0.45593999997E+02  0.45594000000E+02  0.51100000000E-03 0. -1.
    9900012    2    1    2    0    0 -0.10104519339E+02  0.29591088961E+02 -0.62441443693E+01  0.59301902781E+02  0.49999924776E+02 0.  0.
        -12    1    1    2    0    0  0.10104519339E+02 -0.29591088961E+02  0.62441443693E+01  0.31886097219E+02  0.00000000000E+00 0.  1.
         11    1    3    3    0    0  0.16330510275E+01  0.45152544763E+01  0.57994823945E+00  0.48363952347E+01  0.51100000000E-03 0. -1.
        -11    1    3    3    0    0  0.49461207196E+00  0.30747334487E+02 -0.19125812677E+02  0.36213808554E+02  0.51100000000E-03 0.  1.
        -12    1    3    3    0    0 -0.12232182438E+02 -0.56715000023E+01  0.12301720068E+02  0.18251698992E+02  0.00000000000E+00 0.  1.
</event>
<event>
 7    1  0.3750159E-013  0.5930208E+02  0.7816164E-02  0.1266604E+00
        -11   -1    0    0    0    0  0.00000000000E+00  0.00000000000E+00  0.45593999997E+02  0.45594000000E+02  0.51100000000E-03 0.  1.
         11   -1    0    0    0    0 -0.00000000000E+00 -0.00000000000E+00 -0.45593999997E+02  0.45594000000E+02  0.51100000000E-03 0. -1.
    9900012    2    1    2    0    0  0.28929164721E+01  0.38203037415E+01 -0.31523774772E+02  0.59302077365E+02  0.50000243174E+02 0.  0.
        -12    1    1    2    0    0 -0.28929164721E+01 -0.38203037415E+01  0.31523774772E+02  0.31885922635E+02  0.00000000000E+00 0.  1.
         11    1    3    3    0    0  0.22891879840E+01  0.11068359416E+02 -0.18720139860E+02  0.21867615289E+02  0.51100000000E-03 0. -1.
        -11    1    3    3    0    0  0.44823322412E+01  0.87853352810E+01  0.66751272094E+01  0.11909271256E+02  0.51100000000E-03 0.  1.
        -12    1    3    3    0    0 -0.38786037531E+01 -0.16033390956E+02 -0.19478762122E+02  0.25525190820E+02  0.00000000000E+00 0.  1.
</event>
<event>
 7    1  0.3750159E-013  0.5930195E+02  0.7816164E-02  0.1266605E+00
        -11   -1    0    0    0    0  0.00000000000E+00  0.00000000000E+00  0.45593999997E+02  0.45594000000E+02  0.51100000000E-03 0. -1.
         11   -1    0    0    0    0 -0.00000000000E+00 -0.00000000000E+00 -0.45593999997E+02  0.45594000000E+02  0.51100000000E-03 0.  1.
    9900012    2    1    2    0    0  0.23758138165E+02  0.69817308561E+01  0.20087971029E+02  0.59301948584E+02  0.50000008310E+02 0.  0.
        -12    1    1    2    0    0 -0.23758138165E+02 -0.69817308561E+01 -0.20087971029E+02  0.31886051416E+02  0.00000000000E+00 0.  1.
         11    1    3    3    0    0  0.30750046182E+02 -0.11120036164E+02  0.80146145320E+01  0.33666817355E+02  0.51100000000E-03 0. -1.
        -11    1    3    3    0    0  0.12363397650E+00  0.56492886616E+01 -0.15444179098E+01  0.58578984870E+01  0.51100000000E-03 0.  1.
        -12    1    3    3    0    0 -0.71155419931E+01  0.12452478359E+02  0.13617774407E+02  0.19777232742E+02  0.00000000000E+00 0.  1.
</event>
<event>
 7    1  0.3750159E-013  0.5930195E+02  0.7816164E-02  0.1266605E+00
        -11   -1    0    0    0    0  0.00000000000E+00  0.00000000000E+00  0.45593999997E+02  0.45594000000E+02  0.51100000000E-03 0.  1.
         11   -1    0    0    0    0 -0.00000000000E+00 -0.00000000000E+00 -0.45593999997E+02  0.45594000000E+02  0.51100000000E-03 0. -1.
    9900012    2    1    2    0    0  0.17761848888E+02 -0.43660535871E-01 -0.26480844569E+02  0.59301948014E+02  0.50000007270E+02 0.  0.
        -12    1    1    2    0    0 -0.17761848888E+02  0.43660535871E-01  0.26480844569E+02  0.31886051986E+02  0.00000000000E+00 0.  1.
         11    1    3    3    0    0  0.78582823202E+01  0.73698123921E+01 -0.36444816017E+01  0.11373169397E+02  0.51100000000E-03 0. -1.
        -11    1    3    3    0    0  0.95912759689E+01  0.15678722816E+02 -0.59479860820E+01  0.19318215822E+02  0.51100000000E-03 0.  1.
         12    1    3    3    0    0  0.31229059890E+00 -0.23092195743E+02 -0.16888376885E+02  0.28610562796E+02  0.00000000000E+00 0. -1.
</event>
<event>
 7    1  0.3750159E-013  0.5930196E+02  0.7816164E-02  0.1266605E+00
        -11   -1    0    0    0    0  0.00000000000E+00  0.00000000000E+00  0.45593999997E+02  0.45594000000E+02  0.51100000000E-03 0. -1.
         11   -1    0    0    0    0 -0.00000000000E+00 -0.00000000000E+00 -0.45593999997E+02  0.45594000000E+02  0.51100000000E-03 0.  1.
    9900012    2    1    2    0    0 -0.35537219846E+01 -0.18881224902E+02  0.25447792865E+02  0.59301956729E+02  0.50000023165E+02 0.  0.
        -12    1    1    2    0    0  0.35537219846E+01  0.18881224902E+02 -0.25447792865E+02  0.31886043271E+02  0.00000000000E+00 0.  1.
         11    1    3    3    0    0 -0.10872237427E+02  0.14276674873E+02  0.14011443079E+02  0.22767290781E+02  0.51100000000E-03 0. -1.
        -11    1    3    3    0    0  0.10967647428E+01 -0.78137267641E+01  0.59125182199E+01  0.98597713365E+01  0.51100000000E-03 0.  1.
        -12    1    3    3    0    0  0.62217507001E+01 -0.25344173011E+02  0.55238315657E+01  0.26674894612E+02  0.00000000000E+00 0.  1.
</event>
<event>
 7    1  0.3750159E-013  0.5930194E+02  0.7816164E-02  0.1266605E+00
        -11   -1    0    0    0    0  0.00000000000E+00  0.00000000000E+00  0.45593999997E+02  0.45594000000E+02  0.51100000000E-03 0. -1.
         11   -1    0    0    0    0 -0.00000000000E+00 -0.00000000000E+00 -0.45593999997E+02  0.45594000000E+02  0.51100000000E-03 0.  1.
    9900012    2    1    2    0    0 -0.30237842826E+01  0.11038788912E+02  0.29761088568E+02  0.59301944665E+02  0.50000001163E+02 0.  0.
        -12    1    1    2    0    0  0.30237842826E+01 -0.11038788912E+02 -0.29761088568E+02  0.31886055335E+02  0.00000000000E+00 0.  1.
         11    1    3    3    0    0 -0.63410769083E+01 -0.88800763329E+00  0.37640149597E+01  0.74273563797E+01  0.51100000000E-03 0. -1.
        -11    1    3    3    0    0 -0.35904836148E+01  0.33639686461E+01 -0.11653473201E+02  0.12649557128E+02  0.51100000000E-03 0.  1.
        -12    1    3    3    0    0  0.69077762405E+01  0.85628278990E+01  0.37650546810E+02  0.39225031157E+02  0.00000000000E+00 0.  1.
</event>
<event>
 7    1  0.3750159E-013  0.5930188E+02  0.7816164E-02  0.1266605E+00
        -11   -1    0    0    0    0  0.00000000000E+00  0.00000000000E+00  0.45593999997E+02  0.45594000000E+02  0.51100000000E-03 0. -1.
         11   -1    0    0    0    0 -0.00000000000E+00 -0.00000000000E+00 -0.45593999997E+02  0.45594000000E+02  0.51100000000E-03 0.  1.
    9900012    2    1    2    0    0  0.21031260356E+02 -0.16545709444E+02  0.17339267942E+02  0.59301880357E+02  0.49999883879E+02 0.  0.
        -12    1    1    2    0    0 -0.21031260356E+02  0.16545709444E+02 -0.17339267942E+02  0.31886119643E+02  0.00000000000E+00 0.  1.
         11    1    3    3    0    0  0.11155271979E+02  0.10588707348E+01  0.56590633543E+01  0.12553338141E+02  0.51100000000E-03 0. -1.
        -11    1    3    3    0    0  0.14409108613E+02  0.87511255563E+01 -0.15175190759E+01  0.16926531657E+02  0.51100000000E-03 0.  1.
         12    1    3    3    0    0 -0.45331202371E+01 -0.26355705735E+02  0.13197723664E+02  0.29822010559E+02  0.00000000000E+00 0. -1.
</event>
<event>
 7    1  0.3750159E-013  0.5930193E+02  0.7816164E-02  0.1266605E+00
        -11   -1    0    0    0    0  0.00000000000E+00  0.00000000000E+00  0.45593999997E+02  0.45594000000E+02  0.51100000000E-03 0. -1.
         11   -1    0    0    0    0 -0.00000000000E+00 -0.00000000000E+00 -0.45593999997E+02  0.45594000000E+02  0.51100000000E-03 0.  1.
    9900012    2    1    2    0    0 -0.15813855005E+02 -0.13413232406E+02  0.24222484551E+02  0.59301928252E+02  0.49999971229E+02 0.  0.
        -12    1    1    2    0    0  0.15813855005E+02  0.13413232406E+02 -0.24222484551E+02  0.31886071748E+02  0.00000000000E+00 0.  1.
         11    1    3    3    0    0 -0.41505695479E+01  0.12974519738E+02  0.43149701949E+01  0.14289309222E+02  0.51100000000E-03 0. -1.
        -11    1    3    3    0    0  0.23296621970E+01  0.47460720892E+01 -0.38732515319E+00  0.53011835720E+01  0.51100000000E-03 0.  1.
         12    1    3    3    0    0 -0.13992947654E+02 -0.31133824233E+02  0.20294839509E+02  0.39711435458E+02  0.00000000000E+00 0. -1.
</event>
<event>
 7    1  0.3750159E-013  0.5930199E+02  0.7816164E-02  0.1266605E+00
        -11   -1    0    0    0    0  0.00000000000E+00  0.00000000000E+00  0.45593999997E+02  0.45594000000E+02  0.51100000000E-03 0.  1.
         11   -1    0    0    0    0 -0.00000000000E+00 -0.00000000000E+00 -0.45593999997E+02  0.45594000000E+02  0.51100000000E-03 0. -1.
    9900012    2    1    2    0    0 -0.42555849635E+01 -0.31589284069E+02 -0.85150688336E+00  0.59301985270E+02  0.50000075217E+02 0.  0.
        -12    1    1    2    0    0  0.42555849635E+01  0.31589284069E+02  0.85150688336E+00  0.31886014730E+02  0.00000000000E+00 0.  1.
         11    1    3    3    0    0  0.14601441527E+01  0.31807404752E+01  0.83909912373E+01  0.90916370980E+01  0.51100000000E-03 0. -1.
        -11    1    3    3    0    0  0.79096104607E+01  0.62707287384E+00  0.53516516684E+01  0.95705451187E+01  0.51100000000E-03 0.  1.
         12    1    3    3    0    0 -0.13625339577E+02 -0.35397097418E+02 -0.14594149789E+02  0.40639803054E+02  0.00000000000E+00 0. -1.
</event>
<event>
 7    1  0.3750159E-013  0.5930195E+02  0.7816164E-02  0.1266605E+00
        -11   -1    0    0    0    0  0.00000000000E+00  0.00000000000E+00  0.45593999997E+02  0.45594000000E+02  0.51100000000E-03 0.  1.
         11   -1    0    0    0    0 -0.00000000000E+00 -0.00000000000E+00 -0.45593999997E+02  0.45594000000E+02  0.51100000000E-03 0. -1.
    9900012    2    1    2    0    0 -0.90901259422E+01 -0.30547128124E+02 -0.98106151335E+00  0.59301954338E+02  0.50000018804E+02 0.  0.
        -12    1    1    2    0    0  0.90901259422E+01  0.30547128124E+02  0.98106151335E+00  0.31886045662E+02  0.00000000000E+00 0.  1.
         11    1    3    3    0    0 -0.40784194862E+01 -0.32307887713E+02  0.31230713215E+01  0.32713707964E+02  0.51100000000E-03 0. -1.
        -11    1    3    3    0    0  0.77482595190E+01 -0.12810258366E+01  0.61203539266E+01  0.99566703880E+01  0.51100000000E-03 0.  1.
         12    1    3    3    0    0 -0.12759965975E+02  0.30417854258E+01 -0.10224486761E+02  0.16631575986E+02  0.00000000000E+00 0. -1.
</event>
<event>
 7    1  0.3750159E-013  0.5930194E+02  0.7816164E-02  0.1266605E+00
        -11   -1    0    0    0    0  0.00000000000E+00  0.00000000000E+00  0.45593999997E+02  0.45594000000E+02  0.51100000000E-03 0.  1.
         11   -1    0    0    0    0 -0.00000000000E+00 -0.00000000000E+00 -0.45593999997E+02  0.45594000000E+02  0.51100000000E-03 0. -1.
    9900012    2    1    2    0    0 -0.24311119570E+02 -0.15429388025E+02 -0.13697594052E+02  0.59301942979E+02  0.49999998087E+02 0.  0.
        -12    1    1    2    0    0  0.24311119570E+02  0.15429388025E+02  0.13697594052E+02  0.31886057021E+02  0.00000000000E+00 0.  1.
         11    1    3    3    0    0 -0.11770813004E+02 -0.94376711102E-01 -0.33200587654E+01  0.12230443009E+02  0.51100000000E-03 0. -1.
        -11    1    3    3    0    0 -0.18550796414E+01 -0.23979170606E+02  0.68745982236E+01  0.25014036948E+02  0.51100000000E-03 0.  1.
         12    1    3    3    0    0 -0.10685226924E+02  0.86441592921E+01 -0.17252133510E+02  0.22057463022E+02  0.00000000000E+00 0. -1.
</event>
<event>
 7    1  0.3750159E-013  0.5930194E+02  0.7816164E-02  0.1266605E+00
        -11   -1    0    0    0    0  0.00000000000E+00  0.00000000000E+00  0.45593999997E+02  0.45594000000E+02  0.51100000000E-03 0.  1.
         11   -1    0    0    0    0 -0.00000000000E+00 -0.00000000000E+00 -0.45593999997E+02  0.45594000000E+02  0.51100000000E-03 0. -1.
    9900012    2    1    2    0    0  0.26299001160E+02  0.91493074669E+01 -0.15536193071E+02  0.59301943733E+02  0.49999999463E+02 0.  0.
        -12    1    1    2    0    0 -0.26299001160E+02 -0.91493074669E+01  0.15536193071E+02  0.31886056267E+02  0.00000000000E+00 0.  1.
         11    1    3    3    0    0  0.68134845313E+01  0.27321814644E+00  0.95327199020E+01  0.11720536191E+02  0.51100000000E-03 0. -1.
        -11    1    3    3    0    0 -0.94502254977E+01  0.27055003616E+01 -0.19211934291E+01  0.10015861352E+02  0.51100000000E-03 0.  1.
         12    1    3    3    0    0  0.28935742126E+02  0.61705889588E+01 -0.23147719543E+02  0.37565546190E+02  0.00000000000E+00 0. -1.
</event>
<event>
 7    1  0.3750159E-013  0.5930195E+02  0.7816164E-02  0.1266605E+00
        -11   -1    0    0    0    0  0.00000000000E+00  0.00000000000E+00  0.45593999997E+02  0.45594000000E+02  0.51100000000E-03 0.  1.
         11   -1    0    0    0    0 -0.00000000000E+00 -0.00000000000E+00 -0.45593999997E+02  0.45594000000E+02  0.51100000000E-03 0. -1.
    9900012    2    1    2    0    0  0.25083149386E+02 -0.19159931824E+02  0.45225097287E+01  0.59301945605E+02  0.50000002876E+02 0.  0.
        -12    1    1    2    0    0 -0.25083149386E+02  0.19159931824E+02 -0.45225097287E+01  0.31886054395E+02  0.00000000000E+00 0.  1.
         11    1    3    3    0    0  0.47255857661E+01 -0.15393555029E+01  0.97209360397E+01  0.10917754987E+02  0.51100000000E-03 0.  1.
        -11    1    3    3    0    0  0.13409752219E+02 -0.30446973268E+02 -0.13442740194E+01  0.33296346776E+02  0.51100000000E-03 0. -1.
         12    1    3    3    0    0  0.69478114017E+01  0.12826396947E+02 -0.38541522916E+01  0.15087843842E+02  0.00000000000E+00 0. -1.
</event>
<event>
 7    1  0.3750159E-013  0.5930194E+02  0.7816164E-02  0.1266605E+00
        -11   -1    0    0    0    0  0.00000000000E+00  0.00000000000E+00  0.45593999997E+02  0.45594000000E+02  0.51100000000E-03 0. -1.
         11   -1    0    0    0    0 -0.00000000000E+00 -0.00000000000E+00 -0.45593999997E+02  0.45594000000E+02  0.51100000000E-03 0.  1.
    9900012    2    1    2    0    0  0.57582914091E+01  0.31201022623E+02  0.31716506524E+01  0.59301935637E+02  0.49999984698E+02 0.  0.
        -12    1    1    2    0    0 -0.57582914091E+01 -0.31201022623E+02 -0.31716506524E+01  0.31886064363E+02  0.00000000000E+00 0.  1.
         11    1    3    3    0    0 -0.36096844687E+01  0.27525893458E+02  0.80781998373E+01  0.28913006511E+02  0.51100000000E-03 0. -1.
        -11    1    3    3    0    0  0.34676036950E+01  0.10963939615E+01  0.11872329695E+02  0.12416866262E+02  0.51100000000E-03 0.  1.
        -12    1    3    3    0    0  0.59003721828E+01  0.25787352041E+01 -0.16778878880E+02  0.17972062865E+02  0.00000000000E+00 0.  1.
</event>
<event>
 7    1  0.3750159E-013  0.5930164E+02  0.7816164E-02  0.1266606E+00
        -11   -1    0    0    0    0  0.00000000000E+00  0.00000000000E+00  0.45593999997E+02  0.45594000000E+02  0.51100000000E-03 0. -1.
         11   -1    0    0    0    0 -0.00000000000E+00 -0.00000000000E+00 -0.45593999997E+02  0.45594000000E+02  0.51100000000E-03 0.  1.
    9900012    2    1    2    0    0  0.22812662677E+02 -0.15744578598E+02 -0.15761691411E+02  0.59301635363E+02  0.49999437066E+02 0.  0.
        -12    1    1    2    0    0 -0.22812662677E+02  0.15744578598E+02  0.15761691411E+02  0.31886364637E+02  0.00000000000E+00 0.  1.
         11    1    3    3    0    0  0.12881428537E+02 -0.45739555774E+01 -0.26656390573E+00  0.13671990614E+02  0.51100000000E-03 0. -1.
        -11    1    3    3    0    0 -0.40184432488E+00  0.78410183024E+01  0.96601006802E+01  0.12448316846E+02  0.51100000000E-03 0.  1.
         12    1    3    3    0    0  0.10333078465E+02 -0.19011641323E+02 -0.25155228185E+02  0.33181327903E+02  0.00000000000E+00 0. -1.
</event>
<event>
 7    1  0.3750159E-013  0.5930198E+02  0.7816164E-02  0.1266605E+00
        -11   -1    0    0    0    0  0.00000000000E+00  0.00000000000E+00  0.45593999997E+02  0.45594000000E+02  0.51100000000E-03 0. -1.
         11   -1    0    0    0    0 -0.00000000000E+00 -0.00000000000E+00 -0.45593999997E+02  0.45594000000E+02  0.51100000000E-03 0.  1.
    9900012    2    1    2    0    0  0.80520724484E+01  0.78200275864E+01  0.29845088278E+02  0.59301984312E+02  0.50000073468E+02 0.  0.
        -12    1    1    2    0    0 -0.80520724484E+01 -0.78200275864E+01 -0.29845088278E+02  0.31886015688E+02  0.00000000000E+00 0.  1.
         11    1    3    3    0    0  0.48484605931E+01  0.12854274185E+02  0.10193486061E+02  0.17106931147E+02  0.51100000000E-03 0. -1.
        -11    1    3    3    0    0  0.10098178657E+02  0.11814305004E+02  0.18199387513E+02  0.23932587011E+02  0.51100000000E-03 0.  1.
        -12    1    3    3    0    0 -0.68945668016E+01 -0.16848551602E+02  0.14522147036E+01  0.18262466154E+02  0.00000000000E+00 0.  1.
</event>
<event>
 7    1  0.3750159E-013  0.5930197E+02  0.7816164E-02  0.1266605E+00
        -11   -1    0    0    0    0  0.00000000000E+00  0.00000000000E+00  0.45593999997E+02  0.45594000000E+02  0.51100000000E-03 0. -1.
         11   -1    0    0    0    0 -0.00000000000E+00 -0.00000000000E+00 -0.45593999997E+02  0.45594000000E+02  0.51100000000E-03 0.  1.
    9900012    2    1    2    0    0  0.31906998961E+01 -0.12085635644E+02  0.29333866549E+02  0.59301970435E+02  0.50000048160E+02 0.  0.
        -12    1    1    2    0    0 -0.31906998961E+01  0.12085635644E+02 -0.29333866549E+02  0.31886029565E+02  0.00000000000E+00 0.  1.
         11    1    3    3    0    0  0.10291365451E+01  0.20081970143E+01  0.12043545533E+00  0.22597526937E+01  0.51100000000E-03 0. -1.
        -11    1    3    3    0    0  0.31120084689E+01  0.17024961230E+02  0.14632188096E+02  0.22663513195E+02  0.51100000000E-03 0.  1.
         12    1    3    3    0    0 -0.95044511784E+00 -0.31118793888E+02  0.14581242997E+02  0.34378704546E+02  0.00000000000E+00 0. -1.
</event>
<event>
 7    1  0.3750159E-013  0.5930188E+02  0.7816164E-02  0.1266605E+00
        -11   -1    0    0    0    0  0.00000000000E+00  0.00000000000E+00  0.45593999997E+02  0.45594000000E+02  0.51100000000E-03 0.  1.
         11   -1    0    0    0    0 -0.00000000000E+00 -0.00000000000E+00 -0.45593999997E+02  0.45594000000E+02  0.51100000000E-03 0. -1.
    9900012    2    1    2    0    0  0.74615367785E+01 -0.20050317787E+02 -0.23643912543E+02  0.59301884294E+02  0.49999891061E+02 0.  0.
        -12    1    1    2    0    0 -0.74615367785E+01  0.20050317787E+02  0.23643912543E+02  0.31886115706E+02  0.00000000000E+00 0.  1.
         11    1    3    3    0    0 -0.99782892086E+01 -0.75145800814E+01  0.50911684099E+01  0.13489075779E+02  0.51100000000E-03 0. -1.
        -11    1    3    3    0    0  0.10298987248E+02 -0.68897482206E+01  0.30407899307E+01  0.12758690080E+02  0.51100000000E-03 0.  1.
         12    1    3    3    0    0  0.71408387386E+01 -0.56459894849E+01 -0.31775870884E+02  0.33054118436E+02  0.00000000000E+00 0. -1.
</event>
<event>
 7    1  0.3750159E-013  0.5930197E+02  0.7816164E-02  0.1266605E+00
        -11   -1    0    0    0    0  0.00000000000E+00  0.00000000000E+00  0.45593999997E+02  0.45594000000E+02  0.51100000000E-03 0. -1.
         11   -1    0    0    0    0 -0.00000000000E+00 -0.00000000000E+00 -0.45593999997E+02  0.45594000000E+02  0.51100000000E-03 0.  1.
    9900012    2    1    2    0    0 -0.33451797720E+01 -0.31375516204E+02 -0.45940819427E+01  0.59301971184E+02  0.50000049526E+02 0.  0.
        -12    1    1    2    0    0  0.33451797720E+01  0.31375516204E+02  0.45940819427E+01  0.31886028816E+02  0.00000000000E+00 0.  1.
         11    1    3    3    0    0 -0.60980016334E+01  0.56523447801E+01  0.10735289741E+01  0.83837396282E+01  0.51100000000E-03 0. -1.
        -11    1    3    3    0    0 -0.11785455548E+02 -0.30890391582E+01  0.38721838916E+01  0.12784089086E+02  0.51100000000E-03 0.  1.
        -12    1    3    3    0    0  0.14538277409E+02 -0.33938821826E+02 -0.95397948084E+01  0.38134142470E+02  0.00000000000E+00 0.  1.
</event>
<event>
 7    1  0.3750159E-013  0.5930194E+02  0.7816164E-02  0.1266605E+00
        -11   -1    0    0    0    0  0.00000000000E+00  0.00000000000E+00  0.45593999997E+02  0.45594000000E+02  0.51100000000E-03 0.  1.
         11   -1    0    0    0    0 -0.00000000000E+00 -0.00000000000E+00 -0.45593999997E+02  0.45594000000E+02  0.51100000000E-03 0. -1.
    9900012    2    1    2    0    0  0.75326547727E+01 -0.86823020188E+01 -0.29742189942E+02  0.59301935351E+02  0.49999984176E+02 0.  0.
        -12    1    1    2    0    0 -0.75326547727E+01  0.86823020188E+01  0.29742189942E+02  0.31886064649E+02  0.00000000000E+00 0.  1.
         11    1    3    3    0    0  0.18612253418E+02  0.22693219279E+01 -0.15993788213E+01  0.18818177706E+02  0.51100000000E-03 0. -1.
        -11    1    3    3    0    0  0.57608616590E+01 -0.93302493992E+01 -0.56411496172E+01  0.12331409091E+02  0.51100000000E-03 0.  1.
         12    1    3    3    0    0 -0.16840460304E+02 -0.16213745475E+01 -0.22501661503E+02  0.28152348554E+02  0.00000000000E+00 0. -1.
</event>
<event>
 7    1  0.3750159E-013  0.5930194E+02  0.7816164E-02  0.1266605E+00
        -11   -1    0    0    0    0  0.00000000000E+00  0.00000000000E+00  0.45593999997E+02  0.45594000000E+02  0.51100000000E-03 0. -1.
         11   -1    0    0    0    0 -0.00000000000E+00 -0.00000000000E+00 -0.45593999997E+02  0.45594000000E+02  0.51100000000E-03 0.  1.
    9900012    2    1    2    0    0  0.13312343544E+02  0.86769512721E+00  0.28961173781E+02  0.59301937649E+02  0.49999988367E+02 0.  0.
        -12    1    1    2    0    0 -0.13312343544E+02 -0.86769512721E+00 -0.28961173781E+02  0.31886062351E+02  0.00000000000E+00 0.  1.
         11    1    3    3    0    0  0.30663902110E+01 -0.87011262511E+01  0.21878484277E+02  0.23744060762E+02  0.51100000000E-03 0. -1.
        -11    1    3    3    0    0 -0.42443712971E+00 -0.61925953478E+01  0.13993567413E+02  0.15308439281E+02  0.51100000000E-03 0.  1.
         12    1    3    3    0    0  0.10670390463E+02  0.15761416726E+02 -0.69108779094E+01  0.20249437605E+02  0.00000000000E+00 0. -1.
</event>
<event>
 7    1  0.3750159E-013  0.5930192E+02  0.7816164E-02  0.1266605E+00
        -11   -1    0    0    0    0  0.00000000000E+00  0.00000000000E+00  0.45593999997E+02  0.45594000000E+02  0.51100000000E-03 0.  1.
         11   -1    0    0    0    0 -0.00000000000E+00 -0.00000000000E+00 -0.45593999997E+02  0.45594000000E+02  0.51100000000E-03 0. -1.
    9900012    2    1    2    0    0  0.24137191657E+02 -0.14051791618E+02 -0.15383921465E+02  0.59301922969E+02  0.49999961594E+02 0.  0.
        -12    1    1    2    0    0 -0.24137191657E+02  0.14051791618E+02  0.15383921465E+02  0.31886077031E+02  0.00000000000E+00 0.  1.
         11    1    3    3    0    0 -0.12353441253E+02  0.55163633859E+01 -0.12973146702E+01  0.13591203090E+02  0.51100000000E-03 0. -1.
        -11    1    3    3    0    0  0.41373344027E+01  0.18841310484E+00 -0.54250129161E+01  0.68252326597E+01  0.51100000000E-03 0.  1.
        -12    1    3    3    0    0  0.32353298508E+02 -0.19756568109E+02 -0.86615938785E+01  0.38885487220E+02  0.00000000000E+00 0.  1.
</event>
<event>
 7    1  0.3750159E-013  0.5930195E+02  0.7816164E-02  0.1266605E+00
        -11   -1    0    0    0    0  0.00000000000E+00  0.00000000000E+00  0.45593999997E+02  0.45594000000E+02  0.51100000000E-03 0.  1.
         11   -1    0    0    0    0 -0.00000000000E+00 -0.00000000000E+00 -0.45593999997E+02  0.45594000000E+02  0.51100000000E-03 0. -1.
    9900012    2    1    2    0    0 -0.18791906370E+02  0.25757772412E+02  0.34868280459E+00  0.59301950318E+02  0.50000011471E+02 0.  0.
        -12    1    1    2    0    0  0.18791906370E+02 -0.25757772412E+02 -0.34868280459E+00  0.31886049682E+02  0.00000000000E+00 0.  1.
         11    1    3    3    0    0  0.81924147922E+01 -0.33314030882E+01 -0.76025515476E+01  0.11662448155E+02  0.51100000000E-03 0. -1.
        -11    1    3    3    0    0 -0.12247306350E+02  0.10281052209E+02  0.15809551071E+02  0.22486405953E+02  0.51100000000E-03 0.  1.
         12    1    3    3    0    0 -0.14737014812E+02  0.18808123291E+02 -0.78583167186E+01  0.25153096210E+02  0.00000000000E+00 0. -1.
</event>
<event>
 7    1  0.3750159E-013  0.5930194E+02  0.7816164E-02  0.1266605E+00
        -11   -1    0    0    0    0  0.00000000000E+00  0.00000000000E+00  0.45593999997E+02  0.45594000000E+02  0.51100000000E-03 0. -1.
         11   -1    0    0    0    0 -0.00000000000E+00 -0.00000000000E+00 -0.45593999997E+02  0.45594000000E+02  0.51100000000E-03 0.  1.
    9900012    2    1    2    0    0  0.79575926515E+01  0.26556156556E+02  0.15753352777E+02  0.59301939479E+02  0.49999991704E+02 0.  0.
        -12    1    1    2    0    0 -0.79575926515E+01 -0.26556156556E+02 -0.15753352777E+02  0.31886060521E+02  0.00000000000E+00 0.  1.
         11    1    3    3    0    0 -0.29893981419E+01  0.11708609379E+02  0.26334935488E+02  0.28975107631E+02  0.51100000000E-03 0. -1.
        -11    1    3    3    0    0  0.10044241942E+02  0.12149726505E+02  0.33430631798E+01  0.16114550010E+02  0.51100000000E-03 0.  1.
        -12    1    3    3    0    0  0.90274885127E+00  0.26978206720E+01 -0.13924645890E+02  0.14212281838E+02  0.00000000000E+00 0.  1.
</event>
<event>
 7    1  0.3750159E-013  0.5930195E+02  0.7816164E-02  0.1266605E+00
        -11   -1    0    0    0    0  0.00000000000E+00  0.00000000000E+00  0.45593999997E+02  0.45594000000E+02  0.51100000000E-03 0. -1.
         11   -1    0    0    0    0 -0.00000000000E+00 -0.00000000000E+00 -0.45593999997E+02  0.45594000000E+02  0.51100000000E-03 0.  1.
    9900012    2    1    2    0    0  0.31630091542E+02  0.40157194234E+01 -0.36260636155E+00  0.59301950122E+02  0.50000011115E+02 0.  0.
        -12    1    1    2    0    0 -0.31630091542E+02 -0.40157194234E+01  0.36260636155E+00  0.31886049878E+02  0.00000000000E+00 0.  1.
         11    1    3    3    0    0  0.96822726716E+01  0.37082426345E+01  0.10762557837E+02  0.14944233636E+02  0.51100000000E-03 0. -1.
        -11    1    3    3    0    0  0.32176928263E+01 -0.15979375665E+02  0.17541568046E+01  0.16394238626E+02  0.51100000000E-03 0.  1.
        -12    1    3    3    0    0  0.18730126044E+02  0.16286852454E+02 -0.12879321003E+02  0.27963477859E+02  0.00000000000E+00 0.  1.
</event>
<event>
 7    1  0.3750159E-013  0.5930213E+02  0.7816164E-02  0.1266604E+00
        -11   -1    0    0    0    0  0.00000000000E+00  0.00000000000E+00  0.45593999997E+02  0.45594000000E+02  0.51100000000E-03 0. -1.
         11   -1    0    0    0    0 -0.00000000000E+00 -0.00000000000E+00 -0.45593999997E+02  0.45594000000E+02  0.51100000000E-03 0.  1.
    9900012    2    1    2    0    0 -0.76598279464E+01 -0.29095619948E+02  0.10558453279E+02  0.59302125385E+02  0.50000330751E+02 0.  0.
        -12    1    1    2    0    0  0.76598279464E+01  0.29095619948E+02 -0.10558453279E+02  0.31885874615E+02  0.00000000000E+00 0.  1.
         11    1    3    3    0    0  0.43062456284E+01  0.66735287604E+01  0.10222774221E+02  0.12945456754E+02  0.51100000000E-03 0. -1.
        -11    1    3    3    0    0  0.48850287552E+01 -0.27547911590E+00  0.47494149276E+01  0.68188222662E+01  0.51100000000E-03 0.  1.
         12    1    3    3    0    0 -0.16851102330E+02 -0.35493669592E+02 -0.44137358697E+01  0.39537846365E+02  0.00000000000E+00 0. -1.
</event>
<event>
 7    1  0.3750159E-013  0.5930195E+02  0.7816164E-02  0.1266605E+00
        -11   -1    0    0    0    0  0.00000000000E+00  0.00000000000E+00  0.45593999997E+02  0.45594000000E+02  0.51100000000E-03 0.  1.
         11   -1    0    0    0    0 -0.00000000000E+00 -0.00000000000E+00 -0.45593999997E+02  0.45594000000E+02  0.51100000000E-03 0. -1.
    9900012    2    1    2    0    0 -0.11658638446E+02 -0.40622068213E+01 -0.29398893192E+02  0.59301948260E+02  0.50000007718E+02 0.  0.
        -12    1    1    2    0    0  0.11658638446E+02  0.40622068213E+01  0.29398893192E+02  0.31886051740E+02  0.00000000000E+00 0.  1.
         11    1    3    3    0    0  0.13436929397E+02 -0.48503906758E+00 -0.27101002427E+02  0.30253110044E+02  0.51100000000E-03 0. -1.
        -11    1    3    3    0    0 -0.74015576049E+01 -0.72925582791E+01  0.17091860297E+01  0.10530231639E+02  0.51100000000E-03 0.  1.
        -12    1    3    3    0    0 -0.17694010239E+02  0.37153905253E+01 -0.40070767940E+01  0.18518606576E+02  0.00000000000E+00 0.  1.
</event>
<event>
 7    1  0.3750159E-013  0.5930196E+02  0.7816164E-02  0.1266605E+00
        -11   -1    0    0    0    0  0.00000000000E+00  0.00000000000E+00  0.45593999997E+02  0.45594000000E+02  0.51100000000E-03 0. -1.
         11   -1    0    0    0    0 -0.00000000000E+00 -0.00000000000E+00 -0.45593999997E+02  0.45594000000E+02  0.51100000000E-03 0.  1.
    9900012    2    1    2    0    0  0.57235461266E+01 -0.19037734176E+02 -0.24930412006E+02  0.59301956883E+02  0.50000023446E+02 0.  0.
        -12    1    1    2    0    0 -0.57235461266E+01  0.19037734176E+02  0.24930412006E+02  0.31886043117E+02  0.00000000000E+00 0.  1.
         11    1    3    3    0    0  0.14886351902E+02 -0.23305640199E+02 -0.38594666077E+01  0.27922245984E+02  0.51100000000E-03 0. -1.
        -11    1    3    3    0    0  0.59035250330E+01  0.53904236393E+01 -0.56357020804E+01  0.97810742266E+01  0.51100000000E-03 0.  1.
         12    1    3    3    0    0 -0.15066330808E+02 -0.11225176168E+01 -0.15435243318E+02  0.21598636673E+02  0.00000000000E+00 0. -1.
</event>
<event>
 7    1  0.3750159E-013  0.5930197E+02  0.7816164E-02  0.1266605E+00
        -11   -1    0    0    0    0  0.00000000000E+00  0.00000000000E+00  0.45593999997E+02  0.45594000000E+02  0.51100000000E-03 0.  1.
         11   -1    0    0    0    0 -0.00000000000E+00 -0.00000000000E+00 -0.45593999997E+02  0.45594000000E+02  0.51100000000E-03 0. -1.
    9900012    2    1    2    0    0  0.28937534699E+02  0.13092093988E+02  0.28168831916E+01  0.59301973745E+02  0.50000054197E+02 0.  0.
        -12    1    1    2    0    0 -0.28937534699E+02 -0.13092093988E+02 -0.28168831916E+01  0.31886026255E+02  0.00000000000E+00 0.  1.
         11    1    3    3    0    0  0.30422572644E+02  0.24035668117E+01  0.87148047412E+01  0.31737326315E+02  0.51100000000E-03 0. -1.
        -11    1    3    3    0    0  0.88414118060E+01  0.12150743190E+02 -0.78503204815E+01  0.16954015888E+02  0.51100000000E-03 0.  1.
        -12    1    3    3    0    0 -0.10326449751E+02 -0.14622160140E+01  0.19523989319E+01  0.10610631542E+02  0.00000000000E+00 0.  1.
</event>
<event>
 7    1  0.3750159E-013  0.5930196E+02  0.7816164E-02  0.1266605E+00
        -11   -1    0    0    0    0  0.00000000000E+00  0.00000000000E+00  0.45593999997E+02  0.45594000000E+02  0.51100000000E-03 0.  1.
         11   -1    0    0    0    0 -0.00000000000E+00 -0.00000000000E+00 -0.45593999997E+02  0.45594000000E+02  0.51100000000E-03 0. -1.
    9900012    2    1    2    0    0  0.13653281706E+00 -0.21206512632E+02 -0.23811434961E+02  0.59301964590E+02  0.50000037501E+02 0.  0.
        -12    1    1    2    0    0 -0.13653281706E+00  0.21206512632E+02  0.23811434961E+02  0.31886035410E+02  0.00000000000E+00 0.  1.
         11    1    3    3    0    0  0.30140674902E+01 -0.27356438731E+02 -0.19382608986E+02  0.33662217310E+02  0.51100000000E-03 0. -1.
        -11    1    3    3    0    0 -0.24673492123E+01 -0.36190943553E+01  0.84215203966E+01  0.94925055775E+01  0.51100000000E-03 0.  1.
        -12    1    3    3    0    0 -0.41018546080E+00  0.97690204537E+01 -0.12850346372E+02  0.16147241703E+02  0.00000000000E+00 0.  1.
</event>
<event>
 7    1  0.3750159E-013  0.5930194E+02  0.7816164E-02  0.1266605E+00
        -11   -1    0    0    0    0  0.00000000000E+00  0.00000000000E+00  0.45593999997E+02  0.45594000000E+02  0.51100000000E-03 0.  1.
         11   -1    0    0    0    0 -0.00000000000E+00 -0.00000000000E+00 -0.45593999997E+02  0.45594000000E+02  0.51100000000E-03 0. -1.
    9900012    2    1    2    0    0  0.28411625309E+02  0.62628952489E+01 -0.13049011323E+02  0.59301937118E+02  0.49999987399E+02 0.  0.
        -12    1    1    2    0    0 -0.28411625309E+02 -0.62628952489E+01  0.13049011323E+02  0.31886062882E+02  0.00000000000E+00 0.  1.
         11    1    3    3    0    0  0.12660738760E+02 -0.48613019031E+01 -0.94397986159E+01  0.16523811918E+02  0.51100000000E-03 0. -1.
        -11    1    3    3    0    0  0.15539011923E+02 -0.10532849658E+02 -0.84486408057E+01  0.20585950189E+02  0.51100000000E-03 0.  1.
        -12    1    3    3    0    0  0.21187462597E+00  0.21657046810E+02  0.48394280988E+01  0.22192175011E+02  0.00000000000E+00 0.  1.
</event>
<event>
 7    1  0.3750159E-013  0.5930194E+02  0.7816164E-02  0.1266605E+00
        -11   -1    0    0    0    0  0.00000000000E+00  0.00000000000E+00  0.45593999997E+02  0.45594000000E+02  0.51100000000E-03 0.  1.
         11   -1    0    0    0    0 -0.00000000000E+00 -0.00000000000E+00 -0.45593999997E+02  0.45594000000E+02  0.51100000000E-03 0. -1.
    9900012    2    1    2    0    0  0.21908890482E+02 -0.57026192037E+00 -0.23160223957E+02  0.59301942631E+02  0.49999997453E+02 0.  0.
        -12    1    1    2    0    0 -0.21908890482E+02  0.57026192037E+00  0.23160223957E+02  0.31886057369E+02  0.00000000000E+00 0.  1.
         11    1    3    3    0    0  0.48314877341E+01 -0.12233183521E+02 -0.14650056793E+02  0.19688022173E+02  0.51100000000E-03 0. -1.
        -11    1    3    3    0    0 -0.77307694984E+01  0.18874201400E+01  0.53235641330E+01  0.95743139264E+01  0.51100000000E-03 0.  1.
        -12    1    3    3    0    0  0.24808172246E+02  0.97755014605E+01 -0.13833731298E+02  0.30039606532E+02  0.00000000000E+00 0.  1.
</event>
<event>
 7    1  0.3750159E-013  0.5930183E+02  0.7816164E-02  0.1266605E+00
        -11   -1    0    0    0    0  0.00000000000E+00  0.00000000000E+00  0.45593999997E+02  0.45594000000E+02  0.51100000000E-03 0. -1.
         11   -1    0    0    0    0 -0.00000000000E+00 -0.00000000000E+00 -0.45593999997E+02  0.45594000000E+02  0.51100000000E-03 0.  1.
    9900012    2    1    2    0    0  0.28486594180E+02  0.60999357708E+00 -0.14313267595E+02  0.59301831064E+02  0.49999793982E+02 0.  0.
        -12    1    1    2    0    0 -0.28486594180E+02 -0.60999357708E+00  0.14313267595E+02  0.31886168936E+02  0.00000000000E+00 0.  1.
         11    1    3    3    0    0  0.61161445951E+01  0.67900794027E+01 -0.11008859354E+02  0.14307598944E+02  0.51100000000E-03 0. -1.
        -11    1    3    3    0    0  0.43557314802E+01 -0.20642607513E+02 -0.54594838330E+01  0.21792099616E+02  0.51100000000E-03 0.  1.
         12    1    3    3    0    0  0.18014718105E+02  0.14462521688E+02  0.21550755920E+01  0.23202132505E+02  0.00000000000E+00 0. -1.
</event>
<event>
 7    1  0.3750159E-013  0.5930196E+02  0.7816164E-02  0.1266605E+00
        -11   -1    0    0    0    0  0.00000000000E+00  0.00000000000E+00  0.45593999997E+02  0.45594000000E+02  0.51100000000E-03 0. -1.
         11   -1    0    0    0    0 -0.00000000000E+00 -0.00000000000E+00 -0.45593999997E+02  0.45594000000E+02  0.51100000000E-03 0.  1.
    9900012    2    1    2    0    0 -0.98018463989E+01  0.24198017526E+02  0.18305722519E+02  0.59301957255E+02  0.50000024122E+02 0.  0.
        -12    1    1    2    0    0  0.98018463989E+01 -0.24198017526E+02 -0.18305722519E+02  0.31886042745E+02  0.00000000000E+00 0.  1.
         11    1    3    3    0    0  0.55165955334E+01  0.59691643050E+01 -0.85044940721E+01  0.11763935076E+02  0.51100000000E-03 0. -1.
        -11    1    3    3    0    0  0.95703111578E+01  0.28204216464E+01  0.72068333285E+01  0.12307886935E+02  0.51100000000E-03 0.  1.
         12    1    3    3    0    0 -0.24888753090E+02  0.15408431575E+02  0.19603383262E+02  0.35230135244E+02  0.00000000000E+00 0. -1.
</event>
<event>
 7    1  0.3750159E-013  0.5930194E+02  0.7816164E-02  0.1266605E+00
        -11   -1    0    0    0    0  0.00000000000E+00  0.00000000000E+00  0.45593999997E+02  0.45594000000E+02  0.51100000000E-03 0. -1.
         11   -1    0    0    0    0 -0.00000000000E+00 -0.00000000000E+00 -0.45593999997E+02  0.45594000000E+02  0.51100000000E-03 0.  1.
    9900012    2    1    2    0    0 -0.92836382030E+01 -0.20500751879E+02  0.22588802266E+02  0.59301941076E+02  0.49999994616E+02 0.  0.
        -12    1    1    2    0    0  0.92836382030E+01  0.20500751879E+02 -0.22588802266E+02  0.31886058924E+02  0.00000000000E+00 0.  1.
         11    1    3    3    0    0 -0.10810749174E+02 -0.11398102431E+02  0.11660739601E+02  0.19564301292E+02  0.51100000000E-03 0. -1.
        -11    1    3    3    0    0 -0.40083170914E+01  0.11351728978E+02  0.13845745519E+02  0.18347561853E+02  0.51100000000E-03 0.  1.
        -12    1    3    3    0    0  0.55354280628E+01 -0.20454378427E+02 -0.29176828539E+01  0.21390077931E+02  0.00000000000E+00 0.  1.
</event>
<event>
 7    1  0.3750159E-013  0.5930187E+02  0.7816164E-02  0.1266605E+00
        -11   -1    0    0    0    0  0.00000000000E+00  0.00000000000E+00  0.45593999997E+02  0.45594000000E+02  0.51100000000E-03 0.  1.
         11   -1    0    0    0    0 -0.00000000000E+00 -0.00000000000E+00 -0.45593999997E+02  0.45594000000E+02  0.51100000000E-03 0. -1.
    9900012    2    1    2    0    0 -0.12734047480E+02 -0.28297250755E+02 -0.73372377096E+01  0.59301867862E+02  0.49999861093E+02 0.  0.
        -12    1    1    2    0    0  0.12734047480E+02  0.28297250755E+02  0.73372377096E+01  0.31886132138E+02  0.00000000000E+00 0.  1.
         11    1    3    3    0    0 -0.20592353021E+02 -0.86248593413E+01 -0.10650028271E+02  0.24735729300E+02  0.51100000000E-03 0. -1.
        -11    1    3    3    0    0 -0.54691213307E+01 -0.46648462778E+01 -0.86136486547E+01  0.11219047301E+02  0.51100000000E-03 0.  1.
        -12    1    3    3    0    0  0.13327426871E+02 -0.15007545135E+02  0.11926439216E+02  0.23347091261E+02  0.00000000000E+00 0.  1.
</event>
<event>
 7    1  0.3750159E-013  0.5930196E+02  0.7816164E-02  0.1266605E+00
        -11   -1    0    0    0    0  0.00000000000E+00  0.00000000000E+00  0.45593999997E+02  0.45594000000E+02  0.51100000000E-03 0.  1.
         11   -1    0    0    0    0 -0.00000000000E+00 -0.00000000000E+00 -0.45593999997E+02  0.45594000000E+02  0.51100000000E-03 0. -1.
    9900012    2    1    2    0    0 -0.16393257839E+02  0.23299968967E+02 -0.14321037892E+02  0.59301959438E+02  0.50000028105E+02 0.  0.
        -12    1    1    2    0    0  0.16393257839E+02 -0.23299968967E+02  0.14321037892E+02  0.31886040562E+02  0.00000000000E+00 0.  1.
         11    1    3    3    0    0 -0.31274360997E+02  0.18957821015E+02 -0.10404691081E+02  0.38022917170E+02  0.51100000000E-03 0. -1.
        -11    1    3    3    0    0 -0.16932639862E+01 -0.13503837966E+01  0.18309152585E+01  0.28360060420E+01  0.51100000000E-03 0.  1.
        -12    1    3    3    0    0  0.16574367144E+02  0.56925317486E+01 -0.57472620695E+01  0.18443036226E+02  0.00000000000E+00 0.  1.
</event>
<event>
 7    1  0.3750159E-013  0.5930193E+02  0.7816164E-02  0.1266605E+00
        -11   -1    0    0    0    0  0.00000000000E+00  0.00000000000E+00  0.45593999997E+02  0.45594000000E+02  0.51100000000E-03 0. -1.
         11   -1    0    0    0    0 -0.00000000000E+00 -0.00000000000E+00 -0.45593999997E+02  0.45594000000E+02  0.51100000000E-03 0.  1.
    9900012    2    1    2    0    0 -0.27416437137E+02  0.12815039737E+02  0.10041667262E+02  0.59301931723E+02  0.49999977559E+02 0.  0.
        -12    1    1    2    0    0  0.27416437137E+02 -0.12815039737E+02 -0.10041667262E+02  0.31886068277E+02  0.00000000000E+00 0.  1.
         11    1    3    3    0    0 -0.23613605629E+01  0.14352629003E+02 -0.29907248019E+01  0.14849862562E+02  0.51100000000E-03 0. -1.
        -11    1    3    3    0    0 -0.45943376065E+01  0.15006399669E+02  0.16406086817E+01  0.15779466600E+02  0.51100000000E-03 0.  1.
        -12    1    3    3    0    0 -0.20460738968E+02 -0.16543988935E+02  0.11391783383E+02  0.28672602561E+02  0.00000000000E+00 0.  1.
</event>
<event>
 7    1  0.3750159E-013  0.5930194E+02  0.7816164E-02  0.1266605E+00
        -11   -1    0    0    0    0  0.00000000000E+00  0.00000000000E+00  0.45593999997E+02  0.45594000000E+02  0.51100000000E-03 0. -1.
         11   -1    0    0    0    0 -0.00000000000E+00 -0.00000000000E+00 -0.45593999997E+02  0.45594000000E+02  0.51100000000E-03 0.  1.
    9900012    2    1    2    0    0 -0.14679695833E+02  0.21911801484E+02  0.17919275214E+02  0.59301938183E+02  0.49999989340E+02 0.  0.
        -12    1    1    2    0    0  0.14679695833E+02 -0.21911801484E+02 -0.17919275214E+02  0.31886061817E+02  0.00000000000E+00 0.  1.
         11    1    3    3    0    0  0.41767163246E+01  0.31799113398E+02  0.12620901921E+02  0.34466153509E+02  0.51100000000E-03 0. -1.
        -11    1    3    3    0    0 -0.43704831527E+01 -0.50967566649E+00 -0.33531468140E+01  0.55321321469E+01  0.51100000000E-03 0.  1.
        -12    1    3    3    0    0 -0.14485929005E+02 -0.93776362470E+01  0.86515201069E+01  0.19303652527E+02  0.00000000000E+00 0.  1.
</event>
<event>
 7    1  0.3750159E-013  0.5930195E+02  0.7816164E-02  0.1266605E+00
        -11   -1    0    0    0    0  0.00000000000E+00  0.00000000000E+00  0.45593999997E+02  0.45594000000E+02  0.51100000000E-03 0. -1.
         11   -1    0    0    0    0 -0.00000000000E+00 -0.00000000000E+00 -0.45593999997E+02  0.45594000000E+02  0.51100000000E-03 0.  1.
    9900012    2    1    2    0    0  0.17873532932E+02  0.26373225492E+02  0.13077823012E+01  0.59301945104E+02  0.50000001963E+02 0.  0.
        -12    1    1    2    0    0 -0.17873532932E+02 -0.26373225492E+02 -0.13077823012E+01  0.31886054896E+02  0.00000000000E+00 0.  1.
         11    1    3    3    0    0 -0.32975538801E+01  0.10184507093E+02 -0.24093476349E+00  0.10707758689E+02  0.51100000000E-03 0. -1.
        -11    1    3    3    0    0 -0.89041610571E+01  0.94883687664E+01 -0.92272167036E+01  0.15951637983E+02  0.51100000000E-03 0.  1.
         12    1    3    3    0    0  0.30075247869E+02  0.67003496324E+01  0.10775933768E+02  0.32642548432E+02  0.00000000000E+00 0. -1.
</event>
<event>
 7    1  0.3750159E-013  0.5930194E+02  0.7816164E-02  0.1266605E+00
        -11   -1    0    0    0    0  0.00000000000E+00  0.00000000000E+00  0.45593999997E+02  0.45594000000E+02  0.51100000000E-03 0.  1.
         11   -1    0    0    0    0 -0.00000000000E+00 -0.00000000000E+00 -0.45593999997E+02  0.45594000000E+02  0.51100000000E-03 0. -1.
    9900012    2    1    2    0    0  0.12666434048E+02 -0.22887614482E+02 -0.18232928240E+02  0.59301935326E+02  0.49999984130E+02 0.  0.
        -12    1    1    2    0    0 -0.12666434048E+02  0.22887614482E+02  0.18232928240E+02  0.31886064674E+02  0.00000000000E+00 0.  1.
         11    1    3    3    0    0  0.14925295515E+02 -0.77500269609E+01 -0.74030897019E+01  0.18374795278E+02  0.51100000000E-03 0. -1.
        -11    1    3    3    0    0 -0.12759074696E+01 -0.24519244711E+02 -0.16812385966E+02  0.29756976043E+02  0.51100000000E-03 0.  1.
        -12    1    3    3    0    0 -0.98295399778E+00  0.93816571896E+01  0.59825474278E+01  0.11170164006E+02  0.00000000000E+00 0.  1.
</event>
<event>
 7    1  0.3750159E-013  0.5930196E+02  0.7816164E-02  0.1266605E+00
        -11   -1    0    0    0    0  0.00000000000E+00  0.00000000000E+00  0.45593999997E+02  0.45594000000E+02  0.51100000000E-03 0.  1.
         11   -1    0    0    0    0 -0.00000000000E+00 -0.00000000000E+00 -0.45593999997E+02  0.45594000000E+02  0.51100000000E-03 0. -1.
    9900012    2    1    2    0    0  0.11895663611E+02  0.72497984845E+01 -0.28681934339E+02  0.59301956843E+02  0.50000023371E+02 0.  0.
        -12    1    1    2    0    0 -0.11895663611E+02 -0.72497984845E+01  0.28681934339E+02  0.31886043157E+02  0.00000000000E+00 0.  1.
         11    1    3    3    0    0  0.11529559512E+02  0.15881877916E+02 -0.22097438001E+02  0.29554383011E+02  0.51100000000E-03 0. -1.
        -11    1    3    3    0    0  0.34865679105E+01  0.41875017523E+01 -0.13709548795E+02  0.14752730431E+02  0.51100000000E-03 0.  1.
        -12    1    3    3    0    0 -0.31204638118E+01 -0.12819581183E+02  0.71250524573E+01  0.14994843402E+02  0.00000000000E+00 0.  1.
</event>
<event>
 7    1  0.3750159E-013  0.5930192E+02  0.7816164E-02  0.1266605E+00
        -11   -1    0    0    0    0  0.00000000000E+00  0.00000000000E+00  0.45593999997E+02  0.45594000000E+02  0.51100000000E-03 0. -1.
         11   -1    0    0    0    0 -0.00000000000E+00 -0.00000000000E+00 -0.45593999997E+02  0.45594000000E+02  0.51100000000E-03 0.  1.
    9900012    2    1    2    0    0  0.24075664131E+02 -0.19193882039E+01  0.20818268467E+02  0.59301922217E+02  0.49999960222E+02 0.  0.
        -12    1    1    2    0    0 -0.24075664131E+02  0.19193882039E+01 -0.20818268467E+02  0.31886077783E+02  0.00000000000E+00 0.  1.
         11    1    3    3    0    0  0.17629794303E+02 -0.20014711418E+02  0.11978924895E+02  0.29238552670E+02  0.51100000000E-03 0. -1.
        -11    1    3    3    0    0  0.72995836071E+01  0.18061642576E+01  0.11293822054E+02  0.13568219006E+02  0.51100000000E-03 0.  1.
        -12    1    3    3    0    0 -0.85371377926E+00  0.16289158957E+02 -0.24544784810E+01  0.16495150541E+02  0.00000000000E+00 0.  1.
</event>
<event>
 7    1  0.3750159E-013  0.5930194E+02  0.7816164E-02  0.1266605E+00
        -11   -1    0    0    0    0  0.00000000000E+00  0.00000000000E+00  0.45593999997E+02  0.45594000000E+02  0.51100000000E-03 0.  1.
         11   -1    0    0    0    0 -0.00000000000E+00 -0.00000000000E+00 -0.45593999997E+02  0.45594000000E+02  0.51100000000E-03 0. -1.
    9900012    2    1    2    0    0 -0.11137784161E+02  0.52567254110E+01 -0.29411516655E+02  0.59301941762E+02  0.49999995867E+02 0.  0.
        -12    1    1    2    0    0  0.11137784161E+02 -0.52567254110E+01  0.29411516655E+02  0.31886058238E+02  0.00000000000E+00 0.  1.
         11    1    3    3    0    0 -0.43825413418E+01 -0.67987213717E+01 -0.81019922659E+01  0.11448648822E+02  0.51100000000E-03 0. -1.
        -11    1    3    3    0    0 -0.24951063369E+01 -0.14349494803E+02 -0.13820188971E+02  0.20078126910E+02  0.51100000000E-03 0.  1.
         12    1    3    3    0    0 -0.42601364820E+01  0.26404941586E+02 -0.74893354174E+01  0.27775166030E+02  0.00000000000E+00 0. -1.
</event>
<event>
 7    1  0.3750159E-013  0.5930194E+02  0.7816164E-02  0.1266605E+00
        -11   -1    0    0    0    0  0.00000000000E+00  0.00000000000E+00  0.45593999997E+02  0.45594000000E+02  0.51100000000E-03 0. -1.
         11   -1    0    0    0    0 -0.00000000000E+00 -0.00000000000E+00 -0.45593999997E+02  0.45594000000E+02  0.51100000000E-03 0.  1.
    9900012    2    1    2    0    0  0.29544612691E+02 -0.53838733179E+01  0.10716832024E+02  0.59301941611E+02  0.49999995592E+02 0.  0.
        -12    1    1    2    0    0 -0.29544612691E+02  0.53838733179E+01 -0.10716832024E+02  0.31886058389E+02  0.00000000000E+00 0.  1.
         11    1    3    3    0    0  0.14407390209E+02 -0.15702556899E+02 -0.25215424207E+01  0.21459295474E+02  0.51100000000E-03 0. -1.
        -11    1    3    3    0    0 -0.85843342596E+01 -0.84913532988E+00  0.36534935503E+00  0.86339623523E+01  0.51100000000E-03 0.  1.
        -12    1    3    3    0    0  0.23721556741E+02  0.11167818911E+02  0.12873025090E+02  0.29208683785E+02  0.00000000000E+00 0.  1.
</event>
<event>
 7    1  0.3750159E-013  0.5930194E+02  0.7816164E-02  0.1266605E+00
        -11   -1    0    0    0    0  0.00000000000E+00  0.00000000000E+00  0.45593999997E+02  0.45594000000E+02  0.51100000000E-03 0.  1.
         11   -1    0    0    0    0 -0.00000000000E+00 -0.00000000000E+00 -0.45593999997E+02  0.45594000000E+02  0.51100000000E-03 0. -1.
    9900012    2    1    2    0    0  0.18790085186E+02 -0.21525801315E+02 -0.14152495759E+02  0.59301944117E+02  0.50000000163E+02 0.  0.
        -12    1    1    2    0    0 -0.18790085186E+02  0.21525801315E+02  0.14152495759E+02  0.31886055883E+02  0.00000000000E+00 0.  1.
         11    1    3    3    0    0  0.68673691722E+01  0.34348621260E+01 -0.13294378049E+01  0.77927172610E+01  0.51100000000E-03 0. -1.
        -11    1    3    3    0    0 -0.15530503858E+02 -0.10391949284E+02 -0.65635152622E+01  0.19805779279E+02  0.51100000000E-03 0.  1.
         12    1    3    3    0    0  0.27453219872E+02 -0.14568714158E+02 -0.62595426916E+01  0.31703447577E+02  0.00000000000E+00 0. -1.
</event>
<event>
 7    1  0.3750159E-013  0.5930194E+02  0.7816164E-02  0.1266605E+00
        -11   -1    0    0    0    0  0.00000000000E+00  0.00000000000E+00  0.45593999997E+02  0.45594000000E+02  0.51100000000E-03 0. -1.
         11   -1    0    0    0    0 -0.00000000000E+00 -0.00000000000E+00 -0.45593999997E+02  0.45594000000E+02  0.51100000000E-03 0.  1.
    9900012    2    1    2    0    0  0.19811913326E+02 -0.16221316921E+02  0.19002050842E+02  0.59301937708E+02  0.49999988474E+02 0.  0.
        -12    1    1    2    0    0 -0.19811913326E+02  0.16221316921E+02 -0.19002050842E+02  0.31886062292E+02  0.00000000000E+00 0.  1.
         11    1    3    3    0    0 -0.13559915927E+01 -0.97084103839E+01 -0.25577045317E+01  0.10130834029E+02  0.51100000000E-03 0. -1.
        -11    1    3    3    0    0 -0.41128583463E+00  0.10740419643E+01 -0.10070827330E+02  0.10136285589E+02  0.51100000000E-03 0.  1.
         12    1    3    3    0    0  0.21579190754E+02 -0.75869485018E+01  0.31630582703E+02  0.39034818090E+02  0.00000000000E+00 0. -1.
</event>
<event>
 7    1  0.3750159E-013  0.5930188E+02  0.7816164E-02  0.1266605E+00
        -11   -1    0    0    0    0  0.00000000000E+00  0.00000000000E+00  0.45593999997E+02  0.45594000000E+02  0.51100000000E-03 0.  1.
         11   -1    0    0    0    0 -0.00000000000E+00 -0.00000000000E+00 -0.45593999997E+02  0.45594000000E+02  0.51100000000E-03 0. -1.
    9900012    2    1    2    0    0 -0.76215184882E+00  0.18019536314E+02 -0.26295244175E+02  0.59301883419E+02  0.49999889465E+02 0.  0.
        -12    1    1    2    0    0  0.76215184882E+00 -0.18019536314E+02  0.26295244175E+02  0.31886116581E+02  0.00000000000E+00 0.  1.
         11    1    3    3    0    0  0.36105587970E+01  0.10815328936E+02 -0.14426932178E+02  0.18388688022E+02  0.51100000000E-03 0. -1.
        -11    1    3    3    0    0  0.81188166195E+01  0.17933465728E+02 -0.14212994896E+02  0.24280313023E+02  0.51100000000E-03 0.  1.
        -12    1    3    3    0    0 -0.12491527265E+02 -0.10729258351E+02  0.23446828992E+01  0.16632882375E+02  0.00000000000E+00 0.  1.
</event>
<event>
 7    1  0.3750159E-013  0.5930195E+02  0.7816164E-02  0.1266605E+00
        -11   -1    0    0    0    0  0.00000000000E+00  0.00000000000E+00  0.45593999997E+02  0.45594000000E+02  0.51100000000E-03 0. -1.
         11   -1    0    0    0    0 -0.00000000000E+00 -0.00000000000E+00 -0.45593999997E+02  0.45594000000E+02  0.51100000000E-03 0.  1.
    9900012    2    1    2    0    0 -0.15236995490E+02 -0.19326509240E+02  0.20274128551E+02  0.59301948513E+02  0.50000008179E+02 0.  0.
        -12    1    1    2    0    0  0.15236995490E+02  0.19326509240E+02 -0.20274128551E+02  0.31886051487E+02  0.00000000000E+00 0.  1.
         11    1    3    3    0    0 -0.16020893876E+02  0.93722681674E+01  0.60350734593E+01  0.19517442535E+02  0.51100000000E-03 0. -1.
        -11    1    3    3    0    0  0.80883177872E+01 -0.99482866175E+00  0.95845985740E+00  0.82054380902E+01  0.51100000000E-03 0.  1.
         12    1    3    3    0    0 -0.73044194015E+01 -0.27703948745E+02  0.13280595234E+02  0.31579067888E+02  0.00000000000E+00 0. -1.
</event>
<event>
 7    1  0.3750159E-013  0.5930194E+02  0.7816164E-02  0.1266605E+00
        -11   -1    0    0    0    0  0.00000000000E+00  0.00000000000E+00  0.45593999997E+02  0.45594000000E+02  0.51100000000E-03 0.  1.
         11   -1    0    0    0    0 -0.00000000000E+00 -0.00000000000E+00 -0.45593999997E+02  0.45594000000E+02  0.51100000000E-03 0. -1.
    9900012    2    1    2    0    0 -0.38502632724E+01  0.36223431172E+01 -0.31444787336E+02  0.59301944309E+02  0.50000000512E+02 0.  0.
        -12    1    1    2    0    0  0.38502632724E+01 -0.36223431172E+01  0.31444787336E+02  0.31886055691E+02  0.00000000000E+00 0.  1.
         11    1    3    3    0    0 -0.88372083573E+01 -0.79697339497E+01  0.24641386261E+01  0.12152567227E+02  0.51100000000E-03 0. -1.
        -11    1    3    3    0    0  0.31119625189E+01  0.13086410013E+02 -0.29963394143E+00  0.13454672739E+02  0.51100000000E-03 0.  1.
         12    1    3    3    0    0  0.18749825660E+01 -0.14943329463E+01 -0.33609292021E+02  0.33694704343E+02  0.00000000000E+00 0. -1.
</event>
<event>
 7    1  0.3750159E-013  0.5930194E+02  0.7816164E-02  0.1266605E+00
        -11   -1    0    0    0    0  0.00000000000E+00  0.00000000000E+00  0.45593999997E+02  0.45594000000E+02  0.51100000000E-03 0.  1.
         11   -1    0    0    0    0 -0.00000000000E+00 -0.00000000000E+00 -0.45593999997E+02  0.45594000000E+02  0.51100000000E-03 0. -1.
    9900012    2    1    2    0    0  0.19147232447E+02 -0.41038288584E+01 -0.25164717503E+02  0.59301938332E+02  0.49999989613E+02 0.  0.
        -12    1    1    2    0    0 -0.19147232447E+02  0.41038288584E+01  0.25164717503E+02  0.31886061668E+02  0.00000000000E+00 0.  1.
         11    1    3    3    0    0 -0.30574128274E+01 -0.19526252644E+01  0.59631566057E+01  0.69799538383E+01  0.51100000000E-03 0.  1.
        -11    1    3    3    0    0  0.82456150371E+00  0.10995387504E+01  0.77302326872E+01  0.78514574951E+01  0.51100000000E-03 0. -1.
         12    1    3    3    0    0  0.21380083770E+02 -0.32507423444E+01 -0.38858106796E+02  0.44470526999E+02  0.00000000000E+00 0. -1.
</event>
<event>
 7    1  0.3750159E-013  0.5930195E+02  0.7816164E-02  0.1266605E+00
        -11   -1    0    0    0    0  0.00000000000E+00  0.00000000000E+00  0.45593999997E+02  0.45594000000E+02  0.51100000000E-03 0.  1.
         11   -1    0    0    0    0 -0.00000000000E+00 -0.00000000000E+00 -0.45593999997E+02  0.45594000000E+02  0.51100000000E-03 0. -1.
    9900012    2    1    2    0    0  0.16561649599E+02 -0.25204694857E+02 -0.10351591581E+02  0.59301947743E+02  0.50000006776E+02 0.  0.
        -12    1    1    2    0    0 -0.16561649599E+02  0.25204694857E+02  0.10351591581E+02  0.31886052257E+02  0.00000000000E+00 0.  1.
         11    1    3    3    0    0  0.19075108570E+02 -0.16918367882E+01  0.41692327051E+01  0.19598586181E+02  0.51100000000E-03 0. -1.
        -11    1    3    3    0    0  0.93399425911E+01 -0.71622859625E+01  0.38692219068E+01  0.12389662878E+02  0.51100000000E-03 0.  1.
        -12    1    3    3    0    0 -0.11853401563E+02 -0.16350572106E+02 -0.18390046193E+02  0.27313698684E+02  0.00000000000E+00 0.  1.
</event>
<event>
 7    1  0.3750159E-013  0.5930196E+02  0.7816164E-02  0.1266605E+00
        -11   -1    0    0    0    0  0.00000000000E+00  0.00000000000E+00  0.45593999997E+02  0.45594000000E+02  0.51100000000E-03 0.  1.
         11   -1    0    0    0    0 -0.00000000000E+00 -0.00000000000E+00 -0.45593999997E+02  0.45594000000E+02  0.51100000000E-03 0. -1.
    9900012    2    1    2    0    0  0.30243435125E+02 -0.21753388213E+01  0.98652045393E+01  0.59301957164E+02  0.50000023957E+02 0.  0.
        -12    1    1    2    0    0 -0.30243435125E+02  0.21753388213E+01 -0.98652045393E+01  0.31886042836E+02  0.00000000000E+00 0.  1.
         11    1    3    3    0    0  0.17038967736E+02  0.92959925783E+00  0.35814056227E+01  0.17436084502E+02  0.51100000000E-03 0. -1.
        -11    1    3    3    0    0  0.20661915910E+02 -0.15556691560E+02  0.84105967022E+01  0.27196756397E+02  0.51100000000E-03 0.  1.
        -12    1    3    3    0    0 -0.74574485201E+01  0.12451753481E+02 -0.21267977856E+01  0.14669116265E+02  0.00000000000E+00 0.  1.
</event>
<event>
 7    1  0.3750159E-013  0.5930195E+02  0.7816164E-02  0.1266605E+00
        -11   -1    0    0    0    0  0.00000000000E+00  0.00000000000E+00  0.45593999997E+02  0.45594000000E+02  0.51100000000E-03 0. -1.
         11   -1    0    0    0    0 -0.00000000000E+00 -0.00000000000E+00 -0.45593999997E+02  0.45594000000E+02  0.51100000000E-03 0.  1.
    9900012    2    1    2    0    0  0.26977100165E+02  0.16076368263E+02 -0.55232664843E+01  0.59301952542E+02  0.50000015528E+02 0.  0.
        -12    1    1    2    0    0 -0.26977100165E+02 -0.16076368263E+02  0.55232664843E+01  0.31886047458E+02  0.00000000000E+00 0.  1.
         11    1    3    3    0    0  0.45613319916E+01  0.18292957714E+02  0.10688990500E+02  0.21672391876E+02  0.51100000000E-03 0. -1.
        -11    1    3    3    0    0 -0.27458918696E+01  0.39850781678E+01  0.27055786696E+01  0.55444500504E+01  0.51100000000E-03 0.  1.
         12    1    3    3    0    0  0.25161660043E+02 -0.62016676191E+01 -0.18917835653E+02  0.32085110615E+02  0.00000000000E+00 0. -1.
</event>
<event>
 7    1  0.3750159E-013  0.5930167E+02  0.7816164E-02  0.1266606E+00
        -11   -1    0    0    0    0  0.00000000000E+00  0.00000000000E+00  0.45593999997E+02  0.45594000000E+02  0.51100000000E-03 0.  1.
         11   -1    0    0    0    0 -0.00000000000E+00 -0.00000000000E+00 -0.45593999997E+02  0.45594000000E+02  0.51100000000E-03 0. -1.
    9900012    2    1    2    0    0  0.33104159970E+00 -0.27331613415E+02 -0.16419854256E+02  0.59301666027E+02  0.49999492992E+02 0.  0.
        -12    1    1    2    0    0 -0.33104159970E+00  0.27331613415E+02  0.16419854256E+02  0.31886333973E+02  0.00000000000E+00 0.  1.
         11    1    3    3    0    0 -0.26825160314E+00 -0.11003205601E+02 -0.28628027565E+02  0.30670938279E+02  0.51100000000E-03 0. -1.
        -11    1    3    3    0    0  0.36549969090E+01  0.35977647387E+01  0.13004751696E+00  0.51302851907E+01  0.51100000000E-03 0.  1.
         12    1    3    3    0    0 -0.30557037062E+01 -0.19926172553E+02  0.12078125792E+02  0.23500442557E+02  0.00000000000E+00 0. -1.
</event>
<event>
 7    1  0.3750159E-013  0.5930193E+02  0.7816164E-02  0.1266605E+00
        -11   -1    0    0    0    0  0.00000000000E+00  0.00000000000E+00  0.45593999997E+02  0.45594000000E+02  0.51100000000E-03 0.  1.
         11   -1    0    0    0    0 -0.00000000000E+00 -0.00000000000E+00 -0.45593999997E+02  0.45594000000E+02  0.51100000000E-03 0. -1.
    9900012    2    1    2    0    0 -0.27971637935E+01 -0.18263065677E+02 -0.25987643972E+02  0.59301932001E+02  0.49999978066E+02 0.  0.
        -12    1    1    2    0    0  0.27971637935E+01  0.18263065677E+02  0.25987643972E+02  0.31886067999E+02  0.00000000000E+00 0.  1.
         11    1    3    3    0    0 -0.37230294377E+01  0.20566219690E+01  0.38509365958E+01  0.57376262551E+01  0.51100000000E-03 0. -1.
        -11    1    3    3    0    0 -0.23188793160E+01  0.11877082527E+02 -0.73709029074E+01  0.14169421321E+02  0.51100000000E-03 0.  1.
         12    1    3    3    0    0  0.32447449602E+01 -0.32196770173E+02 -0.22467677660E+02  0.39394884425E+02  0.00000000000E+00 0. -1.
</event>
<event>
 7    1  0.3750159E-013  0.5930194E+02  0.7816164E-02  0.1266605E+00
        -11   -1    0    0    0    0  0.00000000000E+00  0.00000000000E+00  0.45593999997E+02  0.45594000000E+02  0.51100000000E-03 0.  1.
         11   -1    0    0    0    0 -0.00000000000E+00 -0.00000000000E+00 -0.45593999997E+02  0.45594000000E+02  0.51100000000E-03 0. -1.
    9900012    2    1    2    0    0  0.13881030969E+02  0.49696106456E+01 -0.28272613598E+02  0.59301941442E+02  0.49999995284E+02 0.  0.
        -12    1    1    2    0    0 -0.13881030969E+02 -0.49696106456E+01  0.28272613598E+02  0.31886058558E+02  0.00000000000E+00 0.  1.
         11    1    3    3    0    0  0.18371576278E+02  0.12954492679E+00 -0.21824443041E+01  0.18501206994E+02  0.51100000000E-03 0. -1.
        -11    1    3    3    0    0 -0.76703166485E+01  0.16903805705E+02 -0.18446663874E+02  0.26169673539E+02  0.51100000000E-03 0.  1.
         12    1    3    3    0    0  0.31797713388E+01 -0.12063739986E+02 -0.76435054198E+01  0.14631060909E+02  0.00000000000E+00 0. -1.
</event>
<event>
 7    1  0.3750159E-013  0.5930193E+02  0.7816164E-02  0.1266605E+00
        -11   -1    0    0    0    0  0.00000000000E+00  0.00000000000E+00  0.45593999997E+02  0.45594000000E+02  0.51100000000E-03 0.  1.
         11   -1    0    0    0    0 -0.00000000000E+00 -0.00000000000E+00 -0.45593999997E+02  0.45594000000E+02  0.51100000000E-03 0. -1.
    9900012    2    1    2    0    0  0.11798694613E+02  0.10631812180E+02 -0.27649176194E+02  0.59301928292E+02  0.49999971301E+02 0.  0.
        -12    1    1    2    0    0 -0.11798694613E+02 -0.10631812180E+02  0.27649176194E+02  0.31886071708E+02  0.00000000000E+00 0.  1.
         11    1    3    3    0    0  0.17112157690E+02 -0.42157875946E+01  0.67745880376E+00  0.17636829549E+02  0.51100000000E-03 0. -1.
        -11    1    3    3    0    0  0.48987128287E+01 -0.35024603487E+01  0.45199015472E+00  0.60389495141E+01  0.51100000000E-03 0.  1.
         12    1    3    3    0    0 -0.10212175905E+02  0.18350060123E+02 -0.28778625152E+02  0.35626149229E+02  0.00000000000E+00 0. -1.
</event>
<event>
 7    1  0.3750159E-013  0.5930194E+02  0.7816164E-02  0.1266605E+00
        -11   -1    0    0    0    0  0.00000000000E+00  0.00000000000E+00  0.45593999997E+02  0.45594000000E+02  0.51100000000E-03 0.  1.
         11   -1    0    0    0    0 -0.00000000000E+00 -0.00000000000E+00 -0.45593999997E+02  0.45594000000E+02  0.51100000000E-03 0. -1.
    9900012    2    1    2    0    0  0.15029320946E+02  0.22463280355E+02  0.16918672218E+02  0.59301938437E+02  0.49999989804E+02 0.  0.
        -12    1    1    2    0    0 -0.15029320946E+02 -0.22463280355E+02 -0.16918672218E+02  0.31886061563E+02  0.00000000000E+00 0.  1.
         11    1    3    3    0    0  0.18468687193E+02  0.92358453287E+01  0.64483700768E+01  0.21632723418E+02  0.51100000000E-03 0. -1.
        -11    1    3    3    0    0  0.83599171425E+01  0.17398154344E+02 -0.27126128195E+01  0.19492107576E+02  0.51100000000E-03 0.  1.
        -12    1    3    3    0    0 -0.11799283389E+02 -0.41707193177E+01  0.13182914961E+02  0.18177107443E+02  0.00000000000E+00 0.  1.
</event>
<event>
 7    1  0.3750159E-013  0.5930195E+02  0.7816164E-02  0.1266605E+00
        -11   -1    0    0    0    0  0.00000000000E+00  0.00000000000E+00  0.45593999997E+02  0.45594000000E+02  0.51100000000E-03 0. -1.
         11   -1    0    0    0    0 -0.00000000000E+00 -0.00000000000E+00 -0.45593999997E+02  0.45594000000E+02  0.51100000000E-03 0.  1.
    9900012    2    1    2    0    0 -0.16087906401E+02 -0.10974346421E+02  0.25248039348E+02  0.59301945013E+02  0.50000001796E+02 0.  0.
        -12    1    1    2    0    0  0.16087906401E+02  0.10974346421E+02 -0.25248039348E+02  0.31886054987E+02  0.00000000000E+00 0.  1.
         11    1    3    3    0    0  0.14798522711E+02 -0.14288408215E+01  0.15119465173E+02  0.21204624210E+02  0.51100000000E-03 0. -1.
        -11    1    3    3    0    0  0.18630107007E+01  0.89008986711E+00 -0.49098488034E+00  0.21222948090E+01  0.51100000000E-03 0.  1.
         12    1    3    3    0    0 -0.32749439812E+02 -0.10435595467E+02  0.10619559056E+02  0.35975025994E+02  0.00000000000E+00 0. -1.
</event>
<event>
 7    1  0.3750159E-013  0.5930194E+02  0.7816164E-02  0.1266605E+00
        -11   -1    0    0    0    0  0.00000000000E+00  0.00000000000E+00  0.45593999997E+02  0.45594000000E+02  0.51100000000E-03 0. -1.
         11   -1    0    0    0    0 -0.00000000000E+00 -0.00000000000E+00 -0.45593999997E+02  0.45594000000E+02  0.51100000000E-03 0.  1.
    9900012    2    1    2    0    0 -0.22285706468E+02 -0.72167213364E+01  0.21633003000E+02  0.59301943511E+02  0.49999999057E+02 0.  0.
        -12    1    1    2    0    0  0.22285706468E+02  0.72167213364E+01 -0.21633003000E+02  0.31886056489E+02  0.00000000000E+00 0.  1.
         11    1    3    3    0    0  0.11619241754E+02 -0.12806512731E+01  0.21753363497E+02  0.24695256029E+02  0.51100000000E-03 0. -1.
        -11    1    3    3    0    0 -0.12736487796E+01 -0.91025380670E+00  0.26843978740E+00  0.15883335251E+01  0.51100000000E-03 0.  1.
        -12    1    3    3    0    0 -0.32631299443E+02 -0.50258162566E+01 -0.38880028380E+00  0.33018353957E+02  0.00000000000E+00 0.  1.
</event>
<event>
 7    1  0.3750159E-013  0.5930202E+02  0.7816164E-02  0.1266604E+00
        -11   -1    0    0    0    0  0.00000000000E+00  0.00000000000E+00  0.45593999997E+02  0.45594000000E+02  0.51100000000E-03 0.  1.
         11   -1    0    0    0    0 -0.00000000000E+00 -0.00000000000E+00 -0.45593999997E+02  0.45594000000E+02  0.51100000000E-03 0. -1.
    9900012    2    1    2    0    0  0.12634524512E+02  0.15128917507E+02 -0.25063926243E+02  0.59302019487E+02  0.50000137620E+02 0.  0.
        -12    1    1    2    0    0 -0.12634524512E+02 -0.15128917507E+02  0.25063926243E+02  0.31885980513E+02  0.00000000000E+00 0.  1.
         11    1    3    3    0    0 -0.26259208315E+01  0.22876331946E+01 -0.79707454900E+01  0.86983624765E+01  0.51100000000E-03 0. -1.
        -11    1    3    3    0    0 -0.72287507347E+01  0.30453015140E+01  0.10870849574E+02  0.13405374640E+02  0.51100000000E-03 0.  1.
         12    1    3    3    0    0  0.22489196078E+02  0.97959827979E+01 -0.27964030327E+02  0.37198282371E+02  0.00000000000E+00 0. -1.
</event>
<event>
 7    1  0.3750159E-013  0.5930193E+02  0.7816164E-02  0.1266605E+00
        -11   -1    0    0    0    0  0.00000000000E+00  0.00000000000E+00  0.45593999997E+02  0.45594000000E+02  0.51100000000E-03 0.  1.
         11   -1    0    0    0    0 -0.00000000000E+00 -0.00000000000E+00 -0.45593999997E+02  0.45594000000E+02  0.51100000000E-03 0. -1.
    9900012    2    1    2    0    0 -0.49602308756E+01  0.28145301493E+02  0.14140708591E+02  0.59301928967E+02  0.49999972533E+02 0.  0.
        -12    1    1    2    0    0  0.49602308756E+01 -0.28145301493E+02 -0.14140708591E+02  0.31886071033E+02  0.00000000000E+00 0.  1.
         11    1    3    3    0    0 -0.18082055819E+02 -0.16466988478E+00  0.79461748469E+01  0.19751697491E+02  0.51100000000E-03 0. -1.
        -11    1    3    3    0    0 -0.68336984305E+01  0.87412471771E+01  0.12280646512E+01  0.11163197548E+02  0.51100000000E-03 0.  1.
         12    1    3    3    0    0  0.19955523374E+02  0.19568724200E+02  0.49664690930E+01  0.28387033928E+02  0.00000000000E+00 0. -1.
</event>
<event>
 7    1  0.3750159E-013  0.5930192E+02  0.7816164E-02  0.1266605E+00
        -11   -1    0    0    0    0  0.00000000000E+00  0.00000000000E+00  0.45593999997E+02  0.45594000000E+02  0.51100000000E-03 0. -1.
         11   -1    0    0    0    0 -0.00000000000E+00 -0.00000000000E+00 -0.45593999997E+02  0.45594000000E+02  0.51100000000E-03 0.  1.
    9900012    2    1    2    0    0 -0.11870469133E+02 -0.25740697675E+02 -0.14602414007E+02  0.59301920763E+02  0.49999957571E+02 0.  0.
        -12    1    1    2    0    0  0.11870469133E+02  0.25740697675E+02  0.14602414007E+02  0.31886079237E+02  0.00000000000E+00 0.  1.
         11    1    3    3    0    0 -0.17581753407E+02 -0.44923086612E+01  0.11023956051E+01  0.18180048578E+02  0.51100000000E-03 0. -1.
        -11    1    3    3    0    0 -0.11896206139E+02 -0.25863332075E+01 -0.32447911928E+01  0.12599107512E+02  0.51100000000E-03 0.  1.
        -12    1    3    3    0    0  0.17607490413E+02 -0.18662055807E+02 -0.12460018419E+02  0.28522764673E+02  0.00000000000E+00 0.  1.
</event>
<event>
 7    1  0.3750159E-013  0.5930210E+02  0.7816164E-02  0.1266604E+00
        -11   -1    0    0    0    0  0.00000000000E+00  0.00000000000E+00  0.45593999997E+02  0.45594000000E+02  0.51100000000E-03 0.  1.
         11   -1    0    0    0    0 -0.00000000000E+00 -0.00000000000E+00 -0.45593999997E+02  0.45594000000E+02  0.51100000000E-03 0. -1.
    9900012    2    1    2    0    0  0.86802944109E+01 -0.22202059283E+02 -0.21176209050E+02  0.59302097517E+02  0.50000279926E+02 0.  0.
        -12    1    1    2    0    0 -0.86802944109E+01  0.22202059283E+02  0.21176209050E+02  0.31885902483E+02  0.00000000000E+00 0.  1.
         11    1    3    3    0    0  0.13135919999E+02 -0.93660535491E+01 -0.23946838851E+02  0.28874321542E+02  0.51100000000E-03 0. -1.
        -11    1    3    3    0    0  0.13218781497E+01  0.52910020127E+01  0.89011560959E+01  0.10438996324E+02  0.51100000000E-03 0.  1.
         12    1    3    3    0    0 -0.57775037379E+01 -0.18127007746E+02 -0.61305262948E+01  0.19988779651E+02  0.00000000000E+00 0. -1.
</event>
<event>
 7    1  0.3750159E-013  0.5930194E+02  0.7816164E-02  0.1266605E+00
        -11   -1    0    0    0    0  0.00000000000E+00  0.00000000000E+00  0.45593999997E+02  0.45594000000E+02  0.51100000000E-03 0.  1.
         11   -1    0    0    0    0 -0.00000000000E+00 -0.00000000000E+00 -0.45593999997E+02  0.45594000000E+02  0.51100000000E-03 0. -1.
    9900012    2    1    2    0    0  0.97291092341E+01 -0.23772364926E+02 -0.18892859458E+02  0.59301936600E+02  0.49999986453E+02 0.  0.
        -12    1    1    2    0    0 -0.97291092341E+01  0.23772364926E+02  0.18892859458E+02  0.31886063400E+02  0.00000000000E+00 0.  1.
         11    1    3    3    0    0  0.10671783061E+02 -0.27559679565E+01  0.37825012437E+01  0.11652880717E+02  0.51100000000E-03 0.  1.
        -11    1    3    3    0    0 -0.92290431011E+01  0.71114880540E+01 -0.21288289931E+01  0.11844003210E+02  0.51100000000E-03 0. -1.
         12    1    3    3    0    0  0.82863692740E+01 -0.28127885023E+02 -0.20546531709E+02  0.35805052673E+02  0.00000000000E+00 0. -1.
</event>
<event>
 7    1  0.3750159E-013  0.5930195E+02  0.7816164E-02  0.1266605E+00
        -11   -1    0    0    0    0  0.00000000000E+00  0.00000000000E+00  0.45593999997E+02  0.45594000000E+02  0.51100000000E-03 0.  1.
         11   -1    0    0    0    0 -0.00000000000E+00 -0.00000000000E+00 -0.45593999997E+02  0.45594000000E+02  0.51100000000E-03 0. -1.
    9900012    2    1    2    0    0 -0.12258147178E+02  0.28091972894E+02 -0.87920027318E+01  0.59301946225E+02  0.50000004008E+02 0.  0.
        -12    1    1    2    0    0  0.12258147178E+02 -0.28091972894E+02  0.87920027318E+01  0.31886053775E+02  0.00000000000E+00 0.  1.
         11    1    3    3    0    0  0.70941720244E+01 -0.73513276740E+01 -0.25043848576E+00  0.10219198353E+02  0.51100000000E-03 0. -1.
        -11    1    3    3    0    0  0.50839855228E+01  0.19519670128E+01  0.27686690848E+01  0.61092235822E+01  0.51100000000E-03 0.  1.
         12    1    3    3    0    0 -0.24436304725E+02  0.33491333555E+02 -0.11310233331E+02  0.42973524290E+02  0.00000000000E+00 0. -1.
</event>
<event>
 7    1  0.3750159E-013  0.5930189E+02  0.7816164E-02  0.1266605E+00
        -11   -1    0    0    0    0  0.00000000000E+00  0.00000000000E+00  0.45593999997E+02  0.45594000000E+02  0.51100000000E-03 0. -1.
         11   -1    0    0    0    0 -0.00000000000E+00 -0.00000000000E+00 -0.45593999997E+02  0.45594000000E+02  0.51100000000E-03 0.  1.
    9900012    2    1    2    0    0 -0.20135940832E+02 -0.10517232831E+02  0.22375336278E+02  0.59301890592E+02  0.49999902546E+02 0.  0.
        -12    1    1    2    0    0  0.20135940832E+02  0.10517232831E+02 -0.22375336278E+02  0.31886109408E+02  0.00000000000E+00 0.  1.
         11    1    3    3    0    0 -0.39460592353E+01  0.10232354077E+02 -0.41400247928E+01  0.11722297514E+02  0.51100000000E-03 0.  1.
        -11    1    3    3    0    0 -0.60304553365E+01  0.61829963971E+01  0.29386110096E+00  0.86418858254E+01  0.51100000000E-03 0. -1.
        -12    1    3    3    0    0 -0.10159426260E+02 -0.26932583306E+02  0.26221499970E+02  0.38937707253E+02  0.00000000000E+00 0.  1.
</event>
<event>
 7    1  0.3750159E-013  0.5930192E+02  0.7816164E-02  0.1266605E+00
        -11   -1    0    0    0    0  0.00000000000E+00  0.00000000000E+00  0.45593999997E+02  0.45594000000E+02  0.51100000000E-03 0. -1.
         11   -1    0    0    0    0 -0.00000000000E+00 -0.00000000000E+00 -0.45593999997E+02  0.45594000000E+02  0.51100000000E-03 0.  1.
    9900012    2    1    2    0    0 -0.29348586828E+02  0.93247846660E+01  0.82723156412E+01  0.59301915826E+02  0.49999948567E+02 0.  0.
        -12    1    1    2    0    0  0.29348586828E+02 -0.93247846660E+01 -0.82723156412E+01  0.31886084174E+02  0.00000000000E+00 0.  1.
         11    1    3    3    0    0  0.28433483809E+00  0.23093282275E+02  0.54663252249E+01  0.23733125463E+02  0.51100000000E-03 0. -1.
        -11    1    3    3    0    0 -0.15145528784E+02 -0.47197850238E+01 -0.52137607418E+01  0.16698703967E+02  0.51100000000E-03 0.  1.
        -12    1    3    3    0    0 -0.14487392882E+02 -0.90487125849E+01  0.80197511581E+01  0.18870086396E+02  0.00000000000E+00 0.  1.
</event>
<event>
 7    1  0.3750159E-013  0.5930195E+02  0.7816164E-02  0.1266605E+00
        -11   -1    0    0    0    0  0.00000000000E+00  0.00000000000E+00  0.45593999997E+02  0.45594000000E+02  0.51100000000E-03 0.  1.
         11   -1    0    0    0    0 -0.00000000000E+00 -0.00000000000E+00 -0.45593999997E+02  0.45594000000E+02  0.51100000000E-03 0. -1.
    9900012    2    1    2    0    0  0.23449046168E+02  0.20194019311E+02  0.76853046280E+01  0.59301951494E+02  0.50000013617E+02 0.  0.
        -12    1    1    2    0    0 -0.23449046168E+02 -0.20194019311E+02 -0.76853046280E+01  0.31886048506E+02  0.00000000000E+00 0.  1.
         11    1    3    3    0    0  0.27469652790E+01  0.50016762142E+01  0.13688608062E+01  0.58682504517E+01  0.51100000000E-03 0. -1.
        -11    1    3    3    0    0  0.30772740644E+02  0.21157728595E+02 -0.43509771403E+01  0.37597101596E+02  0.51100000000E-03 0.  1.
        -12    1    3    3    0    0 -0.10070659756E+02 -0.59653854981E+01  0.10667420962E+02  0.15836599447E+02  0.00000000000E+00 0.  1.
</event>
<event>
 7    1  0.3750159E-013  0.5930195E+02  0.7816164E-02  0.1266605E+00
        -11   -1    0    0    0    0  0.00000000000E+00  0.00000000000E+00  0.45593999997E+02  0.45594000000E+02  0.51100000000E-03 0.  1.
         11   -1    0    0    0    0 -0.00000000000E+00 -0.00000000000E+00 -0.45593999997E+02  0.45594000000E+02  0.51100000000E-03 0. -1.
    9900012    2    1    2    0    0  0.13178726479E+02 -0.11437176369E+02  0.26687686926E+02  0.59301945550E+02  0.50000002777E+02 0.  0.
        -12    1    1    2    0    0 -0.13178726479E+02  0.11437176369E+02 -0.26687686926E+02  0.31886054450E+02  0.00000000000E+00 0.  1.
         11    1    3    3    0    0  0.13268579631E+02 -0.12195990997E+02  0.19180032900E+02  0.26318644800E+02  0.51100000000E-03 0. -1.
        -11    1    3    3    0    0  0.28549047285E+01 -0.11936961607E+02  0.13835989191E+02  0.18495300229E+02  0.51100000000E-03 0.  1.
         12    1    3    3    0    0 -0.29447578812E+01  0.12695776234E+02 -0.63283351645E+01  0.14488000521E+02  0.00000000000E+00 0. -1.
</event>
<event>
 7    1  0.3750159E-013  0.5930192E+02  0.7816164E-02  0.1266605E+00
        -11   -1    0    0    0    0  0.00000000000E+00  0.00000000000E+00  0.45593999997E+02  0.45594000000E+02  0.51100000000E-03 0. -1.
         11   -1    0    0    0    0 -0.00000000000E+00 -0.00000000000E+00 -0.45593999997E+02  0.45594000000E+02  0.51100000000E-03 0.  1.
    9900012    2    1    2    0    0 -0.12999054645E+02 -0.38406163598E+01  0.28861674977E+02  0.59301920935E+02  0.49999957884E+02 0.  0.
        -12    1    1    2    0    0  0.12999054645E+02  0.38406163598E+01 -0.28861674977E+02  0.31886079065E+02  0.00000000000E+00 0.  1.
         11    1    3    3    0    0 -0.15639975042E+02 -0.14102055123E+02  0.39747368863E+01  0.21430709544E+02  0.51100000000E-03 0. -1.
        -11    1    3    3    0    0 -0.74311519929E+01 -0.35366677802E+01  0.69980198535E+00  0.82595255317E+01  0.51100000000E-03 0.  1.
        -12    1    3    3    0    0  0.10072072390E+02  0.13798106543E+02  0.24187136105E+02  0.29611685859E+02  0.00000000000E+00 0.  1.
</event>
<event>
 7    1  0.3750159E-013  0.5930198E+02  0.7816164E-02  0.1266605E+00
        -11   -1    0    0    0    0  0.00000000000E+00  0.00000000000E+00  0.45593999997E+02  0.45594000000E+02  0.51100000000E-03 0.  1.
         11   -1    0    0    0    0 -0.00000000000E+00 -0.00000000000E+00 -0.45593999997E+02  0.45594000000E+02  0.51100000000E-03 0. -1.
    9900012    2    1    2    0    0 -0.21772850609E+02 -0.65184341230E+01 -0.22364507970E+02  0.59301980747E+02  0.50000066966E+02 0.  0.
        -12    1    1    2    0    0  0.21772850609E+02  0.65184341230E+01  0.22364507970E+02  0.31886019253E+02  0.00000000000E+00 0.  1.
         11    1    3    3    0    0 -0.15380164765E+02 -0.20348538089E+01 -0.12041773651E+02  0.19639104133E+02  0.51100000000E-03 0. -1.
        -11    1    3    3    0    0  0.10930114054E+02 -0.13865279016E+02 -0.92543119728E+01  0.19933781522E+02  0.51100000000E-03 0.  1.
         12    1    3    3    0    0 -0.17322799898E+02  0.93816987018E+01 -0.10684223469E+01  0.19729095092E+02  0.00000000000E+00 0. -1.
</event>
<event>
 7    1  0.3750159E-013  0.5930192E+02  0.7816164E-02  0.1266605E+00
        -11   -1    0    0    0    0  0.00000000000E+00  0.00000000000E+00  0.45593999997E+02  0.45594000000E+02  0.51100000000E-03 0. -1.
         11   -1    0    0    0    0 -0.00000000000E+00 -0.00000000000E+00 -0.45593999997E+02  0.45594000000E+02  0.51100000000E-03 0.  1.
    9900012    2    1    2    0    0  0.65382297774E+01  0.14881399779E+02  0.27432052342E+02  0.59301921475E+02  0.49999958869E+02 0.  0.
        -12    1    1    2    0    0 -0.65382297774E+01 -0.14881399779E+02 -0.27432052342E+02  0.31886078525E+02  0.00000000000E+00 0.  1.
         11    1    3    3    0    0 -0.36607151398E+00  0.41397524870E+01  0.14271707396E+02  0.14864494316E+02  0.51100000000E-03 0. -1.
        -11    1    3    3    0    0  0.18409516641E+02  0.18532581241E+02  0.12758609478E+01  0.26153292179E+02  0.51100000000E-03 0.  1.
         12    1    3    3    0    0 -0.11505215350E+02 -0.77909339485E+01  0.11884483999E+02  0.18284134980E+02  0.00000000000E+00 0. -1.
</event>
<event>
 7    1  0.3750159E-013  0.5930194E+02  0.7816164E-02  0.1266605E+00
        -11   -1    0    0    0    0  0.00000000000E+00  0.00000000000E+00  0.45593999997E+02  0.45594000000E+02  0.51100000000E-03 0. -1.
         11   -1    0    0    0    0 -0.00000000000E+00 -0.00000000000E+00 -0.45593999997E+02  0.45594000000E+02  0.51100000000E-03 0.  1.
    9900012    2    1    2    0    0 -0.21359218600E+02  0.16155555706E+02  0.17306150599E+02  0.59301936463E+02  0.49999986203E+02 0.  0.
        -12    1    1    2    0    0  0.21359218600E+02 -0.16155555706E+02 -0.17306150599E+02  0.31886063537E+02  0.00000000000E+00 0.  1.
         11    1    3    3    0    0  0.91230910670E+00  0.43625362326E+01 -0.60672146374E+01  0.75282882519E+01  0.51100000000E-03 0. -1.
        -11    1    3    3    0    0 -0.41260604066E+01  0.10422682301E+02 -0.91737052049E+01  0.14484942122E+02  0.51100000000E-03 0.  1.
         12    1    3    3    0    0 -0.18145467300E+02  0.13703371721E+01  0.32547070441E+02  0.37288706089E+02  0.00000000000E+00 0. -1.
</event>
<event>
 7    1  0.3750159E-013  0.5930195E+02  0.7816164E-02  0.1266605E+00
        -11   -1    0    0    0    0  0.00000000000E+00  0.00000000000E+00  0.45593999997E+02  0.45594000000E+02  0.51100000000E-03 0. -1.
         11   -1    0    0    0    0 -0.00000000000E+00 -0.00000000000E+00 -0.45593999997E+02  0.45594000000E+02  0.51100000000E-03 0.  1.
    9900012    2    1    2    0    0  0.16397289884E+02 -0.17631084842E+02  0.20904400276E+02  0.59301949458E+02  0.50000009904E+02 0.  0.
        -12    1    1    2    0    0 -0.16397289884E+02  0.17631084842E+02 -0.20904400276E+02  0.31886050542E+02  0.00000000000E+00 0.  1.
         11    1    3    3    0    0  0.71233955045E+00  0.21064754256E+01  0.41806504336E-01  0.22240535962E+01  0.51100000000E-03 0. -1.
        -11    1    3    3    0    0  0.81958829462E+01 -0.31630552598E+01 -0.14705233939E+02  0.17129545275E+02  0.51100000000E-03 0.  1.
         12    1    3    3    0    0  0.74890673871E+01 -0.16574505008E+02  0.35567827711E+02  0.39948350588E+02  0.00000000000E+00 0. -1.
</event>
<event>
 7    1  0.3750159E-013  0.5930188E+02  0.7816164E-02  0.1266605E+00
        -11   -1    0    0    0    0  0.00000000000E+00  0.00000000000E+00  0.45593999997E+02  0.45594000000E+02  0.51100000000E-03 0. -1.
         11   -1    0    0    0    0 -0.00000000000E+00 -0.00000000000E+00 -0.45593999997E+02  0.45594000000E+02  0.51100000000E-03 0.  1.
    9900012    2    1    2    0    0 -0.30177133501E+02  0.71385389874E+01  0.74233789945E+01  0.59301879494E+02  0.49999882306E+02 0.  0.
        -12    1    1    2    0    0  0.30177133501E+02 -0.71385389874E+01 -0.74233789945E+01  0.31886120506E+02  0.00000000000E+00 0.  1.
         11    1    3    3    0    0 -0.28122020535E+02  0.42161646753E+01  0.15714948276E+02  0.32489747353E+02  0.51100000000E-03 0. -1.
        -11    1    3    3    0    0  0.95253160074E+01  0.62050514971E+01  0.12714196659E+01  0.11439004211E+02  0.51100000000E-03 0.  1.
         12    1    3    3    0    0 -0.11580428974E+02 -0.32826771850E+01 -0.95629889472E+01  0.15373127929E+02  0.00000000000E+00 0. -1.
</event>
<event>
 7    1  0.3750159E-013  0.5930196E+02  0.7816164E-02  0.1266605E+00
        -11   -1    0    0    0    0  0.00000000000E+00  0.00000000000E+00  0.45593999997E+02  0.45594000000E+02  0.51100000000E-03 0.  1.
         11   -1    0    0    0    0 -0.00000000000E+00 -0.00000000000E+00 -0.45593999997E+02  0.45594000000E+02  0.51100000000E-03 0. -1.
    9900012    2    1    2    0    0 -0.60408522539E+01  0.15485360380E+02 -0.27210871956E+02  0.59301955488E+02  0.50000020900E+02 0.  0.
        -12    1    1    2    0    0  0.60408522539E+01 -0.15485360380E+02  0.27210871956E+02  0.31886044512E+02  0.00000000000E+00 0.  1.
         11    1    3    3    0    0 -0.10200315407E+01 -0.53553259551E+01 -0.16116120333E+01  0.56848284087E+01  0.51100000000E-03 0. -1.
        -11    1    3    3    0    0 -0.19661183551E+01 -0.57906732835E+01  0.83568389228E+01  0.10355398375E+02  0.51100000000E-03 0.  1.
        -12    1    3    3    0    0 -0.30547023581E+01  0.26631359619E+02 -0.33956098845E+02  0.43261728704E+02  0.00000000000E+00 0.  1.
</event>
<event>
 7    1  0.3750159E-013  0.5930196E+02  0.7816164E-02  0.1266605E+00
        -11   -1    0    0    0    0  0.00000000000E+00  0.00000000000E+00  0.45593999997E+02  0.45594000000E+02  0.51100000000E-03 0. -1.
         11   -1    0    0    0    0 -0.00000000000E+00 -0.00000000000E+00 -0.45593999997E+02  0.45594000000E+02  0.51100000000E-03 0.  1.
    9900012    2    1    2    0    0  0.15514873793E+02  0.14455826271E+02  0.23812543742E+02  0.59301961340E+02  0.50000031573E+02 0.  0.
        -12    1    1    2    0    0 -0.15514873793E+02 -0.14455826271E+02 -0.23812543742E+02  0.31886038660E+02  0.00000000000E+00 0.  1.
         11    1    3    3    0    0 -0.68082325645E+00 -0.61685629644E+01  0.12954951236E+01  0.63397947308E+01  0.51100000000E-03 0. -1.
        -11    1    3    3    0    0  0.21344148078E+01  0.18465886430E+02 -0.72640500361E+01  0.19957733123E+02  0.51100000000E-03 0.  1.
         12    1    3    3    0    0  0.14061282242E+02  0.21585028051E+01  0.29781098654E+02  0.33004433486E+02  0.00000000000E+00 0. -1.
</event>
<event>
 7    1  0.3750159E-013  0.5930189E+02  0.7816164E-02  0.1266605E+00
        -11   -1    0    0    0    0  0.00000000000E+00  0.00000000000E+00  0.45593999997E+02  0.45594000000E+02  0.51100000000E-03 0. -1.
         11   -1    0    0    0    0 -0.00000000000E+00 -0.00000000000E+00 -0.45593999997E+02  0.45594000000E+02  0.51100000000E-03 0.  1.
    9900012    2    1    2    0    0  0.29282625050E+02  0.97069627629E+01 -0.80639103592E+01  0.59301891642E+02  0.49999904461E+02 0.  0.
        -12    1    1    2    0    0 -0.29282625050E+02 -0.97069627629E+01  0.80639103592E+01  0.31886108358E+02  0.00000000000E+00 0.  1.
         11    1    3    3    0    0  0.16224281265E+02  0.12731902592E+02 -0.89311755685E+01  0.22474308520E+02  0.51100000000E-03 0. -1.
        -11    1    3    3    0    0 -0.66269126307E+01  0.10643014405E+02 -0.19839987271E+01  0.12693540792E+02  0.51100000000E-03 0.  1.
         12    1    3    3    0    0  0.19685256416E+02 -0.13667954234E+02  0.28512639364E+01  0.24134042329E+02  0.00000000000E+00 0. -1.
</event>
<event>
 7    1  0.3750159E-013  0.5930194E+02  0.7816164E-02  0.1266605E+00
        -11   -1    0    0    0    0  0.00000000000E+00  0.00000000000E+00  0.45593999997E+02  0.45594000000E+02  0.51100000000E-03 0. -1.
         11   -1    0    0    0    0 -0.00000000000E+00 -0.00000000000E+00 -0.45593999997E+02  0.45594000000E+02  0.51100000000E-03 0.  1.
    9900012    2    1    2    0    0 -0.54434258984E+01 -0.24792482849E+02  0.19298256324E+02  0.59301940530E+02  0.49999993622E+02 0.  0.
        -12    1    1    2    0    0  0.54434258984E+01  0.24792482849E+02 -0.19298256324E+02  0.31886059470E+02  0.00000000000E+00 0.  1.
         11    1    3    3    0    0 -0.45180494520E+01 -0.13496143493E+01  0.76870414706E+01  0.90180284194E+01  0.51100000000E-03 0. -1.
        -11    1    3    3    0    0 -0.29668892429E+01  0.10723408105E+02 -0.50478810563E+01  0.12217815541E+02  0.51100000000E-03 0.  1.
         12    1    3    3    0    0  0.20415127965E+01 -0.34166276605E+02  0.16659095910E+02  0.38066096570E+02  0.00000000000E+00 0. -1.
</event>
<event>
 7    1  0.3750159E-013  0.5930195E+02  0.7816164E-02  0.1266605E+00
        -11   -1    0    0    0    0  0.00000000000E+00  0.00000000000E+00  0.45593999997E+02  0.45594000000E+02  0.51100000000E-03 0.  1.
         11   -1    0    0    0    0 -0.00000000000E+00 -0.00000000000E+00 -0.45593999997E+02  0.45594000000E+02  0.51100000000E-03 0. -1.
    9900012    2    1    2    0    0  0.15179751131E+02 -0.46669978246E+00 -0.28037075131E+02  0.59301949210E+02  0.50000009451E+02 0.  0.
        -12    1    1    2    0    0 -0.15179751131E+02  0.46669978246E+00  0.28037075131E+02  0.31886050790E+02  0.00000000000E+00 0.  1.
         11    1    3    3    0    0  0.22684402124E+01  0.10372590023E+02 -0.23305049408E+02  0.25609798378E+02  0.51100000000E-03 0. -1.
        -11    1    3    3    0    0 -0.54280447341E+01  0.58118114629E+01  0.16293004841E+01  0.81176007813E+01  0.51100000000E-03 0.  1.
         12    1    3    3    0    0  0.18339355653E+02 -0.16651101268E+02 -0.63613262071E+01  0.25574550051E+02  0.00000000000E+00 0. -1.
</event>
<event>
 7    1  0.3750159E-013  0.5930193E+02  0.7816164E-02  0.1266605E+00
        -11   -1    0    0    0    0  0.00000000000E+00  0.00000000000E+00  0.45593999997E+02  0.45594000000E+02  0.51100000000E-03 0.  1.
         11   -1    0    0    0    0 -0.00000000000E+00 -0.00000000000E+00 -0.45593999997E+02  0.45594000000E+02  0.51100000000E-03 0. -1.
    9900012    2    1    2    0    0 -0.23067177048E+02  0.12534309570E+02 -0.18097451011E+02  0.59301932408E+02  0.49999978808E+02 0.  0.
        -12    1    1    2    0    0  0.23067177048E+02 -0.12534309570E+02  0.18097451011E+02  0.31886067592E+02  0.00000000000E+00 0.  1.
         11    1    3    3    0    0 -0.16281620945E+02  0.13920168665E+02  0.38623495346E+01  0.21766488473E+02  0.51100000000E-03 0.  1.
        -11    1    3    3    0    0 -0.11893285814E+02 -0.13080909960E+02 -0.12821146039E+02  0.21839007277E+02  0.51100000000E-03 0. -1.
        -12    1    3    3    0    0  0.51077297108E+01  0.11695050865E+02 -0.91386545073E+01  0.15696436658E+02  0.00000000000E+00 0.  1.
</event>
<event>
 7    1  0.3750159E-013  0.5930193E+02  0.7816164E-02  0.1266605E+00
        -11   -1    0    0    0    0  0.00000000000E+00  0.00000000000E+00  0.45593999997E+02  0.45594000000E+02  0.51100000000E-03 0.  1.
         11   -1    0    0    0    0 -0.00000000000E+00 -0.00000000000E+00 -0.45593999997E+02  0.45594000000E+02  0.51100000000E-03 0. -1.
    9900012    2    1    2    0    0 -0.99287993160E+01  0.18035357043E+02 -0.24348848728E+02  0.59301927901E+02  0.49999970589E+02 0.  0.
        -12    1    1    2    0    0  0.99287993160E+01 -0.18035357043E+02  0.24348848728E+02  0.31886072099E+02  0.00000000000E+00 0.  1.
         11    1    3    3    0    0 -0.33567444557E+01  0.10475039738E+02 -0.22651035001E+02  0.25180619089E+02  0.51100000000E-03 0. -1.
        -11    1    3    3    0    0 -0.12147006154E+02  0.12364814702E+02 -0.12272288303E+02  0.21237877991E+02  0.51100000000E-03 0.  1.
         12    1    3    3    0    0  0.55749512942E+01 -0.48044973971E+01  0.10574474575E+02  0.12883430821E+02  0.00000000000E+00 0. -1.
</event>
<event>
 7    1  0.3750159E-013  0.5930194E+02  0.7816164E-02  0.1266605E+00
        -11   -1    0    0    0    0  0.00000000000E+00  0.00000000000E+00  0.45593999997E+02  0.45594000000E+02  0.51100000000E-03 0.  1.
         11   -1    0    0    0    0 -0.00000000000E+00 -0.00000000000E+00 -0.45593999997E+02  0.45594000000E+02  0.51100000000E-03 0. -1.
    9900012    2    1    2    0    0  0.13675062118E+02  0.14849516606E+02 -0.24682087088E+02  0.59301938933E+02  0.49999990708E+02 0.  0.
        -12    1    1    2    0    0 -0.13675062118E+02 -0.14849516606E+02  0.24682087088E+02  0.31886061067E+02  0.00000000000E+00 0.  1.
         11    1    3    3    0    0 -0.11489924373E+02 -0.38821775194E+01 -0.12519808394E+02  0.17430871087E+02  0.51100000000E-03 0.  1.
        -11    1    3    3    0    0  0.18533047504E+02  0.18677152862E+01 -0.14492451162E+02  0.23600706581E+02  0.51100000000E-03 0. -1.
        -12    1    3    3    0    0  0.66319389874E+01  0.16863978839E+02  0.23301724685E+01  0.18270361265E+02  0.00000000000E+00 0.  1.
</event>
<event>
 7    1  0.3750159E-013  0.5930196E+02  0.7816164E-02  0.1266605E+00
        -11   -1    0    0    0    0  0.00000000000E+00  0.00000000000E+00  0.45593999997E+02  0.45594000000E+02  0.51100000000E-03 0. -1.
         11   -1    0    0    0    0 -0.00000000000E+00 -0.00000000000E+00 -0.45593999997E+02  0.45594000000E+02  0.51100000000E-03 0.  1.
    9900012    2    1    2    0    0  0.57846747163E+01  0.18316938901E+02 -0.25450873326E+02  0.59301958142E+02  0.50000025742E+02 0.  0.
        -12    1    1    2    0    0 -0.57846747163E+01 -0.18316938901E+02  0.25450873326E+02  0.31886041858E+02  0.00000000000E+00 0.  1.
         11    1    3    3    0    0 -0.91502965099E+01  0.61844771502E+01 -0.91008530746E+01  0.14310877359E+02  0.51100000000E-03 0. -1.
        -11    1    3    3    0    0 -0.79795007527E+01  0.14709665508E+02 -0.13989257217E+02  0.21811602632E+02  0.51100000000E-03 0.  1.
         12    1    3    3    0    0  0.22914471979E+02 -0.25772037573E+01 -0.23607630349E+01  0.23179478152E+02  0.00000000000E+00 0. -1.
</event>
<event>
 7    1  0.3750159E-013  0.5930192E+02  0.7816164E-02  0.1266605E+00
        -11   -1    0    0    0    0  0.00000000000E+00  0.00000000000E+00  0.45593999997E+02  0.45594000000E+02  0.51100000000E-03 0.  1.
         11   -1    0    0    0    0 -0.00000000000E+00 -0.00000000000E+00 -0.45593999997E+02  0.45594000000E+02  0.51100000000E-03 0. -1.
    9900012    2    1    2    0    0 -0.75276847974E+01 -0.65462159879E+01 -0.30285363215E+02  0.59301918284E+02  0.49999953049E+02 0.  0.
        -12    1    1    2    0    0  0.75276847974E+01  0.65462159879E+01  0.30285363215E+02  0.31886081716E+02  0.00000000000E+00 0.  1.
         11    1    3    3    0    0 -0.11906652753E+02 -0.50763786470E+01 -0.36753864727E+01  0.13455350829E+02  0.51100000000E-03 0. -1.
        -11    1    3    3    0    0  0.35872840452E+01 -0.12284262662E+02  0.39716483263E+01  0.13399466656E+02  0.51100000000E-03 0.  1.
         12    1    3    3    0    0  0.79168391020E+00  0.10814425321E+02 -0.30581625068E+02  0.32447100799E+02  0.00000000000E+00 0. -1.
</event>
<event>
 7    1  0.3750159E-013  0.5930194E+02  0.7816164E-02  0.1266605E+00
        -11   -1    0    0    0    0  0.00000000000E+00  0.00000000000E+00  0.45593999997E+02  0.45594000000E+02  0.51100000000E-03 0. -1.
         11   -1    0    0    0    0 -0.00000000000E+00 -0.00000000000E+00 -0.45593999997E+02  0.45594000000E+02  0.51100000000E-03 0.  1.
    9900012    2    1    2    0    0  0.68065710818E+00  0.31706173517E+02  0.33129961817E+01  0.59301942281E+02  0.49999996814E+02 0.  0.
        -12    1    1    2    0    0 -0.68065710818E+00 -0.31706173517E+02 -0.33129961817E+01  0.31886057719E+02  0.00000000000E+00 0.  1.
         11    1    3    3    0    0  0.67719462362E+01  0.20616191111E+02 -0.10310611150E+01  0.21724402846E+02  0.51100000000E-03 0. -1.
        -11    1    3    3    0    0  0.10327607305E+02  0.11961116105E+02 -0.73226408371E+01  0.17416912476E+02  0.51100000000E-03 0.  1.
        -12    1    3    3    0    0 -0.16418896433E+02 -0.87113369873E+00  0.11666698134E+02  0.20160626958E+02  0.00000000000E+00 0.  1.
</event>
<event>
 7    1  0.3750159E-013  0.5930194E+02  0.7816164E-02  0.1266605E+00
        -11   -1    0    0    0    0  0.00000000000E+00  0.00000000000E+00  0.45593999997E+02  0.45594000000E+02  0.51100000000E-03 0.  1.
         11   -1    0    0    0    0 -0.00000000000E+00 -0.00000000000E+00 -0.45593999997E+02  0.45594000000E+02  0.51100000000E-03 0. -1.
    9900012    2    1    2    0    0 -0.18864514597E+02  0.22727300415E+02 -0.12013345772E+02  0.59301943929E+02  0.49999999820E+02 0.  0.
        -12    1    1    2    0    0  0.18864514597E+02 -0.22727300415E+02  0.12013345772E+02  0.31886056071E+02  0.00000000000E+00 0.  1.
         11    1    3    3    0    0 -0.55336937168E+01 -0.15773161447E+01 -0.11403588949E+02  0.12773078468E+02  0.51100000000E-03 0. -1.
        -11    1    3    3    0    0  0.59479973377E+01  0.32918717080E+01 -0.13591034775E+02  0.15196424520E+02  0.51100000000E-03 0.  1.
        -12    1    3    3    0    0 -0.19278818217E+02  0.21012744852E+02  0.12981277952E+02  0.31332440941E+02  0.00000000000E+00 0.  1.
</event>
<event>
 7    1  0.3750159E-013  0.5930193E+02  0.7816164E-02  0.1266605E+00
        -11   -1    0    0    0    0  0.00000000000E+00  0.00000000000E+00  0.45593999997E+02  0.45594000000E+02  0.51100000000E-03 0. -1.
         11   -1    0    0    0    0 -0.00000000000E+00 -0.00000000000E+00 -0.45593999997E+02  0.45594000000E+02  0.51100000000E-03 0.  1.
    9900012    2    1    2    0    0  0.28774464526E+02  0.12968327840E+02  0.45358437744E+01  0.59301933851E+02  0.49999981440E+02 0.  0.
        -12    1    1    2    0    0 -0.28774464526E+02 -0.12968327840E+02 -0.45358437744E+01  0.31886066149E+02  0.00000000000E+00 0.  1.
         11    1    3    3    0    0 -0.11473041389E+01  0.68146140598E+01 -0.61876868566E+01  0.92759226208E+01  0.51100000000E-03 0.  1.
        -11    1    3    3    0    0  0.38215853891E+02  0.74127583795E+01  0.13479453845E+02  0.41195826872E+02  0.51100000000E-03 0. -1.
         12    1    3    3    0    0 -0.82940852264E+01 -0.12590445994E+01 -0.27559232136E+01  0.88301843585E+01  0.00000000000E+00 0. -1.
</event>
<event>
 7    1  0.3750159E-013  0.5930213E+02  0.7816164E-02  0.1266604E+00
        -11   -1    0    0    0    0  0.00000000000E+00  0.00000000000E+00  0.45593999997E+02  0.45594000000E+02  0.51100000000E-03 0.  1.
         11   -1    0    0    0    0 -0.00000000000E+00 -0.00000000000E+00 -0.45593999997E+02  0.45594000000E+02  0.51100000000E-03 0. -1.
    9900012    2    1    2    0    0  0.13787746692E+02  0.25535977051E+02 -0.13210617754E+02  0.59302133158E+02  0.50000344928E+02 0.  0.
        -12    1    1    2    0    0 -0.13787746692E+02 -0.25535977051E+02  0.13210617754E+02  0.31885866842E+02  0.00000000000E+00 0.  1.
         11    1    3    3    0    0 -0.17578997580E+01 -0.11114340248E+02 -0.13481943644E+02  0.17560796548E+02  0.51100000000E-03 0. -1.
        -11    1    3    3    0    0  0.20403442327E+01 -0.56977052600E+00 -0.31961004895E+00  0.21423804249E+01  0.51100000000E-03 0.  1.
        -12    1    3    3    0    0  0.13505302217E+02  0.37220087825E+02  0.59093593859E+00  0.39598956186E+02  0.00000000000E+00 0.  1.
</event>
<event>
 7    1  0.3750159E-013  0.5930194E+02  0.7816164E-02  0.1266605E+00
        -11   -1    0    0    0    0  0.00000000000E+00  0.00000000000E+00  0.45593999997E+02  0.45594000000E+02  0.51100000000E-03 0. -1.
         11   -1    0    0    0    0 -0.00000000000E+00 -0.00000000000E+00 -0.45593999997E+02  0.45594000000E+02  0.51100000000E-03 0.  1.
    9900012    2    1    2    0    0  0.24809069895E+02  0.19729143601E+02 -0.34629509488E+01  0.59301935872E+02  0.49999985125E+02 0.  0.
        -12    1    1    2    0    0 -0.24809069895E+02 -0.19729143601E+02  0.34629509488E+01  0.31886064128E+02  0.00000000000E+00 0.  1.
         11    1    3    3    0    0  0.46401021399E+01 -0.33012087427E+01 -0.95185867876E+00  0.57736091171E+01  0.51100000000E-03 0. -1.
        -11    1    3    3    0    0  0.87203252252E+00  0.11681399998E+01 -0.19650148387E+02  0.19704144835E+02  0.51100000000E-03 0.  1.
         12    1    3    3    0    0  0.19296935233E+02  0.21862212344E+02  0.17139056117E+02  0.33824181920E+02  0.00000000000E+00 0. -1.
</event>
<event>
 7    1  0.3750159E-013  0.5930185E+02  0.7816164E-02  0.1266605E+00
        -11   -1    0    0    0    0  0.00000000000E+00  0.00000000000E+00  0.45593999997E+02  0.45594000000E+02  0.51100000000E-03 0.  1.
         11   -1    0    0    0    0 -0.00000000000E+00 -0.00000000000E+00 -0.45593999997E+02  0.45594000000E+02  0.51100000000E-03 0. -1.
    9900012    2    1    2    0    0  0.17740827823E+02 -0.26494851443E+02  0.11031733623E+00  0.59301854188E+02  0.49999836153E+02 0.  0.
        -12    1    1    2    0    0 -0.17740827823E+02  0.26494851443E+02 -0.11031733623E+00  0.31886145812E+02  0.00000000000E+00 0.  1.
         11    1    3    3    0    0  0.40083414424E+01  0.21647872491E+01 -0.16859787884E+01  0.48575332926E+01  0.51100000000E-03 0. -1.
        -11    1    3    3    0    0  0.35969487293E+01  0.93585875769E+01 -0.91821354445E+01  0.13595323210E+02  0.51100000000E-03 0.  1.
         12    1    3    3    0    0  0.10135537651E+02 -0.38018226269E+02  0.10978431569E+02  0.40848997685E+02  0.00000000000E+00 0. -1.
</event>
<event>
 7    1  0.3750159E-013  0.5930195E+02  0.7816164E-02  0.1266605E+00
        -11   -1    0    0    0    0  0.00000000000E+00  0.00000000000E+00  0.45593999997E+02  0.45594000000E+02  0.51100000000E-03 0. -1.
         11   -1    0    0    0    0 -0.00000000000E+00 -0.00000000000E+00 -0.45593999997E+02  0.45594000000E+02  0.51100000000E-03 0.  1.
    9900012    2    1    2    0    0  0.27687385747E+02 -0.82061775057E+00  0.15794165188E+02  0.59301946670E+02  0.50000004819E+02 0.  0.
        -12    1    1    2    0    0 -0.27687385747E+02  0.82061775057E+00 -0.15794165188E+02  0.31886053330E+02  0.00000000000E+00 0.  1.
         11    1    3    3    0    0  0.25133861028E+02  0.69605493654E+01  0.25020742426E+02  0.36141358157E+02  0.51100000000E-03 0. -1.
        -11    1    3    3    0    0  0.87090134578E+01  0.24662161256E+01 -0.22779265358E+01  0.93337070315E+01  0.51100000000E-03 0.  1.
        -12    1    3    3    0    0 -0.61554887393E+01 -0.10247383242E+02 -0.69486507024E+01  0.13826881482E+02  0.00000000000E+00 0.  1.
</event>
<event>
 7    1  0.3750159E-013  0.5930193E+02  0.7816164E-02  0.1266605E+00
        -11   -1    0    0    0    0  0.00000000000E+00  0.00000000000E+00  0.45593999997E+02  0.45594000000E+02  0.51100000000E-03 0.  1.
         11   -1    0    0    0    0 -0.00000000000E+00 -0.00000000000E+00 -0.45593999997E+02  0.45594000000E+02  0.51100000000E-03 0. -1.
    9900012    2    1    2    0    0  0.52071140196E+01  0.13180164597E+02 -0.28563805689E+02  0.59301925129E+02  0.49999965534E+02 0.  0.
        -12    1    1    2    0    0 -0.52071140196E+01 -0.13180164597E+02  0.28563805689E+02  0.31886074871E+02  0.00000000000E+00 0.  1.
         11    1    3    3    0    0  0.64482873662E+01  0.15426916913E+02 -0.29144700118E+01  0.16972457427E+02  0.51100000000E-03 0. -1.
        -11    1    3    3    0    0 -0.10163568178E+02  0.83943318366E+01 -0.22458803957E-01  0.13181935736E+02  0.51100000000E-03 0.  1.
        -12    1    3    3    0    0  0.89223948312E+01 -0.10641084152E+02 -0.25626876873E+02  0.29147531966E+02  0.00000000000E+00 0.  1.
</event>
<event>
 7    1  0.3750159E-013  0.5930194E+02  0.7816164E-02  0.1266605E+00
        -11   -1    0    0    0    0  0.00000000000E+00  0.00000000000E+00  0.45593999997E+02  0.45594000000E+02  0.51100000000E-03 0.  1.
         11   -1    0    0    0    0 -0.00000000000E+00 -0.00000000000E+00 -0.45593999997E+02  0.45594000000E+02  0.51100000000E-03 0. -1.
    9900012    2    1    2    0    0  0.28209180315E+02 -0.77651202810E+01 -0.12675395880E+02  0.59301943364E+02  0.49999998790E+02 0.  0.
        -12    1    1    2    0    0 -0.28209180315E+02  0.77651202810E+01  0.12675395880E+02  0.31886056636E+02  0.00000000000E+00 0.  1.
         11    1    3    3    0    0  0.88779913150E+01  0.11643369648E+02 -0.13086060331E+02  0.19637509052E+02  0.51100000000E-03 0. -1.
        -11    1    3    3    0    0  0.70408160842E+01  0.49433671966E+01  0.75740509238E+01  0.11461946520E+02  0.51100000000E-03 0.  1.
         12    1    3    3    0    0  0.12290372916E+02 -0.24351857125E+02 -0.71633864735E+01  0.28202487792E+02  0.00000000000E+00 0. -1.
</event>
<event>
 7    1  0.3750159E-013  0.5930195E+02  0.7816164E-02  0.1266605E+00
        -11   -1    0    0    0    0  0.00000000000E+00  0.00000000000E+00  0.45593999997E+02  0.45594000000E+02  0.51100000000E-03 0. -1.
         11   -1    0    0    0    0 -0.00000000000E+00 -0.00000000000E+00 -0.45593999997E+02  0.45594000000E+02  0.51100000000E-03 0.  1.
    9900012    2    1    2    0    0 -0.16865809247E+02 -0.18676103407E+02  0.19582336985E+02  0.59301948475E+02  0.50000008111E+02 0.  0.
        -12    1    1    2    0    0  0.16865809247E+02  0.18676103407E+02 -0.19582336985E+02  0.31886051525E+02  0.00000000000E+00 0.  1.
         11    1    3    3    0    0 -0.13085222840E+02 -0.12261052328E+02 -0.67558822859E+01  0.19162421733E+02  0.51100000000E-03 0. -1.
        -11    1    3    3    0    0 -0.35560977861E+00 -0.69411365423E+01 -0.50306703975E+01  0.85798298190E+01  0.51100000000E-03 0.  1.
         12    1    3    3    0    0 -0.34249766285E+01  0.52608546258E+00  0.31368889669E+02  0.31559696923E+02  0.00000000000E+00 0. -1.
</event>
<event>
 7    1  0.3750159E-013  0.5930192E+02  0.7816164E-02  0.1266605E+00
        -11   -1    0    0    0    0  0.00000000000E+00  0.00000000000E+00  0.45593999997E+02  0.45594000000E+02  0.51100000000E-03 0. -1.
         11   -1    0    0    0    0 -0.00000000000E+00 -0.00000000000E+00 -0.45593999997E+02  0.45594000000E+02  0.51100000000E-03 0.  1.
    9900012    2    1    2    0    0  0.61370988816E+01  0.32013412869E+01  0.31125702007E+02  0.59301923193E+02  0.49999962002E+02 0.  0.
        -12    1    1    2    0    0 -0.61370988816E+01 -0.32013412869E+01 -0.31125702007E+02  0.31886076807E+02  0.00000000000E+00 0.  1.
         11    1    3    3    0    0  0.10781228245E+02 -0.98685825269E+01  0.20192363390E+00  0.14617269820E+02  0.51100000000E-03 0. -1.
        -11    1    3    3    0    0 -0.11114185552E+01 -0.76842028882E+01  0.62428789982E+00  0.77892208131E+01  0.51100000000E-03 0.  1.
         12    1    3    3    0    0 -0.35327108084E+01  0.20754126702E+02  0.30299490474E+02  0.36895432560E+02  0.00000000000E+00 0. -1.
</event>
<event>
 7    1  0.3750159E-013  0.5930192E+02  0.7816164E-02  0.1266605E+00
        -11   -1    0    0    0    0  0.00000000000E+00  0.00000000000E+00  0.45593999997E+02  0.45594000000E+02  0.51100000000E-03 0.  1.
         11   -1    0    0    0    0 -0.00000000000E+00 -0.00000000000E+00 -0.45593999997E+02  0.45594000000E+02  0.51100000000E-03 0. -1.
    9900012    2    1    2    0    0 -0.65762661132E+01  0.27611618650E+02 -0.14528357093E+02  0.59301922783E+02  0.49999961255E+02 0.  0.
        -12    1    1    2    0    0  0.65762661132E+01 -0.27611618650E+02  0.14528357093E+02  0.31886077217E+02  0.00000000000E+00 0.  1.
         11    1    3    3    0    0 -0.50712283317E+01 -0.68058731837E+01  0.22188947803E+01  0.87727282468E+01  0.51100000000E-03 0. -1.
        -11    1    3    3    0    0  0.10632286148E+01  0.17759077566E+01  0.87742893391E+01  0.90151237992E+01  0.51100000000E-03 0.  1.
         12    1    3    3    0    0 -0.25682663962E+01  0.32641584077E+02 -0.25521541213E+02  0.41514070737E+02  0.00000000000E+00 0. -1.
</event>
<event>
 7    1  0.3750159E-013  0.5930193E+02  0.7816164E-02  0.1266605E+00
        -11   -1    0    0    0    0  0.00000000000E+00  0.00000000000E+00  0.45593999997E+02  0.45594000000E+02  0.51100000000E-03 0. -1.
         11   -1    0    0    0    0 -0.00000000000E+00 -0.00000000000E+00 -0.45593999997E+02  0.45594000000E+02  0.51100000000E-03 0.  1.
    9900012    2    1    2    0    0  0.12102058861E+02  0.20947844163E+02  0.20771361142E+02  0.59301930198E+02  0.49999974777E+02 0.  0.
        -12    1    1    2    0    0 -0.12102058861E+02 -0.20947844163E+02 -0.20771361142E+02  0.31886069802E+02  0.00000000000E+00 0.  1.
         11    1    3    3    0    0 -0.46162025373E+01  0.11373932732E+02  0.13429553584E+02  0.18194190870E+02  0.51100000000E-03 0. -1.
        -11    1    3    3    0    0  0.84587005848E+01  0.23091875054E+02  0.49708920238E+01  0.25089720542E+02  0.51100000000E-03 0.  1.
        -12    1    3    3    0    0  0.82595608135E+01 -0.13517963624E+02  0.23709155341E+01  0.16018018786E+02  0.00000000000E+00 0.  1.
</event>
<event>
 7    1  0.3750159E-013  0.5930194E+02  0.7816164E-02  0.1266605E+00
        -11   -1    0    0    0    0  0.00000000000E+00  0.00000000000E+00  0.45593999997E+02  0.45594000000E+02  0.51100000000E-03 0. -1.
         11   -1    0    0    0    0 -0.00000000000E+00 -0.00000000000E+00 -0.45593999997E+02  0.45594000000E+02  0.51100000000E-03 0.  1.
    9900012    2    1    2    0    0  0.26679723978E+02  0.17067095756E+02  0.36915586625E+01  0.59301936674E+02  0.49999986589E+02 0.  0.
        -12    1    1    2    0    0 -0.26679723978E+02 -0.17067095756E+02 -0.36915586625E+01  0.31886063326E+02  0.00000000000E+00 0.  1.
         11    1    3    3    0    0 -0.53027960722E+01  0.20421355120E+01 -0.60089576487E+01  0.82702802805E+01  0.51100000000E-03 0. -1.
        -11    1    3    3    0    0  0.14275075939E+01  0.21834627267E+01 -0.11430731279E+02  0.11724628149E+02  0.51100000000E-03 0.  1.
         12    1    3    3    0    0  0.30555012456E+02  0.12841497517E+02  0.21131247590E+02  0.39307028244E+02  0.00000000000E+00 0. -1.
</event>
<event>
 7    1  0.3750159E-013  0.5930194E+02  0.7816164E-02  0.1266605E+00
        -11   -1    0    0    0    0  0.00000000000E+00  0.00000000000E+00  0.45593999997E+02  0.45594000000E+02  0.51100000000E-03 0.  1.
         11   -1    0    0    0    0 -0.00000000000E+00 -0.00000000000E+00 -0.45593999997E+02  0.45594000000E+02  0.51100000000E-03 0. -1.
    9900012    2    1    2    0    0 -0.15523841784E+02  0.27291068592E+02 -0.55613743848E+01  0.59301937627E+02  0.49999988327E+02 0.  0.
        -12    1    1    2    0    0  0.15523841784E+02 -0.27291068592E+02  0.55613743848E+01  0.31886062373E+02  0.00000000000E+00 0.  1.
         11    1    3    3    0    0  0.44838918848E+01  0.16248245664E+02  0.12953380651E+02  0.21257959548E+02  0.51100000000E-03 0. -1.
        -11    1    3    3    0    0 -0.47227617043E+01  0.16378057564E+02 -0.94872666615E+01  0.19507779901E+02  0.51100000000E-03 0.  1.
        -12    1    3    3    0    0 -0.15284971964E+02 -0.53352346366E+01 -0.90274883738E+01  0.18536198179E+02  0.00000000000E+00 0.  1.
</event>
<event>
 7    1  0.3750159E-013  0.5930184E+02  0.7816164E-02  0.1266605E+00
        -11   -1    0    0    0    0  0.00000000000E+00  0.00000000000E+00  0.45593999997E+02  0.45594000000E+02  0.51100000000E-03 0. -1.
         11   -1    0    0    0    0 -0.00000000000E+00 -0.00000000000E+00 -0.45593999997E+02  0.45594000000E+02  0.51100000000E-03 0.  1.
    9900012    2    1    2    0    0  0.10191637866E+02  0.73658159103E+01  0.29301919439E+02  0.59301839848E+02  0.49999810002E+02 0.  0.
        -12    1    1    2    0    0 -0.10191637866E+02 -0.73658159103E+01 -0.29301919439E+02  0.31886160152E+02  0.00000000000E+00 0.  1.
         11    1    3    3    0    0  0.53238609086E+01  0.11155842172E+01  0.17890768312E+01  0.57261522237E+01  0.51100000000E-03 0. -1.
        -11    1    3    3    0    0  0.11403383714E+02  0.79228672685E+01 -0.89329330440E+01  0.16510792801E+02  0.51100000000E-03 0.  1.
        -12    1    3    3    0    0 -0.65356067571E+01 -0.16726355755E+01  0.36445775652E+02  0.37064894824E+02  0.00000000000E+00 0.  1.
</event>
<event>
 7    1  0.3750159E-013  0.5930195E+02  0.7816164E-02  0.1266605E+00
        -11   -1    0    0    0    0  0.00000000000E+00  0.00000000000E+00  0.45593999997E+02  0.45594000000E+02  0.51100000000E-03 0.  1.
         11   -1    0    0    0    0 -0.00000000000E+00 -0.00000000000E+00 -0.45593999997E+02  0.45594000000E+02  0.51100000000E-03 0. -1.
    9900012    2    1    2    0    0  0.11150443680E+02 -0.29831147948E+02  0.15780026408E+01  0.59301954863E+02  0.50000019761E+02 0.  0.
        -12    1    1    2    0    0 -0.11150443680E+02  0.29831147948E+02 -0.15780026408E+01  0.31886045137E+02  0.00000000000E+00 0.  1.
         11    1    3    3    0    0 -0.50980113633E+01 -0.71750577175E+01  0.50557454019E+01  0.10150454913E+02  0.51100000000E-03 0. -1.
        -11    1    3    3    0    0 -0.73884410831E+01 -0.22926714044E+02  0.38714843728E+01  0.24396960261E+02  0.51100000000E-03 0.  1.
         12    1    3    3    0    0  0.23636896127E+02  0.27062381324E+00 -0.73492271339E+01  0.24754539689E+02  0.00000000000E+00 0. -1.
</event>
<event>
 7    1  0.3750159E-013  0.5930208E+02  0.7816164E-02  0.1266604E+00
        -11   -1    0    0    0    0  0.00000000000E+00  0.00000000000E+00  0.45593999997E+02  0.45594000000E+02  0.51100000000E-03 0.  1.
         11   -1    0    0    0    0 -0.00000000000E+00 -0.00000000000E+00 -0.45593999997E+02  0.45594000000E+02  0.51100000000E-03 0. -1.
    9900012    2    1    2    0    0  0.31086055004E+02 -0.15523193223E+01  0.69252793006E+01  0.59302078273E+02  0.50000244831E+02 0.  0.
        -12    1    1    2    0    0 -0.31086055004E+02  0.15523193223E+01 -0.69252793006E+01  0.31885921727E+02  0.00000000000E+00 0.  1.
         11    1    3    3    0    0 -0.31376619378E+01 -0.17441746132E+02  0.93023785105E+01  0.20014836416E+02  0.51100000000E-03 0. -1.
        -11    1    3    3    0    0  0.25485856589E+01 -0.35575535585E+00 -0.26421840750E+01  0.36882228350E+01  0.51100000000E-03 0.  1.
        -12    1    3    3    0    0  0.31675131283E+02  0.16245182165E+02  0.26508486511E+00  0.35599019022E+02  0.00000000000E+00 0.  1.
</event>
<event>
 7    1  0.3750159E-013  0.5930195E+02  0.7816164E-02  0.1266605E+00
        -11   -1    0    0    0    0  0.00000000000E+00  0.00000000000E+00  0.45593999997E+02  0.45594000000E+02  0.51100000000E-03 0.  1.
         11   -1    0    0    0    0 -0.00000000000E+00 -0.00000000000E+00 -0.45593999997E+02  0.45594000000E+02  0.51100000000E-03 0. -1.
    9900012    2    1    2    0    0 -0.34089322312E+01 -0.29584891955E+02 -0.11394455252E+02  0.59301948796E+02  0.50000008695E+02 0.  0.
        -12    1    1    2    0    0  0.34089322312E+01  0.29584891955E+02  0.11394455252E+02  0.31886051204E+02  0.00000000000E+00 0.  1.
         11    1    3    3    0    0 -0.27539152645E+01 -0.25853069652E+02 -0.24778601996E+01  0.26117140945E+02  0.51100000000E-03 0. -1.
        -11    1    3    3    0    0 -0.13071453378E+01 -0.54537047498E+01  0.11442336785E+02  0.12742786029E+02  0.51100000000E-03 0.  1.
         12    1    3    3    0    0  0.65212837114E+00  0.17218824475E+01 -0.20358931837E+02  0.20442021821E+02  0.00000000000E+00 0. -1.
</event>
<event>
 7    1  0.3750159E-013  0.5930202E+02  0.7816164E-02  0.1266605E+00
        -11   -1    0    0    0    0  0.00000000000E+00  0.00000000000E+00  0.45593999997E+02  0.45594000000E+02  0.51100000000E-03 0.  1.
         11   -1    0    0    0    0 -0.00000000000E+00 -0.00000000000E+00 -0.45593999997E+02  0.45594000000E+02  0.51100000000E-03 0. -1.
    9900012    2    1    2    0    0  0.19279331212E+02 -0.21297350945E+02 -0.13836404814E+02  0.59302017697E+02  0.50000134355E+02 0.  0.
        -12    1    1    2    0    0 -0.19279331212E+02  0.21297350945E+02  0.13836404814E+02  0.31885982303E+02  0.00000000000E+00 0.  1.
         11    1    3    3    0    0 -0.63935605303E+01 -0.13294290251E+02 -0.64170755269E+01  0.16087095080E+02  0.51100000000E-03 0. -1.
        -11    1    3    3    0    0 -0.72381962973E+01  0.28687909113E+01 -0.26683053419E+01  0.82305103481E+01  0.51100000000E-03 0.  1.
        -12    1    3    3    0    0  0.32911088039E+02 -0.10871851605E+02 -0.47510239452E+01  0.34984412269E+02  0.00000000000E+00 0.  1.
</event>
<event>
 7    1  0.3750159E-013  0.5930191E+02  0.7816164E-02  0.1266605E+00
        -11   -1    0    0    0    0  0.00000000000E+00  0.00000000000E+00  0.45593999997E+02  0.45594000000E+02  0.51100000000E-03 0. -1.
         11   -1    0    0    0    0 -0.00000000000E+00 -0.00000000000E+00 -0.45593999997E+02  0.45594000000E+02  0.51100000000E-03 0.  1.
    9900012    2    1    2    0    0  0.38695100609E+01 -0.12198063438E+02 -0.29205426041E+02  0.59301909459E+02  0.49999936954E+02 0.  0.
        -12    1    1    2    0    0 -0.38695100609E+01  0.12198063438E+02  0.29205426041E+02  0.31886090541E+02  0.00000000000E+00 0.  1.
         11    1    3    3    0    0  0.64083368086E+01  0.50462422479E+01 -0.26035677210E+02  0.27283471728E+02  0.51100000000E-03 0. -1.
        -11    1    3    3    0    0 -0.88401441213E+01  0.22133110754E+01  0.45146117071E+01  0.10169985896E+02  0.51100000000E-03 0.  1.
         12    1    3    3    0    0  0.63013173736E+01 -0.19457616761E+02 -0.76843605384E+01  0.21848451834E+02  0.00000000000E+00 0. -1.
</event>
<event>
 7    1  0.3750159E-013  0.5930194E+02  0.7816164E-02  0.1266605E+00
        -11   -1    0    0    0    0  0.00000000000E+00  0.00000000000E+00  0.45593999997E+02  0.45594000000E+02  0.51100000000E-03 0. -1.
         11   -1    0    0    0    0 -0.00000000000E+00 -0.00000000000E+00 -0.45593999997E+02  0.45594000000E+02  0.51100000000E-03 0.  1.
    9900012    2    1    2    0    0  0.14103391967E+02 -0.23806291677E+02 -0.15845359713E+02  0.59301943285E+02  0.49999998646E+02 0.  0.
        -12    1    1    2    0    0 -0.14103391967E+02  0.23806291677E+02  0.15845359713E+02  0.31886056715E+02  0.00000000000E+00 0.  1.
         11    1    3    3    0    0 -0.66254918128E+01  0.57695197894E+00 -0.35284516549E+01  0.75286112059E+01  0.51100000000E-03 0. -1.
        -11    1    3    3    0    0  0.96890911189E+01 -0.33421863024E+02 -0.13787413418E+02  0.37429830132E+02  0.51100000000E-03 0.  1.
         12    1    3    3    0    0  0.11039792661E+02  0.90386193685E+01  0.14705053599E+01  0.14343501947E+02  0.00000000000E+00 0. -1.
</event>
<event>
 7    1  0.3750159E-013  0.5930190E+02  0.7816164E-02  0.1266605E+00
        -11   -1    0    0    0    0  0.00000000000E+00  0.00000000000E+00  0.45593999997E+02  0.45594000000E+02  0.51100000000E-03 0.  1.
         11   -1    0    0    0    0 -0.00000000000E+00 -0.00000000000E+00 -0.45593999997E+02  0.45594000000E+02  0.51100000000E-03 0. -1.
    9900012    2    1    2    0    0  0.19070419590E+02 -0.18278655272E+02  0.17858706834E+02  0.59301897201E+02  0.49999914600E+02 0.  0.
        -12    1    1    2    0    0 -0.19070419590E+02  0.18278655272E+02 -0.17858706834E+02  0.31886102799E+02  0.00000000000E+00 0.  1.
         11    1    3    3    0    0  0.11378239258E+02 -0.12051305927E+02  0.18296092281E+02  0.24686945866E+02  0.51100000000E-03 0. -1.
        -11    1    3    3    0    0  0.71998256075E+01 -0.15529943015E+02  0.10629293549E+02  0.20149404469E+02  0.51100000000E-03 0.  1.
        -12    1    3    3    0    0  0.49235472426E+00  0.93025936701E+01 -0.11066678995E+02  0.14465546867E+02  0.00000000000E+00 0.  1.
</event>
<event>
 7    1  0.3750159E-013  0.5930193E+02  0.7816164E-02  0.1266605E+00
        -11   -1    0    0    0    0  0.00000000000E+00  0.00000000000E+00  0.45593999997E+02  0.45594000000E+02  0.51100000000E-03 0.  1.
         11   -1    0    0    0    0 -0.00000000000E+00 -0.00000000000E+00 -0.45593999997E+02  0.45594000000E+02  0.51100000000E-03 0. -1.
    9900012    2    1    2    0    0  0.13055961160E+02 -0.24477912466E+01 -0.28987436554E+02  0.59301932796E+02  0.49999979516E+02 0.  0.
        -12    1    1    2    0    0 -0.13055961160E+02  0.24477912466E+01  0.28987436554E+02  0.31886067204E+02  0.00000000000E+00 0.  1.
         11    1    3    3    0    0  0.12513048728E+02  0.35617389756E+01 -0.16808705326E+01  0.13118220116E+02  0.51100000000E-03 0. -1.
        -11    1    3    3    0    0  0.10959920240E+02 -0.18957579978E+01  0.48488482695E+01  0.12133634240E+02  0.51100000000E-03 0.  1.
         12    1    3    3    0    0 -0.10417007809E+02 -0.41137722243E+01 -0.32155414291E+02  0.34050078440E+02  0.00000000000E+00 0. -1.
</event>
<event>
 7    1  0.3750159E-013  0.5930196E+02  0.7816164E-02  0.1266605E+00
        -11   -1    0    0    0    0  0.00000000000E+00  0.00000000000E+00  0.45593999997E+02  0.45594000000E+02  0.51100000000E-03 0. -1.
         11   -1    0    0    0    0 -0.00000000000E+00 -0.00000000000E+00 -0.45593999997E+02  0.45594000000E+02  0.51100000000E-03 0.  1.
    9900012    2    1    2    0    0 -0.93928522938E+01 -0.23017222265E+02  0.19967512830E+02  0.59301956601E+02  0.50000022931E+02 0.  0.
        -12    1    1    2    0    0  0.93928522938E+01  0.23017222265E+02 -0.19967512830E+02  0.31886043399E+02  0.00000000000E+00 0.  1.
         11    1    3    3    0    0  0.15154343817E+01  0.60269337364E+01  0.14893575904E+02  0.16138124894E+02  0.51100000000E-03 0.  1.
        -11    1    3    3    0    0 -0.79722047343E+01 -0.14255275976E+02  0.17270721066E+02  0.23770711977E+02  0.51100000000E-03 0. -1.
        -12    1    3    3    0    0 -0.29360819412E+01 -0.14788880025E+02 -0.12196784139E+02  0.19393119731E+02  0.00000000000E+00 0.  1.
</event>
<event>
 7    1  0.3750159E-013  0.5930192E+02  0.7816164E-02  0.1266605E+00
        -11   -1    0    0    0    0  0.00000000000E+00  0.00000000000E+00  0.45593999997E+02  0.45594000000E+02  0.51100000000E-03 0. -1.
         11   -1    0    0    0    0 -0.00000000000E+00 -0.00000000000E+00 -0.45593999997E+02  0.45594000000E+02  0.51100000000E-03 0.  1.
    9900012    2    1    2    0    0  0.79390721125E+01  0.36079034168E+01  0.30670449811E+02  0.59301916442E+02  0.49999949690E+02 0.  0.
        -12    1    1    2    0    0 -0.79390721125E+01 -0.36079034168E+01 -0.30670449811E+02  0.31886083558E+02  0.00000000000E+00 0.  1.
         11    1    3    3    0    0  0.15666141510E+02 -0.58120961971E+01  0.32706601691E+01  0.17026616523E+02  0.51100000000E-03 0.  1.
        -11    1    3    3    0    0  0.54312368019E+01  0.34844422346E+01  0.27078373888E+02  0.27836630607E+02  0.51100000000E-03 0. -1.
        -12    1    3    3    0    0 -0.13158306199E+02  0.59355573794E+01  0.32141575423E+00  0.14438669312E+02  0.00000000000E+00 0.  1.
</event>
<event>
 7    1  0.3750159E-013  0.5930194E+02  0.7816164E-02  0.1266605E+00
        -11   -1    0    0    0    0  0.00000000000E+00  0.00000000000E+00  0.45593999997E+02  0.45594000000E+02  0.51100000000E-03 0. -1.
         11   -1    0    0    0    0 -0.00000000000E+00 -0.00000000000E+00 -0.45593999997E+02  0.45594000000E+02  0.51100000000E-03 0.  1.
    9900012    2    1    2    0    0  0.29288855981E+02 -0.45669527779E+01 -0.11748466075E+02  0.59301943526E+02  0.49999999085E+02 0.  0.
        -12    1    1    2    0    0 -0.29288855981E+02  0.45669527779E+01  0.11748466075E+02  0.31886056474E+02  0.00000000000E+00 0.  1.
         11    1    3    3    0    0  0.35772420363E+01 -0.50985254427E+01 -0.42693148222E+01  0.75510708902E+01  0.51100000000E-03 0. -1.
        -11    1    3    3    0    0  0.31652013229E+02  0.10618906351E+02 -0.16242912409E+02  0.37127393086E+02  0.51100000000E-03 0.  1.
         12    1    3    3    0    0 -0.59403992844E+01 -0.10087333686E+02  0.87637611567E+01  0.14623479551E+02  0.00000000000E+00 0. -1.
</event>
<event>
 7    1  0.3750159E-013  0.5930196E+02  0.7816164E-02  0.1266605E+00
        -11   -1    0    0    0    0  0.00000000000E+00  0.00000000000E+00  0.45593999997E+02  0.45594000000E+02  0.51100000000E-03 0.  1.
         11   -1    0    0    0    0 -0.00000000000E+00 -0.00000000000E+00 -0.45593999997E+02  0.45594000000E+02  0.51100000000E-03 0. -1.
    9900012    2    1    2    0    0  0.20582353250E+02 -0.19126729248E+02 -0.15074967074E+02  0.59301958080E+02  0.50000025627E+02 0.  0.
        -12    1    1    2    0    0 -0.20582353250E+02  0.19126729248E+02  0.15074967074E+02  0.31886041920E+02  0.00000000000E+00 0.  1.
         11    1    3    3    0    0 -0.78476355415E+01 -0.97592918353E+01 -0.66256281422E+01  0.14167854787E+02  0.51100000000E-03 0. -1.
        -11    1    3    3    0    0 -0.60511491770E+01  0.39289462767E+00  0.39233322605E+01  0.72224171050E+01  0.51100000000E-03 0.  1.
         12    1    3    3    0    0  0.34481137969E+02 -0.97603320404E+01 -0.12372671192E+02  0.37911686188E+02  0.00000000000E+00 0. -1.
</event>
<event>
 7    1  0.3750159E-013  0.5930191E+02  0.7816164E-02  0.1266605E+00
        -11   -1    0    0    0    0  0.00000000000E+00  0.00000000000E+00  0.45593999997E+02  0.45594000000E+02  0.51100000000E-03 0. -1.
         11   -1    0    0    0    0 -0.00000000000E+00 -0.00000000000E+00 -0.45593999997E+02  0.45594000000E+02  0.51100000000E-03 0.  1.
    9900012    2    1    2    0    0  0.36244181855E+01 -0.29995696407E+02 -0.10190415367E+02  0.59301909373E+02  0.49999936799E+02 0.  0.
        -12    1    1    2    0    0 -0.36244181855E+01  0.29995696407E+02  0.10190415367E+02  0.31886090627E+02  0.00000000000E+00 0.  1.
         11    1    3    3    0    0  0.51056934686E+01 -0.11527100822E+00  0.96572074742E+01  0.10924424454E+02  0.51100000000E-03 0. -1.
        -11    1    3    3    0    0 -0.15880485676E+02 -0.76379275902E+01 -0.78405358383E+01  0.19287347295E+02  0.51100000000E-03 0.  1.
         12    1    3    3    0    0  0.14399210393E+02 -0.22242497808E+02 -0.12007087003E+02  0.29090137624E+02  0.00000000000E+00 0. -1.
</event>
<event>
 7    1  0.3750159E-013  0.5930192E+02  0.7816164E-02  0.1266605E+00
        -11   -1    0    0    0    0  0.00000000000E+00  0.00000000000E+00  0.45593999997E+02  0.45594000000E+02  0.51100000000E-03 0. -1.
         11   -1    0    0    0    0 -0.00000000000E+00 -0.00000000000E+00 -0.45593999997E+02  0.45594000000E+02  0.51100000000E-03 0.  1.
    9900012    2    1    2    0    0 -0.20731838904E+02 -0.35954692252E+01  0.23957996252E+02  0.59301919530E+02  0.49999955322E+02 0.  0.
        -12    1    1    2    0    0  0.20731838904E+02  0.35954692252E+01 -0.23957996252E+02  0.31886080470E+02  0.00000000000E+00 0.  1.
         11    1    3    3    0    0  0.36732632963E+00 -0.69415560323E+01  0.15789901195E+01  0.71283475533E+01  0.51100000000E-03 0. -1.
        -11    1    3    3    0    0  0.11086688114E+02  0.59703245612E+01  0.13962995398E+02  0.18802251712E+02  0.51100000000E-03 0.  1.
         12    1    3    3    0    0 -0.32185853348E+02 -0.26242377541E+01  0.84160107346E+01  0.33371320264E+02  0.00000000000E+00 0. -1.
</event>
<event>
 7    1  0.3750159E-013  0.5930193E+02  0.7816164E-02  0.1266605E+00
        -11   -1    0    0    0    0  0.00000000000E+00  0.00000000000E+00  0.45593999997E+02  0.45594000000E+02  0.51100000000E-03 0.  1.
         11   -1    0    0    0    0 -0.00000000000E+00 -0.00000000000E+00 -0.45593999997E+02  0.45594000000E+02  0.51100000000E-03 0. -1.
    9900012    2    1    2    0    0 -0.49512923927E-01  0.10455284402E+02 -0.30123177543E+02  0.59301933313E+02  0.49999980460E+02 0.  0.
        -12    1    1    2    0    0  0.49512923927E-01 -0.10455284402E+02  0.30123177543E+02  0.31886066687E+02  0.00000000000E+00 0.  1.
         11    1    3    3    0    0  0.83355063547E+01  0.11787162475E+02 -0.11230180850E+02  0.18290293261E+02  0.51100000000E-03 0. -1.
        -11    1    3    3    0    0  0.84632815682E+01 -0.13278781022E+02 -0.81811266627E+01  0.17744970951E+02  0.51100000000E-03 0.  1.
        -12    1    3    3    0    0 -0.16848300847E+02  0.11946902949E+02 -0.10711870030E+02  0.23266669101E+02  0.00000000000E+00 0.  1.
</event>
<event>
 7    1  0.3750159E-013  0.5930200E+02  0.7816164E-02  0.1266605E+00
        -11   -1    0    0    0    0  0.00000000000E+00  0.00000000000E+00  0.45593999997E+02  0.45594000000E+02  0.51100000000E-03 0.  1.
         11   -1    0    0    0    0 -0.00000000000E+00 -0.00000000000E+00 -0.45593999997E+02  0.45594000000E+02  0.51100000000E-03 0. -1.
    9900012    2    1    2    0    0 -0.24322125708E+02 -0.15543666194E+02 -0.13547894872E+02  0.59302002867E+02  0.50000107308E+02 0.  0.
        -12    1    1    2    0    0  0.24322125708E+02  0.15543666194E+02  0.13547894872E+02  0.31885997133E+02  0.00000000000E+00 0.  1.
         11    1    3    3    0    0  0.58934269970E+00 -0.89673779878E+01 -0.93772474938E+01  0.12988224036E+02  0.51100000000E-03 0. -1.
        -11    1    3    3    0    0 -0.17463278813E+01 -0.12983103310E+02 -0.15031649776E+02  0.19938934974E+02  0.51100000000E-03 0.  1.
        -12    1    3    3    0    0 -0.23165140527E+02  0.64068151042E+01  0.10861002398E+02  0.26374843857E+02  0.00000000000E+00 0.  1.
</event>
<event>
 7    1  0.3750159E-013  0.5930194E+02  0.7816164E-02  0.1266605E+00
        -11   -1    0    0    0    0  0.00000000000E+00  0.00000000000E+00  0.45593999997E+02  0.45594000000E+02  0.51100000000E-03 0.  1.
         11   -1    0    0    0    0 -0.00000000000E+00 -0.00000000000E+00 -0.45593999997E+02  0.45594000000E+02  0.51100000000E-03 0. -1.
    9900012    2    1    2    0    0 -0.11433930987E+02  0.14302464502E+02 -0.26104133712E+02  0.59301936186E+02  0.49999985699E+02 0.  0.
        -12    1    1    2    0    0  0.11433930987E+02 -0.14302464502E+02  0.26104133712E+02  0.31886063814E+02  0.00000000000E+00 0.  1.
         11    1    3    3    0    0  0.67065259487E+01 -0.45425309026E+01 -0.11834956241E+02  0.14341487607E+02  0.51100000000E-03 0.  1.
        -11    1    3    3    0    0 -0.31872956846E+01  0.97840455264E+01  0.10461049916E+02  0.14673785001E+02  0.51100000000E-03 0. -1.
         12    1    3    3    0    0 -0.14953161251E+02  0.90609498784E+01 -0.24730227388E+02  0.30286663579E+02  0.00000000000E+00 0. -1.
</event>
<event>
 7    1  0.3750159E-013  0.5930197E+02  0.7816164E-02  0.1266605E+00
        -11   -1    0    0    0    0  0.00000000000E+00  0.00000000000E+00  0.45593999997E+02  0.45594000000E+02  0.51100000000E-03 0.  1.
         11   -1    0    0    0    0 -0.00000000000E+00 -0.00000000000E+00 -0.45593999997E+02  0.45594000000E+02  0.51100000000E-03 0. -1.
    9900012    2    1    2    0    0  0.25234785861E+01 -0.22429669690E+02 -0.22522458899E+02  0.59301965730E+02  0.50000039580E+02 0.  0.
        -12    1    1    2    0    0 -0.25234785861E+01  0.22429669690E+02  0.22522458899E+02  0.31886034270E+02  0.00000000000E+00 0.  1.
         11    1    3    3    0    0  0.95286983338E+01 -0.61457231328E+01 -0.10779813485E+02  0.15645139302E+02  0.51100000000E-03 0. -1.
        -11    1    3    3    0    0  0.19600647969E+01 -0.15640189770E+01 -0.22957539637E+02  0.23094082268E+02  0.51100000000E-03 0.  1.
        -12    1    3    3    0    0 -0.89652845446E+01 -0.14719927581E+02  0.11214894222E+02  0.20562744159E+02  0.00000000000E+00 0.  1.
</event>
<event>
 7    1  0.3750159E-013  0.5930189E+02  0.7816164E-02  0.1266605E+00
        -11   -1    0    0    0    0  0.00000000000E+00  0.00000000000E+00  0.45593999997E+02  0.45594000000E+02  0.51100000000E-03 0.  1.
         11   -1    0    0    0    0 -0.00000000000E+00 -0.00000000000E+00 -0.45593999997E+02  0.45594000000E+02  0.51100000000E-03 0. -1.
    9900012    2    1    2    0    0 -0.29084309479E+02 -0.12981140576E+02  0.15222346598E+01  0.59301885987E+02  0.49999894147E+02 0.  0.
        -12    1    1    2    0    0  0.29084309479E+02  0.12981140576E+02 -0.15222346598E+01  0.31886114013E+02  0.00000000000E+00 0.  1.
         11    1    3    3    0    0 -0.77845902997E+01 -0.11765010178E+02  0.94315606495E+01  0.16969668446E+02  0.51100000000E-03 0. -1.
        -11    1    3    3    0    0 -0.74929756847E+01 -0.11500494831E+02  0.10384203021E+02  0.17211558286E+02  0.51100000000E-03 0.  1.
         12    1    3    3    0    0 -0.13806743495E+02  0.10284364433E+02 -0.18293529011E+02  0.25120659255E+02  0.00000000000E+00 0. -1.
</event>
<event>
 7    1  0.3750159E-013  0.5930193E+02  0.7816164E-02  0.1266605E+00
        -11   -1    0    0    0    0  0.00000000000E+00  0.00000000000E+00  0.45593999997E+02  0.45594000000E+02  0.51100000000E-03 0.  1.
         11   -1    0    0    0    0 -0.00000000000E+00 -0.00000000000E+00 -0.45593999997E+02  0.45594000000E+02  0.51100000000E-03 0. -1.
    9900012    2    1    2    0    0  0.62923338103E+01 -0.75952515594E+01 -0.30322269425E+02  0.59301931975E+02  0.49999978019E+02 0.  0.
        -12    1    1    2    0    0 -0.62923338103E+01  0.75952515594E+01  0.30322269425E+02  0.31886068025E+02  0.00000000000E+00 0.  1.
         11    1    3    3    0    0  0.76596593008E+01  0.24359707628E+01 -0.89552939923E+00  0.80874166041E+01  0.51100000000E-03 0. -1.
        -11    1    3    3    0    0  0.18817459461E+02  0.21814713330E+00 -0.17154503818E+02  0.25464119271E+02  0.51100000000E-03 0.  1.
         12    1    3    3    0    0 -0.20184784952E+02 -0.10249369456E+02 -0.12272236207E+02  0.25750396100E+02  0.00000000000E+00 0. -1.
</event>
<event>
 7    1  0.3750159E-013  0.5930191E+02  0.7816164E-02  0.1266605E+00
        -11   -1    0    0    0    0  0.00000000000E+00  0.00000000000E+00  0.45593999997E+02  0.45594000000E+02  0.51100000000E-03 0. -1.
         11   -1    0    0    0    0 -0.00000000000E+00 -0.00000000000E+00 -0.45593999997E+02  0.45594000000E+02  0.51100000000E-03 0.  1.
    9900012    2    1    2    0    0  0.94632511997E+00  0.13676625853E+02  0.28788490020E+02  0.59301909245E+02  0.49999936565E+02 0.  0.
        -12    1    1    2    0    0 -0.94632511997E+00 -0.13676625853E+02 -0.28788490020E+02  0.31886090755E+02  0.00000000000E+00 0.  1.
         11    1    3    3    0    0  0.23936768446E+00  0.14373560325E+02  0.10332345301E+02  0.17703499456E+02  0.51100000000E-03 0. -1.
        -11    1    3    3    0    0  0.20166699639E+01  0.82893323968E+01  0.27493464149E+02  0.28786638576E+02  0.51100000000E-03 0.  1.
        -12    1    3    3    0    0 -0.13097125283E+01 -0.89862668692E+01 -0.90373194295E+01  0.12811771213E+02  0.00000000000E+00 0.  1.
</event>
<event>
 7    1  0.3750159E-013  0.5930195E+02  0.7816164E-02  0.1266605E+00
        -11   -1    0    0    0    0  0.00000000000E+00  0.00000000000E+00  0.45593999997E+02  0.45594000000E+02  0.51100000000E-03 0. -1.
         11   -1    0    0    0    0 -0.00000000000E+00 -0.00000000000E+00 -0.45593999997E+02  0.45594000000E+02  0.51100000000E-03 0.  1.
    9900012    2    1    2    0    0 -0.28632257547E+01 -0.30467060783E+02 -0.89599463001E+01  0.59301945177E+02  0.50000002096E+02 0.  0.
        -12    1    1    2    0    0  0.28632257547E+01  0.30467060783E+02  0.89599463001E+01  0.31886054823E+02  0.00000000000E+00 0.  1.
         11    1    3    3    0    0  0.81348122511E+01 -0.31273927226E+02  0.34836189591E+01  0.32501835269E+02  0.51100000000E-03 0. -1.
        -11    1    3    3    0    0 -0.34370377877E+01 -0.33375957307E+01 -0.16564612116E+02  0.17243524838E+02  0.51100000000E-03 0.  1.
        -12    1    3    3    0    0 -0.75610002181E+01  0.41444621743E+01  0.41210468569E+01  0.95565850705E+01  0.00000000000E+00 0.  1.
</event>
<event>
 7    1  0.3750159E-013  0.5930193E+02  0.7816164E-02  0.1266605E+00
        -11   -1    0    0    0    0  0.00000000000E+00  0.00000000000E+00  0.45593999997E+02  0.45594000000E+02  0.51100000000E-03 0. -1.
         11   -1    0    0    0    0 -0.00000000000E+00 -0.00000000000E+00 -0.45593999997E+02  0.45594000000E+02  0.51100000000E-03 0.  1.
    9900012    2    1    2    0    0  0.14383583487E+02  0.84128511277E+01  0.27185622272E+02  0.59301927862E+02  0.49999970518E+02 0.  0.
        -12    1    1    2    0    0 -0.14383583487E+02 -0.84128511277E+01 -0.27185622272E+02  0.31886072138E+02  0.00000000000E+00 0.  1.
         11    1    3    3    0    0 -0.42320218125E+01 -0.73740223794E+01 -0.15436051443E+01  0.86411186646E+01  0.51100000000E-03 0.  1.
        -11    1    3    3    0    0  0.20243565029E+02 -0.87221269880E-01  0.28175406733E+02  0.34693847833E+02  0.51100000000E-03 0. -1.
         12    1    3    3    0    0 -0.16279597288E+01  0.15874094777E+02  0.55382068354E+00  0.15966961365E+02  0.00000000000E+00 0. -1.
</event>
<event>
 7    1  0.3750159E-013  0.5930188E+02  0.7816164E-02  0.1266605E+00
        -11   -1    0    0    0    0  0.00000000000E+00  0.00000000000E+00  0.45593999997E+02  0.45594000000E+02  0.51100000000E-03 0.  1.
         11   -1    0    0    0    0 -0.00000000000E+00 -0.00000000000E+00 -0.45593999997E+02  0.45594000000E+02  0.51100000000E-03 0. -1.
    9900012    2    1    2    0    0 -0.16224330997E+02  0.26986889298E+02  0.50202832559E+01  0.59301884616E+02  0.49999891648E+02 0.  0.
        -12    1    1    2    0    0  0.16224330997E+02 -0.26986889298E+02 -0.50202832559E+01  0.31886115384E+02  0.00000000000E+00 0.  1.
         11    1    3    3    0    0  0.19470629912E+01  0.10764032660E+02  0.22365051026E+00  0.10940999644E+02  0.51100000000E-03 0. -1.
        -11    1    3    3    0    0 -0.76736821872E+01 -0.52910921011E+01  0.18544713982E+02  0.20755420276E+02  0.51100000000E-03 0.  1.
         12    1    3    3    0    0 -0.10497711801E+02  0.21513948739E+02 -0.13748081236E+02  0.27605464696E+02  0.00000000000E+00 0. -1.
</event>
<event>
 7    1  0.3750159E-013  0.5930195E+02  0.7816164E-02  0.1266605E+00
        -11   -1    0    0    0    0  0.00000000000E+00  0.00000000000E+00  0.45593999997E+02  0.45594000000E+02  0.51100000000E-03 0.  1.
         11   -1    0    0    0    0 -0.00000000000E+00 -0.00000000000E+00 -0.45593999997E+02  0.45594000000E+02  0.51100000000E-03 0. -1.
    9900012    2    1    2    0    0  0.14195562943E+02 -0.28528833935E+01 -0.28408924492E+02  0.59301953809E+02  0.50000017839E+02 0.  0.
        -12    1    1    2    0    0 -0.14195562943E+02  0.28528833935E+01  0.28408924492E+02  0.31886046191E+02  0.00000000000E+00 0.  1.
         11    1    3    3    0    0  0.22302187557E+02 -0.44089485438E+01 -0.16074713290E+02  0.27842823218E+02  0.51100000000E-03 0. -1.
        -11    1    3    3    0    0  0.29531067798E-01 -0.72695675082E+01  0.60806342186E+01  0.94774256316E+01  0.51100000000E-03 0.  1.
        -12    1    3    3    0    0 -0.81361556823E+01  0.88256326585E+01 -0.18414845420E+02  0.21981704960E+02  0.00000000000E+00 0.  1.
</event>
<event>
 7    1  0.3750159E-013  0.5930193E+02  0.7816164E-02  0.1266605E+00
        -11   -1    0    0    0    0  0.00000000000E+00  0.00000000000E+00  0.45593999997E+02  0.45594000000E+02  0.51100000000E-03 0. -1.
         11   -1    0    0    0    0 -0.00000000000E+00 -0.00000000000E+00 -0.45593999997E+02  0.45594000000E+02  0.51100000000E-03 0.  1.
    9900012    2    1    2    0    0  0.71309658249E+01 -0.23932337494E+02 -0.19827097856E+02  0.59301933122E+02  0.49999980111E+02 0.  0.
        -12    1    1    2    0    0 -0.71309658249E+01  0.23932337494E+02  0.19827097856E+02  0.31886066878E+02  0.00000000000E+00 0.  1.
         11    1    3    3    0    0  0.44182411273E+01 -0.86386524648E+01  0.64326128906E+01  0.11641549722E+02  0.51100000000E-03 0. -1.
        -11    1    3    3    0    0  0.30564748670E+01 -0.26258146617E+02 -0.10468407368E+02  0.28432725080E+02  0.51100000000E-03 0.  1.
        -12    1    3    3    0    0 -0.34375016937E+00  0.10964461588E+02 -0.15791303379E+02  0.19227658321E+02  0.00000000000E+00 0.  1.
</event>
<event>
 7    1  0.3750159E-013  0.5930193E+02  0.7816164E-02  0.1266605E+00
        -11   -1    0    0    0    0  0.00000000000E+00  0.00000000000E+00  0.45593999997E+02  0.45594000000E+02  0.51100000000E-03 0. -1.
         11   -1    0    0    0    0 -0.00000000000E+00 -0.00000000000E+00 -0.45593999997E+02  0.45594000000E+02  0.51100000000E-03 0.  1.
    9900012    2    1    2    0    0  0.30556578457E+02  0.42006505645E+01 -0.80852464302E+01  0.59301934673E+02  0.49999982940E+02 0.  0.
        -12    1    1    2    0    0 -0.30556578457E+02 -0.42006505645E+01  0.80852464302E+01  0.31886065327E+02  0.00000000000E+00 0.  1.
         11    1    3    3    0    0 -0.38286478422E+01  0.16339594261E+02  0.29495704732E+01  0.17039391161E+02  0.51100000000E-03 0. -1.
        -11    1    3    3    0    0  0.14398178094E+02 -0.46774749970E+01 -0.14125498194E+02  0.20705458320E+02  0.51100000000E-03 0.  1.
        -12    1    3    3    0    0  0.19987048206E+02 -0.74614686991E+01  0.30906812904E+01  0.21557085192E+02  0.00000000000E+00 0.  1.
</event>
<event>
 7    1  0.3750159E-013  0.5930190E+02  0.7816164E-02  0.1266605E+00
        -11   -1    0    0    0    0  0.00000000000E+00  0.00000000000E+00  0.45593999997E+02  0.45594000000E+02  0.51100000000E-03 0.  1.
         11   -1    0    0    0    0 -0.00000000000E+00 -0.00000000000E+00 -0.45593999997E+02  0.45594000000E+02  0.51100000000E-03 0. -1.
    9900012    2    1    2    0    0 -0.15848004714E+02  0.79984560087E+00 -0.27657261379E+02  0.59301904074E+02  0.49999927134E+02 0.  0.
        -12    1    1    2    0    0  0.15848004714E+02 -0.79984560087E+00  0.27657261379E+02  0.31886095926E+02  0.00000000000E+00 0.  1.
         11    1    3    3    0    0 -0.17113237973E+02 -0.11021172919E+02 -0.13920707475E+02  0.24659993174E+02  0.51100000000E-03 0. -1.
        -11    1    3    3    0    0  0.24358506025E+00 -0.80277989765E+01  0.30851736685E+01  0.86036728735E+01  0.51100000000E-03 0.  1.
         12    1    3    3    0    0  0.10216481984E+01  0.19848817497E+02 -0.16821727572E+02  0.26038238027E+02  0.00000000000E+00 0. -1.
</event>
<event>
 7    1  0.3750159E-013  0.5930194E+02  0.7816164E-02  0.1266605E+00
        -11   -1    0    0    0    0  0.00000000000E+00  0.00000000000E+00  0.45593999997E+02  0.45594000000E+02  0.51100000000E-03 0.  1.
         11   -1    0    0    0    0 -0.00000000000E+00 -0.00000000000E+00 -0.45593999997E+02  0.45594000000E+02  0.51100000000E-03 0. -1.
    9900012    2    1    2    0    0 -0.14072771245E+02  0.25538538046E+02 -0.12901971248E+02  0.59301942261E+02  0.49999996777E+02 0.  0.
        -12    1    1    2    0    0  0.14072771245E+02 -0.25538538046E+02  0.12901971248E+02  0.31886057739E+02  0.00000000000E+00 0.  1.
         11    1    3    3    0    0  0.10516888659E+01  0.15145480139E+01  0.84794967177E+01  0.86776592468E+01  0.51100000000E-03 0. -1.
        -11    1    3    3    0    0 -0.32038938353E+01 -0.54723468386E+01  0.59399014103E+01  0.86887251455E+01  0.51100000000E-03 0.  1.
         12    1    3    3    0    0 -0.11920566276E+02  0.29496336871E+02 -0.27321369376E+02  0.41935557868E+02  0.00000000000E+00 0. -1.
</event>
<event>
 7    1  0.3750159E-013  0.5930193E+02  0.7816164E-02  0.1266605E+00
        -11   -1    0    0    0    0  0.00000000000E+00  0.00000000000E+00  0.45593999997E+02  0.45594000000E+02  0.51100000000E-03 0. -1.
         11   -1    0    0    0    0 -0.00000000000E+00 -0.00000000000E+00 -0.45593999997E+02  0.45594000000E+02  0.51100000000E-03 0.  1.
    9900012    2    1    2    0    0 -0.59952844419E-01 -0.17301167854E+02  0.26784085025E+02  0.59301933857E+02  0.49999981451E+02 0.  0.
        -12    1    1    2    0    0  0.59952844419E-01  0.17301167854E+02 -0.26784085025E+02  0.31886066143E+02  0.00000000000E+00 0.  1.
         11    1    3    3    0    0 -0.25382844050E+01 -0.24253166765E+02 -0.45079749493E+01  0.24798806912E+02  0.51100000000E-03 0. -1.
        -11    1    3    3    0    0 -0.55009236810E+00 -0.32005885436E+01  0.12656170166E+02  0.13066178178E+02  0.51100000000E-03 0.  1.
        -12    1    3    3    0    0  0.30284239287E+01  0.10152587455E+02  0.18635889808E+02  0.21436948767E+02  0.00000000000E+00 0.  1.
</event>
<event>
 7    1  0.3750159E-013  0.5930195E+02  0.7816164E-02  0.1266605E+00
        -11   -1    0    0    0    0  0.00000000000E+00  0.00000000000E+00  0.45593999997E+02  0.45594000000E+02  0.51100000000E-03 0. -1.
         11   -1    0    0    0    0 -0.00000000000E+00 -0.00000000000E+00 -0.45593999997E+02  0.45594000000E+02  0.51100000000E-03 0.  1.
    9900012    2    1    2    0    0 -0.21437003274E+02  0.20225757859E+02  0.12169389181E+02  0.59301946256E+02  0.50000004064E+02 0.  0.
        -12    1    1    2    0    0  0.21437003274E+02 -0.20225757859E+02 -0.12169389181E+02  0.31886053744E+02  0.00000000000E+00 0.  1.
         11    1    3    3    0    0 -0.51822349794E+01  0.86897233821E+01 -0.69632006066E+01  0.12282223528E+02  0.51100000000E-03 0. -1.
        -11    1    3    3    0    0  0.11830000722E+02 -0.15772318478E+01  0.46630779205E+01  0.12813308446E+02  0.51100000000E-03 0.  1.
         12    1    3    3    0    0 -0.28084769016E+02  0.13113266325E+02  0.14469511867E+02  0.34206414282E+02  0.00000000000E+00 0. -1.
</event>
<event>
 7    1  0.3750159E-013  0.5930195E+02  0.7816164E-02  0.1266605E+00
        -11   -1    0    0    0    0  0.00000000000E+00  0.00000000000E+00  0.45593999997E+02  0.45594000000E+02  0.51100000000E-03 0.  1.
         11   -1    0    0    0    0 -0.00000000000E+00 -0.00000000000E+00 -0.45593999997E+02  0.45594000000E+02  0.51100000000E-03 0. -1.
    9900012    2    1    2    0    0  0.16756979098E+02  0.25528739893E+02  0.91764636374E+01  0.59301946718E+02  0.50000004906E+02 0.  0.
        -12    1    1    2    0    0 -0.16756979098E+02 -0.25528739893E+02 -0.91764636374E+01  0.31886053282E+02  0.00000000000E+00 0.  1.
         11    1    3    3    0    0  0.85795681186E+00  0.56001019587E+01 -0.15657180347E+02  0.16650661504E+02  0.51100000000E-03 0. -1.
        -11    1    3    3    0    0  0.18844357073E+02  0.93046974359E+01  0.79145032465E+01  0.22457215984E+02  0.51100000000E-03 0.  1.
        -12    1    3    3    0    0 -0.29453347862E+01  0.10623940498E+02  0.16919140738E+02  0.20194069229E+02  0.00000000000E+00 0.  1.
</event>
<event>
 7    1  0.3750159E-013  0.5930192E+02  0.7816164E-02  0.1266605E+00
        -11   -1    0    0    0    0  0.00000000000E+00  0.00000000000E+00  0.45593999997E+02  0.45594000000E+02  0.51100000000E-03 0.  1.
         11   -1    0    0    0    0 -0.00000000000E+00 -0.00000000000E+00 -0.45593999997E+02  0.45594000000E+02  0.51100000000E-03 0. -1.
    9900012    2    1    2    0    0 -0.21804070823E+02  0.17603859099E+02 -0.15212116149E+02  0.59301924083E+02  0.49999963626E+02 0.  0.
        -12    1    1    2    0    0  0.21804070823E+02 -0.17603859099E+02  0.15212116149E+02  0.31886075917E+02  0.00000000000E+00 0.  1.
         11    1    3    3    0    0 -0.15799056625E+02  0.11103657726E+02 -0.18099829940E+02  0.26467059702E+02  0.51100000000E-03 0. -1.
        -11    1    3    3    0    0  0.33149562908E+00 -0.11192300408E+02 -0.52363072248E+01  0.12361083746E+02  0.51100000000E-03 0.  1.
        -12    1    3    3    0    0 -0.63365098269E+01  0.17692501780E+02  0.81240210155E+01  0.20473780635E+02  0.00000000000E+00 0.  1.
</event>
<event>
 7    1  0.3750159E-013  0.5930196E+02  0.7816164E-02  0.1266605E+00
        -11   -1    0    0    0    0  0.00000000000E+00  0.00000000000E+00  0.45593999997E+02  0.45594000000E+02  0.51100000000E-03 0. -1.
         11   -1    0    0    0    0 -0.00000000000E+00 -0.00000000000E+00 -0.45593999997E+02  0.45594000000E+02  0.51100000000E-03 0.  1.
    9900012    2    1    2    0    0 -0.73872546286E+01  0.27476407649E+02 -0.14394279951E+02  0.59301955976E+02  0.50000021790E+02 0.  0.
        -12    1    1    2    0    0  0.73872546286E+01 -0.27476407649E+02  0.14394279951E+02  0.31886044024E+02  0.00000000000E+00 0.  1.
         11    1    3    3    0    0  0.10295789259E+02  0.16159682514E+02 -0.51908527780E+01  0.19851538183E+02  0.51100000000E-03 0. -1.
        -11    1    3    3    0    0 -0.13439061172E+02 -0.98025455124E+01 -0.20910724306E+01  0.16765167696E+02  0.51100000000E-03 0.  1.
         12    1    3    3    0    0 -0.42439827158E+01  0.21119270647E+02 -0.71123547420E+01  0.22685250096E+02  0.00000000000E+00 0. -1.
</event>
<event>
 7    1  0.3750159E-013  0.5930194E+02  0.7816164E-02  0.1266605E+00
        -11   -1    0    0    0    0  0.00000000000E+00  0.00000000000E+00  0.45593999997E+02  0.45594000000E+02  0.51100000000E-03 0.  1.
         11   -1    0    0    0    0 -0.00000000000E+00 -0.00000000000E+00 -0.45593999997E+02  0.45594000000E+02  0.51100000000E-03 0. -1.
    9900012    2    1    2    0    0  0.12406616199E+01 -0.30533353793E+02 -0.91047241480E+01  0.59301938203E+02  0.49999989378E+02 0.  0.
        -12    1    1    2    0    0 -0.12406616199E+01  0.30533353793E+02  0.91047241480E+01  0.31886061797E+02  0.00000000000E+00 0.  1.
         11    1    3    3    0    0 -0.55836884691E+01 -0.30351538613E+02 -0.52799487934E+01  0.31309285086E+02  0.51100000000E-03 0. -1.
        -11    1    3    3    0    0  0.53911691759E+01 -0.62588458001E+01 -0.13882605895E+02  0.16154398860E+02  0.51100000000E-03 0.  1.
        -12    1    3    3    0    0  0.14331809132E+01  0.60770306200E+01  0.10057830540E+02  0.11838254257E+02  0.00000000000E+00 0.  1.
</event>
<event>
 7    1  0.3750159E-013  0.5930185E+02  0.7816164E-02  0.1266605E+00
        -11   -1    0    0    0    0  0.00000000000E+00  0.00000000000E+00  0.45593999997E+02  0.45594000000E+02  0.51100000000E-03 0. -1.
         11   -1    0    0    0    0 -0.00000000000E+00 -0.00000000000E+00 -0.45593999997E+02  0.45594000000E+02  0.51100000000E-03 0.  1.
    9900012    2    1    2    0    0 -0.24337066316E+01 -0.14738214607E+02  0.28170708801E+02  0.59301847329E+02  0.49999823645E+02 0.  0.
        -12    1    1    2    0    0  0.24337066316E+01  0.14738214607E+02 -0.28170708801E+02  0.31886152671E+02  0.00000000000E+00 0.  1.
         11    1    3    3    0    0  0.37053158843E+01 -0.17815752439E+02  0.70173519765E+01  0.19503169737E+02  0.51100000000E-03 0. -1.
        -11    1    3    3    0    0  0.12462061390E+02 -0.45913581031E+01  0.58114628624E+01  0.14496780476E+02  0.51100000000E-03 0.  1.
         12    1    3    3    0    0 -0.18601083906E+02  0.76688959346E+01  0.15341893963E+02  0.25301897116E+02  0.00000000000E+00 0. -1.
</event>
<event>
 7    1  0.3750159E-013  0.5930202E+02  0.7816164E-02  0.1266605E+00
        -11   -1    0    0    0    0  0.00000000000E+00  0.00000000000E+00  0.45593999997E+02  0.45594000000E+02  0.51100000000E-03 0. -1.
         11   -1    0    0    0    0 -0.00000000000E+00 -0.00000000000E+00 -0.45593999997E+02  0.45594000000E+02  0.51100000000E-03 0.  1.
    9900012    2    1    2    0    0  0.87635608442E+01 -0.18392423441E+02 -0.24528244766E+02  0.59302015148E+02  0.50000129706E+02 0.  0.
        -12    1    1    2    0    0 -0.87635608442E+01  0.18392423441E+02  0.24528244766E+02  0.31885984852E+02  0.00000000000E+00 0.  1.
         11    1    3    3    0    0  0.10124419075E+02  0.37164871995E+01  0.70418131590E-01  0.10785225899E+02  0.51100000000E-03 0. -1.
        -11    1    3    3    0    0 -0.37581564581E+00  0.92408084317E+01 -0.10755687623E+01  0.93107801121E+01  0.51100000000E-03 0.  1.
         12    1    3    3    0    0 -0.98504258498E+00 -0.31349719072E+02 -0.23523094135E+02  0.39206009137E+02  0.00000000000E+00 0. -1.
</event>
<event>
 7    1  0.3750159E-013  0.5930195E+02  0.7816164E-02  0.1266605E+00
        -11   -1    0    0    0    0  0.00000000000E+00  0.00000000000E+00  0.45593999997E+02  0.45594000000E+02  0.51100000000E-03 0. -1.
         11   -1    0    0    0    0 -0.00000000000E+00 -0.00000000000E+00 -0.45593999997E+02  0.45594000000E+02  0.51100000000E-03 0.  1.
    9900012    2    1    2    0    0  0.18742530593E+01 -0.21820409553E+02  0.23174917195E+02  0.59301954705E+02  0.50000019472E+02 0.  0.
        -12    1    1    2    0    0 -0.18742530593E+01  0.21820409553E+02 -0.23174917195E+02  0.31886045295E+02  0.00000000000E+00 0.  1.
         11    1    3    3    0    0 -0.36556178809E+01  0.91423957850E-01  0.30498124917E+02  0.30716567584E+02  0.51100000000E-03 0. -1.
        -11    1    3    3    0    0  0.37617880651E+01  0.10332983383E+01 -0.35311222615E+01  0.52618988578E+01  0.51100000000E-03 0.  1.
         12    1    3    3    0    0  0.17680828750E+01 -0.22945131849E+02 -0.37920854601E+01  0.23323488263E+02  0.00000000000E+00 0. -1.
</event>
<event>
 7    1  0.3750159E-013  0.5930193E+02  0.7816164E-02  0.1266605E+00
        -11   -1    0    0    0    0  0.00000000000E+00  0.00000000000E+00  0.45593999997E+02  0.45594000000E+02  0.51100000000E-03 0.  1.
         11   -1    0    0    0    0 -0.00000000000E+00 -0.00000000000E+00 -0.45593999997E+02  0.45594000000E+02  0.51100000000E-03 0. -1.
    9900012    2    1    2    0    0  0.22442849696E+01  0.11532404549E+02 -0.29642677531E+02  0.59301929359E+02  0.49999973248E+02 0.  0.
        -12    1    1    2    0    0 -0.22442849696E+01 -0.11532404549E+02  0.29642677531E+02  0.31886070641E+02  0.00000000000E+00 0.  1.
         11    1    3    3    0    0  0.46483480668E+01  0.19004821290E+02 -0.69022523786E+01  0.20746842173E+02  0.51100000000E-03 0. -1.
        -11    1    3    3    0    0 -0.33751634058E+01  0.10350685382E+02 -0.17922623548E+01  0.11033613212E+02  0.51100000000E-03 0.  1.
        -12    1    3    3    0    0  0.97110030862E+00 -0.17823102123E+02 -0.20948162798E+02  0.27521473974E+02  0.00000000000E+00 0.  1.
</event>
<event>
 7    1  0.3750159E-013  0.5930196E+02  0.7816164E-02  0.1266605E+00
        -11   -1    0    0    0    0  0.00000000000E+00  0.00000000000E+00  0.45593999997E+02  0.45594000000E+02  0.51100000000E-03 0.  1.
         11   -1    0    0    0    0 -0.00000000000E+00 -0.00000000000E+00 -0.45593999997E+02  0.45594000000E+02  0.51100000000E-03 0. -1.
    9900012    2    1    2    0    0  0.46844396171E+01  0.79411484811E+00 -0.31530068400E+02  0.59301955933E+02  0.50000021712E+02 0.  0.
        -12    1    1    2    0    0 -0.46844396171E+01 -0.79411484811E+00  0.31530068400E+02  0.31886044067E+02  0.00000000000E+00 0.  1.
         11    1    3    3    0    0  0.10375458622E+02  0.59133449332E+00 -0.13393417459E+02  0.16952387726E+02  0.51100000000E-03 0. -1.
        -11    1    3    3    0    0 -0.47671001386E+01 -0.10444850348E+02 -0.26433638139E+02  0.28819392222E+02  0.51100000000E-03 0.  1.
        -12    1    3    3    0    0 -0.92391886609E+00  0.10647630702E+02  0.82969871976E+01  0.13530175986E+02  0.00000000000E+00 0.  1.
</event>
<event>
 7    1  0.3750159E-013  0.5930188E+02  0.7816164E-02  0.1266605E+00
        -11   -1    0    0    0    0  0.00000000000E+00  0.00000000000E+00  0.45593999997E+02  0.45594000000E+02  0.51100000000E-03 0.  1.
         11   -1    0    0    0    0 -0.00000000000E+00 -0.00000000000E+00 -0.45593999997E+02  0.45594000000E+02  0.51100000000E-03 0. -1.
    9900012    2    1    2    0    0  0.99888264707E+01  0.12904206191E+02 -0.27393968563E+02  0.59301879111E+02  0.49999881608E+02 0.  0.
        -12    1    1    2    0    0 -0.99888264707E+01 -0.12904206191E+02  0.27393968563E+02  0.31886120889E+02  0.00000000000E+00 0.  1.
         11    1    3    3    0    0 -0.14151151032E+02  0.48566641671E+01 -0.47361905708E+01  0.15693111984E+02  0.51100000000E-03 0. -1.
        -11    1    3    3    0    0 -0.34184224733E+01  0.90434782735E+01 -0.53228648448E+01  0.11036439730E+02  0.51100000000E-03 0.  1.
         12    1    3    3    0    0  0.27558399976E+02 -0.99593624985E+00 -0.17334913148E+02  0.32572327397E+02  0.00000000000E+00 0. -1.
</event>
<event>
 7    1  0.3750159E-013  0.5930202E+02  0.7816164E-02  0.1266605E+00
        -11   -1    0    0    0    0  0.00000000000E+00  0.00000000000E+00  0.45593999997E+02  0.45594000000E+02  0.51100000000E-03 0.  1.
         11   -1    0    0    0    0 -0.00000000000E+00 -0.00000000000E+00 -0.45593999997E+02  0.45594000000E+02  0.51100000000E-03 0. -1.
    9900012    2    1    2    0    0 -0.70556660358E+00 -0.43485255816E+01 -0.31580190331E+02  0.59302016868E+02  0.50000132843E+02 0.  0.
        -12    1    1    2    0    0  0.70556660358E+00  0.43485255816E+01  0.31580190331E+02  0.31885983132E+02  0.00000000000E+00 0.  1.
         11    1    3    3    0    0 -0.15337514795E+02  0.12330793285E+02 -0.94141955019E+01  0.21815473873E+02  0.51100000000E-03 0. -1.
        -11    1    3    3    0    0 -0.40197552039E+01  0.11635508202E+01 -0.48429435331E+01  0.64004987881E+01  0.51100000000E-03 0.  1.
        -12    1    3    3    0    0  0.18651703395E+02 -0.17842869687E+02 -0.17323051296E+02  0.31086044206E+02  0.00000000000E+00 0.  1.
</event>
<event>
 7    1  0.3750159E-013  0.5930195E+02  0.7816164E-02  0.1266605E+00
        -11   -1    0    0    0    0  0.00000000000E+00  0.00000000000E+00  0.45593999997E+02  0.45594000000E+02  0.51100000000E-03 0. -1.
         11   -1    0    0    0    0 -0.00000000000E+00 -0.00000000000E+00 -0.45593999997E+02  0.45594000000E+02  0.51100000000E-03 0.  1.
    9900012    2    1    2    0    0 -0.95441172309E+01  0.30290689214E+02  0.28467544408E+01  0.59301952304E+02  0.50000015095E+02 0.  0.
        -12    1    1    2    0    0  0.95441172309E+01 -0.30290689214E+02 -0.28467544408E+01  0.31886047696E+02  0.00000000000E+00 0.  1.
         11    1    3    3    0    0 -0.53368471469E+01  0.52805631649E+01  0.34419034798E+01  0.82591152451E+01  0.51100000000E-03 0. -1.
        -11    1    3    3    0    0  0.13513861864E+02 -0.20710254911E+01  0.10055543484E+02  0.16971374844E+02  0.51100000000E-03 0.  1.
         12    1    3    3    0    0 -0.17721131948E+02  0.27081151541E+02 -0.10650692523E+02  0.34071462216E+02  0.00000000000E+00 0. -1.
</event>
<event>
 7    1  0.3750159E-013  0.5930198E+02  0.7816164E-02  0.1266605E+00
        -11   -1    0    0    0    0  0.00000000000E+00  0.00000000000E+00  0.45593999997E+02  0.45594000000E+02  0.51100000000E-03 0.  1.
         11   -1    0    0    0    0 -0.00000000000E+00 -0.00000000000E+00 -0.45593999997E+02  0.45594000000E+02  0.51100000000E-03 0. -1.
    9900012    2    1    2    0    0 -0.23678491272E+02  0.84383915936E+01 -0.19617368500E+02  0.59301975656E+02  0.50000057682E+02 0.  0.
        -12    1    1    2    0    0  0.23678491272E+02 -0.84383915936E+01  0.19617368500E+02  0.31886024344E+02  0.00000000000E+00 0.  1.
         11    1    3    3    0    0 -0.15717353238E+02 -0.93438828781E+01  0.75717165301E+01  0.19790761267E+02  0.51100000000E-03 0. -1.
        -11    1    3    3    0    0 -0.30076580177E+01 -0.35604646387E+01 -0.88449051194E-01  0.46616240401E+01  0.51100000000E-03 0.  1.
         12    1    3    3    0    0 -0.49534800159E+01  0.21342739110E+02 -0.27100635979E+02  0.34849590349E+02  0.00000000000E+00 0. -1.
</event>
<event>
 7    1  0.3750159E-013  0.5930194E+02  0.7816164E-02  0.1266605E+00
        -11   -1    0    0    0    0  0.00000000000E+00  0.00000000000E+00  0.45593999997E+02  0.45594000000E+02  0.51100000000E-03 0.  1.
         11   -1    0    0    0    0 -0.00000000000E+00 -0.00000000000E+00 -0.45593999997E+02  0.45594000000E+02  0.51100000000E-03 0. -1.
    9900012    2    1    2    0    0  0.30688730210E+02 -0.82904547352E+01  0.24881606203E+01  0.59301941214E+02  0.49999994868E+02 0.  0.
        -12    1    1    2    0    0 -0.30688730210E+02  0.82904547352E+01 -0.24881606203E+01  0.31886058786E+02  0.00000000000E+00 0.  1.
         11    1    3    3    0    0  0.18915749602E+01  0.42750714797E+01 -0.16466116251E+02  0.17116871111E+02  0.51100000000E-03 0. -1.
        -11    1    3    3    0    0  0.12337857963E+02  0.35494694159E+01  0.81245367415E+00  0.12863963366E+02  0.51100000000E-03 0.  1.
        -12    1    3    3    0    0  0.16459297287E+02 -0.16114995631E+02  0.18141823197E+02  0.29321106737E+02  0.00000000000E+00 0.  1.
</event>
<event>
 7    1  0.3750159E-013  0.5930193E+02  0.7816164E-02  0.1266605E+00
        -11   -1    0    0    0    0  0.00000000000E+00  0.00000000000E+00  0.45593999997E+02  0.45594000000E+02  0.51100000000E-03 0.  1.
         11   -1    0    0    0    0 -0.00000000000E+00 -0.00000000000E+00 -0.45593999997E+02  0.45594000000E+02  0.51100000000E-03 0. -1.
    9900012    2    1    2    0    0 -0.33412545108E+01  0.30459177830E+02 -0.88202049609E+01  0.59301929196E+02  0.49999972950E+02 0.  0.
        -12    1    1    2    0    0  0.33412545108E+01 -0.30459177830E+02  0.88202049609E+01  0.31886070804E+02  0.00000000000E+00 0.  1.
         11    1    3    3    0    0 -0.10255914840E+02 -0.48467038161E+01  0.39528963809E+01  0.12012481723E+02  0.51100000000E-03 0. -1.
        -11    1    3    3    0    0 -0.75063993885E+00 -0.62583272402E+00 -0.10428803248E+02  0.10474495901E+02  0.51100000000E-03 0.  1.
        -12    1    3    3    0    0  0.76653002677E+01  0.35931714370E+02 -0.23442980934E+01  0.36814951573E+02  0.00000000000E+00 0.  1.
</event>
<event>
 7    1  0.3750159E-013  0.5930166E+02  0.7816164E-02  0.1266606E+00
        -11   -1    0    0    0    0  0.00000000000E+00  0.00000000000E+00  0.45593999997E+02  0.45594000000E+02  0.51100000000E-03 0.  1.
         11   -1    0    0    0    0 -0.00000000000E+00 -0.00000000000E+00 -0.45593999997E+02  0.45594000000E+02  0.51100000000E-03 0. -1.
    9900012    2    1    2    0    0  0.37757559247E+01 -0.64355641595E+01 -0.31001061716E+02  0.59301660505E+02  0.49999482921E+02 0.  0.
        -12    1    1    2    0    0 -0.37757559247E+01  0.64355641595E+01  0.31001061716E+02  0.31886339495E+02  0.00000000000E+00 0.  1.
         11    1    3    3    0    0  0.11688692980E+02 -0.80151049301E+01  0.17693185547E+01  0.14282784709E+02  0.51100000000E-03 0. -1.
        -11    1    3    3    0    0  0.87266009475E+01 -0.16648856250E+01 -0.91199074539E+00  0.89306850589E+01  0.51100000000E-03 0.  1.
        -12    1    3    3    0    0 -0.16639538003E+02  0.32444263956E+01 -0.31858389525E+02  0.36088190738E+02  0.00000000000E+00 0.  1.
</event>
<event>
 7    1  0.3750159E-013  0.5930194E+02  0.7816164E-02  0.1266605E+00
        -11   -1    0    0    0    0  0.00000000000E+00  0.00000000000E+00  0.45593999997E+02  0.45594000000E+02  0.51100000000E-03 0.  1.
         11   -1    0    0    0    0 -0.00000000000E+00 -0.00000000000E+00 -0.45593999997E+02  0.45594000000E+02  0.51100000000E-03 0. -1.
    9900012    2    1    2    0    0  0.72348944088E+01  0.17435406753E+02 -0.25697935887E+02  0.59301936985E+02  0.49999987156E+02 0.  0.
        -12    1    1    2    0    0 -0.72348944088E+01 -0.17435406753E+02  0.25697935887E+02  0.31886063015E+02  0.00000000000E+00 0.  1.
         11    1    3    3    0    0 -0.15051682205E+02 -0.69396068539E+01 -0.17040183782E+02  0.23771393398E+02  0.51100000000E-03 0. -1.
        -11    1    3    3    0    0  0.39106059960E+00  0.23556672513E-01 -0.20956015273E+01  0.21319074398E+01  0.51100000000E-03 0.  1.
        -12    1    3    3    0    0  0.21895516014E+02  0.24351456934E+02 -0.65621505777E+01  0.33398636148E+02  0.00000000000E+00 0.  1.
</event>
<event>
 7    1  0.3750159E-013  0.5930193E+02  0.7816164E-02  0.1266605E+00
        -11   -1    0    0    0    0  0.00000000000E+00  0.00000000000E+00  0.45593999997E+02  0.45594000000E+02  0.51100000000E-03 0.  1.
         11   -1    0    0    0    0 -0.00000000000E+00 -0.00000000000E+00 -0.45593999997E+02  0.45594000000E+02  0.51100000000E-03 0. -1.
    9900012    2    1    2    0    0  0.11234349685E+02 -0.24069710190E+02 -0.17639718397E+02  0.59301933661E+02  0.49999981094E+02 0.  0.
        -12    1    1    2    0    0 -0.11234349685E+02  0.24069710190E+02  0.17639718397E+02  0.31886066339E+02  0.00000000000E+00 0.  1.
         11    1    3    3    0    0 -0.18708758198E+01  0.11327982668E+02 -0.77521179138E+01  0.13853472491E+02  0.51100000000E-03 0. -1.
        -11    1    3    3    0    0  0.62494550411E+01 -0.39078945731E+01 -0.10954501135E+02  0.13203348957E+02  0.51100000000E-03 0.  1.
        -12    1    3    3    0    0  0.68557704632E+01 -0.31489798284E+02  0.10669006517E+01  0.32245112213E+02  0.00000000000E+00 0.  1.
</event>
<event>
 7    1  0.3750159E-013  0.5930223E+02  0.7816164E-02  0.1266604E+00
        -11   -1    0    0    0    0  0.00000000000E+00  0.00000000000E+00  0.45593999997E+02  0.45594000000E+02  0.51100000000E-03 0.  1.
         11   -1    0    0    0    0 -0.00000000000E+00 -0.00000000000E+00 -0.45593999997E+02  0.45594000000E+02  0.51100000000E-03 0. -1.
    9900012    2    1    2    0    0  0.82298572651E+01 -0.18945322975E+02 -0.24290875203E+02  0.59302228387E+02  0.50000518600E+02 0.  0.
        -12    1    1    2    0    0 -0.82298572651E+01  0.18945322975E+02  0.24290875203E+02  0.31885771613E+02  0.00000000000E+00 0.  1.
         11    1    3    3    0    0 -0.62500958130E+00 -0.16958040027E+02 -0.90590231250E+01  0.19236206975E+02  0.51100000000E-03 0. -1.
        -11    1    3    3    0    0  0.86303514536E+01 -0.18559674222E+02 -0.78359905152E+01  0.21916825068E+02  0.51100000000E-03 0.  1.
        -12    1    3    3    0    0  0.22451539282E+00  0.16572391273E+02 -0.73958615631E+01  0.18149196344E+02  0.00000000000E+00 0.  1.
</event>
<event>
 7    1  0.3750159E-013  0.5930191E+02  0.7816164E-02  0.1266605E+00
        -11   -1    0    0    0    0  0.00000000000E+00  0.00000000000E+00  0.45593999997E+02  0.45594000000E+02  0.51100000000E-03 0.  1.
         11   -1    0    0    0    0 -0.00000000000E+00 -0.00000000000E+00 -0.45593999997E+02  0.45594000000E+02  0.51100000000E-03 0. -1.
    9900012    2    1    2    0    0  0.21310257927E+01  0.26914573304E+02 -0.16964298505E+02  0.59301906623E+02  0.49999931783E+02 0.  0.
        -12    1    1    2    0    0 -0.21310257927E+01 -0.26914573304E+02  0.16964298505E+02  0.31886093377E+02  0.00000000000E+00 0.  1.
         11    1    3    3    0    0  0.64127524517E+01 -0.47550775909E+01  0.64939903124E+01  0.10291067357E+02  0.51100000000E-03 0. -1.
        -11    1    3    3    0    0  0.39993841968E+01  0.50983448472E+01  0.57517711728E+01  0.86643560649E+01  0.51100000000E-03 0.  1.
        -12    1    3    3    0    0 -0.82811108558E+01  0.26571306048E+02 -0.29210059990E+02  0.40346483201E+02  0.00000000000E+00 0.  1.
</event>
<event>
 7    1  0.3750159E-013  0.5930194E+02  0.7816164E-02  0.1266605E+00
        -11   -1    0    0    0    0  0.00000000000E+00  0.00000000000E+00  0.45593999997E+02  0.45594000000E+02  0.51100000000E-03 0. -1.
         11   -1    0    0    0    0 -0.00000000000E+00 -0.00000000000E+00 -0.45593999997E+02  0.45594000000E+02  0.51100000000E-03 0.  1.
    9900012    2    1    2    0    0  0.27853487310E+02 -0.11910828889E+02 -0.99517046727E+01  0.59301936805E+02  0.49999986828E+02 0.  0.
        -12    1    1    2    0    0 -0.27853487310E+02  0.11910828889E+02  0.99517046727E+01  0.31886063195E+02  0.00000000000E+00 0.  1.
         11    1    3    3    0    0  0.17852571149E+02 -0.44613221193E+01  0.29370661054E+01  0.18634485484E+02  0.51100000000E-03 0. -1.
        -11    1    3    3    0    0  0.14701128372E+02 -0.33991739560E+01 -0.23762285045E+02  0.28148245946E+02  0.51100000000E-03 0.  1.
         12    1    3    3    0    0 -0.47002122109E+01 -0.40503328138E+01  0.10873514267E+02  0.12519205376E+02  0.00000000000E+00 0. -1.
</event>
<event>
 7    1  0.3750159E-013  0.5930199E+02  0.7816164E-02  0.1266605E+00
        -11   -1    0    0    0    0  0.00000000000E+00  0.00000000000E+00  0.45593999997E+02  0.45594000000E+02  0.51100000000E-03 0. -1.
         11   -1    0    0    0    0 -0.00000000000E+00 -0.00000000000E+00 -0.45593999997E+02  0.45594000000E+02  0.51100000000E-03 0.  1.
    9900012    2    1    2    0    0 -0.21709216134E+02 -0.12743689171E+02  0.19571043832E+02  0.59301993108E+02  0.50000089511E+02 0.  0.
        -12    1    1    2    0    0  0.21709216134E+02  0.12743689171E+02 -0.19571043832E+02  0.31886006892E+02  0.00000000000E+00 0.  1.
         11    1    3    3    0    0 -0.62966418145E+01 -0.82190607700E+01 -0.31499932916E+00  0.10358565679E+02  0.51100000000E-03 0. -1.
        -11    1    3    3    0    0 -0.96808891949E+01 -0.88925730911E+01 -0.11054011640E+02  0.17175233488E+02  0.51100000000E-03 0.  1.
         12    1    3    3    0    0 -0.57316851242E+01  0.43679446901E+01  0.30940054801E+02  0.31768193941E+02  0.00000000000E+00 0. -1.
</event>
<event>
 7    1  0.3750159E-013  0.5930194E+02  0.7816164E-02  0.1266605E+00
        -11   -1    0    0    0    0  0.00000000000E+00  0.00000000000E+00  0.45593999997E+02  0.45594000000E+02  0.51100000000E-03 0.  1.
         11   -1    0    0    0    0 -0.00000000000E+00 -0.00000000000E+00 -0.45593999997E+02  0.45594000000E+02  0.51100000000E-03 0. -1.
    9900012    2    1    2    0    0 -0.93146690588E+01 -0.29892297968E+02  0.60339118021E+01  0.59301943030E+02  0.49999998180E+02 0.  0.
        -12    1    1    2    0    0  0.93146690588E+01  0.29892297968E+02 -0.60339118021E+01  0.31886056970E+02  0.00000000000E+00 0.  1.
         11    1    3    3    0    0 -0.12059041987E+02  0.51203100492E+01 -0.89918955861E+01  0.15890004882E+02  0.51100000000E-03 0. -1.
        -11    1    3    3    0    0 -0.23365766929E+01 -0.28733281120E+02  0.30809290500E+01  0.28992294815E+02  0.51100000000E-03 0.  1.
        -12    1    3    3    0    0  0.50809496212E+01 -0.62793268971E+01  0.11944878338E+02  0.14419643333E+02  0.00000000000E+00 0.  1.
</event>
<event>
 7    1  0.3750159E-013  0.5930194E+02  0.7816164E-02  0.1266605E+00
        -11   -1    0    0    0    0  0.00000000000E+00  0.00000000000E+00  0.45593999997E+02  0.45594000000E+02  0.51100000000E-03 0.  1.
         11   -1    0    0    0    0 -0.00000000000E+00 -0.00000000000E+00 -0.45593999997E+02  0.45594000000E+02  0.51100000000E-03 0. -1.
    9900012    2    1    2    0    0 -0.22035438615E+02 -0.21402211980E+02 -0.85501898931E+01  0.59301937531E+02  0.49999988151E+02 0.  0.
        -12    1    1    2    0    0  0.22035438615E+02  0.21402211980E+02  0.85501898931E+01  0.31886062469E+02  0.00000000000E+00 0.  1.
         11    1    3    3    0    0 -0.24872447646E+02 -0.35800238437E+01 -0.19898544039E+01  0.25207434289E+02  0.51100000000E-03 0. -1.
        -11    1    3    3    0    0  0.32851840707E+01 -0.20400796370E+02  0.57983439618E+01  0.21461726862E+02  0.51100000000E-03 0.  1.
        -12    1    3    3    0    0 -0.44817503975E+00  0.25786082339E+01 -0.12358679451E+02  0.12632776380E+02  0.00000000000E+00 0.  1.
</event>
<event>
 7    1  0.3750159E-013  0.5930196E+02  0.7816164E-02  0.1266605E+00
        -11   -1    0    0    0    0  0.00000000000E+00  0.00000000000E+00  0.45593999997E+02  0.45594000000E+02  0.51100000000E-03 0.  1.
         11   -1    0    0    0    0 -0.00000000000E+00 -0.00000000000E+00 -0.45593999997E+02  0.45594000000E+02  0.51100000000E-03 0. -1.
    9900012    2    1    2    0    0  0.68767253293E+01 -0.26949000763E+02 -0.15594269689E+02  0.59301964805E+02  0.50000037892E+02 0.  0.
        -12    1    1    2    0    0 -0.68767253293E+01  0.26949000763E+02  0.15594269689E+02  0.31886035195E+02  0.00000000000E+00 0.  1.
         11    1    3    3    0    0  0.10961278533E+02 -0.47734026122E+01 -0.17896281097E+02  0.21522357606E+02  0.51100000000E-03 0. -1.
        -11    1    3    3    0    0  0.10440974229E+01 -0.20206709601E+02 -0.11253938067E+02  0.23152804897E+02  0.51100000000E-03 0.  1.
        -12    1    3    3    0    0 -0.51286506267E+01 -0.19688885496E+01  0.13555949475E+02  0.14626802301E+02  0.00000000000E+00 0.  1.
</event>
<event>
 7    1  0.3750159E-013  0.5930194E+02  0.7816164E-02  0.1266605E+00
        -11   -1    0    0    0    0  0.00000000000E+00  0.00000000000E+00  0.45593999997E+02  0.45594000000E+02  0.51100000000E-03 0. -1.
         11   -1    0    0    0    0 -0.00000000000E+00 -0.00000000000E+00 -0.45593999997E+02  0.45594000000E+02  0.51100000000E-03 0.  1.
    9900012    2    1    2    0    0  0.24569077195E+02  0.17187765024E+02  0.10847200834E+02  0.59301943695E+02  0.49999999393E+02 0.  0.
        -12    1    1    2    0    0 -0.24569077195E+02 -0.17187765024E+02 -0.10847200834E+02  0.31886056305E+02  0.00000000000E+00 0.  1.
         11    1    3    3    0    0 -0.17107745397E+01  0.89967668860E+00 -0.13292684179E+01  0.23458734956E+01  0.51100000000E-03 0.  1.
        -11    1    3    3    0    0 -0.12709224432E+02  0.32472914762E+01  0.86071661239E+01  0.15689250987E+02  0.51100000000E-03 0. -1.
         12    1    3    3    0    0  0.38989076167E+02  0.13040796860E+02  0.35693031276E+01  0.41266819212E+02  0.00000000000E+00 0. -1.
</event>
<event>
 7    1  0.3750159E-013  0.5930197E+02  0.7816164E-02  0.1266605E+00
        -11   -1    0    0    0    0  0.00000000000E+00  0.00000000000E+00  0.45593999997E+02  0.45594000000E+02  0.51100000000E-03 0.  1.
         11   -1    0    0    0    0 -0.00000000000E+00 -0.00000000000E+00 -0.45593999997E+02  0.45594000000E+02  0.51100000000E-03 0. -1.
    9900012    2    1    2    0    0  0.14677371118E+02  0.65722517370E+01 -0.27533600002E+02  0.59301971007E+02  0.50000049204E+02 0.  0.
        -12    1    1    2    0    0 -0.14677371118E+02 -0.65722517370E+01  0.27533600002E+02  0.31886028993E+02  0.00000000000E+00 0.  1.
         11    1    3    3    0    0 -0.14509846784E+02 -0.26961329233E+01 -0.42254687334E+01  0.15351201018E+02  0.51100000000E-03 0. -1.
        -11    1    3    3    0    0 -0.31523080869E+01  0.20382510341E+01 -0.65657120548E+00  0.38108528654E+01  0.51100000000E-03 0.  1.
         12    1    3    3    0    0  0.32339525988E+02  0.72301336262E+01 -0.22651560063E+02  0.40139917124E+02  0.00000000000E+00 0. -1.
</event>
<event>
 7    1  0.3750159E-013  0.5930191E+02  0.7816164E-02  0.1266605E+00
        -11   -1    0    0    0    0  0.00000000000E+00  0.00000000000E+00  0.45593999997E+02  0.45594000000E+02  0.51100000000E-03 0.  1.
         11   -1    0    0    0    0 -0.00000000000E+00 -0.00000000000E+00 -0.45593999997E+02  0.45594000000E+02  0.51100000000E-03 0. -1.
    9900012    2    1    2    0    0 -0.18178390153E+02  0.25693280534E+02  0.51111961231E+01  0.59301908064E+02  0.49999934411E+02 0.  0.
        -12    1    1    2    0    0  0.18178390153E+02 -0.25693280534E+02 -0.51111961231E+01  0.31886091936E+02  0.00000000000E+00 0.  1.
         11    1    3    3    0    0 -0.12012200690E+01  0.13087819962E+02 -0.51757866264E+01  0.14125251449E+02  0.51100000000E-03 0. -1.
        -11    1    3    3    0    0 -0.24423585843E+01  0.17423554279E+02  0.20313513584E+02  0.26873484954E+02  0.51100000000E-03 0.  1.
         12    1    3    3    0    0 -0.14534811499E+02 -0.48180937074E+01 -0.10026530835E+02  0.18303171662E+02  0.00000000000E+00 0. -1.
</event>
<event>
 7    1  0.3750159E-013  0.5930200E+02  0.7816164E-02  0.1266605E+00
        -11   -1    0    0    0    0  0.00000000000E+00  0.00000000000E+00  0.45593999997E+02  0.45594000000E+02  0.51100000000E-03 0. -1.
         11   -1    0    0    0    0 -0.00000000000E+00 -0.00000000000E+00 -0.45593999997E+02  0.45594000000E+02  0.51100000000E-03 0.  1.
    9900012    2    1    2    0    0  0.85517794293E+01  0.27114612127E+02 -0.14435445987E+02  0.59301996440E+02  0.50000095587E+02 0.  0.
        -12    1    1    2    0    0 -0.85517794293E+01 -0.27114612127E+02  0.14435445987E+02  0.31886003560E+02  0.00000000000E+00 0.  1.
         11    1    3    3    0    0 -0.31709351543E+01  0.21882311580E+01  0.12599995182E+01  0.40534903973E+01  0.51100000000E-03 0. -1.
        -11    1    3    3    0    0 -0.14329373024E+02  0.40219115691E+01  0.52967259379E+01  0.15797531764E+02  0.51100000000E-03 0.  1.
         12    1    3    3    0    0  0.26052087607E+02  0.20904469399E+02 -0.20992171444E+02  0.39450974278E+02  0.00000000000E+00 0. -1.
</event>
<event>
 7    1  0.3750159E-013  0.5930199E+02  0.7816164E-02  0.1266605E+00
        -11   -1    0    0    0    0  0.00000000000E+00  0.00000000000E+00  0.45593999997E+02  0.45594000000E+02  0.51100000000E-03 0.  1.
         11   -1    0    0    0    0 -0.00000000000E+00 -0.00000000000E+00 -0.45593999997E+02  0.45594000000E+02  0.51100000000E-03 0. -1.
    9900012    2    1    2    0    0  0.19575692113E+02 -0.13749110510E+02 -0.21082504333E+02  0.59301988169E+02  0.50000080503E+02 0.  0.
        -12    1    1    2    0    0 -0.19575692113E+02  0.13749110510E+02  0.21082504333E+02  0.31886011831E+02  0.00000000000E+00 0.  1.
         11    1    3    3    0    0 -0.31188728478E+01 -0.12123458332E+02  0.80525401442E+01  0.14884522592E+02  0.51100000000E-03 0. -1.
        -11    1    3    3    0    0  0.14570224705E+01 -0.76607736370E+01 -0.18156166771E+02  0.19759978727E+02  0.51100000000E-03 0.  1.
        -12    1    3    3    0    0  0.21237542490E+02  0.60351214588E+01 -0.10978877706E+02  0.24657486850E+02  0.00000000000E+00 0.  1.
</event>
<event>
 7    1  0.3750159E-013  0.5930196E+02  0.7816164E-02  0.1266605E+00
        -11   -1    0    0    0    0  0.00000000000E+00  0.00000000000E+00  0.45593999997E+02  0.45594000000E+02  0.51100000000E-03 0.  1.
         11   -1    0    0    0    0 -0.00000000000E+00 -0.00000000000E+00 -0.45593999997E+02  0.45594000000E+02  0.51100000000E-03 0. -1.
    9900012    2    1    2    0    0 -0.12241171148E+02 -0.26683522962E+02  0.12444393289E+02  0.59301959276E+02  0.50000027809E+02 0.  0.
        -12    1    1    2    0    0  0.12241171148E+02  0.26683522962E+02 -0.12444393289E+02  0.31886040724E+02  0.00000000000E+00 0.  1.
         11    1    3    3    0    0  0.78094577570E+00  0.24490651274E+01  0.25182676600E+00  0.25828691961E+01  0.51100000000E-03 0. -1.
        -11    1    3    3    0    0  0.74409255917E+01  0.38316684880E+01 -0.91801150436E+01  0.12422703793E+02  0.51100000000E-03 0.  1.
         12    1    3    3    0    0 -0.20463042516E+02 -0.32964256577E+02  0.21372681567E+02  0.44296386286E+02  0.00000000000E+00 0. -1.
</event>
<event>
 7    1  0.3750159E-013  0.5930193E+02  0.7816164E-02  0.1266605E+00
        -11   -1    0    0    0    0  0.00000000000E+00  0.00000000000E+00  0.45593999997E+02  0.45594000000E+02  0.51100000000E-03 0. -1.
         11   -1    0    0    0    0 -0.00000000000E+00 -0.00000000000E+00 -0.45593999997E+02  0.45594000000E+02  0.51100000000E-03 0.  1.
    9900012    2    1    2    0    0 -0.23115438551E+02 -0.20977258672E+02 -0.65078961261E+01  0.59301927919E+02  0.49999970621E+02 0.  0.
        -12    1    1    2    0    0  0.23115438551E+02  0.20977258672E+02  0.65078961261E+01  0.31886072081E+02  0.00000000000E+00 0.  1.
         11    1    3    3    0    0 -0.19693590190E+01 -0.75219789037E+01  0.37032676043E+01  0.86123593041E+01  0.51100000000E-03 0. -1.
        -11    1    3    3    0    0 -0.34407868970E+02 -0.11291473058E+02 -0.74714652307E+01  0.36975959810E+02  0.51100000000E-03 0.  1.
        -12    1    3    3    0    0  0.13261789438E+02 -0.21638067102E+01 -0.27396984997E+01  0.13713608805E+02  0.00000000000E+00 0.  1.
</event>
<event>
 7    1  0.3750159E-013  0.5930191E+02  0.7816164E-02  0.1266605E+00
        -11   -1    0    0    0    0  0.00000000000E+00  0.00000000000E+00  0.45593999997E+02  0.45594000000E+02  0.51100000000E-03 0.  1.
         11   -1    0    0    0    0 -0.00000000000E+00 -0.00000000000E+00 -0.45593999997E+02  0.45594000000E+02  0.51100000000E-03 0. -1.
    9900012    2    1    2    0    0 -0.59074903287E+01  0.29590035894E+02 -0.10307967647E+02  0.59301907997E+02  0.49999934289E+02 0.  0.
        -12    1    1    2    0    0  0.59074903287E+01 -0.29590035894E+02  0.10307967647E+02  0.31886092003E+02  0.00000000000E+00 0.  1.
         11    1    3    3    0    0 -0.18430898134E+02  0.12588454872E+02 -0.45435728109E+01  0.22777428657E+02  0.51100000000E-03 0. -1.
        -11    1    3    3    0    0  0.42532340288E+01  0.80044262540E+01 -0.17419710055E+02  0.19636882085E+02  0.51100000000E-03 0.  1.
        -12    1    3    3    0    0  0.82701737760E+01  0.89971547684E+01  0.11655315219E+02  0.16887597255E+02  0.00000000000E+00 0.  1.
</event>
<event>
 7    1  0.3750159E-013  0.5930193E+02  0.7816164E-02  0.1266605E+00
        -11   -1    0    0    0    0  0.00000000000E+00  0.00000000000E+00  0.45593999997E+02  0.45594000000E+02  0.51100000000E-03 0. -1.
         11   -1    0    0    0    0 -0.00000000000E+00 -0.00000000000E+00 -0.45593999997E+02  0.45594000000E+02  0.51100000000E-03 0.  1.
    9900012    2    1    2    0    0  0.13457840297E+02 -0.24599805166E+02  0.15180822342E+02  0.59301933347E+02  0.49999980520E+02 0.  0.
        -12    1    1    2    0    0 -0.13457840297E+02  0.24599805166E+02 -0.15180822342E+02  0.31886066653E+02  0.00000000000E+00 0.  1.
         11    1    3    3    0    0  0.52273231071E+01 -0.39226720337E+01  0.19338276785E+02  0.20412770807E+02  0.51100000000E-03 0. -1.
        -11    1    3    3    0    0  0.60415039197E+00 -0.11306134017E+01  0.12210933481E+02  0.12278036533E+02  0.51100000000E-03 0.  1.
         12    1    3    3    0    0  0.76263667980E+01 -0.19546519730E+02 -0.16368387924E+02  0.26611126007E+02  0.00000000000E+00 0. -1.
</event>
<event>
 7    1  0.3750159E-013  0.5930194E+02  0.7816164E-02  0.1266605E+00
        -11   -1    0    0    0    0  0.00000000000E+00  0.00000000000E+00  0.45593999997E+02  0.45594000000E+02  0.51100000000E-03 0. -1.
         11   -1    0    0    0    0 -0.00000000000E+00 -0.00000000000E+00 -0.45593999997E+02  0.45594000000E+02  0.51100000000E-03 0.  1.
    9900012    2    1    2    0    0  0.17660740163E+02 -0.26335874095E+02  0.33526963903E+01  0.59301943791E+02  0.49999999568E+02 0.  0.
        -12    1    1    2    0    0 -0.17660740163E+02  0.26335874095E+02 -0.33526963903E+01  0.31886056209E+02  0.00000000000E+00 0.  1.
         11    1    3    3    0    0 -0.42090244821E+01 -0.43207456652E+01 -0.83582872389E+00  0.60896091920E+01  0.51100000000E-03 0. -1.
        -11    1    3    3    0    0  0.85317224996E+01 -0.44768646299E+01 -0.18951406132E+02  0.21260018823E+02  0.51100000000E-03 0.  1.
         12    1    3    3    0    0  0.13338042146E+02 -0.17538263800E+02  0.23139931246E+02  0.31952315776E+02  0.00000000000E+00 0. -1.
</event>
<event>
 7    1  0.3750159E-013  0.5930190E+02  0.7816164E-02  0.1266605E+00
        -11   -1    0    0    0    0  0.00000000000E+00  0.00000000000E+00  0.45593999997E+02  0.45594000000E+02  0.51100000000E-03 0.  1.
         11   -1    0    0    0    0 -0.00000000000E+00 -0.00000000000E+00 -0.45593999997E+02  0.45594000000E+02  0.51100000000E-03 0. -1.
    9900012    2    1    2    0    0  0.22432153501E+01  0.12760619817E+02 -0.29135166471E+02  0.59301900230E+02  0.49999920124E+02 0.  0.
        -12    1    1    2    0    0 -0.22432153501E+01 -0.12760619817E+02  0.29135166471E+02  0.31886099770E+02  0.00000000000E+00 0.  1.
         11    1    3    3    0    0  0.52795444744E+01  0.45501009461E+01 -0.18440558594E+02  0.19713731509E+02  0.51100000000E-03 0. -1.
        -11    1    3    3    0    0 -0.12466491381E+02 -0.15196422916E+01 -0.19668404364E+02  0.23335999026E+02  0.51100000000E-03 0.  1.
         12    1    3    3    0    0  0.94301622569E+01  0.97301611623E+01  0.89737964866E+01  0.16252169696E+02  0.00000000000E+00 0. -1.
</event>
<event>
 7    1  0.3750159E-013  0.5930196E+02  0.7816164E-02  0.1266605E+00
        -11   -1    0    0    0    0  0.00000000000E+00  0.00000000000E+00  0.45593999997E+02  0.45594000000E+02  0.51100000000E-03 0.  1.
         11   -1    0    0    0    0 -0.00000000000E+00 -0.00000000000E+00 -0.45593999997E+02  0.45594000000E+02  0.51100000000E-03 0. -1.
    9900012    2    1    2    0    0  0.24396476010E+02  0.36582586472E+01 -0.20202685885E+02  0.59301962068E+02  0.50000032902E+02 0.  0.
        -12    1    1    2    0    0 -0.24396476010E+02 -0.36582586472E+01  0.20202685885E+02  0.31886037932E+02  0.00000000000E+00 0.  1.
         11    1    3    3    0    0 -0.11438487427E+02 -0.45276817409E+01 -0.30517808562E+01  0.12674867384E+02  0.51100000000E-03 0. -1.
        -11    1    3    3    0    0  0.25287928816E+01 -0.47894140190E+01  0.23560763897E+01  0.59062997129E+01  0.51100000000E-03 0.  1.
         12    1    3    3    0    0  0.33306170555E+02  0.12975354407E+02 -0.19506981418E+02  0.40720794971E+02  0.00000000000E+00 0. -1.
</event>
<event>
 7    1  0.3750159E-013  0.5930172E+02  0.7816164E-02  0.1266606E+00
        -11   -1    0    0    0    0  0.00000000000E+00  0.00000000000E+00  0.45593999997E+02  0.45594000000E+02  0.51100000000E-03 0.  1.
         11   -1    0    0    0    0 -0.00000000000E+00 -0.00000000000E+00 -0.45593999997E+02  0.45594000000E+02  0.51100000000E-03 0. -1.
    9900012    2    1    2    0    0 -0.23012712185E+02  0.11408963463E+02 -0.18894067008E+02  0.59301715527E+02  0.49999583267E+02 0.  0.
        -12    1    1    2    0    0  0.23012712185E+02 -0.11408963463E+02  0.18894067008E+02  0.31886284473E+02  0.00000000000E+00 0.  1.
         11    1    3    3    0    0 -0.17173067606E+02  0.40328683714E+01  0.22292361994E+01  0.17780544778E+02  0.51100000000E-03 0. -1.
        -11    1    3    3    0    0  0.10597714998E+02  0.62897550488E+01  0.26430848306E+01  0.12603907308E+02  0.51100000000E-03 0.  1.
         12    1    3    3    0    0 -0.16437359577E+02  0.10863400432E+01 -0.23766388038E+02  0.28917263441E+02  0.00000000000E+00 0. -1.
</event>
<event>
 7    1  0.3750159E-013  0.5930194E+02  0.7816164E-02  0.1266605E+00
        -11   -1    0    0    0    0  0.00000000000E+00  0.00000000000E+00  0.45593999997E+02  0.45594000000E+02  0.51100000000E-03 0.  1.
         11   -1    0    0    0    0 -0.00000000000E+00 -0.00000000000E+00 -0.45593999997E+02  0.45594000000E+02  0.51100000000E-03 0. -1.
    9900012    2    1    2    0    0 -0.17292814099E+02  0.10488746245E+02 -0.24650876270E+02  0.59301938497E+02  0.49999989913E+02 0.  0.
        -12    1    1    2    0    0  0.17292814099E+02 -0.10488746245E+02  0.24650876270E+02  0.31886061503E+02  0.00000000000E+00 0.  1.
         11    1    3    3    0    0 -0.18060882374E+02  0.80739423771E+01 -0.81683626198E+01  0.21403414816E+02  0.51100000000E-03 0. -1.
        -11    1    3    3    0    0  0.20558732617E+01  0.10966714388E+02 -0.23982562607E+02  0.26451063283E+02  0.51100000000E-03 0.  1.
         12    1    3    3    0    0 -0.12878049870E+01 -0.85519105204E+01  0.75000489559E+01  0.11447460398E+02  0.00000000000E+00 0. -1.
</event>
<event>
 7    1  0.3750159E-013  0.5930216E+02  0.7816164E-02  0.1266604E+00
        -11   -1    0    0    0    0  0.00000000000E+00  0.00000000000E+00  0.45593999997E+02  0.45594000000E+02  0.51100000000E-03 0. -1.
         11   -1    0    0    0    0 -0.00000000000E+00 -0.00000000000E+00 -0.45593999997E+02  0.45594000000E+02  0.51100000000E-03 0.  1.
    9900012    2    1    2    0    0  0.16508518216E+02  0.21401407572E+02  0.16916118759E+02  0.59302164687E+02  0.50000402428E+02 0.  0.
        -12    1    1    2    0    0 -0.16508518216E+02 -0.21401407572E+02 -0.16916118759E+02  0.31885835313E+02  0.00000000000E+00 0.  1.
         11    1    3    3    0    0 -0.10453593772E+02  0.63902319558E+01  0.10476689000E+02  0.16120598620E+02  0.51100000000E-03 0. -1.
        -11    1    3    3    0    0  0.11036929625E+02 -0.86758830058E+01  0.36332102796E+01  0.14501206111E+02  0.51100000000E-03 0.  1.
        -12    1    3    3    0    0  0.15925182363E+02  0.23687058622E+02  0.28062194792E+01  0.28680359956E+02  0.00000000000E+00 0.  1.
</event>
<event>
 7    1  0.3750159E-013  0.5930194E+02  0.7816164E-02  0.1266605E+00
        -11   -1    0    0    0    0  0.00000000000E+00  0.00000000000E+00  0.45593999997E+02  0.45594000000E+02  0.51100000000E-03 0.  1.
         11   -1    0    0    0    0 -0.00000000000E+00 -0.00000000000E+00 -0.45593999997E+02  0.45594000000E+02  0.51100000000E-03 0. -1.
    9900012    2    1    2    0    0  0.14119086122E+02  0.10183855332E+02 -0.26714445762E+02  0.59301935415E+02  0.49999984293E+02 0.  0.
        -12    1    1    2    0    0 -0.14119086122E+02 -0.10183855332E+02  0.26714445762E+02  0.31886064585E+02  0.00000000000E+00 0.  1.
         11    1    3    3    0    0 -0.52590412543E+00  0.89229786101E+00  0.20344562063E+01  0.22829329684E+01  0.51100000000E-03 0. -1.
        -11    1    3    3    0    0  0.16397213373E+02 -0.59851675157E+01  0.64491771266E+01  0.18608673313E+02  0.51100000000E-03 0.  1.
         12    1    3    3    0    0 -0.17522231261E+01  0.15276724986E+02 -0.35198079095E+02  0.38410329134E+02  0.00000000000E+00 0. -1.
</event>
<event>
 7    1  0.3750159E-013  0.5930194E+02  0.7816164E-02  0.1266605E+00
        -11   -1    0    0    0    0  0.00000000000E+00  0.00000000000E+00  0.45593999997E+02  0.45594000000E+02  0.51100000000E-03 0.  1.
         11   -1    0    0    0    0 -0.00000000000E+00 -0.00000000000E+00 -0.45593999997E+02  0.45594000000E+02  0.51100000000E-03 0. -1.
    9900012    2    1    2    0    0  0.15949744777E+02 -0.20191150957E+02 -0.18831996396E+02  0.59301936843E+02  0.49999986896E+02 0.  0.
        -12    1    1    2    0    0 -0.15949744777E+02  0.20191150957E+02  0.18831996396E+02  0.31886063157E+02  0.00000000000E+00 0.  1.
         11    1    3    3    0    0 -0.14331162990E+01 -0.21552647401E+01  0.19200443625E+01  0.32226633459E+01  0.51100000000E-03 0. -1.
        -11    1    3    3    0    0 -0.87350466035E+00 -0.11867712217E+02  0.12743791595E+02  0.17435877613E+02  0.51100000000E-03 0.  1.
         12    1    3    3    0    0  0.18256365736E+02 -0.61681739996E+01 -0.33495832353E+02  0.38643395884E+02  0.00000000000E+00 0. -1.
</event>
<event>
 7    1  0.3750159E-013  0.5930196E+02  0.7816164E-02  0.1266605E+00
        -11   -1    0    0    0    0  0.00000000000E+00  0.00000000000E+00  0.45593999997E+02  0.45594000000E+02  0.51100000000E-03 0.  1.
         11   -1    0    0    0    0 -0.00000000000E+00 -0.00000000000E+00 -0.45593999997E+02  0.45594000000E+02  0.51100000000E-03 0. -1.
    9900012    2    1    2    0    0 -0.26746286399E+02 -0.16724717044E+02 -0.46518371551E+01  0.59301959399E+02  0.50000028033E+02 0.  0.
        -12    1    1    2    0    0  0.26746286399E+02  0.16724717044E+02  0.46518371551E+01  0.31886040601E+02  0.00000000000E+00 0.  1.
         11    1    3    3    0    0 -0.16340296819E+02 -0.29320507268E+02  0.59249735731E+01  0.34085227866E+02  0.51100000000E-03 0. -1.
        -11    1    3    3    0    0 -0.99600223013E+01  0.13015915136E+02 -0.18784370363E+01  0.16496806267E+02  0.51100000000E-03 0.  1.
        -12    1    3    3    0    0 -0.44596727848E+00 -0.42012491151E+00 -0.86983736919E+01  0.87199252656E+01  0.00000000000E+00 0.  1.
</event>
<event>
 7    1  0.3750159E-013  0.5930198E+02  0.7816164E-02  0.1266605E+00
        -11   -1    0    0    0    0  0.00000000000E+00  0.00000000000E+00  0.45593999997E+02  0.45594000000E+02  0.51100000000E-03 0.  1.
         11   -1    0    0    0    0 -0.00000000000E+00 -0.00000000000E+00 -0.45593999997E+02  0.45594000000E+02  0.51100000000E-03 0. -1.
    9900012    2    1    2    0    0  0.28403917281E+02 -0.13783996161E+01 -0.14423441036E+02  0.59301981846E+02  0.50000068971E+02 0.  0.
        -12    1    1    2    0    0 -0.28403917281E+02  0.13783996161E+01  0.14423441036E+02  0.31886018154E+02  0.00000000000E+00 0.  1.
         11    1    3    3    0    0  0.16921904426E+02 -0.19773027747E+02 -0.46903369502E+01  0.26444710939E+02  0.51100000000E-03 0. -1.
        -11    1    3    3    0    0 -0.24069684963E+01  0.15523270956E+01  0.55249282334E+01  0.62231864025E+01  0.51100000000E-03 0.  1.
        -12    1    3    3    0    0  0.13888981351E+02  0.16842301035E+02 -0.15258032319E+02  0.26634084504E+02  0.00000000000E+00 0.  1.
</event>
<event>
 7    1  0.3750159E-013  0.5930194E+02  0.7816164E-02  0.1266605E+00
        -11   -1    0    0    0    0  0.00000000000E+00  0.00000000000E+00  0.45593999997E+02  0.45594000000E+02  0.51100000000E-03 0. -1.
         11   -1    0    0    0    0 -0.00000000000E+00 -0.00000000000E+00 -0.45593999997E+02  0.45594000000E+02  0.51100000000E-03 0.  1.
    9900012    2    1    2    0    0 -0.30718599166E+02 -0.72219827634E+00 -0.85186162070E+01  0.59301941493E+02  0.49999995377E+02 0.  0.
        -12    1    1    2    0    0  0.30718599166E+02  0.72219827634E+00  0.85186162070E+01  0.31886058507E+02  0.00000000000E+00 0.  1.
         11    1    3    3    0    0  0.68340878914E+01 -0.15750013620E+01  0.95759432406E+01  0.11869459794E+02  0.51100000000E-03 0. -1.
        -11    1    3    3    0    0 -0.13524008680E+02 -0.75477825866E+01  0.11372302970E+01  0.15529363341E+02  0.51100000000E-03 0.  1.
        -12    1    3    3    0    0 -0.24028678377E+02  0.84005856723E+01 -0.19231789745E+02  0.31903118358E+02  0.00000000000E+00 0.  1.
</event>
<event>
 7    1  0.3750159E-013  0.5930165E+02  0.7816164E-02  0.1266606E+00
        -11   -1    0    0    0    0  0.00000000000E+00  0.00000000000E+00  0.45593999997E+02  0.45594000000E+02  0.51100000000E-03 0.  1.
         11   -1    0    0    0    0 -0.00000000000E+00 -0.00000000000E+00 -0.45593999997E+02  0.45594000000E+02  0.51100000000E-03 0. -1.
    9900012    2    1    2    0    0 -0.11480058856E+02 -0.29738389117E+02  0.75899711256E+00  0.59301645313E+02  0.49999455213E+02 0.  0.
        -12    1    1    2    0    0  0.11480058856E+02  0.29738389117E+02 -0.75899711256E+00  0.31886354687E+02  0.00000000000E+00 0.  1.
         11    1    3    3    0    0 -0.13387268612E+02 -0.76698468385E+01 -0.11354377505E+02  0.19156393194E+02  0.51100000000E-03 0. -1.
        -11    1    3    3    0    0 -0.12129301277E+02 -0.13550839562E-01  0.36485489736E+01  0.12666177125E+02  0.51100000000E-03 0.  1.
         12    1    3    3    0    0  0.14036511033E+02 -0.22054991439E+02  0.84648256437E+01  0.27479074994E+02  0.00000000000E+00 0. -1.
</event>
<event>
 7    1  0.3750159E-013  0.5930193E+02  0.7816164E-02  0.1266605E+00
        -11   -1    0    0    0    0  0.00000000000E+00  0.00000000000E+00  0.45593999997E+02  0.45594000000E+02  0.51100000000E-03 0. -1.
         11   -1    0    0    0    0 -0.00000000000E+00 -0.00000000000E+00 -0.45593999997E+02  0.45594000000E+02  0.51100000000E-03 0.  1.
    9900012    2    1    2    0    0  0.14745160859E+02 -0.28044412173E+02 -0.35794385407E+01  0.59301934028E+02  0.49999981762E+02 0.  0.
        -12    1    1    2    0    0 -0.14745160859E+02  0.28044412173E+02  0.35794385407E+01  0.31886065972E+02  0.00000000000E+00 0.  1.
         11    1    3    3    0    0  0.16112670153E+02 -0.20637146798E+02  0.59904283054E+01  0.26858801145E+02  0.51100000000E-03 0. -1.
        -11    1    3    3    0    0  0.24496688463E+01 -0.36007786513E+01  0.10655790365E+02  0.11511400997E+02  0.51100000000E-03 0.  1.
        -12    1    3    3    0    0 -0.38171781396E+01 -0.38064867237E+01 -0.20225657211E+02  0.20931731886E+02  0.00000000000E+00 0.  1.
</event>
<event>
 7    1  0.3750159E-013  0.5930195E+02  0.7816164E-02  0.1266605E+00
        -11   -1    0    0    0    0  0.00000000000E+00  0.00000000000E+00  0.45593999997E+02  0.45594000000E+02  0.51100000000E-03 0.  1.
         11   -1    0    0    0    0 -0.00000000000E+00 -0.00000000000E+00 -0.45593999997E+02  0.45594000000E+02  0.51100000000E-03 0. -1.
    9900012    2    1    2    0    0 -0.19923979765E+02  0.14533365832E+02 -0.20212278492E+02  0.59301954558E+02  0.50000019204E+02 0.  0.
        -12    1    1    2    0    0  0.19923979765E+02 -0.14533365832E+02  0.20212278492E+02  0.31886045442E+02  0.00000000000E+00 0.  1.
         11    1    3    3    0    0 -0.19960239235E+02  0.61388379165E+01 -0.30778450074E+01  0.21108519878E+02  0.51100000000E-03 0. -1.
        -11    1    3    3    0    0 -0.97304643342E+01 -0.88084903595E+01 -0.19799027082E+01  0.13273712878E+02  0.51100000000E-03 0.  1.
         12    1    3    3    0    0  0.97667238038E+01  0.17203018275E+02 -0.15154530777E+02  0.24919721802E+02  0.00000000000E+00 0. -1.
</event>
<event>
 7    1  0.3750159E-013  0.5930191E+02  0.7816164E-02  0.1266605E+00
        -11   -1    0    0    0    0  0.00000000000E+00  0.00000000000E+00  0.45593999997E+02  0.45594000000E+02  0.51100000000E-03 0. -1.
         11   -1    0    0    0    0 -0.00000000000E+00 -0.00000000000E+00 -0.45593999997E+02  0.45594000000E+02  0.51100000000E-03 0.  1.
    9900012    2    1    2    0    0 -0.24154391584E+02 -0.51198676036E+01  0.20176096360E+02  0.59301913043E+02  0.49999943492E+02 0.  0.
        -12    1    1    2    0    0  0.24154391584E+02  0.51198676036E+01 -0.20176096360E+02  0.31886086957E+02  0.00000000000E+00 0.  1.
         11    1    3    3    0    0  0.47865306645E+01  0.88139388150E+00  0.17005213015E+02  0.17687990302E+02  0.51100000000E-03 0. -1.
        -11    1    3    3    0    0  0.13842577206E+01 -0.10139330845E+02  0.40232345352E+01  0.10995845389E+02  0.51100000000E-03 0.  1.
        -12    1    3    3    0    0 -0.30325179970E+02  0.41380693602E+01 -0.85235119041E+00  0.30618077353E+02  0.00000000000E+00 0.  1.
</event>
<event>
 7    1  0.3750159E-013  0.5930194E+02  0.7816164E-02  0.1266605E+00
        -11   -1    0    0    0    0  0.00000000000E+00  0.00000000000E+00  0.45593999997E+02  0.45594000000E+02  0.51100000000E-03 0.  1.
         11   -1    0    0    0    0 -0.00000000000E+00 -0.00000000000E+00 -0.45593999997E+02  0.45594000000E+02  0.51100000000E-03 0. -1.
    9900012    2    1    2    0    0  0.15418824863E+02  0.14016119080E+01 -0.27875005000E+02  0.59301943803E+02  0.49999999590E+02 0.  0.
        -12    1    1    2    0    0 -0.15418824863E+02 -0.14016119080E+01  0.27875005000E+02  0.31886056197E+02  0.00000000000E+00 0.  1.
         11    1    3    3    0    0  0.22266914532E+00  0.52335122804E+01 -0.39676137500E+01  0.65712397208E+01  0.51100000000E-03 0. -1.
        -11    1    3    3    0    0 -0.23781458069E+01  0.58056992230E+01 -0.30878629374E+02  0.31509545748E+02  0.51100000000E-03 0.  1.
        -12    1    3    3    0    0  0.17574301525E+02 -0.96375995954E+01  0.69712381248E+01  0.21221158334E+02  0.00000000000E+00 0.  1.
</event>
<event>
 7    1  0.3750159E-013  0.5930194E+02  0.7816164E-02  0.1266605E+00
        -11   -1    0    0    0    0  0.00000000000E+00  0.00000000000E+00  0.45593999997E+02  0.45594000000E+02  0.51100000000E-03 0.  1.
         11   -1    0    0    0    0 -0.00000000000E+00 -0.00000000000E+00 -0.45593999997E+02  0.45594000000E+02  0.51100000000E-03 0. -1.
    9900012    2    1    2    0    0 -0.27443386813E+02  0.15696378401E+02  0.41478953486E+01  0.59301940186E+02  0.49999992993E+02 0.  0.
        -12    1    1    2    0    0  0.27443386813E+02 -0.15696378401E+02 -0.41478953486E+01  0.31886059814E+02  0.00000000000E+00 0.  1.
         11    1    3    3    0    0  0.93516006075E+01  0.30245132280E+01 -0.59438883855E+01  0.11486075204E+02  0.51100000000E-03 0. -1.
        -11    1    3    3    0    0 -0.19002049933E+01 -0.51919803402E+01  0.63750113755E+01  0.84384956698E+01  0.51100000000E-03 0.  1.
        -12    1    3    3    0    0 -0.34894782427E+02  0.17863845513E+02  0.37167723587E+01  0.39377369312E+02  0.00000000000E+00 0.  1.
</event>
<event>
 7    1  0.3750159E-013  0.5930194E+02  0.7816164E-02  0.1266605E+00
        -11   -1    0    0    0    0  0.00000000000E+00  0.00000000000E+00  0.45593999997E+02  0.45594000000E+02  0.51100000000E-03 0.  1.
         11   -1    0    0    0    0 -0.00000000000E+00 -0.00000000000E+00 -0.45593999997E+02  0.45594000000E+02  0.51100000000E-03 0. -1.
    9900012    2    1    2    0    0 -0.23192309140E+02 -0.10110988540E+02 -0.19406324410E+02  0.59301941611E+02  0.49999995592E+02 0.  0.
        -12    1    1    2    0    0  0.23192309140E+02  0.10110988540E+02  0.19406324410E+02  0.31886058389E+02  0.00000000000E+00 0.  1.
         11    1    3    3    0    0 -0.62163485491E+01 -0.88777103290E+01 -0.45925632895E+01  0.11770657067E+02  0.51100000000E-03 0. -1.
        -11    1    3    3    0    0  0.36204309084E+01 -0.81125924446E+01  0.10778611074E+02  0.13967824923E+02  0.51100000000E-03 0.  1.
        -12    1    3    3    0    0 -0.20596391499E+02  0.68793142335E+01 -0.25592372195E+02  0.33563459620E+02  0.00000000000E+00 0.  1.
</event>
<event>
 7    1  0.3750159E-013  0.5930183E+02  0.7816164E-02  0.1266605E+00
        -11   -1    0    0    0    0  0.00000000000E+00  0.00000000000E+00  0.45593999997E+02  0.45594000000E+02  0.51100000000E-03 0.  1.
         11   -1    0    0    0    0 -0.00000000000E+00 -0.00000000000E+00 -0.45593999997E+02  0.45594000000E+02  0.51100000000E-03 0. -1.
    9900012    2    1    2    0    0  0.28470812452E+02  0.13602462977E+02  0.45949863193E+01  0.59301826508E+02  0.49999785672E+02 0.  0.
        -12    1    1    2    0    0 -0.28470812452E+02 -0.13602462977E+02 -0.45949863193E+01  0.31886173492E+02  0.00000000000E+00 0.  1.
         11    1    3    3    0    0  0.18476332330E+02  0.10925728087E+02 -0.17095418639E+02  0.27440840536E+02  0.51100000000E-03 0. -1.
        -11    1    3    3    0    0  0.12161350606E+02  0.98180724167E+01  0.12443981734E+02  0.19978630489E+02  0.51100000000E-03 0.  1.
        -12    1    3    3    0    0 -0.21668704852E+01 -0.71413375272E+01  0.92464232249E+01  0.11882355483E+02  0.00000000000E+00 0.  1.
</event>
<event>
 7    1  0.3750159E-013  0.5930189E+02  0.7816164E-02  0.1266605E+00
        -11   -1    0    0    0    0  0.00000000000E+00  0.00000000000E+00  0.45593999997E+02  0.45594000000E+02  0.51100000000E-03 0. -1.
         11   -1    0    0    0    0 -0.00000000000E+00 -0.00000000000E+00 -0.45593999997E+02  0.45594000000E+02  0.51100000000E-03 0.  1.
    9900012    2    1    2    0    0  0.92242971141E+00 -0.28370887790E+02  0.14524662736E+02  0.59301890514E+02  0.49999902403E+02 0.  0.
        -12    1    1    2    0    0 -0.92242971141E+00  0.28370887790E+02 -0.14524662736E+02  0.31886109486E+02  0.00000000000E+00 0.  1.
         11    1    3    3    0    0  0.69536868804E+01 -0.21912932599E+02 -0.34737285826E+01  0.23250745512E+02  0.51100000000E-03 0.  1.
        -11    1    3    3    0    0 -0.18229518363E+02 -0.45436249448E+01  0.94234362234E+01  0.21018111664E+02  0.51100000000E-03 0. -1.
         12    1    3    3    0    0  0.12198261194E+02 -0.19143302461E+01  0.85749550955E+01  0.15033033338E+02  0.00000000000E+00 0. -1.
</event>
<event>
 7    1  0.3750159E-013  0.5930198E+02  0.7816164E-02  0.1266605E+00
        -11   -1    0    0    0    0  0.00000000000E+00  0.00000000000E+00  0.45593999997E+02  0.45594000000E+02  0.51100000000E-03 0.  1.
         11   -1    0    0    0    0 -0.00000000000E+00 -0.00000000000E+00 -0.45593999997E+02  0.45594000000E+02  0.51100000000E-03 0. -1.
    9900012    2    1    2    0    0  0.28135054966E+02 -0.14964348324E+02 -0.10979092742E+01  0.59301977303E+02  0.50000060685E+02 0.  0.
        -12    1    1    2    0    0 -0.28135054966E+02  0.14964348324E+02  0.10979092742E+01  0.31886022697E+02  0.00000000000E+00 0.  1.
         11    1    3    3    0    0  0.37416581996E+00 -0.12171422028E+02  0.13364277002E+02  0.18080028050E+02  0.51100000000E-03 0. -1.
        -11    1    3    3    0    0  0.93182886222E+01  0.35954477779E+01  0.70118393480E+01  0.12203427341E+02  0.51100000000E-03 0.  1.
         12    1    3    3    0    0  0.18442600523E+02 -0.63883740744E+01 -0.21474025625E+02  0.29018521911E+02  0.00000000000E+00 0. -1.
</event>
<event>
 7    1  0.3750159E-013  0.5930194E+02  0.7816164E-02  0.1266605E+00
        -11   -1    0    0    0    0  0.00000000000E+00  0.00000000000E+00  0.45593999997E+02  0.45594000000E+02  0.51100000000E-03 0. -1.
         11   -1    0    0    0    0 -0.00000000000E+00 -0.00000000000E+00 -0.45593999997E+02  0.45594000000E+02  0.51100000000E-03 0.  1.
    9900012    2    1    2    0    0  0.10797420522E+02  0.29260350513E+02 -0.66308868339E+01  0.59301936237E+02  0.49999985791E+02 0.  0.
        -12    1    1    2    0    0 -0.10797420522E+02 -0.29260350513E+02  0.66308868339E+01  0.31886063763E+02  0.00000000000E+00 0.  1.
         11    1    3    3    0    0  0.26680873983E+02  0.80630727877E+01 -0.87020035935E+01  0.29199435715E+02  0.51100000000E-03 0.  1.
        -11    1    3    3    0    0 -0.39932961904E+01  0.13369115356E+01  0.52580977945E+01  0.67365673451E+01  0.51100000000E-03 0. -1.
        -12    1    3    3    0    0 -0.11890157270E+02  0.19860366190E+02 -0.31869810349E+01  0.23365933177E+02  0.00000000000E+00 0.  1.
</event>
<event>
 7    1  0.3750159E-013  0.5930192E+02  0.7816164E-02  0.1266605E+00
        -11   -1    0    0    0    0  0.00000000000E+00  0.00000000000E+00  0.45593999997E+02  0.45594000000E+02  0.51100000000E-03 0.  1.
         11   -1    0    0    0    0 -0.00000000000E+00 -0.00000000000E+00 -0.45593999997E+02  0.45594000000E+02  0.51100000000E-03 0. -1.
    9900012    2    1    2    0    0  0.28842022767E+02  0.89982215892E+00 -0.13566508702E+02  0.59301919721E+02  0.49999955670E+02 0.  0.
        -12    1    1    2    0    0 -0.28842022767E+02 -0.89982215892E+00  0.13566508702E+02  0.31886080279E+02  0.00000000000E+00 0.  1.
         11    1    3    3    0    0  0.21723978115E+01  0.76200102563E+00 -0.25410647346E+02  0.25514720391E+02  0.51100000000E-03 0. -1.
        -11    1    3    3    0    0  0.18948814678E+02  0.11117731217E+01 -0.73486279893E+00  0.18995621621E+02  0.51100000000E-03 0.  1.
        -12    1    3    3    0    0  0.77208102776E+01 -0.97395198845E+00  0.12579001443E+02  0.14791577709E+02  0.00000000000E+00 0.  1.
</event>
<event>
 7    1  0.3750159E-013  0.5930192E+02  0.7816164E-02  0.1266605E+00
        -11   -1    0    0    0    0  0.00000000000E+00  0.00000000000E+00  0.45593999997E+02  0.45594000000E+02  0.51100000000E-03 0. -1.
         11   -1    0    0    0    0 -0.00000000000E+00 -0.00000000000E+00 -0.45593999997E+02  0.45594000000E+02  0.51100000000E-03 0.  1.
    9900012    2    1    2    0    0  0.62087131675E+01  0.30651332424E+02  0.62185025480E+01  0.59301920396E+02  0.49999956902E+02 0.  0.
        -12    1    1    2    0    0 -0.62087131675E+01 -0.30651332424E+02 -0.62185025480E+01  0.31886079604E+02  0.00000000000E+00 0.  1.
         11    1    3    3    0    0 -0.13933541094E+01  0.27314048535E+02  0.19772539082E+01  0.27420944847E+02  0.51100000000E-03 0. -1.
        -11    1    3    3    0    0 -0.98639724361E+01  0.26234943714E+01 -0.57817772792E+01  0.11730712839E+02  0.51100000000E-03 0.  1.
        -12    1    3    3    0    0  0.17466039713E+02  0.71378951775E+00  0.10023025919E+02  0.20150262711E+02  0.00000000000E+00 0.  1.
</event>
<event>
 7    1  0.3750159E-013  0.5930195E+02  0.7816164E-02  0.1266605E+00
        -11   -1    0    0    0    0  0.00000000000E+00  0.00000000000E+00  0.45593999997E+02  0.45594000000E+02  0.51100000000E-03 0.  1.
         11   -1    0    0    0    0 -0.00000000000E+00 -0.00000000000E+00 -0.45593999997E+02  0.45594000000E+02  0.51100000000E-03 0. -1.
    9900012    2    1    2    0    0  0.62393687534E+01  0.23749583889E+02 -0.20340795079E+02  0.59301946594E+02  0.50000004680E+02 0.  0.
        -12    1    1    2    0    0 -0.62393687534E+01 -0.23749583889E+02  0.20340795079E+02  0.31886053406E+02  0.00000000000E+00 0.  1.
         11    1    3    3    0    0  0.16484945108E+02  0.15154192591E+01  0.19533977552E+01  0.16669303338E+02  0.51100000000E-03 0. -1.
        -11    1    3    3    0    0 -0.12713725687E+02  0.12417329214E+00 -0.27244482440E+01  0.13002955755E+02  0.51100000000E-03 0.  1.
         12    1    3    3    0    0  0.24681493331E+01  0.22109991338E+02 -0.19569744590E+02  0.29629687501E+02  0.00000000000E+00 0. -1.
</event>
<event>
 7    1  0.3750159E-013  0.5930193E+02  0.7816164E-02  0.1266605E+00
        -11   -1    0    0    0    0  0.00000000000E+00  0.00000000000E+00  0.45593999997E+02  0.45594000000E+02  0.51100000000E-03 0.  1.
         11   -1    0    0    0    0 -0.00000000000E+00 -0.00000000000E+00 -0.45593999997E+02  0.45594000000E+02  0.51100000000E-03 0. -1.
    9900012    2    1    2    0    0  0.14200457919E+02 -0.11554233314E+02 -0.26106860602E+02  0.59301929638E+02  0.49999973757E+02 0.  0.
        -12    1    1    2    0    0 -0.14200457919E+02  0.11554233314E+02  0.26106860602E+02  0.31886070362E+02  0.00000000000E+00 0.  1.
         11    1    3    3    0    0  0.27424635545E+01  0.18711000506E+01 -0.56478675597E+01  0.65513761898E+01  0.51100000000E-03 0.  1.
        -11    1    3    3    0    0 -0.64944573923E+00  0.69379013672E+01 -0.27233005686E+02  0.28110369157E+02  0.51100000000E-03 0. -1.
        -12    1    3    3    0    0  0.12107440104E+02 -0.20363234732E+02  0.67740126438E+01  0.24640184292E+02  0.00000000000E+00 0.  1.
</event>
<event>
 7    1  0.3750159E-013  0.5930195E+02  0.7816164E-02  0.1266605E+00
        -11   -1    0    0    0    0  0.00000000000E+00  0.00000000000E+00  0.45593999997E+02  0.45594000000E+02  0.51100000000E-03 0.  1.
         11   -1    0    0    0    0 -0.00000000000E+00 -0.00000000000E+00 -0.45593999997E+02  0.45594000000E+02  0.51100000000E-03 0. -1.
    9900012    2    1    2    0    0 -0.27693358436E+02 -0.73575838265E+01 -0.13988005412E+02  0.59301946048E+02  0.50000003685E+02 0.  0.
        -12    1    1    2    0    0  0.27693358436E+02  0.73575838265E+01  0.13988005412E+02  0.31886053952E+02  0.00000000000E+00 0.  1.
         11    1    3    3    0    0  0.51298159190E+01  0.60191177823E+01 -0.75642636268E+01  0.10943622559E+02  0.51100000000E-03 0. -1.
        -11    1    3    3    0    0 -0.78197831457E+01  0.10231098255E+02  0.17965009346E+01  0.13001991994E+02  0.51100000000E-03 0.  1.
         12    1    3    3    0    0 -0.25003391209E+02 -0.23607799864E+02 -0.82202427196E+01  0.35356331495E+02  0.00000000000E+00 0. -1.
</event>
<event>
 7    1  0.3750159E-013  0.5930194E+02  0.7816164E-02  0.1266605E+00
        -11   -1    0    0    0    0  0.00000000000E+00  0.00000000000E+00  0.45593999997E+02  0.45594000000E+02  0.51100000000E-03 0.  1.
         11   -1    0    0    0    0 -0.00000000000E+00 -0.00000000000E+00 -0.45593999997E+02  0.45594000000E+02  0.51100000000E-03 0. -1.
    9900012    2    1    2    0    0  0.47152466267E+01 -0.31161166505E+02 -0.48444975075E+01  0.59301937139E+02  0.49999987436E+02 0.  0.
        -12    1    1    2    0    0 -0.47152466267E+01  0.31161166505E+02  0.48444975075E+01  0.31886062861E+02  0.00000000000E+00 0.  1.
         11    1    3    3    0    0 -0.56453078520E+01  0.18075081562E+01 -0.74223109520E+00  0.59739010486E+01  0.51100000000E-03 0. -1.
        -11    1    3    3    0    0  0.10281040659E+02  0.15409976169E+01  0.11459020100E+02  0.15472026777E+02  0.51100000000E-03 0.  1.
        -12    1    3    3    0    0  0.79513819214E-01 -0.34509672278E+02 -0.15561286512E+02  0.37856009313E+02  0.00000000000E+00 0.  1.
</event>
<event>
 7    1  0.3750159E-013  0.5930194E+02  0.7816164E-02  0.1266605E+00
        -11   -1    0    0    0    0  0.00000000000E+00  0.00000000000E+00  0.45593999997E+02  0.45594000000E+02  0.51100000000E-03 0. -1.
         11   -1    0    0    0    0 -0.00000000000E+00 -0.00000000000E+00 -0.45593999997E+02  0.45594000000E+02  0.51100000000E-03 0.  1.
    9900012    2    1    2    0    0 -0.22670213696E+01  0.45832902530E+01  0.31473402882E+02  0.59301936831E+02  0.49999986875E+02 0.  0.
        -12    1    1    2    0    0  0.22670213696E+01 -0.45832902530E+01 -0.31473402882E+02  0.31886063169E+02  0.00000000000E+00 0.  1.
         11    1    3    3    0    0 -0.52071787590E+01  0.19773965614E+02  0.35050146468E+02  0.40578777636E+02  0.51100000000E-03 0. -1.
        -11    1    3    3    0    0  0.13506646488E+01 -0.29030365923E+00  0.22541087926E+01  0.26437809891E+01  0.51100000000E-03 0.  1.
        -12    1    3    3    0    0  0.15894927406E+01 -0.14900371702E+02 -0.58308523787E+01  0.16079378206E+02  0.00000000000E+00 0.  1.
</event>
<event>
 7    1  0.3750159E-013  0.5930195E+02  0.7816164E-02  0.1266605E+00
        -11   -1    0    0    0    0  0.00000000000E+00  0.00000000000E+00  0.45593999997E+02  0.45594000000E+02  0.51100000000E-03 0. -1.
         11   -1    0    0    0    0 -0.00000000000E+00 -0.00000000000E+00 -0.45593999997E+02  0.45594000000E+02  0.51100000000E-03 0.  1.
    9900012    2    1    2    0    0 -0.84116188670E-01 -0.30803292008E+02  0.82383542155E+01  0.59301947339E+02  0.50000006040E+02 0.  0.
        -12    1    1    2    0    0  0.84116188670E-01  0.30803292008E+02 -0.82383542155E+01  0.31886052661E+02  0.00000000000E+00 0.  1.
         11    1    3    3    0    0  0.17310696534E+01 -0.20002345020E+02  0.13839999698E+02  0.24385159428E+02  0.51100000000E-03 0. -1.
        -11    1    3    3    0    0 -0.32946180325E+01 -0.22295583164E+02 -0.59924765422E+01  0.23320748530E+02  0.51100000000E-03 0.  1.
         12    1    3    3    0    0  0.14794321904E+01  0.11494636176E+02  0.39083106005E+00  0.11596039382E+02  0.00000000000E+00 0. -1.
</event>
<event>
 7    1  0.3750159E-013  0.5930193E+02  0.7816164E-02  0.1266605E+00
        -11   -1    0    0    0    0  0.00000000000E+00  0.00000000000E+00  0.45593999997E+02  0.45594000000E+02  0.51100000000E-03 0. -1.
         11   -1    0    0    0    0 -0.00000000000E+00 -0.00000000000E+00 -0.45593999997E+02  0.45594000000E+02  0.51100000000E-03 0.  1.
    9900012    2    1    2    0    0  0.96404621631E+01 -0.56595831854E+01  0.29862222437E+02  0.59301925901E+02  0.49999966942E+02 0.  0.
        -12    1    1    2    0    0 -0.96404621631E+01  0.56595831854E+01 -0.29862222437E+02  0.31886074099E+02  0.00000000000E+00 0.  1.
         11    1    3    3    0    0  0.32466126443E+00  0.38310277243E+01 -0.16077437712E+01  0.41673755118E+01  0.51100000000E-03 0. -1.
        -11    1    3    3    0    0  0.17218177380E+02 -0.19304398272E+02  0.57569254499E+01  0.26500332372E+02  0.51100000000E-03 0.  1.
         12    1    3    3    0    0 -0.79023764812E+01  0.98137873620E+01  0.25713040758E+02  0.28634218018E+02  0.00000000000E+00 0. -1.
</event>
<event>
 7    1  0.3750159E-013  0.5930195E+02  0.7816164E-02  0.1266605E+00
        -11   -1    0    0    0    0  0.00000000000E+00  0.00000000000E+00  0.45593999997E+02  0.45594000000E+02  0.51100000000E-03 0. -1.
         11   -1    0    0    0    0 -0.00000000000E+00 -0.00000000000E+00 -0.45593999997E+02  0.45594000000E+02  0.51100000000E-03 0.  1.
    9900012    2    1    2    0    0 -0.17816394656E+02  0.20820484347E+02  0.16303480854E+02  0.59301953288E+02  0.50000016888E+02 0.  0.
        -12    1    1    2    0    0  0.17816394656E+02 -0.20820484347E+02 -0.16303480854E+02  0.31886046712E+02  0.00000000000E+00 0.  1.
         11    1    3    3    0    0 -0.21635332806E+02  0.24029171932E+02  0.13301090179E+02  0.34962947953E+02  0.51100000000E-03 0. -1.
        -11    1    3    3    0    0  0.66979036774E+01  0.63726743855E+01  0.88102915558E+01  0.12770831220E+02  0.51100000000E-03 0.  1.
        -12    1    3    3    0    0 -0.28789655266E+01 -0.95813619703E+01 -0.58079008800E+01  0.11568174114E+02  0.00000000000E+00 0.  1.
</event>
<event>
 7    1  0.3750159E-013  0.5930197E+02  0.7816164E-02  0.1266605E+00
        -11   -1    0    0    0    0  0.00000000000E+00  0.00000000000E+00  0.45593999997E+02  0.45594000000E+02  0.51100000000E-03 0.  1.
         11   -1    0    0    0    0 -0.00000000000E+00 -0.00000000000E+00 -0.45593999997E+02  0.45594000000E+02  0.51100000000E-03 0. -1.
    9900012    2    1    2    0    0 -0.12863724834E+02 -0.15658803953E+02 -0.24617982181E+02  0.59301974778E+02  0.50000056080E+02 0.  0.
        -12    1    1    2    0    0  0.12863724834E+02  0.15658803953E+02  0.24617982181E+02  0.31886025222E+02  0.00000000000E+00 0.  1.
         11    1    3    3    0    0 -0.15458256527E+02 -0.16860554631E+02 -0.18889563660E+02  0.29665663870E+02  0.51100000000E-03 0. -1.
        -11    1    3    3    0    0  0.68229868052E+01  0.55327268442E+01 -0.15689017744E+02  0.17980809028E+02  0.51100000000E-03 0.  1.
         12    1    3    3    0    0 -0.42284551120E+01 -0.43309761663E+01  0.99605992232E+01  0.11655501880E+02  0.00000000000E+00 0. -1.
</event>
<event>
 7    1  0.3750159E-013  0.5930192E+02  0.7816164E-02  0.1266605E+00
        -11   -1    0    0    0    0  0.00000000000E+00  0.00000000000E+00  0.45593999997E+02  0.45594000000E+02  0.51100000000E-03 0.  1.
         11   -1    0    0    0    0 -0.00000000000E+00 -0.00000000000E+00 -0.45593999997E+02  0.45594000000E+02  0.51100000000E-03 0. -1.
    9900012    2    1    2    0    0 -0.84618964460E+01  0.30669488622E+02  0.21214976681E+01  0.59301921907E+02  0.49999959657E+02 0.  0.
        -12    1    1    2    0    0  0.84618964460E+01 -0.30669488622E+02 -0.21214976681E+01  0.31886078093E+02  0.00000000000E+00 0.  1.
         11    1    3    3    0    0  0.10197527111E+02  0.60257090902E+01  0.52856494159E+01  0.12970613680E+02  0.51100000000E-03 0.  1.
        -11    1    3    3    0    0 -0.15301816270E+02  0.21167717879E+02 -0.17342103134E+02  0.31352295015E+02  0.51100000000E-03 0. -1.
         12    1    3    3    0    0 -0.33576072867E+01  0.34760616527E+01  0.14177951386E+02  0.14979013212E+02  0.00000000000E+00 0. -1.
</event>
<event>
 7    1  0.3750159E-013  0.5930157E+02  0.7816164E-02  0.1266606E+00
        -11   -1    0    0    0    0  0.00000000000E+00  0.00000000000E+00  0.45593999997E+02  0.45594000000E+02  0.51100000000E-03 0. -1.
         11   -1    0    0    0    0 -0.00000000000E+00 -0.00000000000E+00 -0.45593999997E+02  0.45594000000E+02  0.51100000000E-03 0.  1.
    9900012    2    1    2    0    0  0.21898308451E+02  0.11112691151E+02  0.20340017594E+02  0.59301574466E+02  0.49999326003E+02 0.  0.
        -12    1    1    2    0    0 -0.21898308451E+02 -0.11112691151E+02 -0.20340017594E+02  0.31886425534E+02  0.00000000000E+00 0.  1.
         11    1    3    3    0    0  0.20426565229E+02  0.22277069228E+02  0.17645652985E+02  0.34998306387E+02  0.51100000000E-03 0. -1.
        -11    1    3    3    0    0  0.43238996983E+01  0.27649323980E+01 -0.57968940460E+01  0.77424118082E+01  0.51100000000E-03 0.  1.
        -12    1    3    3    0    0 -0.28521564762E+01 -0.13929310475E+02  0.84912586554E+01  0.16560856271E+02  0.00000000000E+00 0.  1.
</event>
<event>
 7    1  0.3750159E-013  0.5930197E+02  0.7816164E-02  0.1266605E+00
        -11   -1    0    0    0    0  0.00000000000E+00  0.00000000000E+00  0.45593999997E+02  0.45594000000E+02  0.51100000000E-03 0.  1.
         11   -1    0    0    0    0 -0.00000000000E+00 -0.00000000000E+00 -0.45593999997E+02  0.45594000000E+02  0.51100000000E-03 0. -1.
    9900012    2    1    2    0    0  0.24797474236E+02 -0.14950463002E+02 -0.13352450253E+02  0.59301968572E+02  0.50000044762E+02 0.  0.
        -12    1    1    2    0    0 -0.24797474236E+02  0.14950463002E+02  0.13352450253E+02  0.31886031428E+02  0.00000000000E+00 0.  1.
         11    1    3    3    0    0  0.27133040083E+02 -0.23674204920E+02 -0.14408573622E+01  0.36038117500E+02  0.51100000000E-03 0. -1.
        -11    1    3    3    0    0  0.19905327014E+01 -0.94485081678E+00  0.37542748926E+01  0.43531073651E+01  0.51100000000E-03 0.  1.
         12    1    3    3    0    0 -0.43260985482E+01  0.96685927347E+01 -0.15665867784E+02  0.18910743706E+02  0.00000000000E+00 0. -1.
</event>
<event>
 7    1  0.3750159E-013  0.5930196E+02  0.7816164E-02  0.1266605E+00
        -11   -1    0    0    0    0  0.00000000000E+00  0.00000000000E+00  0.45593999997E+02  0.45594000000E+02  0.51100000000E-03 0.  1.
         11   -1    0    0    0    0 -0.00000000000E+00 -0.00000000000E+00 -0.45593999997E+02  0.45594000000E+02  0.51100000000E-03 0. -1.
    9900012    2    1    2    0    0 -0.16502161005E+02 -0.12571170921E+02 -0.24214948558E+02  0.59301962463E+02  0.50000033621E+02 0.  0.
        -12    1    1    2    0    0  0.16502161005E+02  0.12571170921E+02  0.24214948558E+02  0.31886037537E+02  0.00000000000E+00 0.  1.
         11    1    3    3    0    0 -0.18710321424E+02 -0.16582355334E+02 -0.14852042196E+02  0.29079783250E+02  0.51100000000E-03 0. -1.
        -11    1    3    3    0    0 -0.80219123218E+01 -0.74757373597E+01 -0.99813136999E+01  0.14827823502E+02  0.51100000000E-03 0.  1.
        -12    1    3    3    0    0  0.10230072741E+02  0.11486921773E+02  0.61840733750E+00  0.15394355710E+02  0.00000000000E+00 0.  1.
</event>
<event>
 7    1  0.3750159E-013  0.5930193E+02  0.7816164E-02  0.1266605E+00
        -11   -1    0    0    0    0  0.00000000000E+00  0.00000000000E+00  0.45593999997E+02  0.45594000000E+02  0.51100000000E-03 0.  1.
         11   -1    0    0    0    0 -0.00000000000E+00 -0.00000000000E+00 -0.45593999997E+02  0.45594000000E+02  0.51100000000E-03 0. -1.
    9900012    2    1    2    0    0 -0.22383133710E+02  0.15065830111E+02 -0.16992286863E+02  0.59301925854E+02  0.49999966856E+02 0.  0.
        -12    1    1    2    0    0  0.22383133710E+02 -0.15065830111E+02  0.16992286863E+02  0.31886074146E+02  0.00000000000E+00 0.  1.
         11    1    3    3    0    0 -0.91449379526E+01  0.61981607098E+00 -0.15148709177E+02  0.17705859259E+02  0.51100000000E-03 0. -1.
        -11    1    3    3    0    0 -0.21113767322E+02  0.13659334505E+02 -0.12691172887E+02  0.28167968672E+02  0.51100000000E-03 0.  1.
        -12    1    3    3    0    0  0.78755715644E+01  0.78667953497E+00  0.10847595202E+02  0.13428097922E+02  0.00000000000E+00 0.  1.
</event>
<event>
 7    1  0.3750159E-013  0.5930196E+02  0.7816164E-02  0.1266605E+00
        -11   -1    0    0    0    0  0.00000000000E+00  0.00000000000E+00  0.45593999997E+02  0.45594000000E+02  0.51100000000E-03 0. -1.
         11   -1    0    0    0    0 -0.00000000000E+00 -0.00000000000E+00 -0.45593999997E+02  0.45594000000E+02  0.51100000000E-03 0.  1.
    9900012    2    1    2    0    0  0.79436877931E+01 -0.21155932417E+02  0.22495418546E+02  0.59301960613E+02  0.50000030248E+02 0.  0.
        -12    1    1    2    0    0 -0.79436877931E+01  0.21155932417E+02 -0.22495418546E+02  0.31886039387E+02  0.00000000000E+00 0.  1.
         11    1    3    3    0    0  0.12709552471E+02  0.51049103793E+01  0.24520147374E+02  0.28086125783E+02  0.51100000000E-03 0. -1.
        -11    1    3    3    0    0  0.23590172422E+01 -0.26813318143E+01  0.44893514077E+01  0.57366173805E+01  0.51100000000E-03 0.  1.
        -12    1    3    3    0    0 -0.71248819200E+01 -0.23579510982E+02 -0.65140802356E+01  0.25479217450E+02  0.00000000000E+00 0.  1.
</event>
<event>
 7    1  0.3750159E-013  0.5930193E+02  0.7816164E-02  0.1266605E+00
        -11   -1    0    0    0    0  0.00000000000E+00  0.00000000000E+00  0.45593999997E+02  0.45594000000E+02  0.51100000000E-03 0.  1.
         11   -1    0    0    0    0 -0.00000000000E+00 -0.00000000000E+00 -0.45593999997E+02  0.45594000000E+02  0.51100000000E-03 0. -1.
    9900012    2    1    2    0    0 -0.31260368544E+02  0.48103968371E+01  0.40461328979E+01  0.59301925442E+02  0.49999966105E+02 0.  0.
        -12    1    1    2    0    0  0.31260368544E+02 -0.48103968371E+01 -0.40461328979E+01  0.31886074558E+02  0.00000000000E+00 0.  1.
         11    1    3    3    0    0 -0.20630346583E+02 -0.18974472668E+02 -0.11702023949E+01  0.28053719666E+02  0.51100000000E-03 0. -1.
        -11    1    3    3    0    0 -0.52684790784E+01  0.14827312212E+01  0.62244645401E+01  0.82885054592E+01  0.51100000000E-03 0.  1.
        -12    1    3    3    0    0 -0.53615428827E+01  0.22302138283E+02 -0.10081292473E+01  0.22959700318E+02  0.00000000000E+00 0.  1.
</event>
<event>
 7    1  0.3750159E-013  0.5930194E+02  0.7816164E-02  0.1266605E+00
        -11   -1    0    0    0    0  0.00000000000E+00  0.00000000000E+00  0.45593999997E+02  0.45594000000E+02  0.51100000000E-03 0.  1.
         11   -1    0    0    0    0 -0.00000000000E+00 -0.00000000000E+00 -0.45593999997E+02  0.45594000000E+02  0.51100000000E-03 0. -1.
    9900012    2    1    2    0    0 -0.22078663221E+02 -0.22819051382E+02 -0.29231055719E+01  0.59301936872E+02  0.49999986950E+02 0.  0.
        -12    1    1    2    0    0  0.22078663221E+02  0.22819051382E+02  0.29231055719E+01  0.31886063128E+02  0.00000000000E+00 0.  1.
         11    1    3    3    0    0 -0.69005739050E+01  0.24062339943E+01 -0.94515490831E+01  0.11947370530E+02  0.51100000000E-03 0. -1.
        -11    1    3    3    0    0 -0.55413787056E+01 -0.18475855179E+00 -0.13024152823E+02  0.14155195890E+02  0.51100000000E-03 0.  1.
         12    1    3    3    0    0 -0.96367106105E+01 -0.25040526824E+02  0.19552596334E+02  0.33199370452E+02  0.00000000000E+00 0. -1.
</event>
<event>
 7    1  0.3750159E-013  0.5930195E+02  0.7816164E-02  0.1266605E+00
        -11   -1    0    0    0    0  0.00000000000E+00  0.00000000000E+00  0.45593999997E+02  0.45594000000E+02  0.51100000000E-03 0. -1.
         11   -1    0    0    0    0 -0.00000000000E+00 -0.00000000000E+00 -0.45593999997E+02  0.45594000000E+02  0.51100000000E-03 0.  1.
    9900012    2    1    2    0    0  0.64173251889E+01 -0.72067028649E+00  0.31225290071E+02  0.59301950257E+02  0.50000011360E+02 0.  0.
        -12    1    1    2    0    0 -0.64173251889E+01  0.72067028649E+00 -0.31225290071E+02  0.31886049743E+02  0.00000000000E+00 0.  1.
         11    1    3    3    0    0  0.90550473258E+01 -0.11292880714E+02  0.25815003637E+02  0.29596240469E+02  0.51100000000E-03 0. -1.
        -11    1    3    3    0    0  0.45154547489E+01 -0.80465351023E+01  0.10242949967E+01  0.92836005539E+01  0.51100000000E-03 0.  1.
         12    1    3    3    0    0 -0.71531768857E+01  0.18618745530E+02  0.43859914368E+01  0.20422109233E+02  0.00000000000E+00 0. -1.
</event>
<event>
 7    1  0.3750159E-013  0.5930193E+02  0.7816164E-02  0.1266605E+00
        -11   -1    0    0    0    0  0.00000000000E+00  0.00000000000E+00  0.45593999997E+02  0.45594000000E+02  0.51100000000E-03 0. -1.
         11   -1    0    0    0    0 -0.00000000000E+00 -0.00000000000E+00 -0.45593999997E+02  0.45594000000E+02  0.51100000000E-03 0.  1.
    9900012    2    1    2    0    0  0.61086853848E+01 -0.12696897095E+02  0.28604091649E+02  0.59301932635E+02  0.49999979222E+02 0.  0.
        -12    1    1    2    0    0 -0.61086853848E+01  0.12696897095E+02 -0.28604091649E+02  0.31886067365E+02  0.00000000000E+00 0.  1.
         11    1    3    3    0    0  0.46647761452E+01  0.19899873017E+01 -0.31319624265E+01  0.59606522167E+01  0.51100000000E-03 0. -1.
        -11    1    3    3    0    0  0.87505177381E+01  0.22662818370E+01 -0.63298421026E+01  0.11035148180E+02  0.51100000000E-03 0.  1.
         12    1    3    3    0    0 -0.73066084984E+01 -0.16953166234E+02  0.38065896178E+02  0.42306132238E+02  0.00000000000E+00 0. -1.
</event>
<event>
 7    1  0.3750159E-013  0.5930195E+02  0.7816164E-02  0.1266605E+00
        -11   -1    0    0    0    0  0.00000000000E+00  0.00000000000E+00  0.45593999997E+02  0.45594000000E+02  0.51100000000E-03 0. -1.
         11   -1    0    0    0    0 -0.00000000000E+00 -0.00000000000E+00 -0.45593999997E+02  0.45594000000E+02  0.51100000000E-03 0.  1.
    9900012    2    1    2    0    0  0.19038029181E+02  0.23392079109E+02 -0.10348141215E+02  0.59301953730E+02  0.50000017694E+02 0.  0.
        -12    1    1    2    0    0 -0.19038029181E+02 -0.23392079109E+02  0.10348141215E+02  0.31886046270E+02  0.00000000000E+00 0.  1.
         11    1    3    3    0    0  0.78571204088E+01  0.84509000992E+01 -0.76176410251E+01  0.13826803993E+02  0.51100000000E-03 0. -1.
        -11    1    3    3    0    0 -0.63867167553E+01  0.23656076359E+02  0.38211021918E+01  0.24799212122E+02  0.51100000000E-03 0.  1.
        -12    1    3    3    0    0  0.17567625528E+02 -0.87148973498E+01 -0.65516023821E+01  0.20675937615E+02  0.00000000000E+00 0.  1.
</event>
<event>
 7    1  0.3750159E-013  0.5930194E+02  0.7816164E-02  0.1266605E+00
        -11   -1    0    0    0    0  0.00000000000E+00  0.00000000000E+00  0.45593999997E+02  0.45594000000E+02  0.51100000000E-03 0. -1.
         11   -1    0    0    0    0 -0.00000000000E+00 -0.00000000000E+00 -0.45593999997E+02  0.45594000000E+02  0.51100000000E-03 0.  1.
    9900012    2    1    2    0    0 -0.56783210144E+01 -0.25994932651E+02  0.17571020726E+02  0.59301943135E+02  0.49999998371E+02 0.  0.
        -12    1    1    2    0    0  0.56783210144E+01  0.25994932651E+02 -0.17571020726E+02  0.31886056865E+02  0.00000000000E+00 0.  1.
         11    1    3    3    0    0  0.15866885658E+02 -0.22039331095E+02  0.63653596936E+01  0.27892794408E+02  0.51100000000E-03 0. -1.
        -11    1    3    3    0    0 -0.33854545201E+01 -0.90590023317E+01  0.41988474041E+00  0.96800376554E+01  0.51100000000E-03 0.  1.
         12    1    3    3    0    0 -0.18159752152E+02  0.51034007759E+01  0.10785776292E+02  0.21729111071E+02  0.00000000000E+00 0. -1.
</event>
<event>
 7    1  0.3750159E-013  0.5930191E+02  0.7816164E-02  0.1266605E+00
        -11   -1    0    0    0    0  0.00000000000E+00  0.00000000000E+00  0.45593999997E+02  0.45594000000E+02  0.51100000000E-03 0. -1.
         11   -1    0    0    0    0 -0.00000000000E+00 -0.00000000000E+00 -0.45593999997E+02  0.45594000000E+02  0.51100000000E-03 0.  1.
    9900012    2    1    2    0    0  0.13050887733E+02 -0.12236166069E+02  0.26394564130E+02  0.59301914534E+02  0.49999946211E+02 0.  0.
        -12    1    1    2    0    0 -0.13050887733E+02  0.12236166069E+02 -0.26394564130E+02  0.31886085466E+02  0.00000000000E+00 0.  1.
         11    1    3    3    0    0  0.93313599054E+00 -0.10328378042E+02 -0.42682616941E+00  0.10379225240E+02  0.51100000000E-03 0. -1.
        -11    1    3    3    0    0 -0.36422618596E+01 -0.84390920462E+01 -0.66564857993E+01  0.11348706952E+02  0.51100000000E-03 0.  1.
         12    1    3    3    0    0  0.15760013602E+02  0.65313040194E+01  0.33477876099E+02  0.37573982342E+02  0.00000000000E+00 0. -1.
</event>
<event>
 7    1  0.3750159E-013  0.5930179E+02  0.7816164E-02  0.1266605E+00
        -11   -1    0    0    0    0  0.00000000000E+00  0.00000000000E+00  0.45593999997E+02  0.45594000000E+02  0.51100000000E-03 0. -1.
         11   -1    0    0    0    0 -0.00000000000E+00 -0.00000000000E+00 -0.45593999997E+02  0.45594000000E+02  0.51100000000E-03 0.  1.
    9900012    2    1    2    0    0 -0.24294979795E+02  0.19258778827E+02  0.74554460528E+01  0.59301791681E+02  0.49999722156E+02 0.  0.
        -12    1    1    2    0    0  0.24294979795E+02 -0.19258778827E+02 -0.74554460528E+01  0.31886208319E+02  0.00000000000E+00 0.  1.
         11    1    3    3    0    0 -0.19561723503E+01  0.11968334761E+02 -0.34067706163E+01  0.12596576262E+02  0.51100000000E-03 0.  1.
        -11    1    3    3    0    0  0.82377831664E+00  0.14828245128E+02  0.15979627484E+02  0.21815223104E+02  0.51100000000E-03 0. -1.
        -12    1    3    3    0    0 -0.23162585761E+02 -0.75378010632E+01 -0.51174108150E+01  0.24889992315E+02  0.00000000000E+00 0.  1.
</event>
<event>
 7    1  0.3750159E-013  0.5930195E+02  0.7816164E-02  0.1266605E+00
        -11   -1    0    0    0    0  0.00000000000E+00  0.00000000000E+00  0.45593999997E+02  0.45594000000E+02  0.51100000000E-03 0.  1.
         11   -1    0    0    0    0 -0.00000000000E+00 -0.00000000000E+00 -0.45593999997E+02  0.45594000000E+02  0.51100000000E-03 0. -1.
    9900012    2    1    2    0    0  0.31018982306E+02 -0.58019142518E+01  0.45695354791E+01  0.59301950907E+02  0.50000012546E+02 0.  0.
        -12    1    1    2    0    0 -0.31018982306E+02  0.58019142518E+01 -0.45695354791E+01  0.31886049093E+02  0.00000000000E+00 0.  1.
         11    1    3    3    0    0  0.91891891612E+01  0.73785146868E+01 -0.10560268486E+02  0.15824125480E+02  0.51100000000E-03 0. -1.
        -11    1    3    3    0    0  0.27026935071E+02 -0.35625825415E+01  0.34470038616E+01  0.27477791934E+02  0.51100000000E-03 0.  1.
        -12    1    3    3    0    0 -0.51971419262E+01 -0.96178463971E+01  0.11682800104E+02  0.16000033493E+02  0.00000000000E+00 0.  1.
</event>
<event>
 7    1  0.3750159E-013  0.5930208E+02  0.7816164E-02  0.1266604E+00
        -11   -1    0    0    0    0  0.00000000000E+00  0.00000000000E+00  0.45593999997E+02  0.45594000000E+02  0.51100000000E-03 0.  1.
         11   -1    0    0    0    0 -0.00000000000E+00 -0.00000000000E+00 -0.45593999997E+02  0.45594000000E+02  0.51100000000E-03 0. -1.
    9900012    2    1    2    0    0  0.14012787154E+02  0.43066068278E+01 -0.28316196973E+02  0.59302077131E+02  0.50000242747E+02 0.  0.
        -12    1    1    2    0    0 -0.14012787154E+02 -0.43066068278E+01  0.28316196973E+02  0.31885922869E+02  0.00000000000E+00 0.  1.
         11    1    3    3    0    0  0.93385856678E+01  0.45073058497E+01 -0.15222897804E+02  0.18419055516E+02  0.51100000000E-03 0. -1.
        -11    1    3    3    0    0 -0.14784580011E+02  0.56771368866E+01 -0.13104576806E+02  0.20555865898E+02  0.51100000000E-03 0.  1.
         12    1    3    3    0    0  0.19458781497E+02 -0.58778359085E+01  0.11277635775E-01  0.20327155716E+02  0.00000000000E+00 0. -1.
</event>
<event>
 7    1  0.3750159E-013  0.5930195E+02  0.7816164E-02  0.1266605E+00
        -11   -1    0    0    0    0  0.00000000000E+00  0.00000000000E+00  0.45593999997E+02  0.45594000000E+02  0.51100000000E-03 0.  1.
         11   -1    0    0    0    0 -0.00000000000E+00 -0.00000000000E+00 -0.45593999997E+02  0.45594000000E+02  0.51100000000E-03 0. -1.
    9900012    2    1    2    0    0  0.26376218668E+02  0.12040864550E+02 -0.13267745819E+02  0.59301946474E+02  0.50000004462E+02 0.  0.
        -12    1    1    2    0    0 -0.26376218668E+02 -0.12040864550E+02  0.13267745819E+02  0.31886053526E+02  0.00000000000E+00 0.  1.
         11    1    3    3    0    0  0.11280129035E+02 -0.50614837155E+01  0.21997060335E+00  0.12365610206E+02  0.51100000000E-03 0. -1.
        -11    1    3    3    0    0  0.14529270629E+02 -0.42765101339E+01  0.75620927842E+01  0.16928481665E+02  0.51100000000E-03 0.  1.
         12    1    3    3    0    0  0.56681900432E+00  0.21378858399E+02 -0.21049809207E+02  0.30007854603E+02  0.00000000000E+00 0. -1.
</event>
<event>
 7    1  0.3750159E-013  0.5930194E+02  0.7816164E-02  0.1266605E+00
        -11   -1    0    0    0    0  0.00000000000E+00  0.00000000000E+00  0.45593999997E+02  0.45594000000E+02  0.51100000000E-03 0. -1.
         11   -1    0    0    0    0 -0.00000000000E+00 -0.00000000000E+00 -0.45593999997E+02  0.45594000000E+02  0.51100000000E-03 0.  1.
    9900012    2    1    2    0    0  0.17118225118E+02 -0.17991445191E+02  0.19999879108E+02  0.59301938851E+02  0.49999990559E+02 0.  0.
        -12    1    1    2    0    0 -0.17118225118E+02  0.17991445191E+02 -0.19999879108E+02  0.31886061149E+02  0.00000000000E+00 0.  1.
         11    1    3    3    0    0  0.90127249125E+01 -0.34902464117E+01  0.18772304216E+02  0.21114223552E+02  0.51100000000E-03 0. -1.
        -11    1    3    3    0    0 -0.70134747163E+01  0.80490906225E+01  0.26532355251E+01  0.11000742996E+02  0.51100000000E-03 0.  1.
        -12    1    3    3    0    0  0.15118974922E+02 -0.22550289402E+02 -0.14256606323E+01  0.27186972304E+02  0.00000000000E+00 0.  1.
</event>
<event>
 7    1  0.3750159E-013  0.5930180E+02  0.7816164E-02  0.1266605E+00
        -11   -1    0    0    0    0  0.00000000000E+00  0.00000000000E+00  0.45593999997E+02  0.45594000000E+02  0.51100000000E-03 0. -1.
         11   -1    0    0    0    0 -0.00000000000E+00 -0.00000000000E+00 -0.45593999997E+02  0.45594000000E+02  0.51100000000E-03 0.  1.
    9900012    2    1    2    0    0 -0.78819966894E+01  0.47385024168E+01  0.30531142263E+02  0.59301797265E+02  0.49999732340E+02 0.  0.
        -12    1    1    2    0    0  0.78819966894E+01 -0.47385024168E+01 -0.30531142263E+02  0.31886202735E+02  0.00000000000E+00 0.  1.
         11    1    3    3    0    0 -0.53781949315E+01  0.52037712446E+01  0.16683455264E+02  0.18285018340E+02  0.51100000000E-03 0. -1.
        -11    1    3    3    0    0 -0.16529393983E+02  0.32828184331E+01  0.19197300675E+02  0.25544747323E+02  0.51100000000E-03 0.  1.
        -12    1    3    3    0    0  0.14025592226E+02 -0.37480872609E+01 -0.53496136768E+01  0.15472031602E+02  0.00000000000E+00 0.  1.
</event>
<event>
 7    1  0.3750159E-013  0.5930192E+02  0.7816164E-02  0.1266605E+00
        -11   -1    0    0    0    0  0.00000000000E+00  0.00000000000E+00  0.45593999997E+02  0.45594000000E+02  0.51100000000E-03 0.  1.
         11   -1    0    0    0    0 -0.00000000000E+00 -0.00000000000E+00 -0.45593999997E+02  0.45594000000E+02  0.51100000000E-03 0. -1.
    9900012    2    1    2    0    0  0.31342938694E+02  0.54381514170E+01 -0.21837163086E+01  0.59301922886E+02  0.49999961442E+02 0.  0.
        -12    1    1    2    0    0 -0.31342938694E+02 -0.54381514170E+01  0.21837163086E+01  0.31886077114E+02  0.00000000000E+00 0.  1.
         11    1    3    3    0    0 -0.18381438198E+01  0.87928573985E+01 -0.66563317789E+00  0.90075624739E+01  0.51100000000E-03 0. -1.
        -11    1    3    3    0    0  0.13100097539E+01  0.13936056336E+02 -0.96762078867E+00  0.14030897406E+02  0.51100000000E-03 0.  1.
         12    1    3    3    0    0  0.31871072760E+02 -0.17290762318E+02 -0.55046234206E+00  0.36263463006E+02  0.00000000000E+00 0. -1.
</event>
<event>
 7    1  0.3750159E-013  0.5930192E+02  0.7816164E-02  0.1266605E+00
        -11   -1    0    0    0    0  0.00000000000E+00  0.00000000000E+00  0.45593999997E+02  0.45594000000E+02  0.51100000000E-03 0. -1.
         11   -1    0    0    0    0 -0.00000000000E+00 -0.00000000000E+00 -0.45593999997E+02  0.45594000000E+02  0.51100000000E-03 0.  1.
    9900012    2    1    2    0    0  0.64559772615E+01 -0.25803296569E+02  0.17585007724E+02  0.59301917568E+02  0.49999951744E+02 0.  0.
        -12    1    1    2    0    0 -0.64559772615E+01  0.25803296569E+02 -0.17585007724E+02  0.31886082432E+02  0.00000000000E+00 0.  1.
         11    1    3    3    0    0  0.22756465975E+01 -0.47877768503E+01  0.12477528064E+02  0.13556920057E+02  0.51100000000E-03 0. -1.
        -11    1    3    3    0    0 -0.15960967083E+02  0.92318243102E-03  0.46778156406E+01  0.16632330880E+02  0.51100000000E-03 0.  1.
         12    1    3    3    0    0  0.20141297747E+02 -0.21016442901E+02  0.42966401950E+00  0.29112666630E+02  0.00000000000E+00 0. -1.
</event>
<event>
 7    1  0.3750159E-013  0.5930193E+02  0.7816164E-02  0.1266605E+00
        -11   -1    0    0    0    0  0.00000000000E+00  0.00000000000E+00  0.45593999997E+02  0.45594000000E+02  0.51100000000E-03 0.  1.
         11   -1    0    0    0    0 -0.00000000000E+00 -0.00000000000E+00 -0.45593999997E+02  0.45594000000E+02  0.51100000000E-03 0. -1.
    9900012    2    1    2    0    0 -0.27562993770E+02  0.45285746341E+01  0.15378386133E+02  0.59301931351E+02  0.49999976881E+02 0.  0.
        -12    1    1    2    0    0  0.27562993770E+02 -0.45285746341E+01 -0.15378386133E+02  0.31886068649E+02  0.00000000000E+00 0.  1.
         11    1    3    3    0    0 -0.19194492022E+02 -0.31323371439E+01  0.47490883959E+01  0.20019837682E+02  0.51100000000E-03 0. -1.
        -11    1    3    3    0    0 -0.16900984364E+01 -0.11497712516E+02  0.14545978466E+02  0.18618252217E+02  0.51100000000E-03 0.  1.
         12    1    3    3    0    0 -0.66784033121E+01  0.19158624294E+02 -0.39166807282E+01  0.20663841453E+02  0.00000000000E+00 0. -1.
</event>
<event>
 7    1  0.3750159E-013  0.5930194E+02  0.7816164E-02  0.1266605E+00
        -11   -1    0    0    0    0  0.00000000000E+00  0.00000000000E+00  0.45593999997E+02  0.45594000000E+02  0.51100000000E-03 0. -1.
         11   -1    0    0    0    0 -0.00000000000E+00 -0.00000000000E+00 -0.45593999997E+02  0.45594000000E+02  0.51100000000E-03 0.  1.
    9900012    2    1    2    0    0  0.21776482906E+02 -0.22367982161E+02 -0.64945295597E+01  0.59301941167E+02  0.49999994783E+02 0.  0.
        -12    1    1    2    0    0 -0.21776482906E+02  0.22367982161E+02  0.64945295597E+01  0.31886058833E+02  0.00000000000E+00 0.  1.
         11    1    3    3    0    0  0.17858057580E+02  0.48961892733E+01  0.57547736955E+01  0.19390727436E+02  0.51100000000E-03 0. -1.
        -11    1    3    3    0    0  0.13710983788E+02 -0.21779880420E+02 -0.41461845457E+01  0.26068086123E+02  0.51100000000E-03 0.  1.
         12    1    3    3    0    0 -0.97925584624E+01 -0.54842910145E+01 -0.81031187095E+01  0.13843127609E+02  0.00000000000E+00 0. -1.
</event>
<event>
 7    1  0.3750159E-013  0.5930193E+02  0.7816164E-02  0.1266605E+00
        -11   -1    0    0    0    0  0.00000000000E+00  0.00000000000E+00  0.45593999997E+02  0.45594000000E+02  0.51100000000E-03 0.  1.
         11   -1    0    0    0    0 -0.00000000000E+00 -0.00000000000E+00 -0.45593999997E+02  0.45594000000E+02  0.51100000000E-03 0. -1.
    9900012    2    1    2    0    0  0.27916973918E+02  0.10091576513E+02  0.11641482316E+02  0.59301930005E+02  0.49999974425E+02 0.  0.
        -12    1    1    2    0    0 -0.27916973918E+02 -0.10091576513E+02 -0.11641482316E+02  0.31886069995E+02  0.00000000000E+00 0.  1.
         11    1    3    3    0    0 -0.79315514097E+01  0.42749413261E+01 -0.21118563526E+01  0.92544350784E+01  0.51100000000E-03 0. -1.
        -11    1    3    3    0    0  0.28281074899E+02  0.15365426630E+02  0.18321982260E+02  0.37035261133E+02  0.51100000000E-03 0.  1.
         12    1    3    3    0    0  0.75674504283E+01 -0.95487914436E+01 -0.45686435918E+01  0.13012233793E+02  0.00000000000E+00 0. -1.
</event>
<event>
 7    1  0.3750159E-013  0.5930193E+02  0.7816164E-02  0.1266605E+00
        -11   -1    0    0    0    0  0.00000000000E+00  0.00000000000E+00  0.45593999997E+02  0.45594000000E+02  0.51100000000E-03 0.  1.
         11   -1    0    0    0    0 -0.00000000000E+00 -0.00000000000E+00 -0.45593999997E+02  0.45594000000E+02  0.51100000000E-03 0. -1.
    9900012    2    1    2    0    0 -0.27299804312E+02 -0.16302585988E+02  0.23806646106E+01  0.59301934245E+02  0.49999982159E+02 0.  0.
        -12    1    1    2    0    0  0.27299804312E+02  0.16302585988E+02 -0.23806646106E+01  0.31886065755E+02  0.00000000000E+00 0.  1.
         11    1    3    3    0    0 -0.82214590335E+01 -0.89228415305E+01  0.25928633012E+01  0.12406950873E+02  0.51100000000E-03 0. -1.
        -11    1    3    3    0    0 -0.55432570495E+01 -0.22633224438E+02  0.83838451788E+01  0.24764478744E+02  0.51100000000E-03 0.  1.
        -12    1    3    3    0    0 -0.13535088229E+02  0.15253479981E+02 -0.85960438694E+01  0.22130504628E+02  0.00000000000E+00 0.  1.
</event>
<event>
 7    1  0.3750159E-013  0.5930193E+02  0.7816164E-02  0.1266605E+00
        -11   -1    0    0    0    0  0.00000000000E+00  0.00000000000E+00  0.45593999997E+02  0.45594000000E+02  0.51100000000E-03 0. -1.
         11   -1    0    0    0    0 -0.00000000000E+00 -0.00000000000E+00 -0.45593999997E+02  0.45594000000E+02  0.51100000000E-03 0.  1.
    9900012    2    1    2    0    0  0.31772665686E+02  0.20497099265E+01  0.17372198534E+01  0.59301928929E+02  0.49999972463E+02 0.  0.
        -12    1    1    2    0    0 -0.31772665686E+02 -0.20497099265E+01 -0.17372198534E+01  0.31886071071E+02  0.00000000000E+00 0.  1.
         11    1    3    3    0    0 -0.37966870518E+01  0.21488933159E+00 -0.46185555190E+01  0.59826470176E+01  0.51100000000E-03 0.  1.
        -11    1    3    3    0    0  0.42658512692E+02  0.40739964525E+01  0.11390364493E+02  0.44340574599E+02  0.51100000000E-03 0. -1.
         12    1    3    3    0    0 -0.70891599547E+01 -0.22391758576E+01 -0.50345891208E+01  0.89787073123E+01  0.00000000000E+00 0. -1.
</event>
<event>
 7    1  0.3750159E-013  0.5930195E+02  0.7816164E-02  0.1266605E+00
        -11   -1    0    0    0    0  0.00000000000E+00  0.00000000000E+00  0.45593999997E+02  0.45594000000E+02  0.51100000000E-03 0. -1.
         11   -1    0    0    0    0 -0.00000000000E+00 -0.00000000000E+00 -0.45593999997E+02  0.45594000000E+02  0.51100000000E-03 0.  1.
    9900012    2    1    2    0    0 -0.26404997858E+02  0.12225981805E+02  0.13039238459E+02  0.59301948464E+02  0.50000008091E+02 0.  0.
        -12    1    1    2    0    0  0.26404997858E+02 -0.12225981805E+02 -0.13039238459E+02  0.31886051536E+02  0.00000000000E+00 0.  1.
         11    1    3    3    0    0 -0.11585316464E+02  0.10304233237E+02  0.20463057479E+02  0.25673595421E+02  0.51100000000E-03 0. -1.
        -11    1    3    3    0    0  0.54263136127E+01  0.29037291018E+01  0.65661028395E+01  0.89994571436E+01  0.51100000000E-03 0.  1.
        -12    1    3    3    0    0 -0.20245995007E+02 -0.98198053414E+00 -0.13989921860E+02  0.24628895899E+02  0.00000000000E+00 0.  1.
</event>
<event>
 7    1  0.3750159E-013  0.5930194E+02  0.7816164E-02  0.1266605E+00
        -11   -1    0    0    0    0  0.00000000000E+00  0.00000000000E+00  0.45593999997E+02  0.45594000000E+02  0.51100000000E-03 0.  1.
         11   -1    0    0    0    0 -0.00000000000E+00 -0.00000000000E+00 -0.45593999997E+02  0.45594000000E+02  0.51100000000E-03 0. -1.
    9900012    2    1    2    0    0  0.30862537320E+02 -0.21492681950E+01 -0.77204446870E+01  0.59301939883E+02  0.49999992441E+02 0.  0.
        -12    1    1    2    0    0 -0.30862537320E+02  0.21492681950E+01  0.77204446870E+01  0.31886060117E+02  0.00000000000E+00 0.  1.
         11    1    3    3    0    0  0.13814388420E+02 -0.78401039706E+01 -0.11042745215E+02  0.19345458894E+02  0.51100000000E-03 0. -1.
        -11    1    3    3    0    0 -0.87865031057E+01  0.14263255422E+01  0.95360349823E+01  0.13045037555E+02  0.51100000000E-03 0.  1.
         12    1    3    3    0    0  0.25834652006E+02  0.42645102334E+01 -0.62137344547E+01  0.26911443433E+02  0.00000000000E+00 0. -1.
</event>
<event>
 7    1  0.3750159E-013  0.5930194E+02  0.7816164E-02  0.1266605E+00
        -11   -1    0    0    0    0  0.00000000000E+00  0.00000000000E+00  0.45593999997E+02  0.45594000000E+02  0.51100000000E-03 0.  1.
         11   -1    0    0    0    0 -0.00000000000E+00 -0.00000000000E+00 -0.45593999997E+02  0.45594000000E+02  0.51100000000E-03 0. -1.
    9900012    2    1    2    0    0  0.18436982361E+02 -0.12445977204E+01 -0.25985558501E+02  0.59301943602E+02  0.49999999223E+02 0.  0.
        -12    1    1    2    0    0 -0.18436982361E+02  0.12445977204E+01  0.25985558501E+02  0.31886056398E+02  0.00000000000E+00 0.  1.
         11    1    3    3    0    0 -0.19504654343E+00 -0.80548611725E+00  0.11634104585E+01  0.14284170243E+01  0.51100000000E-03 0. -1.
        -11    1    3    3    0    0 -0.12904874425E+02 -0.11415352404E+02 -0.13110276393E+02  0.21650067015E+02  0.51100000000E-03 0.  1.
         12    1    3    3    0    0  0.31536903329E+02  0.10976240800E+02 -0.14038692566E+02  0.36223459562E+02  0.00000000000E+00 0. -1.
</event>
<event>
 7    1  0.3750159E-013  0.5930198E+02  0.7816164E-02  0.1266605E+00
        -11   -1    0    0    0    0  0.00000000000E+00  0.00000000000E+00  0.45593999997E+02  0.45594000000E+02  0.51100000000E-03 0.  1.
         11   -1    0    0    0    0 -0.00000000000E+00 -0.00000000000E+00 -0.45593999997E+02  0.45594000000E+02  0.51100000000E-03 0. -1.
    9900012    2    1    2    0    0 -0.31997025377E+01  0.17977999559E+02 -0.26139472228E+02  0.59301975274E+02  0.50000056986E+02 0.  0.
        -12    1    1    2    0    0  0.31997025377E+01 -0.17977999559E+02  0.26139472228E+02  0.31886024726E+02  0.00000000000E+00 0.  1.
         11    1    3    3    0    0 -0.62097515592E+01 -0.13311350701E+02 -0.11620493876E+02  0.18729360643E+02  0.51100000000E-03 0. -1.
        -11    1    3    3    0    0 -0.82300856286E+00  0.43627495003E+01  0.53042552100E+01  0.69170839152E+01  0.51100000000E-03 0.  1.
         12    1    3    3    0    0  0.38330575843E+01  0.26926600760E+02 -0.19823233561E+02  0.33655530716E+02  0.00000000000E+00 0. -1.
</event>
<event>
 7    1  0.3750159E-013  0.5930201E+02  0.7816164E-02  0.1266605E+00
        -11   -1    0    0    0    0  0.00000000000E+00  0.00000000000E+00  0.45593999997E+02  0.45594000000E+02  0.51100000000E-03 0.  1.
         11   -1    0    0    0    0 -0.00000000000E+00 -0.00000000000E+00 -0.45593999997E+02  0.45594000000E+02  0.51100000000E-03 0. -1.
    9900012    2    1    2    0    0 -0.33805730304E+01  0.18088261998E+01 -0.31654636374E+02  0.59302013576E+02  0.50000126840E+02 0.  0.
        -12    1    1    2    0    0  0.33805730304E+01 -0.18088261998E+01  0.31654636374E+02  0.31885986424E+02  0.00000000000E+00 0.  1.
         11    1    3    3    0    0  0.11680883937E+02  0.46514645012E+01 -0.78087039686E+01  0.14800507744E+02  0.51100000000E-03 0. -1.
        -11    1    3    3    0    0 -0.50546459384E+01 -0.75000630099E+01  0.71946239564E+01  0.11556946173E+02  0.51100000000E-03 0.  1.
         12    1    3    3    0    0 -0.10006811029E+02  0.46574247085E+01 -0.31040556362E+02  0.32944559659E+02  0.00000000000E+00 0. -1.
</event>
<event>
 7    1  0.3750159E-013  0.5930195E+02  0.7816164E-02  0.1266605E+00
        -11   -1    0    0    0    0  0.00000000000E+00  0.00000000000E+00  0.45593999997E+02  0.45594000000E+02  0.51100000000E-03 0.  1.
         11   -1    0    0    0    0 -0.00000000000E+00 -0.00000000000E+00 -0.45593999997E+02  0.45594000000E+02  0.51100000000E-03 0. -1.
    9900012    2    1    2    0    0  0.42543142052E+01 -0.96909985537E+01 -0.30078325494E+02  0.59301948083E+02  0.50000007396E+02 0.  0.
        -12    1    1    2    0    0 -0.42543142052E+01  0.96909985537E+01  0.30078325494E+02  0.31886051917E+02  0.00000000000E+00 0.  1.
         11    1    3    3    0    0  0.17723611906E+02 -0.39060115864E+00 -0.15239749910E+02  0.23377958975E+02  0.51100000000E-03 0. -1.
        -11    1    3    3    0    0 -0.62204901128E+01 -0.83171039957E+01 -0.22835217097E+02  0.25086168624E+02  0.51100000000E-03 0.  1.
        -12    1    3    3    0    0 -0.72488075877E+01 -0.98329339941E+00  0.79966415135E+01  0.10837820484E+02  0.00000000000E+00 0.  1.
</event>
<event>
 7    1  0.3750159E-013  0.5930193E+02  0.7816164E-02  0.1266605E+00
        -11   -1    0    0    0    0  0.00000000000E+00  0.00000000000E+00  0.45593999997E+02  0.45594000000E+02  0.51100000000E-03 0.  1.
         11   -1    0    0    0    0 -0.00000000000E+00 -0.00000000000E+00 -0.45593999997E+02  0.45594000000E+02  0.51100000000E-03 0. -1.
    9900012    2    1    2    0    0  0.20917135789E+02 -0.75353786428E+01  0.22856348038E+02  0.59301934916E+02  0.49999983382E+02 0.  0.
        -12    1    1    2    0    0 -0.20917135789E+02  0.75353786428E+01 -0.22856348038E+02  0.31886065084E+02  0.00000000000E+00 0.  1.
         11    1    3    3    0    0  0.55843164588E+01 -0.63471846359E+01 -0.67773767111E+01  0.10835320875E+02  0.51100000000E-03 0. -1.
        -11    1    3    3    0    0 -0.53944153978E+01 -0.12473774572E+02  0.53541704068E+01  0.14606913108E+02  0.51100000000E-03 0.  1.
         12    1    3    3    0    0  0.20727234728E+02  0.11285580565E+02  0.24279554343E+02  0.33859700932E+02  0.00000000000E+00 0. -1.
</event>
<event>
 7    1  0.3750159E-013  0.5930169E+02  0.7816164E-02  0.1266606E+00
        -11   -1    0    0    0    0  0.00000000000E+00  0.00000000000E+00  0.45593999997E+02  0.45594000000E+02  0.51100000000E-03 0. -1.
         11   -1    0    0    0    0 -0.00000000000E+00 -0.00000000000E+00 -0.45593999997E+02  0.45594000000E+02  0.51100000000E-03 0.  1.
    9900012    2    1    2    0    0 -0.76070933020E+01 -0.20186069498E+02  0.23481732987E+02  0.59301685469E+02  0.49999528449E+02 0.  0.
        -12    1    1    2    0    0  0.76070933020E+01  0.20186069498E+02 -0.23481732987E+02  0.31886314531E+02  0.00000000000E+00 0.  1.
         11    1    3    3    0    0 -0.15883551241E+02  0.45180820165E+00  0.90268265470E+01  0.18274980943E+02  0.51100000000E-03 0. -1.
        -11    1    3    3    0    0  0.10429618773E+02 -0.22343000925E+02  0.21970116817E+02  0.33025333781E+02  0.51100000000E-03 0.  1.
         12    1    3    3    0    0 -0.21531608340E+01  0.17051232261E+01 -0.75152103771E+01  0.80013707454E+01  0.00000000000E+00 0. -1.
</event>
<event>
 7    1  0.3750159E-013  0.5930191E+02  0.7816164E-02  0.1266605E+00
        -11   -1    0    0    0    0  0.00000000000E+00  0.00000000000E+00  0.45593999997E+02  0.45594000000E+02  0.51100000000E-03 0. -1.
         11   -1    0    0    0    0 -0.00000000000E+00 -0.00000000000E+00 -0.45593999997E+02  0.45594000000E+02  0.51100000000E-03 0.  1.
    9900012    2    1    2    0    0  0.18140451557E+02 -0.83419937163E+00  0.26209751030E+02  0.59301907102E+02  0.49999932656E+02 0.  0.
        -12    1    1    2    0    0 -0.18140451557E+02  0.83419937163E+00 -0.26209751030E+02  0.31886092898E+02  0.00000000000E+00 0.  1.
         11    1    3    3    0    0 -0.29902059080E+01  0.18064171366E+02  0.75471604579E+01  0.19804425004E+02  0.51100000000E-03 0. -1.
        -11    1    3    3    0    0 -0.98972173818E+00  0.20189814092E+01  0.62108632210E+01  0.66053506539E+01  0.51100000000E-03 0.  1.
         12    1    3    3    0    0  0.22120379203E+02 -0.20917352146E+02  0.12451727351E+02  0.32892131444E+02  0.00000000000E+00 0. -1.
</event>
<event>
 7    1  0.3750159E-013  0.5930193E+02  0.7816164E-02  0.1266605E+00
        -11   -1    0    0    0    0  0.00000000000E+00  0.00000000000E+00  0.45593999997E+02  0.45594000000E+02  0.51100000000E-03 0. -1.
         11   -1    0    0    0    0 -0.00000000000E+00 -0.00000000000E+00 -0.45593999997E+02  0.45594000000E+02  0.51100000000E-03 0.  1.
    9900012    2    1    2    0    0  0.63577944041E+00 -0.30423866736E+02 -0.95239325575E+01  0.59301934485E+02  0.49999982597E+02 0.  0.
        -12    1    1    2    0    0 -0.63577944041E+00  0.30423866736E+02  0.95239325575E+01  0.31886065515E+02  0.00000000000E+00 0.  1.
         11    1    3    3    0    0 -0.56151100863E+00 -0.12266460931E+02 -0.32047420436E+01  0.12690615833E+02  0.51100000000E-03 0. -1.
        -11    1    3    3    0    0 -0.15315492362E+02 -0.24161523264E+02 -0.42051131886E+01  0.28914122672E+02  0.51100000000E-03 0.  1.
         12    1    3    3    0    0  0.16512782811E+02  0.60041174593E+01 -0.21140773253E+01  0.17697195980E+02  0.00000000000E+00 0. -1.
</event>
<event>
 7    1  0.3750159E-013  0.5930192E+02  0.7816164E-02  0.1266605E+00
        -11   -1    0    0    0    0  0.00000000000E+00  0.00000000000E+00  0.45593999997E+02  0.45594000000E+02  0.51100000000E-03 0.  1.
         11   -1    0    0    0    0 -0.00000000000E+00 -0.00000000000E+00 -0.45593999997E+02  0.45594000000E+02  0.51100000000E-03 0. -1.
    9900012    2    1    2    0    0  0.16436078400E+02 -0.25388968530E+02 -0.10098394614E+02  0.59301922004E+02  0.49999959834E+02 0.  0.
        -12    1    1    2    0    0 -0.16436078400E+02  0.25388968530E+02  0.10098394614E+02  0.31886077996E+02  0.00000000000E+00 0.  1.
         11    1    3    3    0    0 -0.30876174784E+01  0.81460967793E+01 -0.31447373418E+01  0.92618382430E+01  0.51100000000E-03 0. -1.
        -11    1    3    3    0    0 -0.53160911545E+01  0.48410824713E+00  0.38167990901E+01  0.65622512534E+01  0.51100000000E-03 0.  1.
        -12    1    3    3    0    0  0.24839787033E+02 -0.34019173556E+02 -0.10770456362E+02  0.43477832508E+02  0.00000000000E+00 0.  1.
</event>
<event>
 7    1  0.3750159E-013  0.5930196E+02  0.7816164E-02  0.1266605E+00
        -11   -1    0    0    0    0  0.00000000000E+00  0.00000000000E+00  0.45593999997E+02  0.45594000000E+02  0.51100000000E-03 0.  1.
         11   -1    0    0    0    0 -0.00000000000E+00 -0.00000000000E+00 -0.45593999997E+02  0.45594000000E+02  0.51100000000E-03 0. -1.
    9900012    2    1    2    0    0  0.18701503991E+02 -0.65208083189E+01 -0.24989049533E+02  0.59301956199E+02  0.50000022198E+02 0.  0.
        -12    1    1    2    0    0 -0.18701503991E+02  0.65208083189E+01  0.24989049533E+02  0.31886043801E+02  0.00000000000E+00 0.  1.
         11    1    3    3    0    0  0.78588104091E+01 -0.27877442980E+01 -0.16927221716E+02  0.18869638433E+02  0.51100000000E-03 0. -1.
        -11    1    3    3    0    0  0.14743280471E+02 -0.16488587216E+02  0.39661791259E+01  0.22471502053E+02  0.51100000000E-03 0.  1.
         12    1    3    3    0    0 -0.39005868887E+01  0.12755523195E+02 -0.12028006943E+02  0.17960815713E+02  0.00000000000E+00 0. -1.
</event>
<event>
 7    1  0.3750159E-013  0.5930193E+02  0.7816164E-02  0.1266605E+00
        -11   -1    0    0    0    0  0.00000000000E+00  0.00000000000E+00  0.45593999997E+02  0.45594000000E+02  0.51100000000E-03 0.  1.
         11   -1    0    0    0    0 -0.00000000000E+00 -0.00000000000E+00 -0.45593999997E+02  0.45594000000E+02  0.51100000000E-03 0. -1.
    9900012    2    1    2    0    0  0.19180974629E+02  0.11420959407E+02 -0.22767807294E+02  0.59301934854E+02  0.49999983270E+02 0.  0.
        -12    1    1    2    0    0 -0.19180974629E+02 -0.11420959407E+02  0.22767807294E+02  0.31886065146E+02  0.00000000000E+00 0.  1.
         11    1    3    3    0    0  0.29574885976E+02  0.10505866972E+01 -0.33059389329E+01  0.29777623233E+02  0.51100000000E-03 0. -1.
        -11    1    3    3    0    0 -0.46050845175E+01 -0.18256743726E+01  0.95768641919E+00  0.50454983764E+01  0.51100000000E-03 0.  1.
        -12    1    3    3    0    0 -0.57888268289E+01  0.12196047082E+02 -0.20419554780E+02  0.24478813245E+02  0.00000000000E+00 0.  1.
</event>
<event>
 7    1  0.3750159E-013  0.5930196E+02  0.7816164E-02  0.1266605E+00
        -11   -1    0    0    0    0  0.00000000000E+00  0.00000000000E+00  0.45593999997E+02  0.45594000000E+02  0.51100000000E-03 0.  1.
         11   -1    0    0    0    0 -0.00000000000E+00 -0.00000000000E+00 -0.45593999997E+02  0.45594000000E+02  0.51100000000E-03 0. -1.
    9900012    2    1    2    0    0 -0.27860847810E+02  0.12999500454E+02 -0.84560953244E+01  0.59301962289E+02  0.50000033305E+02 0.  0.
        -12    1    1    2    0    0  0.27860847810E+02 -0.12999500454E+02  0.84560953244E+01  0.31886037711E+02  0.00000000000E+00 0.  1.
         11    1    3    3    0    0 -0.18856308577E+02  0.17910875092E+02 -0.13001751830E+02  0.29075855458E+02  0.51100000000E-03 0. -1.
        -11    1    3    3    0    0 -0.39574222586E+01  0.10250463229E+02  0.83489290631E+01  0.13799920439E+02  0.51100000000E-03 0.  1.
         12    1    3    3    0    0 -0.50471169748E+01 -0.15161837867E+02 -0.38032725575E+01  0.16426186393E+02  0.00000000000E+00 0. -1.
</event>
<event>
 7    1  0.3750159E-013  0.5930190E+02  0.7816164E-02  0.1266605E+00
        -11   -1    0    0    0    0  0.00000000000E+00  0.00000000000E+00  0.45593999997E+02  0.45594000000E+02  0.51100000000E-03 0. -1.
         11   -1    0    0    0    0 -0.00000000000E+00 -0.00000000000E+00 -0.45593999997E+02  0.45594000000E+02  0.51100000000E-03 0.  1.
    9900012    2    1    2    0    0  0.20289802632E+02 -0.64630829053E+01  0.23733427455E+02  0.59301904123E+02  0.49999927224E+02 0.  0.
        -12    1    1    2    0    0 -0.20289802632E+02  0.64630829053E+01 -0.23733427455E+02  0.31886095877E+02  0.00000000000E+00 0.  1.
         11    1    3    3    0    0  0.12152050072E+01  0.21911084394E+01  0.10593184895E+02  0.10885460297E+02  0.51100000000E-03 0.  1.
        -11    1    3    3    0    0  0.20617311175E+00  0.69456728584E+01  0.21461842141E+02  0.22558713331E+02  0.51100000000E-03 0. -1.
        -12    1    3    3    0    0  0.18868424513E+02 -0.15599864203E+02 -0.83215995810E+01  0.25857730495E+02  0.00000000000E+00 0.  1.
</event>
<event>
 7    1  0.3750159E-013  0.5930188E+02  0.7816164E-02  0.1266605E+00
        -11   -1    0    0    0    0  0.00000000000E+00  0.00000000000E+00  0.45593999997E+02  0.45594000000E+02  0.51100000000E-03 0. -1.
         11   -1    0    0    0    0 -0.00000000000E+00 -0.00000000000E+00 -0.45593999997E+02  0.45594000000E+02  0.51100000000E-03 0.  1.
    9900012    2    1    2    0    0 -0.22146517885E+02 -0.82692117231E+01  0.21398049093E+02  0.59301880419E+02  0.49999883993E+02 0.  0.
        -12    1    1    2    0    0  0.22146517885E+02  0.82692117231E+01 -0.21398049093E+02  0.31886119581E+02  0.00000000000E+00 0.  1.
         11    1    3    3    0    0  0.12924611442E+02 -0.36627033520E+01  0.78094719358E+01  0.15538623779E+02  0.51100000000E-03 0. -1.
        -11    1    3    3    0    0 -0.41473718816E+01  0.73401610848E+01  0.32784215576E+01  0.90458115416E+01  0.51100000000E-03 0.  1.
         12    1    3    3    0    0 -0.30923757446E+02 -0.11946669456E+02  0.10310155600E+02  0.34717445098E+02  0.00000000000E+00 0. -1.
</event>
<event>
 7    1  0.3750159E-013  0.5930195E+02  0.7816164E-02  0.1266605E+00
        -11   -1    0    0    0    0  0.00000000000E+00  0.00000000000E+00  0.45593999997E+02  0.45594000000E+02  0.51100000000E-03 0.  1.
         11   -1    0    0    0    0 -0.00000000000E+00 -0.00000000000E+00 -0.45593999997E+02  0.45594000000E+02  0.51100000000E-03 0. -1.
    9900012    2    1    2    0    0  0.20545686180E+01 -0.28438196567E+02  0.14274731257E+02  0.59301949309E+02  0.50000009632E+02 0.  0.
        -12    1    1    2    0    0 -0.20545686180E+01  0.28438196567E+02 -0.14274731257E+02  0.31886050691E+02  0.00000000000E+00 0.  1.
         11    1    3    3    0    0  0.22783502341E+01 -0.14096278820E+02 -0.32836845883E+01  0.14651912540E+02  0.51100000000E-03 0. -1.
        -11    1    3    3    0    0  0.12727764534E+01  0.25513789693E+01 -0.11039369872E+02  0.11401630672E+02  0.51100000000E-03 0.  1.
        -12    1    3    3    0    0 -0.14965580695E+01 -0.16893296717E+02  0.28597785718E+02  0.33248406097E+02  0.00000000000E+00 0.  1.
</event>
<event>
 7    1  0.3750159E-013  0.5930193E+02  0.7816164E-02  0.1266605E+00
        -11   -1    0    0    0    0  0.00000000000E+00  0.00000000000E+00  0.45593999997E+02  0.45594000000E+02  0.51100000000E-03 0.  1.
         11   -1    0    0    0    0 -0.00000000000E+00 -0.00000000000E+00 -0.45593999997E+02  0.45594000000E+02  0.51100000000E-03 0. -1.
    9900012    2    1    2    0    0  0.94207208434E+01  0.26518052025E+02 -0.14992139907E+02  0.59301932142E+02  0.49999978324E+02 0.  0.
        -12    1    1    2    0    0 -0.94207208434E+01 -0.26518052025E+02  0.14992139907E+02  0.31886067858E+02  0.00000000000E+00 0.  1.
         11    1    3    3    0    0 -0.12682173283E+02  0.44237405236E+01  0.72915173981E+01  0.15283102618E+02  0.51100000000E-03 0. -1.
        -11    1    3    3    0    0  0.54051334757E-01  0.16665955794E-01 -0.10754738166E+02  0.10754886916E+02  0.51100000000E-03 0.  1.
         12    1    3    3    0    0  0.22048842792E+02  0.22077645546E+02 -0.11528919139E+02  0.33263942608E+02  0.00000000000E+00 0. -1.
</event>
<event>
 7    1  0.3750159E-013  0.5930190E+02  0.7816164E-02  0.1266605E+00
        -11   -1    0    0    0    0  0.00000000000E+00  0.00000000000E+00  0.45593999997E+02  0.45594000000E+02  0.51100000000E-03 0. -1.
         11   -1    0    0    0    0 -0.00000000000E+00 -0.00000000000E+00 -0.45593999997E+02  0.45594000000E+02  0.51100000000E-03 0.  1.
    9900012    2    1    2    0    0 -0.24654495594E+02 -0.13685141746E+02  0.14886105929E+02  0.59301899465E+02  0.49999918729E+02 0.  0.
        -12    1    1    2    0    0  0.24654495594E+02  0.13685141746E+02 -0.14886105929E+02  0.31886100535E+02  0.00000000000E+00 0.  1.
         11    1    3    3    0    0 -0.20892441614E+02 -0.28044167520E+02  0.28036247665E+01  0.35083183444E+02  0.51100000000E-03 0. -1.
        -11    1    3    3    0    0 -0.19962255785E+00 -0.21138400762E+01 -0.14779528697E+01  0.25869893660E+01  0.51100000000E-03 0.  1.
         12    1    3    3    0    0 -0.35624314218E+01  0.16472865850E+02  0.13560434032E+02  0.21631726655E+02  0.00000000000E+00 0. -1.
</event>
<event>
 7    1  0.3750159E-013  0.5930191E+02  0.7816164E-02  0.1266605E+00
        -11   -1    0    0    0    0  0.00000000000E+00  0.00000000000E+00  0.45593999997E+02  0.45594000000E+02  0.51100000000E-03 0. -1.
         11   -1    0    0    0    0 -0.00000000000E+00 -0.00000000000E+00 -0.45593999997E+02  0.45594000000E+02  0.51100000000E-03 0.  1.
    9900012    2    1    2    0    0 -0.19231774302E+02  0.23048283325E+02  0.10753510874E+02  0.59301913643E+02  0.49999944586E+02 0.  0.
        -12    1    1    2    0    0  0.19231774302E+02 -0.23048283325E+02 -0.10753510874E+02  0.31886086357E+02  0.00000000000E+00 0.  1.
         11    1    3    3    0    0 -0.15625694241E+02  0.13987746152E+02  0.15526247503E+02  0.26093748767E+02  0.51100000000E-03 0. -1.
        -11    1    3    3    0    0 -0.85059373341E+01 -0.10005792673E+02 -0.27610774628E+01  0.13419776674E+02  0.51100000000E-03 0.  1.
         12    1    3    3    0    0  0.48998572727E+01  0.19066329845E+02 -0.20116591655E+01  0.19788388203E+02  0.00000000000E+00 0. -1.
</event>
<event>
 7    1  0.3750159E-013  0.5930195E+02  0.7816164E-02  0.1266605E+00
        -11   -1    0    0    0    0  0.00000000000E+00  0.00000000000E+00  0.45593999997E+02  0.45594000000E+02  0.51100000000E-03 0.  1.
         11   -1    0    0    0    0 -0.00000000000E+00 -0.00000000000E+00 -0.45593999997E+02  0.45594000000E+02  0.51100000000E-03 0. -1.
    9900012    2    1    2    0    0  0.17740143188E+02 -0.12843095743E+01 -0.26464275172E+02  0.59301953024E+02  0.50000016406E+02 0.  0.
        -12    1    1    2    0    0 -0.17740143188E+02  0.12843095743E+01  0.26464275172E+02  0.31886046976E+02  0.00000000000E+00 0.  1.
         11    1    3    3    0    0  0.43601876119E+01 -0.76428316916E+01 -0.60326009497E+01  0.10668476309E+02  0.51100000000E-03 0. -1.
        -11    1    3    3    0    0  0.41052880594E+01 -0.17568682368E+02 -0.11803170613E+02  0.21559842925E+02  0.51100000000E-03 0.  1.
        -12    1    3    3    0    0  0.92746675169E+01  0.23927204485E+02 -0.86285036088E+01  0.27073633789E+02  0.00000000000E+00 0.  1.
</event>
<event>
 7    1  0.3750159E-013  0.5930194E+02  0.7816164E-02  0.1266605E+00
        -11   -1    0    0    0    0  0.00000000000E+00  0.00000000000E+00  0.45593999997E+02  0.45594000000E+02  0.51100000000E-03 0. -1.
         11   -1    0    0    0    0 -0.00000000000E+00 -0.00000000000E+00 -0.45593999997E+02  0.45594000000E+02  0.51100000000E-03 0.  1.
    9900012    2    1    2    0    0  0.71889451555E+01 -0.22523847959E+02  0.21394309148E+02  0.59301935281E+02  0.49999984048E+02 0.  0.
        -12    1    1    2    0    0 -0.71889451555E+01  0.22523847959E+02 -0.21394309148E+02  0.31886064719E+02  0.00000000000E+00 0.  1.
         11    1    3    3    0    0  0.52855678313E+01 -0.53949751014E+00 -0.63451888183E+01  0.82758507879E+01  0.51100000000E-03 0. -1.
        -11    1    3    3    0    0 -0.75317945013E+01  0.74584119047E+01  0.19788122702E+01  0.10782927933E+02  0.51100000000E-03 0.  1.
         12    1    3    3    0    0  0.94351718255E+01 -0.29442762353E+02  0.25760685696E+02  0.40243156560E+02  0.00000000000E+00 0. -1.
</event>
<event>
 7    1  0.3750159E-013  0.5930195E+02  0.7816164E-02  0.1266605E+00
        -11   -1    0    0    0    0  0.00000000000E+00  0.00000000000E+00  0.45593999997E+02  0.45594000000E+02  0.51100000000E-03 0. -1.
         11   -1    0    0    0    0 -0.00000000000E+00 -0.00000000000E+00 -0.45593999997E+02  0.45594000000E+02  0.51100000000E-03 0.  1.
    9900012    2    1    2    0    0 -0.19496819916E+01 -0.28825943012E+02 -0.13490150321E+02  0.59301946527E+02  0.50000004559E+02 0.  0.
        -12    1    1    2    0    0  0.19496819916E+01  0.28825943012E+02  0.13490150321E+02  0.31886053473E+02  0.00000000000E+00 0.  1.
         11    1    3    3    0    0 -0.19550905043E+02 -0.10877170818E+02 -0.19135699347E+02  0.29440205888E+02  0.51100000000E-03 0. -1.
        -11    1    3    3    0    0 -0.22253918809E+01 -0.23260835967E+01 -0.16075906854E+01  0.35982470725E+01  0.51100000000E-03 0.  1.
         12    1    3    3    0    0  0.19826614932E+02 -0.15622688596E+02  0.72531397111E+01  0.26263493566E+02  0.00000000000E+00 0. -1.
</event>
<event>
 7    1  0.3750159E-013  0.5930194E+02  0.7816164E-02  0.1266605E+00
        -11   -1    0    0    0    0  0.00000000000E+00  0.00000000000E+00  0.45593999997E+02  0.45594000000E+02  0.51100000000E-03 0.  1.
         11   -1    0    0    0    0 -0.00000000000E+00 -0.00000000000E+00 -0.45593999997E+02  0.45594000000E+02  0.51100000000E-03 0. -1.
    9900012    2    1    2    0    0 -0.11180249249E+02  0.26240904096E+02 -0.14252652603E+02  0.59301935218E+02  0.49999983933E+02 0.  0.
        -12    1    1    2    0    0  0.11180249249E+02 -0.26240904096E+02  0.14252652603E+02  0.31886064782E+02  0.00000000000E+00 0.  1.
         11    1    3    3    0    0  0.47760628723E+01 -0.54663260226E+01  0.40110000585E+01  0.82933478448E+01  0.51100000000E-03 0. -1.
        -11    1    3    3    0    0 -0.11369079057E+02  0.75516303211E+01  0.73516201191E+01  0.15502561006E+02  0.51100000000E-03 0.  1.
         12    1    3    3    0    0 -0.45872330651E+01  0.24155599797E+02 -0.25615272781E+02  0.35506026367E+02  0.00000000000E+00 0. -1.
</event>
<event>
 7    1  0.3750159E-013  0.5930198E+02  0.7816164E-02  0.1266605E+00
        -11   -1    0    0    0    0  0.00000000000E+00  0.00000000000E+00  0.45593999997E+02  0.45594000000E+02  0.51100000000E-03 0.  1.
         11   -1    0    0    0    0 -0.00000000000E+00 -0.00000000000E+00 -0.45593999997E+02  0.45594000000E+02  0.51100000000E-03 0. -1.
    9900012    2    1    2    0    0  0.26001301117E+01  0.17923941595E+02 -0.26242902383E+02  0.59301979797E+02  0.50000065235E+02 0.  0.
        -12    1    1    2    0    0 -0.26001301117E+01 -0.17923941595E+02  0.26242902383E+02  0.31886020203E+02  0.00000000000E+00 0.  1.
         11    1    3    3    0    0  0.48033631109E+00  0.18558587930E+02  0.41955396887E+01  0.19032983541E+02  0.51100000000E-03 0. -1.
        -11    1    3    3    0    0 -0.17612947753E+01 -0.31410582435E+01  0.40804572335E+01  0.54422915826E+01  0.51100000000E-03 0.  1.
         12    1    3    3    0    0  0.38810885760E+01  0.25064119082E+01 -0.34518899305E+02  0.34826704674E+02  0.00000000000E+00 0. -1.
</event>
<event>
 7    1  0.3750159E-013  0.5930195E+02  0.7816164E-02  0.1266605E+00
        -11   -1    0    0    0    0  0.00000000000E+00  0.00000000000E+00  0.45593999997E+02  0.45594000000E+02  0.51100000000E-03 0. -1.
         11   -1    0    0    0    0 -0.00000000000E+00 -0.00000000000E+00 -0.45593999997E+02  0.45594000000E+02  0.51100000000E-03 0.  1.
    9900012    2    1    2    0    0  0.31815463877E+02 -0.15694754984E+01  0.14259801291E+01  0.59301946397E+02  0.50000004320E+02 0.  0.
        -12    1    1    2    0    0 -0.31815463877E+02  0.15694754984E+01 -0.14259801291E+01  0.31886053603E+02  0.00000000000E+00 0.  1.
         11    1    3    3    0    0 -0.82490700676E+01 -0.89501735578E+01  0.22414792528E+01  0.12376469335E+02  0.51100000000E-03 0. -1.
        -11    1    3    3    0    0  0.53518257933E+01  0.52351886796E+01 -0.84800759764E+01  0.11311981642E+02  0.51100000000E-03 0.  1.
         12    1    3    3    0    0  0.34712708152E+02  0.21455093799E+01  0.76645768528E+01  0.35613495420E+02  0.00000000000E+00 0. -1.
</event>
<event>
 7    1  0.3750159E-013  0.5930192E+02  0.7816164E-02  0.1266605E+00
        -11   -1    0    0    0    0  0.00000000000E+00  0.00000000000E+00  0.45593999997E+02  0.45594000000E+02  0.51100000000E-03 0.  1.
         11   -1    0    0    0    0 -0.00000000000E+00 -0.00000000000E+00 -0.45593999997E+02  0.45594000000E+02  0.51100000000E-03 0. -1.
    9900012    2    1    2    0    0  0.41211432406E+00  0.25772575225E+02 -0.18770373274E+02  0.59301915499E+02  0.49999947971E+02 0.  0.
        -12    1    1    2    0    0 -0.41211432406E+00 -0.25772575225E+02  0.18770373274E+02  0.31886084501E+02  0.00000000000E+00 0.  1.
         11    1    3    3    0    0 -0.12088353409E+01  0.10758487743E+02 -0.28743072504E+02  0.30714337997E+02  0.51100000000E-03 0. -1.
        -11    1    3    3    0    0 -0.86969095214E+01  0.23186215664E+01 -0.74254965290E+00  0.90312580209E+01  0.51100000000E-03 0.  1.
        -12    1    3    3    0    0  0.10317859186E+02  0.12695465916E+02  0.10715248883E+02  0.19556319481E+02  0.00000000000E+00 0.  1.
</event>
<event>
 7    1  0.3750159E-013  0.5930194E+02  0.7816164E-02  0.1266605E+00
        -11   -1    0    0    0    0  0.00000000000E+00  0.00000000000E+00  0.45593999997E+02  0.45594000000E+02  0.51100000000E-03 0. -1.
         11   -1    0    0    0    0 -0.00000000000E+00 -0.00000000000E+00 -0.45593999997E+02  0.45594000000E+02  0.51100000000E-03 0.  1.
    9900012    2    1    2    0    0 -0.12149854222E+02  0.78011866914E+01  0.28429624672E+02  0.59301936738E+02  0.49999986704E+02 0.  0.
        -12    1    1    2    0    0  0.12149854222E+02 -0.78011866914E+01 -0.28429624672E+02  0.31886063262E+02  0.00000000000E+00 0.  1.
         11    1    3    3    0    0  0.16092858033E+01  0.51729470803E+01 -0.13379700309E+01  0.55802640042E+01  0.51100000000E-03 0. -1.
        -11    1    3    3    0    0  0.41947149134E+01  0.19493979798E+02  0.15490834958E+02  0.25250284148E+02  0.51100000000E-03 0.  1.
        -12    1    3    3    0    0 -0.17953854938E+02 -0.16865740187E+02  0.14276759744E+02  0.28471388586E+02  0.00000000000E+00 0.  1.
</event>
<event>
 7    1  0.3750159E-013  0.5930193E+02  0.7816164E-02  0.1266605E+00
        -11   -1    0    0    0    0  0.00000000000E+00  0.00000000000E+00  0.45593999997E+02  0.45594000000E+02  0.51100000000E-03 0. -1.
         11   -1    0    0    0    0 -0.00000000000E+00 -0.00000000000E+00 -0.45593999997E+02  0.45594000000E+02  0.51100000000E-03 0.  1.
    9900012    2    1    2    0    0 -0.16270508583E+02  0.18560012961E+02  0.20187072069E+02  0.59301930795E+02  0.49999975867E+02 0.  0.
        -12    1    1    2    0    0  0.16270508583E+02 -0.18560012961E+02 -0.20187072069E+02  0.31886069205E+02  0.00000000000E+00 0.  1.
         11    1    3    3    0    0  0.33147825409E+01 -0.37611302032E+01  0.19638161686E+01  0.53842787729E+01  0.51100000000E-03 0. -1.
        -11    1    3    3    0    0 -0.58813685202E+01  0.32888616602E+02  0.12868805378E+02  0.35803041069E+02  0.51100000000E-03 0.  1.
         12    1    3    3    0    0 -0.13703922604E+02 -0.10567473438E+02  0.53544505224E+01  0.18114610953E+02  0.00000000000E+00 0. -1.
</event>
<event>
 7    1  0.3750159E-013  0.5930195E+02  0.7816164E-02  0.1266605E+00
        -11   -1    0    0    0    0  0.00000000000E+00  0.00000000000E+00  0.45593999997E+02  0.45594000000E+02  0.51100000000E-03 0.  1.
         11   -1    0    0    0    0 -0.00000000000E+00 -0.00000000000E+00 -0.45593999997E+02  0.45594000000E+02  0.51100000000E-03 0. -1.
    9900012    2    1    2    0    0 -0.29880815090E+02  0.11023094692E+02  0.15325007933E+01  0.59301948414E+02  0.50000008000E+02 0.  0.
        -12    1    1    2    0    0  0.29880815090E+02 -0.11023094692E+02 -0.15325007933E+01  0.31886051586E+02  0.00000000000E+00 0.  1.
         11    1    3    3    0    0 -0.86454756495E+01 -0.48482234860E+01  0.28476627227E+01  0.10313035606E+02  0.51100000000E-03 0.  1.
        -11    1    3    3    0    0 -0.21577774004E+02 -0.85281494588E+01 -0.63881732503E+01  0.24065294968E+02  0.51100000000E-03 0. -1.
         12    1    3    3    0    0  0.34243456313E+00  0.24399467637E+02  0.50730113209E+01  0.24923617840E+02  0.00000000000E+00 0. -1.
</event>
<event>
 7    1  0.3750159E-013  0.5930194E+02  0.7816164E-02  0.1266605E+00
        -11   -1    0    0    0    0  0.00000000000E+00  0.00000000000E+00  0.45593999997E+02  0.45594000000E+02  0.51100000000E-03 0.  1.
         11   -1    0    0    0    0 -0.00000000000E+00 -0.00000000000E+00 -0.45593999997E+02  0.45594000000E+02  0.51100000000E-03 0. -1.
    9900012    2    1    2    0    0 -0.16735247208E+01  0.27858353931E+00 -0.31840889187E+02  0.59301944772E+02  0.50000001357E+02 0.  0.
        -12    1    1    2    0    0  0.16735247208E+01 -0.27858353931E+00  0.31840889187E+02  0.31886055228E+02  0.00000000000E+00 0.  1.
         11    1    3    3    0    0  0.39131054586E+01 -0.16048777978E+02 -0.17479671392E+02  0.24050251166E+02  0.51100000000E-03 0. -1.
        -11    1    3    3    0    0 -0.10010186147E+02 -0.22202548263E+01 -0.12389686285E+02  0.16082216411E+02  0.51100000000E-03 0.  1.
         12    1    3    3    0    0  0.44235559676E+01  0.18547616343E+02 -0.19715315105E+01  0.19169477195E+02  0.00000000000E+00 0. -1.
</event>
<event>
 7    1  0.3750159E-013  0.5930192E+02  0.7816164E-02  0.1266605E+00
        -11   -1    0    0    0    0  0.00000000000E+00  0.00000000000E+00  0.45593999997E+02  0.45594000000E+02  0.51100000000E-03 0. -1.
         11   -1    0    0    0    0 -0.00000000000E+00 -0.00000000000E+00 -0.45593999997E+02  0.45594000000E+02  0.51100000000E-03 0.  1.
    9900012    2    1    2    0    0 -0.27273309995E+02 -0.13650933164E+02  0.93027214708E+01  0.59301920889E+02  0.49999957801E+02 0.  0.
        -12    1    1    2    0    0  0.27273309995E+02  0.13650933164E+02 -0.93027214708E+01  0.31886079111E+02  0.00000000000E+00 0.  1.
         11    1    3    3    0    0 -0.76999846014E+01 -0.16263661744E+02  0.27526703032E+01  0.18203671340E+02  0.51100000000E-03 0. -1.
        -11    1    3    3    0    0 -0.10242023796E+02 -0.16408323612E+02  0.21727356131E+01  0.19464144356E+02  0.51100000000E-03 0.  1.
        -12    1    3    3    0    0 -0.93313015971E+01  0.19021052193E+02  0.43773155545E+01  0.21634105193E+02  0.00000000000E+00 0.  1.
</event>
<event>
 7    1  0.3750159E-013  0.5930191E+02  0.7816164E-02  0.1266605E+00
        -11   -1    0    0    0    0  0.00000000000E+00  0.00000000000E+00  0.45593999997E+02  0.45594000000E+02  0.51100000000E-03 0.  1.
         11   -1    0    0    0    0 -0.00000000000E+00 -0.00000000000E+00 -0.45593999997E+02  0.45594000000E+02  0.51100000000E-03 0. -1.
    9900012    2    1    2    0    0 -0.21909745635E+02  0.14340255569E+02 -0.18194590399E+02  0.59301905799E+02  0.49999930280E+02 0.  0.
        -12    1    1    2    0    0  0.21909745635E+02 -0.14340255569E+02  0.18194590399E+02  0.31886094201E+02  0.00000000000E+00 0.  1.
         11    1    3    3    0    0  0.91539962089E+00  0.10224585694E+02 -0.53483222549E+01  0.11575174309E+02  0.51100000000E-03 0. -1.
        -11    1    3    3    0    0  0.65763847271E+01  0.12665977307E+00  0.88089645781E+01  0.10993758956E+02  0.51100000000E-03 0.  1.
         12    1    3    3    0    0 -0.29401529983E+02  0.39890101020E+01 -0.21655232722E+02  0.36732972534E+02  0.00000000000E+00 0. -1.
</event>
<event>
 7    1  0.3750159E-013  0.5930194E+02  0.7816164E-02  0.1266605E+00
        -11   -1    0    0    0    0  0.00000000000E+00  0.00000000000E+00  0.45593999997E+02  0.45594000000E+02  0.51100000000E-03 0.  1.
         11   -1    0    0    0    0 -0.00000000000E+00 -0.00000000000E+00 -0.45593999997E+02  0.45594000000E+02  0.51100000000E-03 0. -1.
    9900012    2    1    2    0    0 -0.81010333650E+01 -0.71504975345E+01 -0.29999411865E+02  0.59301936135E+02  0.49999985606E+02 0.  0.
        -12    1    1    2    0    0  0.81010333650E+01  0.71504975345E+01  0.29999411865E+02  0.31886063865E+02  0.00000000000E+00 0.  1.
         11    1    3    3    0    0 -0.26739321200E+00 -0.74549337421E+01 -0.16458389891E+01  0.76391310022E+01  0.51100000000E-03 0. -1.
        -11    1    3    3    0    0  0.54199664569E-01 -0.13596289391E+02  0.51525099025E+01  0.14539958094E+02  0.51100000000E-03 0.  1.
         12    1    3    3    0    0 -0.78878398175E+01  0.13900725599E+02 -0.33506082778E+02  0.37122847039E+02  0.00000000000E+00 0. -1.
</event>
<event>
 7    1  0.3750159E-013  0.5930192E+02  0.7816164E-02  0.1266605E+00
        -11   -1    0    0    0    0  0.00000000000E+00  0.00000000000E+00  0.45593999997E+02  0.45594000000E+02  0.51100000000E-03 0. -1.
         11   -1    0    0    0    0 -0.00000000000E+00 -0.00000000000E+00 -0.45593999997E+02  0.45594000000E+02  0.51100000000E-03 0.  1.
    9900012    2    1    2    0    0  0.20164883044E+02  0.14019628496E+02  0.20335920145E+02  0.59301919346E+02  0.49999954986E+02 0.  0.
        -12    1    1    2    0    0 -0.20164883044E+02 -0.14019628496E+02 -0.20335920145E+02  0.31886080654E+02  0.00000000000E+00 0.  1.
         11    1    3    3    0    0  0.51019132284E+01 -0.53580525136E+01 -0.12033396818E+02  0.14125894116E+02  0.51100000000E-03 0. -1.
        -11    1    3    3    0    0  0.51511197778E+01  0.44003830702E+00 -0.12669186506E+01  0.53228518489E+01  0.51100000000E-03 0.  1.
         12    1    3    3    0    0  0.99118500380E+01  0.18937642702E+02  0.33636235614E+02  0.39853173381E+02  0.00000000000E+00 0. -1.
</event>
<event>
 7    1  0.3750159E-013  0.5930187E+02  0.7816164E-02  0.1266605E+00
        -11   -1    0    0    0    0  0.00000000000E+00  0.00000000000E+00  0.45593999997E+02  0.45594000000E+02  0.51100000000E-03 0.  1.
         11   -1    0    0    0    0 -0.00000000000E+00 -0.00000000000E+00 -0.45593999997E+02  0.45594000000E+02  0.51100000000E-03 0. -1.
    9900012    2    1    2    0    0 -0.27004849101E+02  0.16836706953E+02 -0.19972315463E+01  0.59301866496E+02  0.49999858601E+02 0.  0.
        -12    1    1    2    0    0  0.27004849101E+02 -0.16836706953E+02  0.19972315463E+01  0.31886133504E+02  0.00000000000E+00 0.  1.
         11    1    3    3    0    0 -0.34958036550E+02  0.47168162278E+01 -0.76598753930E+01  0.36096902444E+02  0.51100000000E-03 0. -1.
        -11    1    3    3    0    0 -0.15587096157E+01  0.11588245295E+02 -0.75705108867E+00  0.11717087151E+02  0.51100000000E-03 0.  1.
        -12    1    3    3    0    0  0.95118970649E+01  0.53164543042E+00  0.64196949354E+01  0.11487876901E+02  0.00000000000E+00 0.  1.
</event>
<event>
 7    1  0.3750159E-013  0.5930194E+02  0.7816164E-02  0.1266605E+00
        -11   -1    0    0    0    0  0.00000000000E+00  0.00000000000E+00  0.45593999997E+02  0.45594000000E+02  0.51100000000E-03 0. -1.
         11   -1    0    0    0    0 -0.00000000000E+00 -0.00000000000E+00 -0.45593999997E+02  0.45594000000E+02  0.51100000000E-03 0.  1.
    9900012    2    1    2    0    0 -0.45416886704E+01 -0.31556368951E+02 -0.53816035559E+00  0.59301937623E+02  0.49999988320E+02 0.  0.
        -12    1    1    2    0    0  0.45416886704E+01  0.31556368951E+02  0.53816035559E+00  0.31886062377E+02  0.00000000000E+00 0.  1.
         11    1    3    3    0    0 -0.37204526279E+01 -0.28774133993E+01 -0.35074795405E+01  0.58671704096E+01  0.51100000000E-03 0. -1.
        -11    1    3    3    0    0 -0.70265365603E+01 -0.26768713997E+02 -0.16970615811E+02  0.32464412306E+02  0.51100000000E-03 0.  1.
         12    1    3    3    0    0  0.62053005178E+01 -0.19102415544E+01  0.19939934996E+02  0.20970354908E+02  0.00000000000E+00 0. -1.
</event>
<event>
 7    1  0.3750159E-013  0.5930222E+02  0.7816164E-02  0.1266604E+00
        -11   -1    0    0    0    0  0.00000000000E+00  0.00000000000E+00  0.45593999997E+02  0.45594000000E+02  0.51100000000E-03 0. -1.
         11   -1    0    0    0    0 -0.00000000000E+00 -0.00000000000E+00 -0.45593999997E+02  0.45594000000E+02  0.51100000000E-03 0.  1.
    9900012    2    1    2    0    0 -0.61697302863E+01  0.16459947935E+02  0.26602776984E+02  0.59302216317E+02  0.50000496587E+02 0.  0.
        -12    1    1    2    0    0  0.61697302863E+01 -0.16459947935E+02 -0.26602776984E+02  0.31885783683E+02  0.00000000000E+00 0.  1.
         11    1    3    3    0    0 -0.26742132336E+01 -0.84373401329E+01  0.62492304933E+01  0.10834805349E+02  0.51100000000E-03 0. -1.
        -11    1    3    3    0    0  0.25559122792E+01  0.34288979908E+01 -0.99557455774E+01  0.10835446427E+02  0.51100000000E-03 0.  1.
        -12    1    3    3    0    0 -0.60514293319E+01  0.21468390077E+02  0.30309292069E+02  0.37631964540E+02  0.00000000000E+00 0.  1.
</event>
<event>
 7    1  0.3750159E-013  0.5930198E+02  0.7816164E-02  0.1266605E+00
        -11   -1    0    0    0    0  0.00000000000E+00  0.00000000000E+00  0.45593999997E+02  0.45594000000E+02  0.51100000000E-03 0.  1.
         11   -1    0    0    0    0 -0.00000000000E+00 -0.00000000000E+00 -0.45593999997E+02  0.45594000000E+02  0.51100000000E-03 0. -1.
    9900012    2    1    2    0    0 -0.72371551043E+01 -0.35232761204E+01 -0.30853340523E+02  0.59301976258E+02  0.50000058781E+02 0.  0.
        -12    1    1    2    0    0  0.72371551043E+01  0.35232761204E+01  0.30853340523E+02  0.31886023742E+02  0.00000000000E+00 0.  1.
         11    1    3    3    0    0 -0.14470425648E+02 -0.36677563738E+01 -0.22236374557E+02  0.26782494450E+02  0.51100000000E-03 0. -1.
        -11    1    3    3    0    0 -0.19803287213E+01 -0.12354469705E+02 -0.11182606272E+02  0.16781099691E+02  0.51100000000E-03 0.  1.
         12    1    3    3    0    0  0.92135992652E+01  0.12498949959E+02  0.25656403062E+01  0.15738382117E+02  0.00000000000E+00 0. -1.
</event>
<event>
 7    1  0.3750159E-013  0.5930195E+02  0.7816164E-02  0.1266605E+00
        -11   -1    0    0    0    0  0.00000000000E+00  0.00000000000E+00  0.45593999997E+02  0.45594000000E+02  0.51100000000E-03 0.  1.
         11   -1    0    0    0    0 -0.00000000000E+00 -0.00000000000E+00 -0.45593999997E+02  0.45594000000E+02  0.51100000000E-03 0. -1.
    9900012    2    1    2    0    0  0.23184799550E+02  0.11694971123E+02 -0.18504402654E+02  0.59301949801E+02  0.50000010529E+02 0.  0.
        -12    1    1    2    0    0 -0.23184799550E+02 -0.11694971123E+02  0.18504402654E+02  0.31886050199E+02  0.00000000000E+00 0.  1.
         11    1    3    3    0    0  0.24073397056E+01  0.95776986305E+00  0.39825708027E+01  0.47511554415E+01  0.51100000000E-03 0.  1.
        -11    1    3    3    0    0 -0.84547753371E+01 -0.32021957635E+01  0.64618556203E+01  0.11112734228E+02  0.51100000000E-03 0. -1.
         12    1    3    3    0    0  0.29232235181E+02  0.13939397023E+02 -0.28948829077E+02  0.43438060131E+02  0.00000000000E+00 0. -1.
</event>
<event>
 7    1  0.3750159E-013  0.5930194E+02  0.7816164E-02  0.1266605E+00
        -11   -1    0    0    0    0  0.00000000000E+00  0.00000000000E+00  0.45593999997E+02  0.45594000000E+02  0.51100000000E-03 0. -1.
         11   -1    0    0    0    0 -0.00000000000E+00 -0.00000000000E+00 -0.45593999997E+02  0.45594000000E+02  0.51100000000E-03 0.  1.
    9900012    2    1    2    0    0  0.52230344900E+01 -0.24227473741E+02 -0.20061661356E+02  0.59301939887E+02  0.49999992449E+02 0.  0.
        -12    1    1    2    0    0 -0.52230344900E+01  0.24227473741E+02  0.20061661356E+02  0.31886060113E+02  0.00000000000E+00 0.  1.
         11    1    3    3    0    0 -0.13293202488E+00  0.28392416532E+00  0.17413085373E+01  0.17693048177E+01  0.51100000000E-03 0.  1.
        -11    1    3    3    0    0  0.20909156097E+02  0.32887645193E+01 -0.61631891704E+01  0.22045264384E+02  0.51100000000E-03 0. -1.
         12    1    3    3    0    0 -0.15553189582E+02 -0.27800162425E+02 -0.15639780723E+02  0.35487370685E+02  0.00000000000E+00 0. -1.
</event>
<event>
 7    1  0.3750159E-013  0.5930195E+02  0.7816164E-02  0.1266605E+00
        -11   -1    0    0    0    0  0.00000000000E+00  0.00000000000E+00  0.45593999997E+02  0.45594000000E+02  0.51100000000E-03 0.  1.
         11   -1    0    0    0    0 -0.00000000000E+00 -0.00000000000E+00 -0.45593999997E+02  0.45594000000E+02  0.51100000000E-03 0. -1.
    9900012    2    1    2    0    0  0.51534729459E+01 -0.27224086840E+02 -0.15780083139E+02  0.59301949577E+02  0.50000010121E+02 0.  0.
        -12    1    1    2    0    0 -0.51534729459E+01  0.27224086840E+02  0.15780083139E+02  0.31886050423E+02  0.00000000000E+00 0.  1.
         11    1    3    3    0    0  0.45061278178E+01 -0.19023647813E+02 -0.93657578796E+01  0.21677679418E+02  0.51100000000E-03 0. -1.
        -11    1    3    3    0    0 -0.14603373628E+02 -0.12013399971E+02  0.32268471111E+01  0.19183139543E+02  0.51100000000E-03 0.  1.
        -12    1    3    3    0    0  0.15250718756E+02  0.38129609435E+01 -0.96411723706E+01  0.18441130617E+02  0.00000000000E+00 0.  1.
</event>
<event>
 7    1  0.3750159E-013  0.5930196E+02  0.7816164E-02  0.1266605E+00
        -11   -1    0    0    0    0  0.00000000000E+00  0.00000000000E+00  0.45593999997E+02  0.45594000000E+02  0.51100000000E-03 0.  1.
         11   -1    0    0    0    0 -0.00000000000E+00 -0.00000000000E+00 -0.45593999997E+02  0.45594000000E+02  0.51100000000E-03 0. -1.
    9900012    2    1    2    0    0  0.11958755335E+02  0.19208055566E+02 -0.22466827963E+02  0.59301959379E+02  0.50000027996E+02 0.  0.
        -12    1    1    2    0    0 -0.11958755335E+02 -0.19208055566E+02  0.22466827963E+02  0.31886040621E+02  0.00000000000E+00 0.  1.
         11    1    3    3    0    0  0.86576162781E+01  0.85202156337E+01 -0.91500386874E+01  0.15207616589E+02  0.51100000000E-03 0. -1.
        -11    1    3    3    0    0  0.20858359423E+02  0.54510979443E+00 -0.22285040554E+01  0.20984149568E+02  0.51100000000E-03 0.  1.
         12    1    3    3    0    0 -0.17557220366E+02  0.10142730138E+02 -0.11088285220E+02  0.23110193222E+02  0.00000000000E+00 0. -1.
</event>
<event>
 7    1  0.3750159E-013  0.5930194E+02  0.7816164E-02  0.1266605E+00
        -11   -1    0    0    0    0  0.00000000000E+00  0.00000000000E+00  0.45593999997E+02  0.45594000000E+02  0.51100000000E-03 0.  1.
         11   -1    0    0    0    0 -0.00000000000E+00 -0.00000000000E+00 -0.45593999997E+02  0.45594000000E+02  0.51100000000E-03 0. -1.
    9900012    2    1    2    0    0 -0.20043430298E+02  0.19392871227E+02 -0.15456330893E+02  0.59301941648E+02  0.49999995660E+02 0.  0.
        -12    1    1    2    0    0  0.20043430298E+02 -0.19392871227E+02  0.15456330893E+02  0.31886058352E+02  0.00000000000E+00 0.  1.
         11    1    3    3    0    0 -0.51313269687E+01  0.27722236961E+01 -0.16594695691E+02  0.17589760260E+02  0.51100000000E-03 0. -1.
        -11    1    3    3    0    0  0.97244953851E+01  0.13654037073E+02 -0.10857720066E+01  0.16798137992E+02  0.51100000000E-03 0.  1.
        -12    1    3    3    0    0 -0.24636598714E+02  0.29666104582E+01  0.22241368041E+01  0.24914043396E+02  0.00000000000E+00 0.  1.
</event>
<event>
 7    1  0.3750159E-013  0.5930197E+02  0.7816164E-02  0.1266605E+00
        -11   -1    0    0    0    0  0.00000000000E+00  0.00000000000E+00  0.45593999997E+02  0.45594000000E+02  0.51100000000E-03 0.  1.
         11   -1    0    0    0    0 -0.00000000000E+00 -0.00000000000E+00 -0.45593999997E+02  0.45594000000E+02  0.51100000000E-03 0. -1.
    9900012    2    1    2    0    0  0.74177677788E+01 -0.29692858143E+02  0.89459242501E+01  0.59301973841E+02  0.50000054373E+02 0.  0.
        -12    1    1    2    0    0 -0.74177677788E+01  0.29692858143E+02 -0.89459242501E+01  0.31886026159E+02  0.00000000000E+00 0.  1.
         11    1    3    3    0    0  0.21522431199E+02 -0.10915362807E+02  0.18481135896E+02  0.30395930224E+02  0.51100000000E-03 0. -1.
        -11    1    3    3    0    0 -0.59143497392E+01 -0.84439890857E+01  0.29751028237E+01  0.10729945088E+02  0.51100000000E-03 0.  1.
        -12    1    3    3    0    0 -0.81903136812E+01 -0.10333506250E+02 -0.12510314470E+02  0.18176098529E+02  0.00000000000E+00 0.  1.
</event>
<event>
 7    1  0.3750159E-013  0.5930190E+02  0.7816164E-02  0.1266605E+00
        -11   -1    0    0    0    0  0.00000000000E+00  0.00000000000E+00  0.45593999997E+02  0.45594000000E+02  0.51100000000E-03 0.  1.
         11   -1    0    0    0    0 -0.00000000000E+00 -0.00000000000E+00 -0.45593999997E+02  0.45594000000E+02  0.51100000000E-03 0. -1.
    9900012    2    1    2    0    0 -0.17171917213E+02  0.25742165094E+02 -0.76934681779E+01  0.59301901821E+02  0.49999923024E+02 0.  0.
        -12    1    1    2    0    0  0.17171917213E+02 -0.25742165094E+02  0.76934681779E+01  0.31886098179E+02  0.00000000000E+00 0.  1.
         11    1    3    3    0    0 -0.26365672035E+02  0.15508462599E+02 -0.65244503744E+01  0.31276661059E+02  0.51100000000E-03 0. -1.
        -11    1    3    3    0    0  0.97206521331E+01  0.15340663822E+02 -0.76930458065E+01  0.19723336392E+02  0.51100000000E-03 0.  1.
        -12    1    3    3    0    0 -0.52689731108E+00 -0.51069613276E+01  0.65240280030E+01  0.83019043695E+01  0.00000000000E+00 0.  1.
</event>
<event>
 7    1  0.3750159E-013  0.5930191E+02  0.7816164E-02  0.1266605E+00
        -11   -1    0    0    0    0  0.00000000000E+00  0.00000000000E+00  0.45593999997E+02  0.45594000000E+02  0.51100000000E-03 0.  1.
         11   -1    0    0    0    0 -0.00000000000E+00 -0.00000000000E+00 -0.45593999997E+02  0.45594000000E+02  0.51100000000E-03 0. -1.
    9900012    2    1    2    0    0  0.24717881849E+02 -0.19866020890E+02  0.33302039569E+01  0.59301910125E+02  0.49999938170E+02 0.  0.
        -12    1    1    2    0    0 -0.24717881849E+02  0.19866020890E+02 -0.33302039569E+01  0.31886089875E+02  0.00000000000E+00 0.  1.
         11    1    3    3    0    0  0.84930611900E+01  0.28612149295E+01  0.53439804351E+01  0.10434403021E+02  0.51100000000E-03 0. -1.
        -11    1    3    3    0    0  0.17367095552E+02 -0.17169926893E+02  0.16520230554E+02  0.29484579279E+02  0.51100000000E-03 0.  1.
         12    1    3    3    0    0 -0.11422748933E+01 -0.55573089266E+01 -0.18534007032E+02  0.19382927826E+02  0.00000000000E+00 0. -1.
</event>
<event>
 7    1  0.3750159E-013  0.5930194E+02  0.7816164E-02  0.1266605E+00
        -11   -1    0    0    0    0  0.00000000000E+00  0.00000000000E+00  0.45593999997E+02  0.45594000000E+02  0.51100000000E-03 0.  1.
         11   -1    0    0    0    0 -0.00000000000E+00 -0.00000000000E+00 -0.45593999997E+02  0.45594000000E+02  0.51100000000E-03 0. -1.
    9900012    2    1    2    0    0 -0.29961808249E+02  0.95374669746E+01  0.52959987120E+01  0.59301939846E+02  0.49999992373E+02 0.  0.
        -12    1    1    2    0    0  0.29961808249E+02 -0.95374669746E+01 -0.52959987120E+01  0.31886060154E+02  0.00000000000E+00 0.  1.
         11    1    3    3    0    0 -0.22694248651E+02  0.10234931258E+02 -0.33318354558E+00  0.24897665577E+02  0.51100000000E-03 0. -1.
        -11    1    3    3    0    0 -0.17993813874E+02  0.79212153581E+01  0.34081614118E+00  0.19663141824E+02  0.51100000000E-03 0.  1.
         12    1    3    3    0    0  0.10726254276E+02 -0.86186796411E+01  0.52883661164E+01  0.14741132444E+02  0.00000000000E+00 0. -1.
</event>
<event>
 7    1  0.3750159E-013  0.5930194E+02  0.7816164E-02  0.1266605E+00
        -11   -1    0    0    0    0  0.00000000000E+00  0.00000000000E+00  0.45593999997E+02  0.45594000000E+02  0.51100000000E-03 0.  1.
         11   -1    0    0    0    0 -0.00000000000E+00 -0.00000000000E+00 -0.45593999997E+02  0.45594000000E+02  0.51100000000E-03 0. -1.
    9900012    2    1    2    0    0 -0.73944114903E+01  0.26521031992E+02 -0.16083481113E+02  0.59301939975E+02  0.49999992609E+02 0.  0.
        -12    1    1    2    0    0  0.73944114903E+01 -0.26521031992E+02  0.16083481113E+02  0.31886060025E+02  0.00000000000E+00 0.  1.
         11    1    3    3    0    0 -0.55093398242E+01  0.33908522409E+02 -0.93241936459E-02  0.34353177502E+02  0.51100000000E-03 0. -1.
        -11    1    3    3    0    0 -0.12889725907E+01 -0.11539094430E+01  0.37657225580E+01  0.41441071400E+01  0.51100000000E-03 0.  1.
        -12    1    3    3    0    0 -0.59609907535E+00 -0.62335809739E+01 -0.19839879477E+02  0.20804655333E+02  0.00000000000E+00 0.  1.
</event>
<event>
 7    1  0.3750159E-013  0.5930193E+02  0.7816164E-02  0.1266605E+00
        -11   -1    0    0    0    0  0.00000000000E+00  0.00000000000E+00  0.45593999997E+02  0.45594000000E+02  0.51100000000E-03 0. -1.
         11   -1    0    0    0    0 -0.00000000000E+00 -0.00000000000E+00 -0.45593999997E+02  0.45594000000E+02  0.51100000000E-03 0.  1.
    9900012    2    1    2    0    0  0.29624653686E+02 -0.40204110944E+01  0.11087722964E+02  0.59301930755E+02  0.49999975793E+02 0.  0.
        -12    1    1    2    0    0 -0.29624653686E+02  0.40204110944E+01 -0.11087722964E+02  0.31886069245E+02  0.00000000000E+00 0.  1.
         11    1    3    3    0    0  0.73673770169E+01  0.11435360330E+02  0.11943110986E+02  0.18102033319E+02  0.51100000000E-03 0. -1.
        -11    1    3    3    0    0 -0.75904122972E+01 -0.27987625302E+01  0.28300066013E+01  0.85706690618E+01  0.51100000000E-03 0.  1.
        -12    1    3    3    0    0  0.29847688966E+02 -0.12657008894E+02 -0.36853946233E+01  0.32629228374E+02  0.00000000000E+00 0.  1.
</event>
<event>
 7    1  0.3750159E-013  0.5930197E+02  0.7816164E-02  0.1266605E+00
        -11   -1    0    0    0    0  0.00000000000E+00  0.00000000000E+00  0.45593999997E+02  0.45594000000E+02  0.51100000000E-03 0.  1.
         11   -1    0    0    0    0 -0.00000000000E+00 -0.00000000000E+00 -0.45593999997E+02  0.45594000000E+02  0.51100000000E-03 0. -1.
    9900012    2    1    2    0    0 -0.69806121461E+01  0.85484842308E+01 -0.29915106577E+02  0.59301966535E+02  0.50000041049E+02 0.  0.
        -12    1    1    2    0    0  0.69806121461E+01 -0.85484842308E+01  0.29915106577E+02  0.31886033465E+02  0.00000000000E+00 0.  1.
         11    1    3    3    0    0 -0.88353595148E+01  0.15156862484E+02 -0.91034305941E+01  0.19765285401E+02  0.51100000000E-03 0. -1.
        -11    1    3    3    0    0 -0.69146472307E+01  0.40790295106E+01  0.55569605909E+01  0.97637410526E+01  0.51100000000E-03 0.  1.
         12    1    3    3    0    0  0.87693945994E+01 -0.10687407764E+02 -0.26368636574E+02  0.29772940082E+02  0.00000000000E+00 0. -1.
</event>
<event>
 7    1  0.3750159E-013  0.5930194E+02  0.7816164E-02  0.1266605E+00
        -11   -1    0    0    0    0  0.00000000000E+00  0.00000000000E+00  0.45593999997E+02  0.45594000000E+02  0.51100000000E-03 0. -1.
         11   -1    0    0    0    0 -0.00000000000E+00 -0.00000000000E+00 -0.45593999997E+02  0.45594000000E+02  0.51100000000E-03 0.  1.
    9900012    2    1    2    0    0  0.67181592435E+01 -0.29430357075E+02 -0.10268455914E+02  0.59301940851E+02  0.49999994207E+02 0.  0.
        -12    1    1    2    0    0 -0.67181592435E+01  0.29430357075E+02  0.10268455914E+02  0.31886059149E+02  0.00000000000E+00 0.  1.
         11    1    3    3    0    0  0.61638984373E+01 -0.22331830871E+02  0.11249579440E+02  0.25753783253E+02  0.51100000000E-03 0. -1.
        -11    1    3    3    0    0 -0.11399210816E+01 -0.16318595182E+02 -0.13347952003E+02  0.21113118948E+02  0.51100000000E-03 0.  1.
         12    1    3    3    0    0  0.16941818878E+01  0.92200689788E+01 -0.81700833515E+01  0.12435038649E+02  0.00000000000E+00 0. -1.
</event>
<event>
 7    1  0.3750159E-013  0.5930195E+02  0.7816164E-02  0.1266605E+00
        -11   -1    0    0    0    0  0.00000000000E+00  0.00000000000E+00  0.45593999997E+02  0.45594000000E+02  0.51100000000E-03 0. -1.
         11   -1    0    0    0    0 -0.00000000000E+00 -0.00000000000E+00 -0.45593999997E+02  0.45594000000E+02  0.51100000000E-03 0.  1.
    9900012    2    1    2    0    0  0.30417435827E+02 -0.64763739350E+01 -0.70396289364E+01  0.59301949803E+02  0.50000010532E+02 0.  0.
        -12    1    1    2    0    0 -0.30417435827E+02  0.64763739350E+01  0.70396289364E+01  0.31886050197E+02  0.00000000000E+00 0.  1.
         11    1    3    3    0    0  0.39451983022E+01 -0.19320490727E+02 -0.65806459119E+00  0.19730154608E+02  0.51100000000E-03 0. -1.
        -11    1    3    3    0    0  0.70116579650E+00 -0.55506960891E+01 -0.55760465105E+01  0.78989971196E+01  0.51100000000E-03 0.  1.
        -12    1    3    3    0    0  0.25771071728E+02  0.18394812881E+02 -0.80551783467E+00  0.31672798075E+02  0.00000000000E+00 0.  1.
</event>
<event>
 7    1  0.3750159E-013  0.5930191E+02  0.7816164E-02  0.1266605E+00
        -11   -1    0    0    0    0  0.00000000000E+00  0.00000000000E+00  0.45593999997E+02  0.45594000000E+02  0.51100000000E-03 0. -1.
         11   -1    0    0    0    0 -0.00000000000E+00 -0.00000000000E+00 -0.45593999997E+02  0.45594000000E+02  0.51100000000E-03 0.  1.
    9900012    2    1    2    0    0  0.65856131544E+00 -0.31870418315E+02 -0.75186005229E+00  0.59301912750E+02  0.49999942956E+02 0.  0.
        -12    1    1    2    0    0 -0.65856131544E+00  0.31870418315E+02  0.75186005229E+00  0.31886087250E+02  0.00000000000E+00 0.  1.
         11    1    3    3    0    0 -0.10097367005E+02 -0.11517535555E+02 -0.14454802472E+02  0.21060668566E+02  0.51100000000E-03 0. -1.
        -11    1    3    3    0    0  0.60186380705E+01  0.31409657371E+01 -0.45005594162E+01  0.81452259211E+01  0.51100000000E-03 0.  1.
        -12    1    3    3    0    0  0.47372902499E+01 -0.23493848498E+02  0.18203501836E+02  0.30096018262E+02  0.00000000000E+00 0.  1.
</event>
<event>
 7    1  0.3750159E-013  0.5930195E+02  0.7816164E-02  0.1266605E+00
        -11   -1    0    0    0    0  0.00000000000E+00  0.00000000000E+00  0.45593999997E+02  0.45594000000E+02  0.51100000000E-03 0.  1.
         11   -1    0    0    0    0 -0.00000000000E+00 -0.00000000000E+00 -0.45593999997E+02  0.45594000000E+02  0.51100000000E-03 0. -1.
    9900012    2    1    2    0    0 -0.40629516577E+01 -0.24239253134E+02 -0.20314312064E+02  0.59301949080E+02  0.50000009213E+02 0.  0.
        -12    1    1    2    0    0  0.40629516577E+01  0.24239253134E+02  0.20314312064E+02  0.31886050920E+02  0.00000000000E+00 0.  1.
         11    1    3    3    0    0 -0.32133774344E+01  0.16086507074E+01 -0.26756679972E+02  0.26996916028E+02  0.51100000000E-03 0. -1.
        -11    1    3    3    0    0 -0.30954498667E+01  0.20087003272E+01  0.11145502933E+01  0.38547256062E+01  0.51100000000E-03 0.  1.
         12    1    3    3    0    0  0.22458756433E+01 -0.27856604169E+02  0.53278176146E+01  0.28450307446E+02  0.00000000000E+00 0. -1.
</event>
<event>
 7    1  0.3750159E-013  0.5930180E+02  0.7816164E-02  0.1266605E+00
        -11   -1    0    0    0    0  0.00000000000E+00  0.00000000000E+00  0.45593999997E+02  0.45594000000E+02  0.51100000000E-03 0. -1.
         11   -1    0    0    0    0 -0.00000000000E+00 -0.00000000000E+00 -0.45593999997E+02  0.45594000000E+02  0.51100000000E-03 0.  1.
    9900012    2    1    2    0    0 -0.18963845185E+02  0.16706244696E+02  0.19442310516E+02  0.59301804331E+02  0.49999745226E+02 0.  0.
        -12    1    1    2    0    0  0.18963845185E+02 -0.16706244696E+02 -0.19442310516E+02  0.31886195669E+02  0.00000000000E+00 0.  1.
         11    1    3    3    0    0 -0.12296943521E+02  0.74247663763E+01  0.47812936910E+01  0.15139443362E+02  0.51100000000E-03 0. -1.
        -11    1    3    3    0    0 -0.32097382163E+01  0.25164532190E+02  0.80574316947E+01  0.26617255785E+02  0.51100000000E-03 0.  1.
         12    1    3    3    0    0 -0.34571634476E+01 -0.15883053870E+02  0.66035851303E+01  0.17545105184E+02  0.00000000000E+00 0. -1.
</event>
<event>
 7    1  0.3750159E-013  0.5930195E+02  0.7816164E-02  0.1266605E+00
        -11   -1    0    0    0    0  0.00000000000E+00  0.00000000000E+00  0.45593999997E+02  0.45594000000E+02  0.51100000000E-03 0.  1.
         11   -1    0    0    0    0 -0.00000000000E+00 -0.00000000000E+00 -0.45593999997E+02  0.45594000000E+02  0.51100000000E-03 0. -1.
    9900012    2    1    2    0    0  0.17036841734E+01  0.11975098437E+02 -0.29502791100E+02  0.59301949680E+02  0.50000010308E+02 0.  0.
        -12    1    1    2    0    0 -0.17036841734E+01 -0.11975098437E+02  0.29502791100E+02  0.31886050320E+02  0.00000000000E+00 0.  1.
         11    1    3    3    0    0 -0.37365278470E+01 -0.74319718926E+01 -0.38121710211E+01  0.91503275744E+01  0.51100000000E-03 0. -1.
        -11    1    3    3    0    0 -0.10939123865E+02  0.43134904095E+01  0.45373822018E+01  0.12603906853E+02  0.51100000000E-03 0.  1.
        -12    1    3    3    0    0  0.16379335885E+02  0.15093579920E+02 -0.30228002280E+02  0.37547715253E+02  0.00000000000E+00 0.  1.
</event>
<event>
 7    1  0.3750159E-013  0.5930196E+02  0.7816164E-02  0.1266605E+00
        -11   -1    0    0    0    0  0.00000000000E+00  0.00000000000E+00  0.45593999997E+02  0.45594000000E+02  0.51100000000E-03 0.  1.
         11   -1    0    0    0    0 -0.00000000000E+00 -0.00000000000E+00 -0.45593999997E+02  0.45594000000E+02  0.51100000000E-03 0. -1.
    9900012    2    1    2    0    0 -0.30496749264E+02 -0.47004303605E+01 -0.80357631006E+01  0.59301964658E+02  0.50000037624E+02 0.  0.
        -12    1    1    2    0    0  0.30496749264E+02  0.47004303605E+01  0.80357631006E+01  0.31886035342E+02  0.00000000000E+00 0.  1.
         11    1    3    3    0    0 -0.22959160518E+01  0.41061348815E+01 -0.31647047162E+01  0.56698263098E+01  0.51100000000E-03 0. -1.
        -11    1    3    3    0    0  0.75759289593E+01 -0.59566157668E+01  0.10795840462E+02  0.14471563238E+02  0.51100000000E-03 0.  1.
         12    1    3    3    0    0 -0.35776762171E+02 -0.28499494751E+01 -0.15666898847E+02  0.39160575110E+02  0.00000000000E+00 0. -1.
</event>
<event>
 7    1  0.3750159E-013  0.5930189E+02  0.7816164E-02  0.1266605E+00
        -11   -1    0    0    0    0  0.00000000000E+00  0.00000000000E+00  0.45593999997E+02  0.45594000000E+02  0.51100000000E-03 0.  1.
         11   -1    0    0    0    0 -0.00000000000E+00 -0.00000000000E+00 -0.45593999997E+02  0.45594000000E+02  0.51100000000E-03 0. -1.
    9900012    2    1    2    0    0 -0.39913521072E+01 -0.31091582278E+02 -0.58400815626E+01  0.59301891224E+02  0.49999903699E+02 0.  0.
        -12    1    1    2    0    0  0.39913521072E+01  0.31091582278E+02  0.58400815626E+01  0.31886108776E+02  0.00000000000E+00 0.  1.
         11    1    3    3    0    0  0.47747054739E+01 -0.24876688567E+02  0.14885013335E+01  0.25374457292E+02  0.51100000000E-03 0. -1.
        -11    1    3    3    0    0  0.24897209836E+00 -0.16099311650E+02  0.37794979482E+01  0.16538876253E+02  0.51100000000E-03 0.  1.
        -12    1    3    3    0    0 -0.90150296795E+01  0.98844179383E+01 -0.11108080844E+02  0.17388557679E+02  0.00000000000E+00 0.  1.
</event>
<event>
 7    1  0.3750159E-013  0.5930194E+02  0.7816164E-02  0.1266605E+00
        -11   -1    0    0    0    0  0.00000000000E+00  0.00000000000E+00  0.45593999997E+02  0.45594000000E+02  0.51100000000E-03 0.  1.
         11   -1    0    0    0    0 -0.00000000000E+00 -0.00000000000E+00 -0.45593999997E+02  0.45594000000E+02  0.51100000000E-03 0. -1.
    9900012    2    1    2    0    0 -0.28857924310E+02 -0.13538089650E+02  0.81309797132E+00  0.59301940426E+02  0.49999993431E+02 0.  0.
        -12    1    1    2    0    0  0.28857924310E+02  0.13538089650E+02 -0.81309797132E+00  0.31886059574E+02  0.00000000000E+00 0.  1.
         11    1    3    3    0    0 -0.66354627679E+01  0.67092494818E+01  0.56388832658E+01  0.10992743038E+02  0.51100000000E-03 0. -1.
        -11    1    3    3    0    0 -0.13820140605E+02 -0.16354874340E+02  0.15191505532E+02  0.26253762427E+02  0.51100000000E-03 0.  1.
         12    1    3    3    0    0 -0.84023209370E+01 -0.38924647920E+01 -0.20017290826E+02  0.22055434961E+02  0.00000000000E+00 0. -1.
</event>
<event>
 7    1  0.3750159E-013  0.5930194E+02  0.7816164E-02  0.1266605E+00
        -11   -1    0    0    0    0  0.00000000000E+00  0.00000000000E+00  0.45593999997E+02  0.45594000000E+02  0.51100000000E-03 0. -1.
         11   -1    0    0    0    0 -0.00000000000E+00 -0.00000000000E+00 -0.45593999997E+02  0.45594000000E+02  0.51100000000E-03 0.  1.
    9900012    2    1    2    0    0 -0.23256311487E+02 -0.75383563659E+01  0.20470411954E+02  0.59301943389E+02  0.49999998834E+02 0.  0.
        -12    1    1    2    0    0  0.23256311487E+02  0.75383563659E+01 -0.20470411954E+02  0.31886056611E+02  0.00000000000E+00 0.  1.
         11    1    3    3    0    0  0.72624145061E+01 -0.94482522609E+00  0.21100867238E+01  0.76215369454E+01  0.51100000000E-03 0.  1.
        -11    1    3    3    0    0 -0.36134676917E+02  0.23210681779E+01  0.19425218656E+02  0.41090648005E+02  0.51100000000E-03 0. -1.
         12    1    3    3    0    0  0.56159509239E+01 -0.89145993178E+01 -0.10648934260E+01  0.10589758438E+02  0.00000000000E+00 0. -1.
</event>
<event>
 7    1  0.3750159E-013  0.5930198E+02  0.7816164E-02  0.1266605E+00
        -11   -1    0    0    0    0  0.00000000000E+00  0.00000000000E+00  0.45593999997E+02  0.45594000000E+02  0.51100000000E-03 0.  1.
         11   -1    0    0    0    0 -0.00000000000E+00 -0.00000000000E+00 -0.45593999997E+02  0.45594000000E+02  0.51100000000E-03 0. -1.
    9900012    2    1    2    0    0 -0.29283993905E+02  0.95736791605E+01 -0.82164763573E+01  0.59301982446E+02  0.50000070066E+02 0.  0.
        -12    1    1    2    0    0  0.29283993905E+02 -0.95736791605E+01  0.82164763573E+01  0.31886017554E+02  0.00000000000E+00 0.  1.
         11    1    3    3    0    0 -0.11397854598E+01  0.85646051473E+01  0.70263363915E+00  0.86686369468E+01  0.51100000000E-03 0. -1.
        -11    1    3    3    0    0  0.40052194468E+01 -0.33116974129E+01  0.11280257379E+02  0.12419876383E+02  0.51100000000E-03 0.  1.
        -12    1    3    3    0    0 -0.32149427892E+02  0.43207714261E+01 -0.20199367376E+02  0.38213469116E+02  0.00000000000E+00 0.  1.
</event>
<event>
 7    1  0.3750159E-013  0.5930194E+02  0.7816164E-02  0.1266605E+00
        -11   -1    0    0    0    0  0.00000000000E+00  0.00000000000E+00  0.45593999997E+02  0.45594000000E+02  0.51100000000E-03 0.  1.
         11   -1    0    0    0    0 -0.00000000000E+00 -0.00000000000E+00 -0.45593999997E+02  0.45594000000E+02  0.51100000000E-03 0. -1.
    9900012    2    1    2    0    0 -0.15271367909E+02  0.27167249545E+02 -0.67414255669E+01  0.59301938087E+02  0.49999989166E+02 0.  0.
        -12    1    1    2    0    0  0.15271367909E+02 -0.27167249545E+02  0.67414255669E+01  0.31886061913E+02  0.00000000000E+00 0.  1.
         11    1    3    3    0    0 -0.22280108123E+02  0.14191254810E+02 -0.12315748546E+02  0.29145713125E+02  0.51100000000E-03 0. -1.
        -11    1    3    3    0    0  0.81320553998E+01  0.13250002255E+01 -0.85085712349E+01  0.11844059074E+02  0.51100000000E-03 0.  1.
        -12    1    3    3    0    0 -0.11233151861E+01  0.11650994510E+02  0.14082894214E+02  0.18312165888E+02  0.00000000000E+00 0.  1.
</event>
<event>
 7    1  0.3750159E-013  0.5930194E+02  0.7816164E-02  0.1266605E+00
        -11   -1    0    0    0    0  0.00000000000E+00  0.00000000000E+00  0.45593999997E+02  0.45594000000E+02  0.51100000000E-03 0. -1.
         11   -1    0    0    0    0 -0.00000000000E+00 -0.00000000000E+00 -0.45593999997E+02  0.45594000000E+02  0.51100000000E-03 0.  1.
    9900012    2    1    2    0    0 -0.28356061670E+02 -0.13602616119E+02  0.52558144137E+01  0.59301937467E+02  0.49999988035E+02 0.  0.
        -12    1    1    2    0    0  0.28356061670E+02  0.13602616119E+02 -0.52558144137E+01  0.31886062533E+02  0.00000000000E+00 0.  1.
         11    1    3    3    0    0 -0.17735435524E+02 -0.18139575866E+02  0.88447054103E+01  0.26866683827E+02  0.51100000000E-03 0. -1.
        -11    1    3    3    0    0  0.23113348424E+00 -0.52574689634E+01 -0.13689990557E+02  0.14666637116E+02  0.51100000000E-03 0.  1.
         12    1    3    3    0    0 -0.10851759630E+02  0.97944287104E+01  0.10101099561E+02  0.17768616523E+02  0.00000000000E+00 0. -1.
</event>
<event>
 7    1  0.3750159E-013  0.5930195E+02  0.7816164E-02  0.1266605E+00
        -11   -1    0    0    0    0  0.00000000000E+00  0.00000000000E+00  0.45593999997E+02  0.45594000000E+02  0.51100000000E-03 0. -1.
         11   -1    0    0    0    0 -0.00000000000E+00 -0.00000000000E+00 -0.45593999997E+02  0.45594000000E+02  0.51100000000E-03 0.  1.
    9900012    2    1    2    0    0 -0.27417707313E+02  0.12324200232E+02  0.10635031778E+02  0.59301945265E+02  0.50000002256E+02 0.  0.
        -12    1    1    2    0    0  0.27417707313E+02 -0.12324200232E+02 -0.10635031778E+02  0.31886054735E+02  0.00000000000E+00 0.  1.
         11    1    3    3    0    0  0.65062106250E+01 -0.30931195762E+01  0.57938145688E+01  0.92448068086E+01  0.51100000000E-03 0.  1.
        -11    1    3    3    0    0 -0.96081107815E+01  0.61008503139E+01  0.17678413705E+02  0.21025281895E+02  0.51100000000E-03 0. -1.
         12    1    3    3    0    0 -0.24315807157E+02  0.93164694944E+01 -0.12837196497E+02  0.29031856562E+02  0.00000000000E+00 0. -1.
</event>
<event>
 7    1  0.3750159E-013  0.5930195E+02  0.7816164E-02  0.1266605E+00
        -11   -1    0    0    0    0  0.00000000000E+00  0.00000000000E+00  0.45593999997E+02  0.45594000000E+02  0.51100000000E-03 0.  1.
         11   -1    0    0    0    0 -0.00000000000E+00 -0.00000000000E+00 -0.45593999997E+02  0.45594000000E+02  0.51100000000E-03 0. -1.
    9900012    2    1    2    0    0  0.30415787493E+01  0.90572341040E+00 -0.31727727001E+02  0.59301949808E+02  0.50000010542E+02 0.  0.
        -12    1    1    2    0    0 -0.30415787493E+01 -0.90572341040E+00  0.31727727001E+02  0.31886050192E+02  0.00000000000E+00 0.  1.
         11    1    3    3    0    0 -0.15672931299E+02  0.15740359629E+02 -0.13805228611E+02  0.26153088422E+02  0.51100000000E-03 0. -1.
        -11    1    3    3    0    0  0.29856630836E+01 -0.91243369786E+01 -0.15252573517E+01  0.97208085877E+01  0.51100000000E-03 0.  1.
        -12    1    3    3    0    0  0.15728846965E+02 -0.57102992398E+01 -0.16397241038E+02  0.23428052798E+02  0.00000000000E+00 0.  1.
</event>
<event>
 7    1  0.3750159E-013  0.5930197E+02  0.7816164E-02  0.1266605E+00
        -11   -1    0    0    0    0  0.00000000000E+00  0.00000000000E+00  0.45593999997E+02  0.45594000000E+02  0.51100000000E-03 0. -1.
         11   -1    0    0    0    0 -0.00000000000E+00 -0.00000000000E+00 -0.45593999997E+02  0.45594000000E+02  0.51100000000E-03 0.  1.
    9900012    2    1    2    0    0  0.20106659298E+02 -0.24746622174E+02 -0.21394978507E+00  0.59301971216E+02  0.50000049584E+02 0.  0.
        -12    1    1    2    0    0 -0.20106659298E+02  0.24746622174E+02  0.21394978507E+00  0.31886028784E+02  0.00000000000E+00 0.  1.
         11    1    3    3    0    0  0.11142302033E+02 -0.23874240411E+01  0.16403437409E+02  0.19973068047E+02  0.51100000000E-03 0. -1.
        -11    1    3    3    0    0  0.10370164363E+02 -0.18446270280E+02  0.10416143479E+01  0.21187028033E+02  0.51100000000E-03 0.  1.
        -12    1    3    3    0    0 -0.14058070978E+01 -0.39129278523E+01 -0.17659001542E+02  0.18141875135E+02  0.00000000000E+00 0.  1.
</event>
<event>
 7    1  0.3750159E-013  0.5930186E+02  0.7816164E-02  0.1266605E+00
        -11   -1    0    0    0    0  0.00000000000E+00  0.00000000000E+00  0.45593999997E+02  0.45594000000E+02  0.51100000000E-03 0.  1.
         11   -1    0    0    0    0 -0.00000000000E+00 -0.00000000000E+00 -0.45593999997E+02  0.45594000000E+02  0.51100000000E-03 0. -1.
    9900012    2    1    2    0    0 -0.10371348822E+02 -0.22184622737E+02 -0.20420668843E+02  0.59301857581E+02  0.49999842342E+02 0.  0.
        -12    1    1    2    0    0  0.10371348822E+02  0.22184622737E+02  0.20420668843E+02  0.31886142419E+02  0.00000000000E+00 0.  1.
         11    1    3    3    0    0  0.10026997140E+02 -0.10260773331E+02 -0.77046756436E+01  0.16284537698E+02  0.51100000000E-03 0. -1.
        -11    1    3    3    0    0 -0.89198051547E+00  0.93974320701E+01  0.32729105270E+01  0.99909610314E+01  0.51100000000E-03 0.  1.
         12    1    3    3    0    0 -0.19506365446E+02 -0.21321281475E+02 -0.15988903726E+02  0.33026358852E+02  0.00000000000E+00 0. -1.
</event>
<event>
 7    1  0.3750159E-013  0.5930194E+02  0.7816164E-02  0.1266605E+00
        -11   -1    0    0    0    0  0.00000000000E+00  0.00000000000E+00  0.45593999997E+02  0.45594000000E+02  0.51100000000E-03 0.  1.
         11   -1    0    0    0    0 -0.00000000000E+00 -0.00000000000E+00 -0.45593999997E+02  0.45594000000E+02  0.51100000000E-03 0. -1.
    9900012    2    1    2    0    0  0.17384427250E+01 -0.27708853595E+02 -0.15681774398E+02  0.59301940367E+02  0.49999993324E+02 0.  0.
        -12    1    1    2    0    0 -0.17384427250E+01  0.27708853595E+02  0.15681774398E+02  0.31886059633E+02  0.00000000000E+00 0.  1.
         11    1    3    3    0    0 -0.55631804650E+01  0.83311357802E+01  0.56590221081E+00  0.10033795187E+02  0.51100000000E-03 0. -1.
        -11    1    3    3    0    0 -0.40822511566E+01  0.10004210293E+00  0.44938454493E+01  0.60720202660E+01  0.51100000000E-03 0.  1.
         12    1    3    3    0    0  0.11383874347E+02 -0.36140031478E+02 -0.20741522058E+02  0.43196124915E+02  0.00000000000E+00 0. -1.
</event>
<event>
 7    1  0.3750159E-013  0.5930195E+02  0.7816164E-02  0.1266605E+00
        -11   -1    0    0    0    0  0.00000000000E+00  0.00000000000E+00  0.45593999997E+02  0.45594000000E+02  0.51100000000E-03 0.  1.
         11   -1    0    0    0    0 -0.00000000000E+00 -0.00000000000E+00 -0.45593999997E+02  0.45594000000E+02  0.51100000000E-03 0. -1.
    9900012    2    1    2    0    0  0.91931887632E+01 -0.11516474623E+02 -0.28276779456E+02  0.59301950326E+02  0.50000011487E+02 0.  0.
        -12    1    1    2    0    0 -0.91931887632E+01  0.11516474623E+02  0.28276779456E+02  0.31886049674E+02  0.00000000000E+00 0.  1.
         11    1    3    3    0    0 -0.74390574180E+01 -0.45887290457E+00 -0.56685038927E+01  0.93638707944E+01  0.51100000000E-03 0. -1.
        -11    1    3    3    0    0 -0.52230854506E+01  0.32952803757E+01  0.77255525909E+01  0.98905842838E+01  0.51100000000E-03 0.  1.
         12    1    3    3    0    0  0.21855331632E+02 -0.14352882094E+02 -0.30333828154E+02  0.40047495248E+02  0.00000000000E+00 0. -1.
</event>
<event>
 7    1  0.3750159E-013  0.5930194E+02  0.7816164E-02  0.1266605E+00
        -11   -1    0    0    0    0  0.00000000000E+00  0.00000000000E+00  0.45593999997E+02  0.45594000000E+02  0.51100000000E-03 0.  1.
         11   -1    0    0    0    0 -0.00000000000E+00 -0.00000000000E+00 -0.45593999997E+02  0.45594000000E+02  0.51100000000E-03 0. -1.
    9900012    2    1    2    0    0 -0.29901658565E+02 -0.40772012417E+01 -0.10295060552E+02  0.59301936795E+02  0.49999986810E+02 0.  0.
        -12    1    1    2    0    0  0.29901658565E+02  0.40772012417E+01  0.10295060552E+02  0.31886063205E+02  0.00000000000E+00 0.  1.
         11    1    3    3    0    0 -0.14420763175E+01  0.68783435552E+01  0.82835169475E+01  0.10863141693E+02  0.51100000000E-03 0. -1.
        -11    1    3    3    0    0 -0.10992895044E+01  0.75016670138E+01  0.38814084013E+01  0.85175569760E+01  0.51100000000E-03 0.  1.
         12    1    3    3    0    0 -0.27360292743E+02 -0.18457211811E+02 -0.22459985901E+02  0.39921238126E+02  0.00000000000E+00 0. -1.
</event>
<event>
 7    1  0.3750159E-013  0.5930193E+02  0.7816164E-02  0.1266605E+00
        -11   -1    0    0    0    0  0.00000000000E+00  0.00000000000E+00  0.45593999997E+02  0.45594000000E+02  0.51100000000E-03 0. -1.
         11   -1    0    0    0    0 -0.00000000000E+00 -0.00000000000E+00 -0.45593999997E+02  0.45594000000E+02  0.51100000000E-03 0.  1.
    9900012    2    1    2    0    0  0.15842788960E+02  0.27228795039E+02 -0.49315237370E+01  0.59301934585E+02  0.49999982778E+02 0.  0.
        -12    1    1    2    0    0 -0.15842788960E+02 -0.27228795039E+02  0.49315237370E+01  0.31886065415E+02  0.00000000000E+00 0.  1.
         11    1    3    3    0    0  0.20365105822E+02  0.12280880387E+02  0.41496097539E+01  0.24140770899E+02  0.51100000000E-03 0. -1.
        -11    1    3    3    0    0  0.27439263138E+01  0.20618160004E+02 -0.13645113148E+02  0.24876228948E+02  0.51100000000E-03 0.  1.
        -12    1    3    3    0    0 -0.72662431763E+01 -0.56702453522E+01  0.45639796576E+01  0.10284934738E+02  0.00000000000E+00 0.  1.
</event>
<event>
 7    1  0.3750159E-013  0.5930196E+02  0.7816164E-02  0.1266605E+00
        -11   -1    0    0    0    0  0.00000000000E+00  0.00000000000E+00  0.45593999997E+02  0.45594000000E+02  0.51100000000E-03 0. -1.
         11   -1    0    0    0    0 -0.00000000000E+00 -0.00000000000E+00 -0.45593999997E+02  0.45594000000E+02  0.51100000000E-03 0.  1.
    9900012    2    1    2    0    0 -0.27932222485E+02  0.25413394573E+01  0.15167465753E+02  0.59301961102E+02  0.50000031140E+02 0.  0.
        -12    1    1    2    0    0  0.27932222485E+02 -0.25413394573E+01 -0.15167465753E+02  0.31886038898E+02  0.00000000000E+00 0.  1.
         11    1    3    3    0    0 -0.38192658202E+01 -0.79570774878E-01  0.12679204325E+02  0.13242180541E+02  0.51100000000E-03 0. -1.
        -11    1    3    3    0    0 -0.15768707485E+02 -0.17861242956E+02  0.21812865847E+00  0.23826953562E+02  0.51100000000E-03 0.  1.
         12    1    3    3    0    0 -0.83442491797E+01  0.20482153188E+02  0.22701327701E+01  0.22232826999E+02  0.00000000000E+00 0. -1.
</event>
<event>
 7    1  0.3750159E-013  0.5930198E+02  0.7816164E-02  0.1266605E+00
        -11   -1    0    0    0    0  0.00000000000E+00  0.00000000000E+00  0.45593999997E+02  0.45594000000E+02  0.51100000000E-03 0.  1.
         11   -1    0    0    0    0 -0.00000000000E+00 -0.00000000000E+00 -0.45593999997E+02  0.45594000000E+02  0.51100000000E-03 0. -1.
    9900012    2    1    2    0    0 -0.37672664804E+01 -0.19523711145E+02 -0.24926910985E+02  0.59301976653E+02  0.50000059501E+02 0.  0.
        -12    1    1    2    0    0  0.37672664804E+01  0.19523711145E+02  0.24926910985E+02  0.31886023347E+02  0.00000000000E+00 0.  1.
         11    1    3    3    0    0 -0.38720281630E+01 -0.58379890558E+00 -0.21117925174E+02  0.21477899971E+02  0.51100000000E-03 0.  1.
        -11    1    3    3    0    0 -0.35828779502E+01  0.63425235098E+01 -0.91765606596E+01  0.11716393843E+02  0.51100000000E-03 0. -1.
        -12    1    3    3    0    0  0.36876396328E+01 -0.25282435749E+02  0.53675748482E+01  0.26107682839E+02  0.00000000000E+00 0.  1.
</event>
<event>
 7    1  0.3750159E-013  0.5930193E+02  0.7816164E-02  0.1266605E+00
        -11   -1    0    0    0    0  0.00000000000E+00  0.00000000000E+00  0.45593999997E+02  0.45594000000E+02  0.51100000000E-03 0.  1.
         11   -1    0    0    0    0 -0.00000000000E+00 -0.00000000000E+00 -0.45593999997E+02  0.45594000000E+02  0.51100000000E-03 0. -1.
    9900012    2    1    2    0    0  0.75567170794E+01  0.11832226962E+02 -0.28628931531E+02  0.59301932690E+02  0.49999979323E+02 0.  0.
        -12    1    1    2    0    0 -0.75567170794E+01 -0.11832226962E+02  0.28628931531E+02  0.31886067310E+02  0.00000000000E+00 0.  1.
         11    1    3    3    0    0  0.18746638194E+02  0.92203226890E+01 -0.14004376488E+02  0.25151011016E+02  0.51100000000E-03 0. -1.
        -11    1    3    3    0    0 -0.35089222951E+00 -0.72046768388E-01  0.84810196163E+01  0.84885811586E+01  0.51100000000E-03 0.  1.
         12    1    3    3    0    0 -0.10839028885E+02  0.26839510413E+01 -0.23105574659E+02  0.25662340515E+02  0.00000000000E+00 0. -1.
</event>
<event>
 7    1  0.3750159E-013  0.5930193E+02  0.7816164E-02  0.1266605E+00
        -11   -1    0    0    0    0  0.00000000000E+00  0.00000000000E+00  0.45593999997E+02  0.45594000000E+02  0.51100000000E-03 0. -1.
         11   -1    0    0    0    0 -0.00000000000E+00 -0.00000000000E+00 -0.45593999997E+02  0.45594000000E+02  0.51100000000E-03 0.  1.
    9900012    2    1    2    0    0  0.59827114582E+01  0.31257494989E+02 -0.19742972672E+01  0.59301926565E+02  0.49999968152E+02 0.  0.
        -12    1    1    2    0    0 -0.59827114582E+01 -0.31257494989E+02  0.19742972672E+01  0.31886073435E+02  0.00000000000E+00 0.  1.
         11    1    3    3    0    0  0.81660493476E+01  0.10204372177E+02  0.94815463487E+01  0.16146618683E+02  0.51100000000E-03 0. -1.
        -11    1    3    3    0    0 -0.23690756736E+01 -0.12341977410E+01  0.11116857228E+02  0.11433296922E+02  0.51100000000E-03 0.  1.
        -12    1    3    3    0    0  0.18573778425E+00  0.22287320553E+02 -0.22572700844E+02  0.31722010960E+02  0.00000000000E+00 0.  1.
</event>
<event>
 7    1  0.3750159E-013  0.5930191E+02  0.7816164E-02  0.1266605E+00
        -11   -1    0    0    0    0  0.00000000000E+00  0.00000000000E+00  0.45593999997E+02  0.45594000000E+02  0.51100000000E-03 0.  1.
         11   -1    0    0    0    0 -0.00000000000E+00 -0.00000000000E+00 -0.45593999997E+02  0.45594000000E+02  0.51100000000E-03 0. -1.
    9900012    2    1    2    0    0 -0.29073832663E+02 -0.10728483646E+02  0.75056462595E+01  0.59301908473E+02  0.49999935157E+02 0.  0.
        -12    1    1    2    0    0  0.29073832663E+02  0.10728483646E+02 -0.75056462595E+01  0.31886091527E+02  0.00000000000E+00 0.  1.
         11    1    3    3    0    0 -0.78104272732E+01 -0.12839202474E+02 -0.58468541652E+01  0.16125557301E+02  0.51100000000E-03 0. -1.
        -11    1    3    3    0    0 -0.28917184814E+02 -0.59388606533E+01  0.68483619127E+01  0.30304681232E+02  0.51100000000E-03 0.  1.
        -12    1    3    3    0    0  0.76537794237E+01  0.80495794811E+01  0.65041385120E+01  0.12871669941E+02  0.00000000000E+00 0.  1.
</event>
<event>
 7    1  0.3750159E-013  0.5930194E+02  0.7816164E-02  0.1266605E+00
        -11   -1    0    0    0    0  0.00000000000E+00  0.00000000000E+00  0.45593999997E+02  0.45594000000E+02  0.51100000000E-03 0.  1.
         11   -1    0    0    0    0 -0.00000000000E+00 -0.00000000000E+00 -0.45593999997E+02  0.45594000000E+02  0.51100000000E-03 0. -1.
    9900012    2    1    2    0    0  0.30143223202E+01  0.27476596231E+02 -0.15895647789E+02  0.59301935675E+02  0.49999984767E+02 0.  0.
        -12    1    1    2    0    0 -0.30143223202E+01 -0.27476596231E+02  0.15895647789E+02  0.31886064325E+02  0.00000000000E+00 0.  1.
         11    1    3    3    0    0  0.14060998331E+00  0.22253027365E+02 -0.37062663968E+01  0.22559995765E+02  0.51100000000E-03 0. -1.
        -11    1    3    3    0    0  0.16258260547E+02  0.11412687036E+02 -0.60101003053E+01  0.20753355568E+02  0.51100000000E-03 0.  1.
        -12    1    3    3    0    0 -0.13384548210E+02 -0.61891181697E+01 -0.61792810867E+01  0.15988584342E+02  0.00000000000E+00 0.  1.
</event>
<event>
 7    1  0.3750159E-013  0.5930199E+02  0.7816164E-02  0.1266605E+00
        -11   -1    0    0    0    0  0.00000000000E+00  0.00000000000E+00  0.45593999997E+02  0.45594000000E+02  0.51100000000E-03 0. -1.
         11   -1    0    0    0    0 -0.00000000000E+00 -0.00000000000E+00 -0.45593999997E+02  0.45594000000E+02  0.51100000000E-03 0.  1.
    9900012    2    1    2    0    0 -0.22428732599E+02  0.18312124556E+02  0.13354232167E+02  0.59301992590E+02  0.50000088566E+02 0.  0.
        -12    1    1    2    0    0  0.22428732599E+02 -0.18312124556E+02 -0.13354232167E+02  0.31886007410E+02  0.00000000000E+00 0.  1.
         11    1    3    3    0    0 -0.70471437716E+01  0.11011478672E+01  0.10068751620E+02  0.12339145894E+02  0.51100000000E-03 0. -1.
        -11    1    3    3    0    0  0.55282315421E+01  0.13984647315E+02  0.16257195229E+02  0.22145611337E+02  0.51100000000E-03 0.  1.
        -12    1    3    3    0    0 -0.20909820369E+02  0.32263293742E+01 -0.12971714681E+02  0.24817235359E+02  0.00000000000E+00 0.  1.
</event>
<event>
 7    1  0.3750159E-013  0.5930197E+02  0.7816164E-02  0.1266605E+00
        -11   -1    0    0    0    0  0.00000000000E+00  0.00000000000E+00  0.45593999997E+02  0.45594000000E+02  0.51100000000E-03 0. -1.
         11   -1    0    0    0    0 -0.00000000000E+00 -0.00000000000E+00 -0.45593999997E+02  0.45594000000E+02  0.51100000000E-03 0.  1.
    9900012    2    1    2    0    0  0.18429539902E+02  0.24473690203E+02  0.88379443959E+01  0.59301973056E+02  0.50000052941E+02 0.  0.
        -12    1    1    2    0    0 -0.18429539902E+02 -0.24473690203E+02 -0.88379443959E+01  0.31886026944E+02  0.00000000000E+00 0.  1.
         11    1    3    3    0    0  0.13911216890E+02  0.95489673032E+01  0.78938126476E+01  0.18628392585E+02  0.51100000000E-03 0. -1.
        -11    1    3    3    0    0 -0.10697534836E+02  0.16567937338E+02 -0.97531311693E+01  0.22001303758E+02  0.51100000000E-03 0.  1.
         12    1    3    3    0    0  0.15215857847E+02 -0.16432144381E+01  0.10697262918E+02  0.18672276713E+02  0.00000000000E+00 0. -1.
</event>
<event>
 7    1  0.3750159E-013  0.5930195E+02  0.7816164E-02  0.1266605E+00
        -11   -1    0    0    0    0  0.00000000000E+00  0.00000000000E+00  0.45593999997E+02  0.45594000000E+02  0.51100000000E-03 0.  1.
         11   -1    0    0    0    0 -0.00000000000E+00 -0.00000000000E+00 -0.45593999997E+02  0.45594000000E+02  0.51100000000E-03 0. -1.
    9900012    2    1    2    0    0 -0.27003157993E+02 -0.15496652520E+02 -0.68850311779E+01  0.59301946070E+02  0.50000003724E+02 0.  0.
        -12    1    1    2    0    0  0.27003157993E+02  0.15496652520E+02  0.68850311779E+01  0.31886053930E+02  0.00000000000E+00 0.  1.
         11    1    3    3    0    0 -0.13711857769E+02  0.83133377765E+01 -0.16631248570E+02  0.23102490292E+02  0.51100000000E-03 0. -1.
        -11    1    3    3    0    0  0.14307605654E+01 -0.58879821416E+01 -0.57115429356E+01  0.83268921250E+01  0.51100000000E-03 0.  1.
        -12    1    3    3    0    0 -0.14722060790E+02 -0.17922008155E+02  0.15457760327E+02  0.27872563652E+02  0.00000000000E+00 0.  1.
</event>
<event>
 7    1  0.3750159E-013  0.5930202E+02  0.7816164E-02  0.1266604E+00
        -11   -1    0    0    0    0  0.00000000000E+00  0.00000000000E+00  0.45593999997E+02  0.45594000000E+02  0.51100000000E-03 0.  1.
         11   -1    0    0    0    0 -0.00000000000E+00 -0.00000000000E+00 -0.45593999997E+02  0.45594000000E+02  0.51100000000E-03 0. -1.
    9900012    2    1    2    0    0  0.12409069385E+02  0.28612755516E+02 -0.66363296218E+01  0.59302021074E+02  0.50000140514E+02 0.  0.
        -12    1    1    2    0    0 -0.12409069385E+02 -0.28612755516E+02  0.66363296218E+01  0.31885978926E+02  0.00000000000E+00 0.  1.
         11    1    3    3    0    0 -0.34117128603E+01  0.10917886539E+02 -0.41845047755E+01  0.12179906058E+02  0.51100000000E-03 0. -1.
        -11    1    3    3    0    0 -0.10981518742E+02  0.85219605778E+01 -0.10784762274E+02  0.17593426714E+02  0.51100000000E-03 0.  1.
         12    1    3    3    0    0  0.26802300987E+02  0.91729083992E+01  0.83329374275E+01  0.29528688302E+02  0.00000000000E+00 0. -1.
</event>
<event>
 7    1  0.3750159E-013  0.5930194E+02  0.7816164E-02  0.1266605E+00
        -11   -1    0    0    0    0  0.00000000000E+00  0.00000000000E+00  0.45593999997E+02  0.45594000000E+02  0.51100000000E-03 0.  1.
         11   -1    0    0    0    0 -0.00000000000E+00 -0.00000000000E+00 -0.45593999997E+02  0.45594000000E+02  0.51100000000E-03 0. -1.
    9900012    2    1    2    0    0  0.20442171942E+02 -0.15294591855E+01 -0.24423328060E+02  0.59301943602E+02  0.49999999223E+02 0.  0.
        -12    1    1    2    0    0 -0.20442171942E+02  0.15294591855E+01  0.24423328060E+02  0.31886056398E+02  0.00000000000E+00 0.  1.
         11    1    3    3    0    0 -0.40561812109E+01 -0.16291774962E+01 -0.17357050089E+02  0.17898994759E+02  0.51100000000E-03 0. -1.
        -11    1    3    3    0    0  0.15380333942E+02 -0.76557247194E+00 -0.20194191920E+02  0.25395790221E+02  0.51100000000E-03 0.  1.
        -12    1    3    3    0    0  0.91180192106E+01  0.86529078269E+00  0.13127913950E+02  0.16007158621E+02  0.00000000000E+00 0.  1.
</event>
<event>
 7    1  0.3750159E-013  0.5930196E+02  0.7816164E-02  0.1266605E+00
        -11   -1    0    0    0    0  0.00000000000E+00  0.00000000000E+00  0.45593999997E+02  0.45594000000E+02  0.51100000000E-03 0.  1.
         11   -1    0    0    0    0 -0.00000000000E+00 -0.00000000000E+00 -0.45593999997E+02  0.45594000000E+02  0.51100000000E-03 0. -1.
    9900012    2    1    2    0    0  0.30697035366E+02 -0.73274184023E+01  0.45519569203E+01  0.59301963048E+02  0.50000034688E+02 0.  0.
        -12    1    1    2    0    0 -0.30697035366E+02  0.73274184023E+01 -0.45519569203E+01  0.31886036952E+02  0.00000000000E+00 0.  1.
         11    1    3    3    0    0  0.21578888959E+02 -0.13512056445E+02 -0.16307995809E+01  0.25512421007E+02  0.51100000000E-03 0. -1.
        -11    1    3    3    0    0  0.11035070991E+02 -0.97142960647E+01  0.94075387003E+01  0.17454000242E+02  0.51100000000E-03 0.  1.
        -12    1    3    3    0    0 -0.19169245842E+01  0.15898934108E+02 -0.32247821991E+01  0.16335541799E+02  0.00000000000E+00 0.  1.
</event>
<event>
 7    1  0.3750159E-013  0.5930195E+02  0.7816164E-02  0.1266605E+00
        -11   -1    0    0    0    0  0.00000000000E+00  0.00000000000E+00  0.45593999997E+02  0.45594000000E+02  0.51100000000E-03 0.  1.
         11   -1    0    0    0    0 -0.00000000000E+00 -0.00000000000E+00 -0.45593999997E+02  0.45594000000E+02  0.51100000000E-03 0. -1.
    9900012    2    1    2    0    0  0.18515770293E+02  0.79941879283E+01 -0.24697757050E+02  0.59301952997E+02  0.50000016358E+02 0.  0.
        -12    1    1    2    0    0 -0.18515770293E+02 -0.79941879283E+01  0.24697757050E+02  0.31886047003E+02  0.00000000000E+00 0.  1.
         11    1    3    3    0    0 -0.22225219540E+01 -0.96936188418E+01 -0.14779734848E+02  0.17814219391E+02  0.51100000000E-03 0. -1.
        -11    1    3    3    0    0  0.18327555360E+02  0.55682574538E+01 -0.18351620742E+02  0.26527094840E+02  0.51100000000E-03 0.  1.
        -12    1    3    3    0    0  0.24107368869E+01  0.12119549316E+02  0.84335985391E+01  0.14960638766E+02  0.00000000000E+00 0.  1.
</event>
<event>
 7    1  0.3750159E-013  0.5930195E+02  0.7816164E-02  0.1266605E+00
        -11   -1    0    0    0    0  0.00000000000E+00  0.00000000000E+00  0.45593999997E+02  0.45594000000E+02  0.51100000000E-03 0.  1.
         11   -1    0    0    0    0 -0.00000000000E+00 -0.00000000000E+00 -0.45593999997E+02  0.45594000000E+02  0.51100000000E-03 0. -1.
    9900012    2    1    2    0    0 -0.61269965439E+01 -0.30233998882E+02 -0.80675690103E+01  0.59301945920E+02  0.50000003452E+02 0.  0.
        -12    1    1    2    0    0  0.61269965439E+01  0.30233998882E+02  0.80675690103E+01  0.31886054080E+02  0.00000000000E+00 0.  1.
         11    1    3    3    0    0 -0.19317899869E+02 -0.47741845954E+01  0.69662951956E+01  0.21083248396E+02  0.51100000000E-03 0. -1.
        -11    1    3    3    0    0 -0.37389035488E+01 -0.13009700419E+01  0.16937023842E+01  0.43058739908E+01  0.51100000000E-03 0.  1.
        -12    1    3    3    0    0  0.16929806874E+02 -0.24158844245E+02 -0.16727566590E+02  0.33912823534E+02  0.00000000000E+00 0.  1.
</event>
<event>
 7    1  0.3750159E-013  0.5930195E+02  0.7816164E-02  0.1266605E+00
        -11   -1    0    0    0    0  0.00000000000E+00  0.00000000000E+00  0.45593999997E+02  0.45594000000E+02  0.51100000000E-03 0.  1.
         11   -1    0    0    0    0 -0.00000000000E+00 -0.00000000000E+00 -0.45593999997E+02  0.45594000000E+02  0.51100000000E-03 0. -1.
    9900012    2    1    2    0    0  0.97279381456E+01 -0.25334817843E+02 -0.16740194229E+02  0.59301954800E+02  0.50000019645E+02 0.  0.
        -12    1    1    2    0    0 -0.97279381456E+01  0.25334817843E+02  0.16740194229E+02  0.31886045200E+02  0.00000000000E+00 0.  1.
         11    1    3    3    0    0  0.38700202662E+01 -0.13444950243E+02 -0.36744105004E+01  0.14465304583E+02  0.51100000000E-03 0. -1.
        -11    1    3    3    0    0 -0.13025227257E+02 -0.13761257622E+02  0.39428466787E+01  0.19353934914E+02  0.51100000000E-03 0.  1.
         12    1    3    3    0    0  0.18883145137E+02  0.18713900222E+01 -0.17008630407E+02  0.25482715303E+02  0.00000000000E+00 0. -1.
</event>
<event>
 7    1  0.3750159E-013  0.5930194E+02  0.7816164E-02  0.1266605E+00
        -11   -1    0    0    0    0  0.00000000000E+00  0.00000000000E+00  0.45593999997E+02  0.45594000000E+02  0.51100000000E-03 0. -1.
         11   -1    0    0    0    0 -0.00000000000E+00 -0.00000000000E+00 -0.45593999997E+02  0.45594000000E+02  0.51100000000E-03 0.  1.
    9900012    2    1    2    0    0 -0.77531213689E+01 -0.23343420743E+01  0.30840892730E+02  0.59301941788E+02  0.49999995916E+02 0.  0.
        -12    1    1    2    0    0  0.77531213689E+01  0.23343420743E+01 -0.30840892730E+02  0.31886058212E+02  0.00000000000E+00 0.  1.
         11    1    3    3    0    0 -0.11567199436E+02 -0.15244712341E+02 -0.11298626083E+01  0.19169714315E+02  0.51100000000E-03 0. -1.
        -11    1    3    3    0    0 -0.61764706111E+01  0.75222905703E+01  0.51570720942E+01  0.11014946095E+02  0.51100000000E-03 0.  1.
         12    1    3    3    0    0  0.99905486782E+01  0.53880796967E+01  0.26813683244E+02  0.29117281378E+02  0.00000000000E+00 0. -1.
</event>
<event>
 7    1  0.3750159E-013  0.5930195E+02  0.7816164E-02  0.1266605E+00
        -11   -1    0    0    0    0  0.00000000000E+00  0.00000000000E+00  0.45593999997E+02  0.45594000000E+02  0.51100000000E-03 0.  1.
         11   -1    0    0    0    0 -0.00000000000E+00 -0.00000000000E+00 -0.45593999997E+02  0.45594000000E+02  0.51100000000E-03 0. -1.
    9900012    2    1    2    0    0  0.18846053048E+02  0.24304145229E+02  0.84175512891E+01  0.59301947242E+02  0.50000005861E+02 0.  0.
        -12    1    1    2    0    0 -0.18846053048E+02 -0.24304145229E+02 -0.84175512891E+01  0.31886052758E+02  0.00000000000E+00 0.  1.
         11    1    3    3    0    0  0.22346696869E+01 -0.31748889248E+00 -0.45732924445E+01  0.50999560636E+01  0.51100000000E-03 0. -1.
        -11    1    3    3    0    0 -0.13122046124E+02  0.81834594809E+01  0.13037593566E+02  0.20227109280E+02  0.51100000000E-03 0.  1.
         12    1    3    3    0    0  0.29733429485E+02  0.16438174641E+02 -0.46749832756E-01  0.33974881898E+02  0.00000000000E+00 0. -1.
</event>
<event>
 7    1  0.3750159E-013  0.5930193E+02  0.7816164E-02  0.1266605E+00
        -11   -1    0    0    0    0  0.00000000000E+00  0.00000000000E+00  0.45593999997E+02  0.45594000000E+02  0.51100000000E-03 0.  1.
         11   -1    0    0    0    0 -0.00000000000E+00 -0.00000000000E+00 -0.45593999997E+02  0.45594000000E+02  0.51100000000E-03 0. -1.
    9900012    2    1    2    0    0  0.14325331377E+02 -0.76969438462E+01 -0.27427421300E+02  0.59301929329E+02  0.49999973193E+02 0.  0.
        -12    1    1    2    0    0 -0.14325331377E+02  0.76969438462E+01  0.27427421300E+02  0.31886070671E+02  0.00000000000E+00 0.  1.
         11    1    3    3    0    0  0.85437299199E+00  0.75086871218E+01 -0.22350688236E+02  0.23593719511E+02  0.51100000000E-03 0. -1.
        -11    1    3    3    0    0 -0.74245447190E+01 -0.11780249336E+02 -0.40808911105E+01  0.14510403551E+02  0.51100000000E-03 0.  1.
         12    1    3    3    0    0  0.20895503105E+02 -0.34253816317E+01 -0.99584195403E+00  0.21197806266E+02  0.00000000000E+00 0. -1.
</event>
<event>
 7    1  0.3750159E-013  0.5930195E+02  0.7816164E-02  0.1266605E+00
        -11   -1    0    0    0    0  0.00000000000E+00  0.00000000000E+00  0.45593999997E+02  0.45594000000E+02  0.51100000000E-03 0.  1.
         11   -1    0    0    0    0 -0.00000000000E+00 -0.00000000000E+00 -0.45593999997E+02  0.45594000000E+02  0.51100000000E-03 0. -1.
    9900012    2    1    2    0    0 -0.30172420050E+02  0.99387096212E+01  0.27508827348E+01  0.59301949188E+02  0.50000009410E+02 0.  0.
        -12    1    1    2    0    0  0.30172420050E+02 -0.99387096212E+01 -0.27508827348E+01  0.31886050812E+02  0.00000000000E+00 0.  1.
         11    1    3    3    0    0  0.77468215350E+01 -0.55115939861E+01 -0.58265693621E+01  0.11150776787E+02  0.51100000000E-03 0. -1.
        -11    1    3    3    0    0  0.13243247865E+01  0.58954400330E+00 -0.40725436096E+01  0.43228474394E+01  0.51100000000E-03 0.  1.
        -12    1    3    3    0    0 -0.39243566371E+02  0.14860759604E+02  0.12649995706E+02  0.43828324961E+02  0.00000000000E+00 0.  1.
</event>
<event>
 7    1  0.3750159E-013  0.5930195E+02  0.7816164E-02  0.1266605E+00
        -11   -1    0    0    0    0  0.00000000000E+00  0.00000000000E+00  0.45593999997E+02  0.45594000000E+02  0.51100000000E-03 0. -1.
         11   -1    0    0    0    0 -0.00000000000E+00 -0.00000000000E+00 -0.45593999997E+02  0.45594000000E+02  0.51100000000E-03 0.  1.
    9900012    2    1    2    0    0  0.43186271136E+01  0.25748027612E+02  0.18305972255E+02  0.59301951542E+02  0.50000013705E+02 0.  0.
        -12    1    1    2    0    0 -0.43186271136E+01 -0.25748027612E+02 -0.18305972255E+02  0.31886048458E+02  0.00000000000E+00 0.  1.
         11    1    3    3    0    0 -0.19710903292E+00 -0.61756494350E+01  0.37153653425E+00  0.61899545695E+01  0.51100000000E-03 0.  1.
        -11    1    3    3    0    0 -0.14293425378E+02  0.10111085542E+02 -0.26534707420E+01  0.17708104560E+02  0.51100000000E-03 0. -1.
        -12    1    3    3    0    0  0.18809161525E+02  0.21812591505E+02  0.20587906463E+02  0.35403892412E+02  0.00000000000E+00 0.  1.
</event>
<event>
 7    1  0.3750159E-013  0.5930196E+02  0.7816164E-02  0.1266605E+00
        -11   -1    0    0    0    0  0.00000000000E+00  0.00000000000E+00  0.45593999997E+02  0.45594000000E+02  0.51100000000E-03 0.  1.
         11   -1    0    0    0    0 -0.00000000000E+00 -0.00000000000E+00 -0.45593999997E+02  0.45594000000E+02  0.51100000000E-03 0. -1.
    9900012    2    1    2    0    0 -0.10953969857E+02 -0.18245378248E+02 -0.23745234457E+02  0.59301961638E+02  0.50000032116E+02 0.  0.
        -12    1    1    2    0    0  0.10953969857E+02  0.18245378248E+02  0.23745234457E+02  0.31886038362E+02  0.00000000000E+00 0.  1.
         11    1    3    3    0    0  0.18930982763E+01 -0.40108464729E+01  0.98607713286E+00  0.45434633141E+01  0.51100000000E-03 0. -1.
        -11    1    3    3    0    0  0.14208390774E+02 -0.15394569891E+02 -0.58667157716E+01  0.21755217874E+02  0.51100000000E-03 0.  1.
         12    1    3    3    0    0 -0.27055458907E+02  0.11600381161E+01 -0.18864595818E+02  0.33003280450E+02  0.00000000000E+00 0. -1.
</event>
<event>
 7    1  0.3750159E-013  0.5930195E+02  0.7816164E-02  0.1266605E+00
        -11   -1    0    0    0    0  0.00000000000E+00  0.00000000000E+00  0.45593999997E+02  0.45594000000E+02  0.51100000000E-03 0. -1.
         11   -1    0    0    0    0 -0.00000000000E+00 -0.00000000000E+00 -0.45593999997E+02  0.45594000000E+02  0.51100000000E-03 0.  1.
    9900012    2    1    2    0    0 -0.13223385920E+02  0.11137935959E+02  0.26791953889E+02  0.59301947473E+02  0.50000006283E+02 0.  0.
        -12    1    1    2    0    0  0.13223385920E+02 -0.11137935959E+02 -0.26791953889E+02  0.31886052527E+02  0.00000000000E+00 0.  1.
         11    1    3    3    0    0  0.99652979646E+00 -0.34234373388E+00  0.43352702383E+01  0.44614839647E+01  0.51100000000E-03 0. -1.
        -11    1    3    3    0    0 -0.74744028083E+01  0.26050940505E+02  0.26895068874E+02  0.38181971250E+02  0.51100000000E-03 0.  1.
        -12    1    3    3    0    0 -0.67455129077E+01 -0.14570660812E+02 -0.44383852241E+01  0.16658492258E+02  0.00000000000E+00 0.  1.
</event>
<event>
 7    1  0.3750159E-013  0.5930193E+02  0.7816164E-02  0.1266605E+00
        -11   -1    0    0    0    0  0.00000000000E+00  0.00000000000E+00  0.45593999997E+02  0.45594000000E+02  0.51100000000E-03 0.  1.
         11   -1    0    0    0    0 -0.00000000000E+00 -0.00000000000E+00 -0.45593999997E+02  0.45594000000E+02  0.51100000000E-03 0. -1.
    9900012    2    1    2    0    0 -0.17662084571E+02  0.64998317269E+01 -0.25739544121E+02  0.59301934462E+02  0.49999982555E+02 0.  0.
        -12    1    1    2    0    0  0.17662084571E+02 -0.64998317269E+01  0.25739544121E+02  0.31886065538E+02  0.00000000000E+00 0.  1.
         11    1    3    3    0    0 -0.12267208778E+02 -0.50168293537E+01 -0.20130739677E+02  0.24101860264E+02  0.51100000000E-03 0. -1.
        -11    1    3    3    0    0  0.99047663188E+01 -0.16552455891E+01 -0.10393462030E+02  0.14452276188E+02  0.51100000000E-03 0.  1.
        -12    1    3    3    0    0 -0.15299642112E+02  0.13171906670E+02  0.47846575855E+01  0.20747798011E+02  0.00000000000E+00 0.  1.
</event>
<event>
 7    1  0.3750159E-013  0.5930195E+02  0.7816164E-02  0.1266605E+00
        -11   -1    0    0    0    0  0.00000000000E+00  0.00000000000E+00  0.45593999997E+02  0.45594000000E+02  0.51100000000E-03 0. -1.
         11   -1    0    0    0    0 -0.00000000000E+00 -0.00000000000E+00 -0.45593999997E+02  0.45594000000E+02  0.51100000000E-03 0.  1.
    9900012    2    1    2    0    0  0.21895774519E+02  0.19679736590E+02  0.12247578181E+02  0.59301950615E+02  0.50000012014E+02 0.  0.
        -12    1    1    2    0    0 -0.21895774519E+02 -0.19679736590E+02 -0.12247578181E+02  0.31886049385E+02  0.00000000000E+00 0.  1.
         11    1    3    3    0    0  0.45514190716E+01 -0.11424945173E+02  0.22840263422E+00  0.12300282752E+02  0.51100000000E-03 0. -1.
        -11    1    3    3    0    0  0.89657498350E+00 -0.17884472540E+01 -0.58004106100E+01  0.61357276494E+01  0.51100000000E-03 0.  1.
         12    1    3    3    0    0  0.16447780464E+02  0.32893129017E+02  0.17819586157E+02  0.40865940213E+02  0.00000000000E+00 0. -1.
</event>
<event>
 7    1  0.3750159E-013  0.5930195E+02  0.7816164E-02  0.1266605E+00
        -11   -1    0    0    0    0  0.00000000000E+00  0.00000000000E+00  0.45593999997E+02  0.45594000000E+02  0.51100000000E-03 0.  1.
         11   -1    0    0    0    0 -0.00000000000E+00 -0.00000000000E+00 -0.45593999997E+02  0.45594000000E+02  0.51100000000E-03 0. -1.
    9900012    2    1    2    0    0  0.26649151538E+02  0.15881319157E+02 -0.73706708538E+01  0.59301947176E+02  0.50000005741E+02 0.  0.
        -12    1    1    2    0    0 -0.26649151538E+02 -0.15881319157E+02  0.73706708538E+01  0.31886052824E+02  0.00000000000E+00 0.  1.
         11    1    3    3    0    0  0.11148956375E+01  0.19032243494E+02 -0.17306299859E+01  0.19143258999E+02  0.51100000000E-03 0. -1.
        -11    1    3    3    0    0 -0.24656238475E+01  0.86725733126E+01 -0.35602712965E+01  0.96937279096E+01  0.51100000000E-03 0.  1.
        -12    1    3    3    0    0  0.27999879748E+02 -0.11823497650E+02 -0.20797695714E+01  0.30464960267E+02  0.00000000000E+00 0.  1.
</event>
<event>
 7    1  0.3750159E-013  0.5930192E+02  0.7816164E-02  0.1266605E+00
        -11   -1    0    0    0    0  0.00000000000E+00  0.00000000000E+00  0.45593999997E+02  0.45594000000E+02  0.51100000000E-03 0. -1.
         11   -1    0    0    0    0 -0.00000000000E+00 -0.00000000000E+00 -0.45593999997E+02  0.45594000000E+02  0.51100000000E-03 0.  1.
    9900012    2    1    2    0    0  0.27252878474E+02  0.16547485603E+02 -0.42835361319E+00  0.59301919154E+02  0.49999954637E+02 0.  0.
        -12    1    1    2    0    0 -0.27252878474E+02 -0.16547485603E+02  0.42835361319E+00  0.31886080846E+02  0.00000000000E+00 0.  1.
         11    1    3    3    0    0  0.21202898723E+02 -0.50926516465E+00 -0.10481903560E+02  0.23657822549E+02  0.51100000000E-03 0. -1.
        -11    1    3    3    0    0  0.11864940265E+02  0.20279909523E+02 -0.11367530473E+00  0.23496052011E+02  0.51100000000E-03 0.  1.
         12    1    3    3    0    0 -0.58149605140E+01 -0.32231587552E+01  0.10167225252E+02  0.12148044594E+02  0.00000000000E+00 0. -1.
</event>
<event>
 7    1  0.3750159E-013  0.5930194E+02  0.7816164E-02  0.1266605E+00
        -11   -1    0    0    0    0  0.00000000000E+00  0.00000000000E+00  0.45593999997E+02  0.45594000000E+02  0.51100000000E-03 0.  1.
         11   -1    0    0    0    0 -0.00000000000E+00 -0.00000000000E+00 -0.45593999997E+02  0.45594000000E+02  0.51100000000E-03 0. -1.
    9900012    2    1    2    0    0  0.27532993446E+02 -0.39413689093E+01 -0.15592331129E+02  0.59301938672E+02  0.49999990233E+02 0.  0.
        -12    1    1    2    0    0 -0.27532993446E+02  0.39413689093E+01  0.15592331129E+02  0.31886061328E+02  0.00000000000E+00 0.  1.
         11    1    3    3    0    0 -0.48230332268E+01  0.12555553159E+01 -0.96284906612E+01  0.10841858758E+02  0.51100000000E-03 0. -1.
        -11    1    3    3    0    0  0.50704044450E+01  0.99427699435E+01  0.85363245338E+01  0.14051210346E+02  0.51100000000E-03 0.  1.
         12    1    3    3    0    0  0.27285622227E+02 -0.15139694169E+02 -0.14500165002E+02  0.34408869568E+02  0.00000000000E+00 0. -1.
</event>
<event>
 7    1  0.3750159E-013  0.5930194E+02  0.7816164E-02  0.1266605E+00
        -11   -1    0    0    0    0  0.00000000000E+00  0.00000000000E+00  0.45593999997E+02  0.45594000000E+02  0.51100000000E-03 0.  1.
         11   -1    0    0    0    0 -0.00000000000E+00 -0.00000000000E+00 -0.45593999997E+02  0.45594000000E+02  0.51100000000E-03 0. -1.
    9900012    2    1    2    0    0 -0.19021546987E+02  0.12754628585E+01 -0.25559238400E+02  0.59301941560E+02  0.49999995499E+02 0.  0.
        -12    1    1    2    0    0  0.19021546987E+02 -0.12754628585E+01  0.25559238400E+02  0.31886058440E+02  0.00000000000E+00 0.  1.
         11    1    3    3    0    0 -0.28114159510E+02  0.11323381159E+02 -0.19755490000E+02  0.36178782611E+02  0.51100000000E-03 0. -1.
        -11    1    3    3    0    0 -0.30773283414E+01 -0.97091106243E+01 -0.21202441809E+01  0.10403471271E+02  0.51100000000E-03 0.  1.
        -12    1    3    3    0    0  0.12169940864E+02 -0.33880767671E+00 -0.36835042191E+01  0.12719687677E+02  0.00000000000E+00 0.  1.
</event>
<event>
 7    1  0.3750159E-013  0.5930206E+02  0.7816164E-02  0.1266604E+00
        -11   -1    0    0    0    0  0.00000000000E+00  0.00000000000E+00  0.45593999997E+02  0.45594000000E+02  0.51100000000E-03 0. -1.
         11   -1    0    0    0    0 -0.00000000000E+00 -0.00000000000E+00 -0.45593999997E+02  0.45594000000E+02  0.51100000000E-03 0.  1.
    9900012    2    1    2    0    0 -0.25930960368E+02 -0.12453478862E+02  0.13755331212E+02  0.59302063004E+02  0.50000216984E+02 0.  0.
        -12    1    1    2    0    0  0.25930960368E+02  0.12453478862E+02 -0.13755331212E+02  0.31885936996E+02  0.00000000000E+00 0.  1.
         11    1    3    3    0    0  0.60165999968E+01 -0.92516479814E+01 -0.30563617561E+01  0.11451367313E+02  0.51100000000E-03 0. -1.
        -11    1    3    3    0    0 -0.30149773171E+01 -0.12777314395E+02  0.17480397700E+00  0.13129371960E+02  0.51100000000E-03 0.  1.
        -12    1    3    3    0    0 -0.28932583048E+02  0.95754835145E+01  0.16636888991E+02  0.34721323731E+02  0.00000000000E+00 0.  1.
</event>
<event>
 7    1  0.3750159E-013  0.5930197E+02  0.7816164E-02  0.1266605E+00
        -11   -1    0    0    0    0  0.00000000000E+00  0.00000000000E+00  0.45593999997E+02  0.45594000000E+02  0.51100000000E-03 0. -1.
         11   -1    0    0    0    0 -0.00000000000E+00 -0.00000000000E+00 -0.45593999997E+02  0.45594000000E+02  0.51100000000E-03 0.  1.
    9900012    2    1    2    0    0  0.26413825334E+02  0.80312355080E+01 -0.15953928193E+02  0.59301972694E+02  0.50000052281E+02 0.  0.
        -12    1    1    2    0    0 -0.26413825334E+02 -0.80312355080E+01  0.15953928193E+02  0.31886027306E+02  0.00000000000E+00 0.  1.
         11    1    3    3    0    0 -0.60899625758E+00  0.77347880361E+01 -0.23259043101E+02  0.24518990775E+02  0.51100000000E-03 0.  1.
        -11    1    3    3    0    0  0.25338148185E+01  0.58745794376E+01 -0.36676271527E+01  0.73744416938E+01  0.51100000000E-03 0. -1.
         12    1    3    3    0    0  0.24489006773E+02 -0.55781319656E+01  0.10972742061E+02  0.27408540225E+02  0.00000000000E+00 0. -1.
</event>
<event>
 7    1  0.3750159E-013  0.5930197E+02  0.7816164E-02  0.1266605E+00
        -11   -1    0    0    0    0  0.00000000000E+00  0.00000000000E+00  0.45593999997E+02  0.45594000000E+02  0.51100000000E-03 0.  1.
         11   -1    0    0    0    0 -0.00000000000E+00 -0.00000000000E+00 -0.45593999997E+02  0.45594000000E+02  0.51100000000E-03 0. -1.
    9900012    2    1    2    0    0  0.22737055763E+02  0.91677115755E+01 -0.20388683942E+02  0.59301967428E+02  0.50000042676E+02 0.  0.
        -12    1    1    2    0    0 -0.22737055763E+02 -0.91677115755E+01  0.20388683942E+02  0.31886032572E+02  0.00000000000E+00 0.  1.
         11    1    3    3    0    0 -0.29509127699E+00  0.15998185860E+02 -0.13892659902E+02  0.21190446646E+02  0.51100000000E-03 0. -1.
        -11    1    3    3    0    0  0.18345064305E+02  0.22418344328E+01 -0.15786620825E+02  0.24306061041E+02  0.51100000000E-03 0.  1.
        -12    1    3    3    0    0  0.46870827351E+01 -0.90723087173E+01  0.92905967845E+01  0.13805459740E+02  0.00000000000E+00 0.  1.
</event>
<event>
 7    1  0.3750159E-013  0.5930195E+02  0.7816164E-02  0.1266605E+00
        -11   -1    0    0    0    0  0.00000000000E+00  0.00000000000E+00  0.45593999997E+02  0.45594000000E+02  0.51100000000E-03 0. -1.
         11   -1    0    0    0    0 -0.00000000000E+00 -0.00000000000E+00 -0.45593999997E+02  0.45594000000E+02  0.51100000000E-03 0.  1.
    9900012    2    1    2    0    0  0.73225758700E+01 -0.25278068573E+01  0.30930735455E+02  0.59301947867E+02  0.50000007001E+02 0.  0.
        -12    1    1    2    0    0 -0.73225758700E+01  0.25278068573E+01 -0.30930735455E+02  0.31886052133E+02  0.00000000000E+00 0.  1.
         11    1    3    3    0    0  0.18878902445E+02  0.22621643453E+01  0.17064105332E+02  0.25548268749E+02  0.51100000000E-03 0. -1.
        -11    1    3    3    0    0  0.29412984819E+01 -0.13510451701E+02  0.69615649413E+01  0.15480533861E+02  0.51100000000E-03 0.  1.
         12    1    3    3    0    0 -0.14497625057E+02  0.87204804983E+01  0.69050651818E+01  0.18273145257E+02  0.00000000000E+00 0. -1.
</event>
<event>
 7    1  0.3750159E-013  0.5930193E+02  0.7816164E-02  0.1266605E+00
        -11   -1    0    0    0    0  0.00000000000E+00  0.00000000000E+00  0.45593999997E+02  0.45594000000E+02  0.51100000000E-03 0.  1.
         11   -1    0    0    0    0 -0.00000000000E+00 -0.00000000000E+00 -0.45593999997E+02  0.45594000000E+02  0.51100000000E-03 0. -1.
    9900012    2    1    2    0    0 -0.13452150549E+02 -0.26503467905E+02  0.11546737617E+02  0.59301932275E+02  0.49999978565E+02 0.  0.
        -12    1    1    2    0    0  0.13452150549E+02  0.26503467905E+02 -0.11546737617E+02  0.31886067725E+02  0.00000000000E+00 0.  1.
         11    1    3    3    0    0 -0.83060433823E+01 -0.68343570123E+01  0.32767493451E+01  0.11244370990E+02  0.51100000000E-03 0. -1.
        -11    1    3    3    0    0 -0.46133918362E+00 -0.31603298690E+02 -0.19427942860E+01  0.31666319202E+02  0.51100000000E-03 0.  1.
         12    1    3    3    0    0 -0.46847679829E+01  0.11934187797E+02  0.10212782558E+02  0.16391242082E+02  0.00000000000E+00 0. -1.
</event>
<event>
 7    1  0.3750159E-013  0.5930193E+02  0.7816164E-02  0.1266605E+00
        -11   -1    0    0    0    0  0.00000000000E+00  0.00000000000E+00  0.45593999997E+02  0.45594000000E+02  0.51100000000E-03 0.  1.
         11   -1    0    0    0    0 -0.00000000000E+00 -0.00000000000E+00 -0.45593999997E+02  0.45594000000E+02  0.51100000000E-03 0. -1.
    9900012    2    1    2    0    0  0.37470696723E+01  0.20653767485E+02 -0.24002144096E+02  0.59301928375E+02  0.49999971453E+02 0.  0.
        -12    1    1    2    0    0 -0.37470696723E+01 -0.20653767485E+02  0.24002144096E+02  0.31886071625E+02  0.00000000000E+00 0.  1.
         11    1    3    3    0    0 -0.31709410766E+01 -0.22331597224E+01 -0.15916706690E+02  0.16382411965E+02  0.51100000000E-03 0. -1.
        -11    1    3    3    0    0 -0.10370756722E+02  0.28018246682E+01 -0.12027787552E+02  0.16126701154E+02  0.51100000000E-03 0.  1.
        -12    1    3    3    0    0  0.17288767471E+02  0.20085102539E+02  0.39423501457E+01  0.26792815256E+02  0.00000000000E+00 0.  1.
</event>
<event>
 7    1  0.3750159E-013  0.5930186E+02  0.7816164E-02  0.1266605E+00
        -11   -1    0    0    0    0  0.00000000000E+00  0.00000000000E+00  0.45593999997E+02  0.45594000000E+02  0.51100000000E-03 0.  1.
         11   -1    0    0    0    0 -0.00000000000E+00 -0.00000000000E+00 -0.45593999997E+02  0.45594000000E+02  0.51100000000E-03 0. -1.
    9900012    2    1    2    0    0  0.12134421108E+02 -0.16406318468E+02 -0.24501318695E+02  0.59301857569E+02  0.49999842320E+02 0.  0.
        -12    1    1    2    0    0 -0.12134421108E+02  0.16406318468E+02  0.24501318695E+02  0.31886142431E+02  0.00000000000E+00 0.  1.
         11    1    3    3    0    0 -0.28353394454E+01  0.12757441683E+02 -0.40721439086E+01  0.13688455878E+02  0.51100000000E-03 0. -1.
        -11    1    3    3    0    0 -0.27345891639E+01  0.25145001246E+01  0.45599554129E+00  0.37428092347E+01  0.51100000000E-03 0.  1.
        -12    1    3    3    0    0  0.17704349717E+02 -0.31678260275E+02 -0.20885170328E+02  0.41870592456E+02  0.00000000000E+00 0.  1.
</event>
<event>
 7    1  0.3750159E-013  0.5930192E+02  0.7816164E-02  0.1266605E+00
        -11   -1    0    0    0    0  0.00000000000E+00  0.00000000000E+00  0.45593999997E+02  0.45594000000E+02  0.51100000000E-03 0.  1.
         11   -1    0    0    0    0 -0.00000000000E+00 -0.00000000000E+00 -0.45593999997E+02  0.45594000000E+02  0.51100000000E-03 0. -1.
    9900012    2    1    2    0    0 -0.10589337175E+02  0.19435164218E+02 -0.22953481799E+02  0.59301921585E+02  0.49999959070E+02 0.  0.
        -12    1    1    2    0    0  0.10589337175E+02 -0.19435164218E+02  0.22953481799E+02  0.31886078415E+02  0.00000000000E+00 0.  1.
         11    1    3    3    0    0 -0.38617906601E+01  0.15175431479E+02 -0.14155513525E+02  0.21108901229E+02  0.51100000000E-03 0.  1.
        -11    1    3    3    0    0  0.97444407074E+00  0.10975227295E+02 -0.20121289203E+02  0.22940606680E+02  0.51100000000E-03 0. -1.
        -12    1    3    3    0    0 -0.77019905858E+01 -0.67154945558E+01  0.11323320928E+02  0.15252413676E+02  0.00000000000E+00 0.  1.
</event>
<event>
 7    1  0.3750159E-013  0.5930194E+02  0.7816164E-02  0.1266605E+00
        -11   -1    0    0    0    0  0.00000000000E+00  0.00000000000E+00  0.45593999997E+02  0.45594000000E+02  0.51100000000E-03 0. -1.
         11   -1    0    0    0    0 -0.00000000000E+00 -0.00000000000E+00 -0.45593999997E+02  0.45594000000E+02  0.51100000000E-03 0.  1.
    9900012    2    1    2    0    0 -0.29570175853E+02 -0.74935611724E+01 -0.92829060535E+01  0.59301935585E+02  0.49999984603E+02 0.  0.
        -12    1    1    2    0    0  0.29570175853E+02  0.74935611724E+01  0.92829060535E+01  0.31886064415E+02  0.00000000000E+00 0.  1.
         11    1    3    3    0    0 -0.69948787549E+01 -0.40426086910E+01  0.81513688762E+01  0.11476751659E+02  0.51100000000E-03 0. -1.
        -11    1    3    3    0    0  0.10067591517E+02  0.12101481717E+01  0.75309101490E+00  0.10167989176E+02  0.51100000000E-03 0.  1.
         12    1    3    3    0    0 -0.32642888616E+02 -0.46611006531E+01 -0.18187365945E+02  0.37657194750E+02  0.00000000000E+00 0. -1.
</event>
<event>
 7    1  0.3750159E-013  0.5930195E+02  0.7816164E-02  0.1266605E+00
        -11   -1    0    0    0    0  0.00000000000E+00  0.00000000000E+00  0.45593999997E+02  0.45594000000E+02  0.51100000000E-03 0.  1.
         11   -1    0    0    0    0 -0.00000000000E+00 -0.00000000000E+00 -0.45593999997E+02  0.45594000000E+02  0.51100000000E-03 0. -1.
    9900012    2    1    2    0    0 -0.14909005191E+02  0.23848164242E+02 -0.15023549578E+02  0.59301946381E+02  0.50000004291E+02 0.  0.
        -12    1    1    2    0    0  0.14909005191E+02 -0.23848164242E+02  0.15023549578E+02  0.31886053619E+02  0.00000000000E+00 0.  1.
         11    1    3    3    0    0  0.97297309612E+01  0.24454806336E+02 -0.15439723156E+02  0.30513771791E+02  0.51100000000E-03 0.  1.
        -11    1    3    3    0    0 -0.11519146758E+02  0.43600760286E+01 -0.55929215745E+01  0.13527075701E+02  0.51100000000E-03 0. -1.
        -12    1    3    3    0    0 -0.13119589394E+02 -0.49667181224E+01  0.60090951521E+01  0.15261098889E+02  0.00000000000E+00 0.  1.
</event>
<event>
 7    1  0.3750159E-013  0.5930195E+02  0.7816164E-02  0.1266605E+00
        -11   -1    0    0    0    0  0.00000000000E+00  0.00000000000E+00  0.45593999997E+02  0.45594000000E+02  0.51100000000E-03 0. -1.
         11   -1    0    0    0    0 -0.00000000000E+00 -0.00000000000E+00 -0.45593999997E+02  0.45594000000E+02  0.51100000000E-03 0.  1.
    9900012    2    1    2    0    0  0.19409810910E+00  0.23815659761E+02  0.21201342934E+02  0.59301948722E+02  0.50000008560E+02 0.  0.
        -12    1    1    2    0    0 -0.19409810910E+00 -0.23815659761E+02 -0.21201342934E+02  0.31886051278E+02  0.00000000000E+00 0.  1.
         11    1    3    3    0    0  0.80986710199E+01 -0.34458914297E-01  0.32173612449E+01  0.87144175564E+01  0.51100000000E-03 0. -1.
        -11    1    3    3    0    0 -0.84785294720E+01 -0.93644993648E+01 -0.36399842380E+00  0.12637713617E+02  0.51100000000E-03 0.  1.
         12    1    3    3    0    0  0.57395656121E+00  0.33214618040E+02  0.18347980113E+02  0.37949817548E+02  0.00000000000E+00 0. -1.
</event>
<event>
 7    1  0.3750159E-013  0.5930194E+02  0.7816164E-02  0.1266605E+00
        -11   -1    0    0    0    0  0.00000000000E+00  0.00000000000E+00  0.45593999997E+02  0.45594000000E+02  0.51100000000E-03 0.  1.
         11   -1    0    0    0    0 -0.00000000000E+00 -0.00000000000E+00 -0.45593999997E+02  0.45594000000E+02  0.51100000000E-03 0. -1.
    9900012    2    1    2    0    0  0.13637902831E+02 -0.48769819516E+01 -0.28406751827E+02  0.59301938845E+02  0.49999990548E+02 0.  0.
        -12    1    1    2    0    0 -0.13637902831E+02  0.48769819516E+01  0.28406751827E+02  0.31886061155E+02  0.00000000000E+00 0.  1.
         11    1    3    3    0    0 -0.28143407171E+01 -0.87968757247E+01 -0.46327833847E+01  0.10332870770E+02  0.51100000000E-03 0. -1.
        -11    1    3    3    0    0 -0.47447068959E+01  0.14893405299E+02 -0.19041533599E+02  0.24635457515E+02  0.51100000000E-03 0.  1.
        -12    1    3    3    0    0  0.21196950444E+02 -0.10973511526E+02 -0.47324348438E+01  0.24333610561E+02  0.00000000000E+00 0.  1.
</event>
<event>
 7    1  0.3750159E-013  0.5930182E+02  0.7816164E-02  0.1266605E+00
        -11   -1    0    0    0    0  0.00000000000E+00  0.00000000000E+00  0.45593999997E+02  0.45594000000E+02  0.51100000000E-03 0.  1.
         11   -1    0    0    0    0 -0.00000000000E+00 -0.00000000000E+00 -0.45593999997E+02  0.45594000000E+02  0.51100000000E-03 0. -1.
    9900012    2    1    2    0    0  0.20027285399E+02  0.15607818817E+02 -0.19288140545E+02  0.59301819069E+02  0.49999772105E+02 0.  0.
        -12    1    1    2    0    0 -0.20027285399E+02 -0.15607818817E+02  0.19288140545E+02  0.31886180931E+02  0.00000000000E+00 0.  1.
         11    1    3    3    0    0  0.47991328203E+01 -0.30548984444E+01 -0.18454251787E+02  0.19311227035E+02  0.51100000000E-03 0. -1.
        -11    1    3    3    0    0  0.11566246131E+02 -0.63509909135E+01 -0.54782024521E+01  0.14287191380E+02  0.51100000000E-03 0.  1.
        -12    1    3    3    0    0  0.36619064472E+01  0.25013708175E+02  0.46443136936E+01  0.25703400654E+02  0.00000000000E+00 0.  1.
</event>
<event>
 7    1  0.3750159E-013  0.5930194E+02  0.7816164E-02  0.1266605E+00
        -11   -1    0    0    0    0  0.00000000000E+00  0.00000000000E+00  0.45593999997E+02  0.45594000000E+02  0.51100000000E-03 0. -1.
         11   -1    0    0    0    0 -0.00000000000E+00 -0.00000000000E+00 -0.45593999997E+02  0.45594000000E+02  0.51100000000E-03 0.  1.
    9900012    2    1    2    0    0 -0.16213981266E+02  0.78703579876E+01  0.26303703424E+02  0.59301944472E+02  0.50000000810E+02 0.  0.
        -12    1    1    2    0    0  0.16213981266E+02 -0.78703579876E+01 -0.26303703424E+02  0.31886055528E+02  0.00000000000E+00 0.  1.
         11    1    3    3    0    0  0.47965838779E+01  0.41875196066E+01  0.53946579440E+01  0.83453503190E+01  0.51100000000E-03 0. -1.
        -11    1    3    3    0    0 -0.73383987340E+01 -0.16377518400E+02 -0.13805408378E+01  0.17999474942E+02  0.51100000000E-03 0.  1.
         12    1    3    3    0    0 -0.13672166410E+02  0.20060356781E+02  0.22289586318E+02  0.32957119211E+02  0.00000000000E+00 0. -1.
</event>
<event>
 7    1  0.3750159E-013  0.5930197E+02  0.7816164E-02  0.1266605E+00
        -11   -1    0    0    0    0  0.00000000000E+00  0.00000000000E+00  0.45593999997E+02  0.45594000000E+02  0.51100000000E-03 0. -1.
         11   -1    0    0    0    0 -0.00000000000E+00 -0.00000000000E+00 -0.45593999997E+02  0.45594000000E+02  0.51100000000E-03 0.  1.
    9900012    2    1    2    0    0  0.19507756582E+02 -0.61996743421E+00  0.25214722293E+02  0.59301966274E+02  0.50000040572E+02 0.  0.
        -12    1    1    2    0    0 -0.19507756582E+02  0.61996743421E+00 -0.25214722293E+02  0.31886033726E+02  0.00000000000E+00 0.  1.
         11    1    3    3    0    0 -0.10148486878E+02  0.10458892710E+00  0.12392824529E+02  0.16018265350E+02  0.51100000000E-03 0. -1.
        -11    1    3    3    0    0  0.93177724966E+00  0.88985444960E+01  0.91010485926E+01  0.12762499314E+02  0.51100000000E-03 0.  1.
         12    1    3    3    0    0  0.28724466210E+02 -0.96231008573E+01  0.37208491715E+01  0.30521201610E+02  0.00000000000E+00 0. -1.
</event>
<event>
 7    1  0.3750159E-013  0.5930196E+02  0.7816164E-02  0.1266605E+00
        -11   -1    0    0    0    0  0.00000000000E+00  0.00000000000E+00  0.45593999997E+02  0.45594000000E+02  0.51100000000E-03 0.  1.
         11   -1    0    0    0    0 -0.00000000000E+00 -0.00000000000E+00 -0.45593999997E+02  0.45594000000E+02  0.51100000000E-03 0. -1.
    9900012    2    1    2    0    0  0.22865439291E+00 -0.30851229678E+02  0.80541034413E+01  0.59301964848E+02  0.50000037971E+02 0.  0.
        -12    1    1    2    0    0 -0.22865439291E+00  0.30851229678E+02 -0.80541034413E+01  0.31886035152E+02  0.00000000000E+00 0.  1.
         11    1    3    3    0    0  0.47852881305E-01 -0.34723994083E+01 -0.12825142237E+02  0.13286990675E+02  0.51100000000E-03 0. -1.
        -11    1    3    3    0    0  0.70988266450E+01 -0.28467301779E+02  0.65431904331E+01  0.30059839515E+02  0.51100000000E-03 0.  1.
         12    1    3    3    0    0 -0.69180251334E+01  0.10884715097E+01  0.14336055245E+02  0.15955134658E+02  0.00000000000E+00 0. -1.
</event>
<event>
 7    1  0.3750159E-013  0.5930193E+02  0.7816164E-02  0.1266605E+00
        -11   -1    0    0    0    0  0.00000000000E+00  0.00000000000E+00  0.45593999997E+02  0.45594000000E+02  0.51100000000E-03 0.  1.
         11   -1    0    0    0    0 -0.00000000000E+00 -0.00000000000E+00 -0.45593999997E+02  0.45594000000E+02  0.51100000000E-03 0. -1.
    9900012    2    1    2    0    0  0.15719455752E+02  0.24484716505E+02  0.13042951641E+02  0.59301933780E+02  0.49999981311E+02 0.  0.
        -12    1    1    2    0    0 -0.15719455752E+02 -0.24484716505E+02 -0.13042951641E+02  0.31886066220E+02  0.00000000000E+00 0.  1.
         11    1    3    3    0    0  0.15594432325E+02 -0.52100463113E+01  0.48509143639E+01  0.17142411514E+02  0.51100000000E-03 0. -1.
        -11    1    3    3    0    0  0.76265682436E+01  0.83236882062E+01  0.14754981354E+02  0.18578423064E+02  0.51100000000E-03 0.  1.
         12    1    3    3    0    0 -0.75015448169E+01  0.21371074610E+02 -0.65629440765E+01  0.23581099202E+02  0.00000000000E+00 0. -1.
</event>
<event>
 7    1  0.3750159E-013  0.5930190E+02  0.7816164E-02  0.1266605E+00
        -11   -1    0    0    0    0  0.00000000000E+00  0.00000000000E+00  0.45593999997E+02  0.45594000000E+02  0.51100000000E-03 0. -1.
         11   -1    0    0    0    0 -0.00000000000E+00 -0.00000000000E+00 -0.45593999997E+02  0.45594000000E+02  0.51100000000E-03 0.  1.
    9900012    2    1    2    0    0  0.29136985900E+02  0.14850929822E+01  0.12866784479E+02  0.59301896580E+02  0.49999913466E+02 0.  0.
        -12    1    1    2    0    0 -0.29136985900E+02 -0.14850929822E+01 -0.12866784479E+02  0.31886103420E+02  0.00000000000E+00 0.  1.
         11    1    3    3    0    0  0.68321762157E+01 -0.11963772214E+02 -0.17374036756E+01  0.13886289973E+02  0.51100000000E-03 0. -1.
        -11    1    3    3    0    0  0.29918496726E+02  0.72665666051E+01  0.41259745027E+01  0.31063533321E+02  0.51100000000E-03 0.  1.
        -12    1    3    3    0    0 -0.76136870417E+01  0.61822985909E+01  0.10478213652E+02  0.14352073285E+02  0.00000000000E+00 0.  1.
</event>
<event>
 7    1  0.3750159E-013  0.5930197E+02  0.7816164E-02  0.1266605E+00
        -11   -1    0    0    0    0  0.00000000000E+00  0.00000000000E+00  0.45593999997E+02  0.45594000000E+02  0.51100000000E-03 0. -1.
         11   -1    0    0    0    0 -0.00000000000E+00 -0.00000000000E+00 -0.45593999997E+02  0.45594000000E+02  0.51100000000E-03 0.  1.
    9900012    2    1    2    0    0  0.21800728203E+02 -0.58739534099E+01  0.22515419368E+02  0.59301965625E+02  0.50000039388E+02 0.  0.
        -12    1    1    2    0    0 -0.21800728203E+02  0.58739534099E+01 -0.22515419368E+02  0.31886034375E+02  0.00000000000E+00 0.  1.
         11    1    3    3    0    0 -0.88258863214E+01 -0.56236120832E+01  0.16637394083E+02  0.19655130739E+02  0.51100000000E-03 0. -1.
        -11    1    3    3    0    0  0.89117746544E+01  0.97106672574E+01 -0.40310925419E+01  0.13782833287E+02  0.51100000000E-03 0.  1.
         12    1    3    3    0    0  0.21714839870E+02 -0.99610085841E+01  0.99091178271E+01  0.25864001599E+02  0.00000000000E+00 0. -1.
</event>
<event>
 7    1  0.3750159E-013  0.5930195E+02  0.7816164E-02  0.1266605E+00
        -11   -1    0    0    0    0  0.00000000000E+00  0.00000000000E+00  0.45593999997E+02  0.45594000000E+02  0.51100000000E-03 0. -1.
         11   -1    0    0    0    0 -0.00000000000E+00 -0.00000000000E+00 -0.45593999997E+02  0.45594000000E+02  0.51100000000E-03 0.  1.
    9900012    2    1    2    0    0 -0.72646079429E+01 -0.27348570869E+02  0.14696989071E+02  0.59301947487E+02  0.50000006308E+02 0.  0.
        -12    1    1    2    0    0  0.72646079429E+01  0.27348570869E+02 -0.14696989071E+02  0.31886052513E+02  0.00000000000E+00 0.  1.
         11    1    3    3    0    0 -0.10464155498E+02 -0.13765748194E+02  0.77971011872E+01  0.18968109047E+02  0.51100000000E-03 0. -1.
        -11    1    3    3    0    0 -0.12898919734E+01 -0.84797263912E+01 -0.15068158148E+02  0.17338367028E+02  0.51100000000E-03 0.  1.
         12    1    3    3    0    0  0.44894395283E+01 -0.51030962834E+01  0.21968046032E+02  0.22995471411E+02  0.00000000000E+00 0. -1.
</event>
<event>
 7    1  0.3750159E-013  0.5930194E+02  0.7816164E-02  0.1266605E+00
        -11   -1    0    0    0    0  0.00000000000E+00  0.00000000000E+00  0.45593999997E+02  0.45594000000E+02  0.51100000000E-03 0.  1.
         11   -1    0    0    0    0 -0.00000000000E+00 -0.00000000000E+00 -0.45593999997E+02  0.45594000000E+02  0.51100000000E-03 0. -1.
    9900012    2    1    2    0    0 -0.11755111102E+02  0.61150881026E+01 -0.29002475913E+02  0.59301944292E+02  0.50000000482E+02 0.  0.
        -12    1    1    2    0    0  0.11755111102E+02 -0.61150881026E+01  0.29002475913E+02  0.31886055708E+02  0.00000000000E+00 0.  1.
         11    1    3    3    0    0 -0.13807114724E+02  0.57052792884E+01 -0.14378814330E+02  0.20734920558E+02  0.51100000000E-03 0. -1.
        -11    1    3    3    0    0 -0.13288652774E+02  0.10617932676E+02 -0.47436169349E+01  0.17658728402E+02  0.51100000000E-03 0.  1.
         12    1    3    3    0    0  0.15340656396E+02 -0.10208123862E+02 -0.98800446482E+01  0.20908295332E+02  0.00000000000E+00 0. -1.
</event>
<event>
 7    1  0.3750159E-013  0.5930194E+02  0.7816164E-02  0.1266605E+00
        -11   -1    0    0    0    0  0.00000000000E+00  0.00000000000E+00  0.45593999997E+02  0.45594000000E+02  0.51100000000E-03 0.  1.
         11   -1    0    0    0    0 -0.00000000000E+00 -0.00000000000E+00 -0.45593999997E+02  0.45594000000E+02  0.51100000000E-03 0. -1.
    9900012    2    1    2    0    0 -0.12319795200E+02  0.79906892728E+01 -0.28303574880E+02  0.59301940039E+02  0.49999992725E+02 0.  0.
        -12    1    1    2    0    0  0.12319795200E+02 -0.79906892728E+01  0.28303574880E+02  0.31886059961E+02  0.00000000000E+00 0.  1.
         11    1    3    3    0    0  0.52369887769E+01 -0.16925040665E+01  0.59428595525E+00  0.55356840157E+01  0.51100000000E-03 0. -1.
        -11    1    3    3    0    0 -0.46785444031E+01 -0.15944475634E+02 -0.11721720671E+02  0.20335039137E+02  0.51100000000E-03 0.  1.
         12    1    3    3    0    0 -0.12878239574E+02  0.25627668973E+02 -0.17176140164E+02  0.33431216886E+02  0.00000000000E+00 0. -1.
</event>
<event>
 7    1  0.3750159E-013  0.5930196E+02  0.7816164E-02  0.1266605E+00
        -11   -1    0    0    0    0  0.00000000000E+00  0.00000000000E+00  0.45593999997E+02  0.45594000000E+02  0.51100000000E-03 0.  1.
         11   -1    0    0    0    0 -0.00000000000E+00 -0.00000000000E+00 -0.45593999997E+02  0.45594000000E+02  0.51100000000E-03 0. -1.
    9900012    2    1    2    0    0  0.17943996259E+02  0.22994162737E+02 -0.12884137195E+02  0.59301960532E+02  0.50000030100E+02 0.  0.
        -12    1    1    2    0    0 -0.17943996259E+02 -0.22994162737E+02  0.12884137195E+02  0.31886039468E+02  0.00000000000E+00 0.  1.
         11    1    3    3    0    0  0.37603282255E+01 -0.96656560302E+01  0.37152042029E+01  0.11016701747E+02  0.51100000000E-03 0. -1.
        -11    1    3    3    0    0  0.12997585391E+01 -0.43367798253E+01  0.19626450541E+01  0.49344713377E+01  0.51100000000E-03 0.  1.
         12    1    3    3    0    0  0.12883909494E+02  0.36996598592E+02 -0.18561986452E+02  0.43350787447E+02  0.00000000000E+00 0. -1.
</event>
<event>
 7    1  0.3750159E-013  0.5930196E+02  0.7816164E-02  0.1266605E+00
        -11   -1    0    0    0    0  0.00000000000E+00  0.00000000000E+00  0.45593999997E+02  0.45594000000E+02  0.51100000000E-03 0.  1.
         11   -1    0    0    0    0 -0.00000000000E+00 -0.00000000000E+00 -0.45593999997E+02  0.45594000000E+02  0.51100000000E-03 0. -1.
    9900012    2    1    2    0    0  0.22062936956E+02 -0.14208024039E+02 -0.18112934193E+02  0.59301960432E+02  0.50000029918E+02 0.  0.
        -12    1    1    2    0    0 -0.22062936956E+02  0.14208024039E+02  0.18112934193E+02  0.31886039568E+02  0.00000000000E+00 0.  1.
         11    1    3    3    0    0  0.60326262564E+01  0.15688982591E+02 -0.10568868892E+02  0.19855421028E+02  0.51100000000E-03 0. -1.
        -11    1    3    3    0    0  0.73644360537E+01 -0.27377867782E+01  0.38452978502E+01  0.87473830744E+01  0.51100000000E-03 0.  1.
        -12    1    3    3    0    0  0.86658746457E+01 -0.27159219852E+02 -0.11389363151E+02  0.30699156330E+02  0.00000000000E+00 0.  1.
</event>
<event>
 7    1  0.3750159E-013  0.5930195E+02  0.7816164E-02  0.1266605E+00
        -11   -1    0    0    0    0  0.00000000000E+00  0.00000000000E+00  0.45593999997E+02  0.45594000000E+02  0.51100000000E-03 0.  1.
         11   -1    0    0    0    0 -0.00000000000E+00 -0.00000000000E+00 -0.45593999997E+02  0.45594000000E+02  0.51100000000E-03 0. -1.
    9900012    2    1    2    0    0  0.22418479929E+01  0.31797480607E+02 -0.78383864129E+00  0.59301951980E+02  0.50000014502E+02 0.  0.
        -12    1    1    2    0    0 -0.22418479929E+01 -0.31797480607E+02  0.78383864129E+00  0.31886048020E+02  0.00000000000E+00 0.  1.
         11    1    3    3    0    0 -0.12529421151E+02  0.27486236275E+02  0.13497959627E+02  0.33085865461E+02  0.51100000000E-03 0. -1.
        -11    1    3    3    0    0 -0.19778962278E+01  0.38916844462E+01 -0.26825778052E+00  0.43736990997E+01  0.51100000000E-03 0.  1.
        -12    1    3    3    0    0  0.16749165372E+02  0.41955988531E+00 -0.14013540488E+02  0.21842387419E+02  0.00000000000E+00 0.  1.
</event>
<event>
 7    1  0.3750159E-013  0.5930194E+02  0.7816164E-02  0.1266605E+00
        -11   -1    0    0    0    0  0.00000000000E+00  0.00000000000E+00  0.45593999997E+02  0.45594000000E+02  0.51100000000E-03 0. -1.
         11   -1    0    0    0    0 -0.00000000000E+00 -0.00000000000E+00 -0.45593999997E+02  0.45594000000E+02  0.51100000000E-03 0.  1.
    9900012    2    1    2    0    0  0.14952801314E+02 -0.11511575358E+02  0.25702498076E+02  0.59301936560E+02  0.49999986380E+02 0.  0.
        -12    1    1    2    0    0 -0.14952801314E+02  0.11511575358E+02 -0.25702498076E+02  0.31886063440E+02  0.00000000000E+00 0.  1.
         11    1    3    3    0    0  0.33992994406E+01 -0.40961087052E+01  0.43259436570E+01  0.68590911932E+01  0.51100000000E-03 0. -1.
        -11    1    3    3    0    0  0.28394255281E+02 -0.70547473740E+01  0.20207627376E+02  0.35557719245E+02  0.51100000000E-03 0.  1.
        -12    1    3    3    0    0 -0.16840753407E+02 -0.36071927906E+00  0.11689270433E+01  0.16885126122E+02  0.00000000000E+00 0.  1.
</event>
<event>
 7    1  0.3750159E-013  0.5930195E+02  0.7816164E-02  0.1266605E+00
        -11   -1    0    0    0    0  0.00000000000E+00  0.00000000000E+00  0.45593999997E+02  0.45594000000E+02  0.51100000000E-03 0.  1.
         11   -1    0    0    0    0 -0.00000000000E+00 -0.00000000000E+00 -0.45593999997E+02  0.45594000000E+02  0.51100000000E-03 0. -1.
    9900012    2    1    2    0    0 -0.56846215061E+01 -0.10162666197E+02 -0.29683756906E+02  0.59301950857E+02  0.50000012454E+02 0.  0.
        -12    1    1    2    0    0  0.56846215061E+01  0.10162666197E+02  0.29683756906E+02  0.31886049143E+02  0.00000000000E+00 0.  1.
         11    1    3    3    0    0 -0.13728948277E+02 -0.12834850006E+02 -0.24220572046E+02  0.30657030286E+02  0.51100000000E-03 0. -1.
        -11    1    3    3    0    0  0.99904066459E+01  0.12306924427E+02 -0.89643590038E+01  0.18210665732E+02  0.51100000000E-03 0.  1.
        -12    1    3    3    0    0 -0.19460798753E+01 -0.96347406174E+01  0.35011741440E+01  0.10434254838E+02  0.00000000000E+00 0.  1.
</event>
<event>
 7    1  0.3750159E-013  0.5930191E+02  0.7816164E-02  0.1266605E+00
        -11   -1    0    0    0    0  0.00000000000E+00  0.00000000000E+00  0.45593999997E+02  0.45594000000E+02  0.51100000000E-03 0. -1.
         11   -1    0    0    0    0 -0.00000000000E+00 -0.00000000000E+00 -0.45593999997E+02  0.45594000000E+02  0.51100000000E-03 0.  1.
    9900012    2    1    2    0    0  0.28016486446E+02 -0.10656935356E+02  0.10873311022E+02  0.59301910924E+02  0.49999939627E+02 0.  0.
        -12    1    1    2    0    0 -0.28016486446E+02  0.10656935356E+02 -0.10873311022E+02  0.31886089076E+02  0.00000000000E+00 0.  1.
         11    1    3    3    0    0 -0.22949759873E+01  0.77834498456E+01  0.98349799059E+01  0.12750522981E+02  0.51100000000E-03 0. -1.
        -11    1    3    3    0    0  0.61146103524E+01  0.56030694738E+01  0.82369209768E+01  0.11688871405E+02  0.51100000000E-03 0.  1.
         12    1    3    3    0    0  0.24196852081E+02 -0.24043454676E+02 -0.71985898612E+01  0.34862516538E+02  0.00000000000E+00 0. -1.
</event>
<event>
 7    1  0.3750159E-013  0.5930193E+02  0.7816164E-02  0.1266605E+00
        -11   -1    0    0    0    0  0.00000000000E+00  0.00000000000E+00  0.45593999997E+02  0.45594000000E+02  0.51100000000E-03 0. -1.
         11   -1    0    0    0    0 -0.00000000000E+00 -0.00000000000E+00 -0.45593999997E+02  0.45594000000E+02  0.51100000000E-03 0.  1.
    9900012    2    1    2    0    0 -0.32504382146E+01 -0.31504846808E+02 -0.36879451377E+01  0.59301926859E+02  0.49999968689E+02 0.  0.
        -12    1    1    2    0    0  0.32504382146E+01  0.31504846808E+02  0.36879451377E+01  0.31886073141E+02  0.00000000000E+00 0.  1.
         11    1    3    3    0    0 -0.11545048762E+02 -0.81434111367E+01 -0.14035743488E+02  0.19914953964E+02  0.51100000000E-03 0. -1.
        -11    1    3    3    0    0  0.36632564630E+01 -0.24655789760E+02 -0.30875706363E+01  0.25116936702E+02  0.51100000000E-03 0.  1.
         12    1    3    3    0    0  0.46313540848E+01  0.12943540887E+01  0.13435368986E+02  0.14270036193E+02  0.00000000000E+00 0. -1.
</event>
<event>
 7    1  0.3750159E-013  0.5930195E+02  0.7816164E-02  0.1266605E+00
        -11   -1    0    0    0    0  0.00000000000E+00  0.00000000000E+00  0.45593999997E+02  0.45594000000E+02  0.51100000000E-03 0.  1.
         11   -1    0    0    0    0 -0.00000000000E+00 -0.00000000000E+00 -0.45593999997E+02  0.45594000000E+02  0.51100000000E-03 0. -1.
    9900012    2    1    2    0    0 -0.11902454091E+02 -0.57051157332E+01 -0.29025906061E+02  0.59301953184E+02  0.50000016699E+02 0.  0.
        -12    1    1    2    0    0  0.11902454091E+02  0.57051157332E+01  0.29025906061E+02  0.31886046816E+02  0.00000000000E+00 0.  1.
         11    1    3    3    0    0 -0.80270148604E+01 -0.90564743599E+01 -0.36335133493E+01  0.12635470507E+02  0.51100000000E-03 0. -1.
        -11    1    3    3    0    0  0.73217550746E+01  0.50255204028E+01  0.76606809015E+01  0.11728170566E+02  0.51100000000E-03 0.  1.
         12    1    3    3    0    0 -0.11197194305E+02 -0.16741617761E+01 -0.33053073613E+02  0.34938312112E+02  0.00000000000E+00 0. -1.
</event>
<event>
 7    1  0.3750159E-013  0.5930197E+02  0.7816164E-02  0.1266605E+00
        -11   -1    0    0    0    0  0.00000000000E+00  0.00000000000E+00  0.45593999997E+02  0.45594000000E+02  0.51100000000E-03 0.  1.
         11   -1    0    0    0    0 -0.00000000000E+00 -0.00000000000E+00 -0.45593999997E+02  0.45594000000E+02  0.51100000000E-03 0. -1.
    9900012    2    1    2    0    0  0.17277920426E+02  0.15842968558E+02 -0.21614647516E+02  0.59301965844E+02  0.50000039788E+02 0.  0.
        -12    1    1    2    0    0 -0.17277920426E+02 -0.15842968558E+02  0.21614647516E+02  0.31886034156E+02  0.00000000000E+00 0.  1.
         11    1    3    3    0    0  0.51630248036E+01  0.81159329736E+01 -0.29113773810E+02  0.30661653884E+02  0.51100000000E-03 0. -1.
        -11    1    3    3    0    0 -0.11134105845E+01  0.74158491723E+00 -0.74042200233E+01  0.75241016563E+01  0.51100000000E-03 0.  1.
        -12    1    3    3    0    0  0.13228306207E+02  0.69854506668E+01  0.14903346318E+02  0.21116210304E+02  0.00000000000E+00 0.  1.
</event>
<event>
 7    1  0.3750159E-013  0.5930193E+02  0.7816164E-02  0.1266605E+00
        -11   -1    0    0    0    0  0.00000000000E+00  0.00000000000E+00  0.45593999997E+02  0.45594000000E+02  0.51100000000E-03 0.  1.
         11   -1    0    0    0    0 -0.00000000000E+00 -0.00000000000E+00 -0.45593999997E+02  0.45594000000E+02  0.51100000000E-03 0. -1.
    9900012    2    1    2    0    0  0.25151169889E+01 -0.31576351557E+02 -0.36509410870E+01  0.59301934675E+02  0.49999982943E+02 0.  0.
        -12    1    1    2    0    0 -0.25151169889E+01  0.31576351557E+02  0.36509410870E+01  0.31886065325E+02  0.00000000000E+00 0.  1.
         11    1    3    3    0    0 -0.86487263820E+01 -0.16188892037E+02 -0.15311798231E+02  0.23902549211E+02  0.51100000000E-03 0. -1.
        -11    1    3    3    0    0  0.50110416273E+01 -0.13419472331E+02 -0.67885585874E+01  0.15851728732E+02  0.51100000000E-03 0.  1.
        -12    1    3    3    0    0  0.61528017435E+01 -0.19679871881E+01  0.18449415732E+02  0.19547656732E+02  0.00000000000E+00 0.  1.
</event>
<event>
 7    1  0.3750159E-013  0.5930187E+02  0.7816164E-02  0.1266605E+00
        -11   -1    0    0    0    0  0.00000000000E+00  0.00000000000E+00  0.45593999997E+02  0.45594000000E+02  0.51100000000E-03 0.  1.
         11   -1    0    0    0    0 -0.00000000000E+00 -0.00000000000E+00 -0.45593999997E+02  0.45594000000E+02  0.51100000000E-03 0. -1.
    9900012    2    1    2    0    0  0.68183774886E+01  0.14878363286E+02 -0.27365476971E+02  0.59301869857E+02  0.49999864730E+02 0.  0.
        -12    1    1    2    0    0 -0.68183774886E+01 -0.14878363286E+02  0.27365476971E+02  0.31886130143E+02  0.00000000000E+00 0.  1.
         11    1    3    3    0    0 -0.50848370320E+01 -0.41101111740E+01 -0.33383736926E+01  0.73412070313E+01  0.51100000000E-03 0. -1.
        -11    1    3    3    0    0  0.85115941909E+01 -0.44181421838E+01 -0.26498861745E+02  0.28180789379E+02  0.51100000000E-03 0.  1.
        -12    1    3    3    0    0  0.33916203298E+01  0.23406616644E+02  0.24717584661E+01  0.23779873446E+02  0.00000000000E+00 0.  1.
</event>
<event>
 7    1  0.3750159E-013  0.5930195E+02  0.7816164E-02  0.1266605E+00
        -11   -1    0    0    0    0  0.00000000000E+00  0.00000000000E+00  0.45593999997E+02  0.45594000000E+02  0.51100000000E-03 0.  1.
         11   -1    0    0    0    0 -0.00000000000E+00 -0.00000000000E+00 -0.45593999997E+02  0.45594000000E+02  0.51100000000E-03 0. -1.
    9900012    2    1    2    0    0  0.20019255287E+02 -0.24361054431E+02 -0.47422074629E+01  0.59301951532E+02  0.50000013686E+02 0.  0.
        -12    1    1    2    0    0 -0.20019255287E+02  0.24361054431E+02  0.47422074629E+01  0.31886048468E+02  0.00000000000E+00 0.  1.
         11    1    3    3    0    0 -0.49591563474E+01 -0.14212583673E+00 -0.94991435909E+00  0.50513135898E+01  0.51100000000E-03 0. -1.
        -11    1    3    3    0    0 -0.21747731116E+01  0.58464826480E+01 -0.11433355474E+02  0.13024308622E+02  0.51100000000E-03 0.  1.
        -12    1    3    3    0    0  0.27153184746E+02 -0.30065411243E+02  0.76410623698E+01  0.41226329320E+02  0.00000000000E+00 0.  1.
</event>
<event>
 7    1  0.3750159E-013  0.5930204E+02  0.7816164E-02  0.1266604E+00
        -11   -1    0    0    0    0  0.00000000000E+00  0.00000000000E+00  0.45593999997E+02  0.45594000000E+02  0.51100000000E-03 0.  1.
         11   -1    0    0    0    0 -0.00000000000E+00 -0.00000000000E+00 -0.45593999997E+02  0.45594000000E+02  0.51100000000E-03 0. -1.
    9900012    2    1    2    0    0 -0.28886849668E+02  0.51532092011E+01 -0.12478335449E+02  0.59302039071E+02  0.50000173335E+02 0.  0.
        -12    1    1    2    0    0  0.28886849668E+02 -0.51532092011E+01  0.12478335449E+02  0.31885960929E+02  0.00000000000E+00 0.  1.
         11    1    3    3    0    0 -0.17508301852E+02  0.27901964907E+01 -0.11678781876E+02  0.21230161953E+02  0.51100000000E-03 0. -1.
        -11    1    3    3    0    0 -0.24401713793E+02  0.14969402252E+01 -0.36326612769E+01  0.24716000775E+02  0.51100000000E-03 0.  1.
         12    1    3    3    0    0  0.13023165977E+02  0.86607248533E+00  0.28331077036E+01  0.13355876343E+02  0.00000000000E+00 0. -1.
</event>
<event>
 7    1  0.3750159E-013  0.5930195E+02  0.7816164E-02  0.1266605E+00
        -11   -1    0    0    0    0  0.00000000000E+00  0.00000000000E+00  0.45593999997E+02  0.45594000000E+02  0.51100000000E-03 0.  1.
         11   -1    0    0    0    0 -0.00000000000E+00 -0.00000000000E+00 -0.45593999997E+02  0.45594000000E+02  0.51100000000E-03 0. -1.
    9900012    2    1    2    0    0  0.59065592679E+01 -0.91503142762E+01  0.29968396115E+02  0.59301945691E+02  0.50000003033E+02 0.  0.
        -12    1    1    2    0    0 -0.59065592679E+01  0.91503142762E+01 -0.29968396115E+02  0.31886054309E+02  0.00000000000E+00 0.  1.
         11    1    3    3    0    0 -0.26977611393E+01  0.38566222191E+01 -0.33203372027E+01  0.57598688793E+01  0.51100000000E-03 0. -1.
        -11    1    3    3    0    0  0.19099545316E+02 -0.17802185503E+02  0.10778812085E+02  0.28247003915E+02  0.51100000000E-03 0.  1.
         12    1    3    3    0    0 -0.10495224909E+02  0.47952490074E+01  0.22509921233E+02  0.25295072896E+02  0.00000000000E+00 0. -1.
</event>
<event>
 7    1  0.3750159E-013  0.5930195E+02  0.7816164E-02  0.1266605E+00
        -11   -1    0    0    0    0  0.00000000000E+00  0.00000000000E+00  0.45593999997E+02  0.45594000000E+02  0.51100000000E-03 0.  1.
         11   -1    0    0    0    0 -0.00000000000E+00 -0.00000000000E+00 -0.45593999997E+02  0.45594000000E+02  0.51100000000E-03 0. -1.
    9900012    2    1    2    0    0  0.24776042302E+02  0.19637318401E+02  0.41525248924E+01  0.59301952752E+02  0.50000015910E+02 0.  0.
        -12    1    1    2    0    0 -0.24776042302E+02 -0.19637318401E+02 -0.41525248924E+01  0.31886047248E+02  0.00000000000E+00 0.  1.
         11    1    3    3    0    0  0.53662457279E+01 -0.48118581905E+01 -0.42451993633E+01  0.83649441333E+01  0.51100000000E-03 0.  1.
        -11    1    3    3    0    0  0.28716237179E+01 -0.46952674008E+01 -0.10940951129E+02  0.12247292379E+02  0.51100000000E-03 0. -1.
        -12    1    3    3    0    0  0.16538172856E+02  0.29144443992E+02  0.19338675385E+02  0.38689716239E+02  0.00000000000E+00 0.  1.
</event>
<event>
 7    1  0.3750159E-013  0.5930194E+02  0.7816164E-02  0.1266605E+00
        -11   -1    0    0    0    0  0.00000000000E+00  0.00000000000E+00  0.45593999997E+02  0.45594000000E+02  0.51100000000E-03 0. -1.
         11   -1    0    0    0    0 -0.00000000000E+00 -0.00000000000E+00 -0.45593999997E+02  0.45594000000E+02  0.51100000000E-03 0.  1.
    9900012    2    1    2    0    0  0.25368055713E+02  0.19309108525E+02 -0.58364158000E+00  0.59301944111E+02  0.50000000151E+02 0.  0.
        -12    1    1    2    0    0 -0.25368055713E+02 -0.19309108525E+02  0.58364158000E+00  0.31886055889E+02  0.00000000000E+00 0.  1.
         11    1    3    3    0    0  0.10825344125E+02 -0.65029605893E+01  0.41599320260E+01  0.13295924434E+02  0.51100000000E-03 0. -1.
        -11    1    3    3    0    0 -0.11390021525E+02  0.77409976548E+01  0.12735520242E+01  0.13830313448E+02  0.51100000000E-03 0.  1.
         12    1    3    3    0    0  0.25932733114E+02  0.18071071459E+02 -0.60171256301E+01  0.32175706229E+02  0.00000000000E+00 0. -1.
</event>
<event>
 7    1  0.3750159E-013  0.5930190E+02  0.7816164E-02  0.1266605E+00
        -11   -1    0    0    0    0  0.00000000000E+00  0.00000000000E+00  0.45593999997E+02  0.45594000000E+02  0.51100000000E-03 0.  1.
         11   -1    0    0    0    0 -0.00000000000E+00 -0.00000000000E+00 -0.45593999997E+02  0.45594000000E+02  0.51100000000E-03 0. -1.
    9900012    2    1    2    0    0  0.47418446332E+01  0.12060236531E+02 -0.29133984418E+02  0.59301898894E+02  0.49999917686E+02 0.  0.
        -12    1    1    2    0    0 -0.47418446332E+01 -0.12060236531E+02  0.29133984418E+02  0.31886101106E+02  0.00000000000E+00 0.  1.
         11    1    3    3    0    0 -0.63443031118E+01 -0.67132316518E+01 -0.19813068392E+01  0.94468639366E+01  0.51100000000E-03 0. -1.
        -11    1    3    3    0    0 -0.10279953808E+02 -0.35487755505E+01 -0.61576188354E+01  0.12497500878E+02  0.51100000000E-03 0.  1.
         12    1    3    3    0    0  0.21366101553E+02  0.22322243733E+02 -0.20995058743E+02  0.37357534079E+02  0.00000000000E+00 0. -1.
</event>
<event>
 7    1  0.3750159E-013  0.5930198E+02  0.7816164E-02  0.1266605E+00
        -11   -1    0    0    0    0  0.00000000000E+00  0.00000000000E+00  0.45593999997E+02  0.45594000000E+02  0.51100000000E-03 0.  1.
         11   -1    0    0    0    0 -0.00000000000E+00 -0.00000000000E+00 -0.45593999997E+02  0.45594000000E+02  0.51100000000E-03 0. -1.
    9900012    2    1    2    0    0  0.14501143570E+01 -0.10071745058E+02 -0.30218795805E+02  0.59301976415E+02  0.50000059067E+02 0.  0.
        -12    1    1    2    0    0 -0.14501143570E+01  0.10071745058E+02  0.30218795805E+02  0.31886023585E+02  0.00000000000E+00 0.  1.
         11    1    3    3    0    0  0.77317680867E+01  0.89995163079E+01 -0.54070185314E+01  0.13038687863E+02  0.51100000000E-03 0. -1.
        -11    1    3    3    0    0  0.30009933702E+01  0.82547225968E+01 -0.98416260924E+00  0.88382680804E+01  0.51100000000E-03 0.  1.
         12    1    3    3    0    0 -0.92826471000E+01 -0.27325983963E+02 -0.23827614664E+02  0.37425020472E+02  0.00000000000E+00 0. -1.
</event>
<event>
 7    1  0.3750159E-013  0.5930194E+02  0.7816164E-02  0.1266605E+00
        -11   -1    0    0    0    0  0.00000000000E+00  0.00000000000E+00  0.45593999997E+02  0.45594000000E+02  0.51100000000E-03 0.  1.
         11   -1    0    0    0    0 -0.00000000000E+00 -0.00000000000E+00 -0.45593999997E+02  0.45594000000E+02  0.51100000000E-03 0. -1.
    9900012    2    1    2    0    0  0.29275793259E+02  0.74290541736E+01  0.10220452741E+02  0.59301943939E+02  0.49999999839E+02 0.  0.
        -12    1    1    2    0    0 -0.29275793259E+02 -0.74290541736E+01 -0.10220452741E+02  0.31886056061E+02  0.00000000000E+00 0.  1.
         11    1    3    3    0    0  0.30026992627E+01  0.16409011827E+02 -0.89487525952E+00  0.16705468386E+02  0.51100000000E-03 0. -1.
        -11    1    3    3    0    0 -0.81046212007E+00 -0.41462320967E+01  0.14290906110E+02  0.14902284629E+02  0.51100000000E-03 0.  1.
         12    1    3    3    0    0  0.27083556117E+02 -0.48337255563E+01 -0.31755781091E+01  0.27694190925E+02  0.00000000000E+00 0. -1.
</event>
<event>
 7    1  0.3750159E-013  0.5930193E+02  0.7816164E-02  0.1266605E+00
        -11   -1    0    0    0    0  0.00000000000E+00  0.00000000000E+00  0.45593999997E+02  0.45594000000E+02  0.51100000000E-03 0.  1.
         11   -1    0    0    0    0 -0.00000000000E+00 -0.00000000000E+00 -0.45593999997E+02  0.45594000000E+02  0.51100000000E-03 0. -1.
    9900012    2    1    2    0    0 -0.25571046510E+02  0.15974327239E+02  0.10376130665E+02  0.59301927211E+02  0.49999969330E+02 0.  0.
        -12    1    1    2    0    0  0.25571046510E+02 -0.15974327239E+02 -0.10376130665E+02  0.31886072789E+02  0.00000000000E+00 0.  1.
         11    1    3    3    0    0  0.44824165225E+00  0.90171995040E+01 -0.10926603899E+02  0.14173971938E+02  0.51100000000E-03 0. -1.
        -11    1    3    3    0    0 -0.20629871124E+01 -0.28473550905E+01  0.18795803096E+02  0.19121860817E+02  0.51100000000E-03 0.  1.
         12    1    3    3    0    0 -0.23956301049E+02  0.98044828255E+01  0.25069314688E+01  0.26006094456E+02  0.00000000000E+00 0. -1.
</event>
<event>
 7    1  0.3750159E-013  0.5930195E+02  0.7816164E-02  0.1266605E+00
        -11   -1    0    0    0    0  0.00000000000E+00  0.00000000000E+00  0.45593999997E+02  0.45594000000E+02  0.51100000000E-03 0. -1.
         11   -1    0    0    0    0 -0.00000000000E+00 -0.00000000000E+00 -0.45593999997E+02  0.45594000000E+02  0.51100000000E-03 0.  1.
    9900012    2    1    2    0    0  0.29103272075E+02  0.88855393018E+01  0.95271572852E+01  0.59301953207E+02  0.50000016741E+02 0.  0.
        -12    1    1    2    0    0 -0.29103272075E+02 -0.88855393018E+01 -0.95271572852E+01  0.31886046793E+02  0.00000000000E+00 0.  1.
         11    1    3    3    0    0  0.19117299798E+02  0.40043679334E+01  0.19167808240E+02  0.27366238088E+02  0.51100000000E-03 0. -1.
        -11    1    3    3    0    0  0.10158089130E+01 -0.11615777446E+02 -0.40430634573E+01  0.12341171574E+02  0.51100000000E-03 0.  1.
         12    1    3    3    0    0  0.89701633645E+01  0.16496948814E+02 -0.55975874972E+01  0.19594543546E+02  0.00000000000E+00 0. -1.
</event>
<event>
 7    1  0.3750159E-013  0.5930190E+02  0.7816164E-02  0.1266605E+00
        -11   -1    0    0    0    0  0.00000000000E+00  0.00000000000E+00  0.45593999997E+02  0.45594000000E+02  0.51100000000E-03 0.  1.
         11   -1    0    0    0    0 -0.00000000000E+00 -0.00000000000E+00 -0.45593999997E+02  0.45594000000E+02  0.51100000000E-03 0. -1.
    9900012    2    1    2    0    0  0.14551263717E+02 -0.17509230457E+02 -0.22325124366E+02  0.59301896367E+02  0.49999913078E+02 0.  0.
        -12    1    1    2    0    0 -0.14551263717E+02  0.17509230457E+02  0.22325124366E+02  0.31886103633E+02  0.00000000000E+00 0.  1.
         11    1    3    3    0    0  0.90596813902E+01 -0.19964200032E+01 -0.18839637852E+02  0.20999892246E+02  0.51100000000E-03 0. -1.
        -11    1    3    3    0    0 -0.23737471959E+01 -0.25008911424E+02  0.11029660837E+01  0.25145513731E+02  0.51100000000E-03 0.  1.
         12    1    3    3    0    0  0.78653295224E+01  0.94961009700E+01 -0.45884525978E+01  0.13156490390E+02  0.00000000000E+00 0. -1.
</event>
<event>
 7    1  0.3750159E-013  0.5930187E+02  0.7816164E-02  0.1266605E+00
        -11   -1    0    0    0    0  0.00000000000E+00  0.00000000000E+00  0.45593999997E+02  0.45594000000E+02  0.51100000000E-03 0. -1.
         11   -1    0    0    0    0 -0.00000000000E+00 -0.00000000000E+00 -0.45593999997E+02  0.45594000000E+02  0.51100000000E-03 0.  1.
    9900012    2    1    2    0    0  0.11089991536E+02  0.15289576342E+02  0.25689808386E+02  0.59301869600E+02  0.49999864262E+02 0.  0.
        -12    1    1    2    0    0 -0.11089991536E+02 -0.15289576342E+02 -0.25689808386E+02  0.31886130400E+02  0.00000000000E+00 0.  1.
         11    1    3    3    0    0 -0.88163206427E+01 -0.54035885581E+01  0.50982586656E+00  0.10353076917E+02  0.51100000000E-03 0. -1.
        -11    1    3    3    0    0  0.39216500635E+01  0.50506516395E+01 -0.71784726118E+01  0.96134744242E+01  0.51100000000E-03 0.  1.
        -12    1    3    3    0    0  0.15984662115E+02  0.15642513261E+02  0.32358455131E+02  0.39335318259E+02  0.00000000000E+00 0.  1.
</event>
<event>
 7    1  0.3750159E-013  0.5930193E+02  0.7816164E-02  0.1266605E+00
        -11   -1    0    0    0    0  0.00000000000E+00  0.00000000000E+00  0.45593999997E+02  0.45594000000E+02  0.51100000000E-03 0.  1.
         11   -1    0    0    0    0 -0.00000000000E+00 -0.00000000000E+00 -0.45593999997E+02  0.45594000000E+02  0.51100000000E-03 0. -1.
    9900012    2    1    2    0    0  0.28320979316E+01 -0.60842265538E+00 -0.31754217215E+02  0.59301933015E+02  0.49999979916E+02 0.  0.
        -12    1    1    2    0    0 -0.28320979316E+01  0.60842265538E+00  0.31754217215E+02  0.31886066985E+02  0.00000000000E+00 0.  1.
         11    1    3    3    0    0 -0.72149001733E+01  0.20531495853E+01 -0.25828619610E+00  0.75057924133E+01  0.51100000000E-03 0. -1.
        -11    1    3    3    0    0  0.18486574439E+01 -0.19445297453E+02 -0.64879766340E+01  0.20582297453E+02  0.51100000000E-03 0.  1.
        -12    1    3    3    0    0  0.81983406610E+01  0.16783725213E+02 -0.25007954385E+02  0.31213843149E+02  0.00000000000E+00 0.  1.
</event>
<event>
 7    1  0.3750159E-013  0.5930192E+02  0.7816164E-02  0.1266605E+00
        -11   -1    0    0    0    0  0.00000000000E+00  0.00000000000E+00  0.45593999997E+02  0.45594000000E+02  0.51100000000E-03 0.  1.
         11   -1    0    0    0    0 -0.00000000000E+00 -0.00000000000E+00 -0.45593999997E+02  0.45594000000E+02  0.51100000000E-03 0. -1.
    9900012    2    1    2    0    0 -0.23347073545E+02  0.79770772203E+01  0.20199066769E+02  0.59301923063E+02  0.49999961766E+02 0.  0.
        -12    1    1    2    0    0  0.23347073545E+02 -0.79770772203E+01 -0.20199066769E+02  0.31886076937E+02  0.00000000000E+00 0.  1.
         11    1    3    3    0    0 -0.14370606573E+01  0.84256194409E+00 -0.21317079098E+01  0.27054080720E+01  0.51100000000E-03 0. -1.
        -11    1    3    3    0    0 -0.14081277157E+02 -0.31255749827E+01 -0.12728617480E+02  0.19237185048E+02  0.51100000000E-03 0.  1.
        -12    1    3    3    0    0 -0.78287357313E+01  0.10260090259E+02  0.35059392159E+02  0.37359329943E+02  0.00000000000E+00 0.  1.
</event>
<event>
 7    1  0.3750159E-013  0.5930197E+02  0.7816164E-02  0.1266605E+00
        -11   -1    0    0    0    0  0.00000000000E+00  0.00000000000E+00  0.45593999997E+02  0.45594000000E+02  0.51100000000E-03 0. -1.
         11   -1    0    0    0    0 -0.00000000000E+00 -0.00000000000E+00 -0.45593999997E+02  0.45594000000E+02  0.51100000000E-03 0.  1.
    9900012    2    1    2    0    0 -0.27841137424E+02 -0.68570608359E-01  0.15543004355E+02  0.59301974544E+02  0.50000055654E+02 0.  0.
        -12    1    1    2    0    0  0.27841137424E+02  0.68570608359E-01 -0.15543004355E+02  0.31886025456E+02  0.00000000000E+00 0.  1.
         11    1    3    3    0    0 -0.86882206317E+01 -0.13917876443E+02  0.10445535718E+01  0.16440302760E+02  0.51100000000E-03 0. -1.
        -11    1    3    3    0    0  0.64327338173E+01 -0.33104400096E+01  0.90337352038E+01  0.11573566841E+02  0.51100000000E-03 0.  1.
         12    1    3    3    0    0 -0.25585650610E+02  0.17159745844E+02  0.54647155794E+01  0.31288104943E+02  0.00000000000E+00 0. -1.
</event>
<event>
 7    1  0.3750159E-013  0.5930195E+02  0.7816164E-02  0.1266605E+00
        -11   -1    0    0    0    0  0.00000000000E+00  0.00000000000E+00  0.45593999997E+02  0.45594000000E+02  0.51100000000E-03 0.  1.
         11   -1    0    0    0    0 -0.00000000000E+00 -0.00000000000E+00 -0.45593999997E+02  0.45594000000E+02  0.51100000000E-03 0. -1.
    9900012    2    1    2    0    0  0.20019654182E+02 -0.24093817989E+02 -0.59515766050E+01  0.59301954730E+02  0.50000019519E+02 0.  0.
        -12    1    1    2    0    0 -0.20019654182E+02  0.24093817989E+02  0.59515766050E+01  0.31886045270E+02  0.00000000000E+00 0.  1.
         11    1    3    3    0    0  0.15117176964E+02  0.40889364501E+01  0.12304079632E+01  0.15708671003E+02  0.51100000000E-03 0. -1.
        -11    1    3    3    0    0  0.14964385646E+02 -0.35110206192E+01  0.17992207150E+01  0.15475700275E+02  0.51100000000E-03 0.  1.
        -12    1    3    3    0    0 -0.10061908428E+02 -0.24671733820E+02 -0.89812052832E+01  0.28117583453E+02  0.00000000000E+00 0.  1.
</event>
<event>
 7    1  0.3750159E-013  0.5930187E+02  0.7816164E-02  0.1266605E+00
        -11   -1    0    0    0    0  0.00000000000E+00  0.00000000000E+00  0.45593999997E+02  0.45594000000E+02  0.51100000000E-03 0.  1.
         11   -1    0    0    0    0 -0.00000000000E+00 -0.00000000000E+00 -0.45593999997E+02  0.45594000000E+02  0.51100000000E-03 0. -1.
    9900012    2    1    2    0    0 -0.85091976107E+01  0.30541965439E+02 -0.33921812366E+01  0.59301874642E+02  0.49999873456E+02 0.  0.
        -12    1    1    2    0    0  0.85091976107E+01 -0.30541965439E+02  0.33921812366E+01  0.31886125358E+02  0.00000000000E+00 0.  1.
         11    1    3    3    0    0 -0.66603229630E+01  0.16371692495E+02 -0.68493488264E+01  0.18955363270E+02  0.51100000000E-03 0. -1.
        -11    1    3    3    0    0 -0.25446197197E+01  0.17799920283E+02  0.17939796472E+02  0.25399774592E+02  0.51100000000E-03 0.  1.
         12    1    3    3    0    0  0.69574507193E+00 -0.36296473394E+01 -0.14482628882E+02  0.14946736779E+02  0.00000000000E+00 0. -1.
</event>
<event>
 7    1  0.3750159E-013  0.5930195E+02  0.7816164E-02  0.1266605E+00
        -11   -1    0    0    0    0  0.00000000000E+00  0.00000000000E+00  0.45593999997E+02  0.45594000000E+02  0.51100000000E-03 0. -1.
         11   -1    0    0    0    0 -0.00000000000E+00 -0.00000000000E+00 -0.45593999997E+02  0.45594000000E+02  0.51100000000E-03 0.  1.
    9900012    2    1    2    0    0  0.28547163170E+02 -0.13115153063E+02  0.54563859808E+01  0.59301954260E+02  0.50000018662E+02 0.  0.
        -12    1    1    2    0    0 -0.28547163170E+02  0.13115153063E+02 -0.54563859808E+01  0.31886045740E+02  0.00000000000E+00 0.  1.
         11    1    3    3    0    0 -0.11003929296E+02 -0.23075275890E+00  0.44292472381E+01  0.11864145066E+02  0.51100000000E-03 0. -1.
        -11    1    3    3    0    0  0.29606566480E+01 -0.71137782982E+01 -0.59607754909E+01  0.97417746934E+01  0.51100000000E-03 0.  1.
         12    1    3    3    0    0  0.36590435819E+02 -0.57706220060E+01  0.69879142336E+01  0.37696034501E+02  0.00000000000E+00 0. -1.
</event>
<event>
 7    1  0.3750159E-013  0.5930194E+02  0.7816164E-02  0.1266605E+00
        -11   -1    0    0    0    0  0.00000000000E+00  0.00000000000E+00  0.45593999997E+02  0.45594000000E+02  0.51100000000E-03 0.  1.
         11   -1    0    0    0    0 -0.00000000000E+00 -0.00000000000E+00 -0.45593999997E+02  0.45594000000E+02  0.51100000000E-03 0. -1.
    9900012    2    1    2    0    0  0.92911870156E+01 -0.29870866932E+02  0.61746182610E+01  0.59301941007E+02  0.49999994492E+02 0.  0.
        -12    1    1    2    0    0 -0.92911870156E+01  0.29870866932E+02 -0.61746182610E+01  0.31886058993E+02  0.00000000000E+00 0.  1.
         11    1    3    3    0    0 -0.46995079742E+01 -0.81551493588E+01 -0.63112936785E+01  0.11332443003E+02  0.51100000000E-03 0. -1.
        -11    1    3    3    0    0 -0.11474146550E+02 -0.37599691368E+01  0.11681580067E+02  0.16800378570E+02  0.51100000000E-03 0.  1.
        -12    1    3    3    0    0  0.25464841540E+02 -0.17955748436E+02  0.80433187272E+00  0.31169119434E+02  0.00000000000E+00 0.  1.
</event>
<event>
 7    1  0.3750159E-013  0.5930193E+02  0.7816164E-02  0.1266605E+00
        -11   -1    0    0    0    0  0.00000000000E+00  0.00000000000E+00  0.45593999997E+02  0.45594000000E+02  0.51100000000E-03 0.  1.
         11   -1    0    0    0    0 -0.00000000000E+00 -0.00000000000E+00 -0.45593999997E+02  0.45594000000E+02  0.51100000000E-03 0. -1.
    9900012    2    1    2    0    0  0.21141138260E+02  0.83945128659E+01 -0.22345152252E+02  0.59301930905E+02  0.49999976067E+02 0.  0.
        -12    1    1    2    0    0 -0.21141138260E+02 -0.83945128659E+01  0.22345152252E+02  0.31886069095E+02  0.00000000000E+00 0.  1.
         11    1    3    3    0    0  0.13527525446E+02 -0.10173173810E+02  0.18278026215E+01  0.17024343533E+02  0.51100000000E-03 0. -1.
        -11    1    3    3    0    0 -0.93336902956E+00 -0.89989101828E+00  0.55689010221E+01  0.57178352936E+01  0.51100000000E-03 0.  1.
         12    1    3    3    0    0  0.85469818441E+01  0.19467577694E+02 -0.29741855895E+02  0.36559752078E+02  0.00000000000E+00 0. -1.
</event>
<event>
 7    1  0.3750159E-013  0.5930194E+02  0.7816164E-02  0.1266605E+00
        -11   -1    0    0    0    0  0.00000000000E+00  0.00000000000E+00  0.45593999997E+02  0.45594000000E+02  0.51100000000E-03 0. -1.
         11   -1    0    0    0    0 -0.00000000000E+00 -0.00000000000E+00 -0.45593999997E+02  0.45594000000E+02  0.51100000000E-03 0.  1.
    9900012    2    1    2    0    0 -0.20995978877E+02  0.13281011600E+02  0.19987608585E+02  0.59301938860E+02  0.49999990575E+02 0.  0.
        -12    1    1    2    0    0  0.20995978877E+02 -0.13281011600E+02 -0.19987608585E+02  0.31886061140E+02  0.00000000000E+00 0.  1.
         11    1    3    3    0    0  0.13136137040E+02  0.53615792869E+01  0.11457836604E+02  0.18236958317E+02  0.51100000000E-03 0. -1.
        -11    1    3    3    0    0 -0.87288187734E+01  0.64049486640E+01 -0.53513408708E+01  0.12076940587E+02  0.51100000000E-03 0.  1.
        -12    1    3    3    0    0 -0.25403297143E+02  0.15144836490E+01  0.13881112852E+02  0.28988039955E+02  0.00000000000E+00 0.  1.
</event>
<event>
 7    1  0.3750159E-013  0.5930198E+02  0.7816164E-02  0.1266605E+00
        -11   -1    0    0    0    0  0.00000000000E+00  0.00000000000E+00  0.45593999997E+02  0.45594000000E+02  0.51100000000E-03 0.  1.
         11   -1    0    0    0    0 -0.00000000000E+00 -0.00000000000E+00 -0.45593999997E+02  0.45594000000E+02  0.51100000000E-03 0. -1.
    9900012    2    1    2    0    0  0.21608893100E+02  0.11700031027E+02 -0.20319522309E+02  0.59301984665E+02  0.50000074113E+02 0.  0.
        -12    1    1    2    0    0 -0.21608893100E+02 -0.11700031027E+02  0.20319522309E+02  0.31886015335E+02  0.00000000000E+00 0.  1.
         11    1    3    3    0    0  0.23212828278E+02  0.20974763998E+02 -0.35966562425E+01  0.31491460078E+02  0.51100000000E-03 0. -1.
        -11    1    3    3    0    0  0.60534403477E+01  0.25648475621E+01 -0.10522364431E+02  0.12407366221E+02  0.51100000000E-03 0.  1.
        -12    1    3    3    0    0 -0.76573755254E+01 -0.11839580533E+02 -0.62005016352E+01  0.15403158366E+02  0.00000000000E+00 0.  1.
</event>
<event>
 7    1  0.3750159E-013  0.5930194E+02  0.7816164E-02  0.1266605E+00
        -11   -1    0    0    0    0  0.00000000000E+00  0.00000000000E+00  0.45593999997E+02  0.45594000000E+02  0.51100000000E-03 0. -1.
         11   -1    0    0    0    0 -0.00000000000E+00 -0.00000000000E+00 -0.45593999997E+02  0.45594000000E+02  0.51100000000E-03 0.  1.
    9900012    2    1    2    0    0  0.20281271439E+01  0.31696958498E+02  0.28124892890E+01  0.59301943898E+02  0.49999999763E+02 0.  0.
        -12    1    1    2    0    0 -0.20281271439E+01 -0.31696958498E+02 -0.28124892890E+01  0.31886056102E+02  0.00000000000E+00 0.  1.
         11    1    3    3    0    0  0.90882864605E+01 -0.78458038601E+00 -0.35568423732E+01  0.97909981667E+01  0.51100000000E-03 0.  1.
        -11    1    3    3    0    0 -0.10637389243E+01  0.36060126724E+02  0.14422402555E+02  0.38851897966E+02  0.51100000000E-03 0. -1.
         12    1    3    3    0    0 -0.59964203923E+01 -0.35785878398E+01 -0.80530708925E+01  0.10659047765E+02  0.00000000000E+00 0. -1.
</event>
<event>
 7    1  0.3750159E-013  0.5930195E+02  0.7816164E-02  0.1266605E+00
        -11   -1    0    0    0    0  0.00000000000E+00  0.00000000000E+00  0.45593999997E+02  0.45594000000E+02  0.51100000000E-03 0. -1.
         11   -1    0    0    0    0 -0.00000000000E+00 -0.00000000000E+00 -0.45593999997E+02  0.45594000000E+02  0.51100000000E-03 0.  1.
    9900012    2    1    2    0    0 -0.36254547434E+01  0.35574942530E+01  0.31478889562E+02  0.59301950143E+02  0.50000011152E+02 0.  0.
        -12    1    1    2    0    0  0.36254547434E+01 -0.35574942530E+01 -0.31478889562E+02  0.31886049857E+02  0.00000000000E+00 0.  1.
         11    1    3    3    0    0  0.52504793120E+00 -0.86203065669E+01 -0.58038131540E+00  0.86557612819E+01  0.51100000000E-03 0.  1.
        -11    1    3    3    0    0 -0.10539301179E+02  0.23742176419E+02  0.22001860361E+02  0.34041881118E+02  0.51100000000E-03 0. -1.
         12    1    3    3    0    0  0.63887985039E+01 -0.11564375599E+02  0.10057410516E+02  0.16604307743E+02  0.00000000000E+00 0. -1.
</event>
<event>
 7    1  0.3750159E-013  0.5930195E+02  0.7816164E-02  0.1266605E+00
        -11   -1    0    0    0    0  0.00000000000E+00  0.00000000000E+00  0.45593999997E+02  0.45594000000E+02  0.51100000000E-03 0. -1.
         11   -1    0    0    0    0 -0.00000000000E+00 -0.00000000000E+00 -0.45593999997E+02  0.45594000000E+02  0.51100000000E-03 0.  1.
    9900012    2    1    2    0    0  0.67080056018E+01  0.30632802278E+02 -0.57753154374E+01  0.59301950026E+02  0.50000010939E+02 0.  0.
        -12    1    1    2    0    0 -0.67080056018E+01 -0.30632802278E+02  0.57753154374E+01  0.31886049974E+02  0.00000000000E+00 0.  1.
         11    1    3    3    0    0 -0.49949874284E+01  0.60938915943E+01 -0.16002183062E+02  0.17836907725E+02  0.51100000000E-03 0.  1.
        -11    1    3    3    0    0  0.92759300825E+01 -0.45825078619E+01  0.59395904559E+01  0.11929836220E+02  0.51100000000E-03 0. -1.
         12    1    3    3    0    0  0.24270629477E+01  0.29121418546E+02  0.42872771689E+01  0.29535206080E+02  0.00000000000E+00 0. -1.
</event>
<event>
 7    1  0.3750159E-013  0.5930192E+02  0.7816164E-02  0.1266605E+00
        -11   -1    0    0    0    0  0.00000000000E+00  0.00000000000E+00  0.45593999997E+02  0.45594000000E+02  0.51100000000E-03 0. -1.
         11   -1    0    0    0    0 -0.00000000000E+00 -0.00000000000E+00 -0.45593999997E+02  0.45594000000E+02  0.51100000000E-03 0.  1.
    9900012    2    1    2    0    0 -0.42427870809E+01  0.12704755804E+02  0.28936314727E+02  0.59301915696E+02  0.49999948330E+02 0.  0.
        -12    1    1    2    0    0  0.42427870809E+01 -0.12704755804E+02 -0.28936314727E+02  0.31886084304E+02  0.00000000000E+00 0.  1.
         11    1    3    3    0    0 -0.83461316501E+01  0.11257768421E+02  0.79484352969E+00  0.14036632069E+02  0.51100000000E-03 0. -1.
        -11    1    3    3    0    0  0.33569547307E+01 -0.15625583757E+02  0.55071186960E+01  0.16904329901E+02  0.51100000000E-03 0.  1.
        -12    1    3    3    0    0  0.74638983845E+00  0.17072571139E+02  0.22634352502E+02  0.28360953726E+02  0.00000000000E+00 0.  1.
</event>
<event>
 7    1  0.3750159E-013  0.5930195E+02  0.7816164E-02  0.1266605E+00
        -11   -1    0    0    0    0  0.00000000000E+00  0.00000000000E+00  0.45593999997E+02  0.45594000000E+02  0.51100000000E-03 0. -1.
         11   -1    0    0    0    0 -0.00000000000E+00 -0.00000000000E+00 -0.45593999997E+02  0.45594000000E+02  0.51100000000E-03 0.  1.
    9900012    2    1    2    0    0 -0.26760299320E+02  0.14389289825E+02  0.96723817703E+01  0.59301948967E+02  0.50000009008E+02 0.  0.
        -12    1    1    2    0    0  0.26760299320E+02 -0.14389289825E+02 -0.96723817703E+01  0.31886051033E+02  0.00000000000E+00 0.  1.
         11    1    3    3    0    0  0.61457906746E+01  0.71044605654E+00  0.36998388069E+00  0.61977709661E+01  0.51100000000E-03 0. -1.
        -11    1    3    3    0    0 -0.36799530842E+01 -0.11005182090E+02 -0.44842428125E+01  0.12440438955E+02  0.51100000000E-03 0.  1.
         12    1    3    3    0    0 -0.29226136911E+02  0.24684025859E+02  0.13786640702E+02  0.40663739045E+02  0.00000000000E+00 0. -1.
</event>
<event>
 7    1  0.3750159E-013  0.5930198E+02  0.7816164E-02  0.1266605E+00
        -11   -1    0    0    0    0  0.00000000000E+00  0.00000000000E+00  0.45593999997E+02  0.45594000000E+02  0.51100000000E-03 0.  1.
         11   -1    0    0    0    0 -0.00000000000E+00 -0.00000000000E+00 -0.45593999997E+02  0.45594000000E+02  0.51100000000E-03 0. -1.
    9900012    2    1    2    0    0  0.10591702561E+02 -0.28929822299E+02  0.82218852292E+01  0.59301981463E+02  0.50000068273E+02 0.  0.
        -12    1    1    2    0    0 -0.10591702561E+02  0.28929822299E+02 -0.82218852292E+01  0.31886018537E+02  0.00000000000E+00 0.  1.
         11    1    3    3    0    0  0.22828744328E+02 -0.12912826199E+02 -0.66305688258E+01  0.27052857358E+02  0.51100000000E-03 0. -1.
        -11    1    3    3    0    0 -0.61230637792E+01 -0.10673086428E+02 -0.29751308622E+01  0.12659308348E+02  0.51100000000E-03 0.  1.
        -12    1    3    3    0    0 -0.61139779875E+01 -0.53439096724E+01  0.17827584917E+02  0.19589815757E+02  0.00000000000E+00 0.  1.
</event>
<event>
 7    1  0.3750159E-013  0.5930196E+02  0.7816164E-02  0.1266605E+00
        -11   -1    0    0    0    0  0.00000000000E+00  0.00000000000E+00  0.45593999997E+02  0.45594000000E+02  0.51100000000E-03 0.  1.
         11   -1    0    0    0    0 -0.00000000000E+00 -0.00000000000E+00 -0.45593999997E+02  0.45594000000E+02  0.51100000000E-03 0. -1.
    9900012    2    1    2    0    0  0.65604066786E+01 -0.21965700544E+02 -0.22162780129E+02  0.59301956671E+02  0.50000023058E+02 0.  0.
        -12    1    1    2    0    0 -0.65604066786E+01  0.21965700544E+02  0.22162780129E+02  0.31886043329E+02  0.00000000000E+00 0.  1.
         11    1    3    3    0    0  0.63242102714E+01 -0.96612136515E+01  0.86133802548E+01  0.14405728182E+02  0.51100000000E-03 0. -1.
        -11    1    3    3    0    0  0.14813138224E+02 -0.74965579286E+01 -0.11229623583E+02  0.20043250508E+02  0.51100000000E-03 0.  1.
         12    1    3    3    0    0 -0.14576941817E+02 -0.48079289638E+01 -0.19546536800E+02  0.24852977981E+02  0.00000000000E+00 0. -1.
</event>
<event>
 7    1  0.3750159E-013  0.5930201E+02  0.7816164E-02  0.1266605E+00
        -11   -1    0    0    0    0  0.00000000000E+00  0.00000000000E+00  0.45593999997E+02  0.45594000000E+02  0.51100000000E-03 0. -1.
         11   -1    0    0    0    0 -0.00000000000E+00 -0.00000000000E+00 -0.45593999997E+02  0.45594000000E+02  0.51100000000E-03 0.  1.
    9900012    2    1    2    0    0  0.94191932163E+01 -0.66426391435E+01  0.29729963093E+02  0.59302006819E+02  0.50000114516E+02 0.  0.
        -12    1    1    2    0    0 -0.94191932163E+01  0.66426391435E+01 -0.29729963093E+02  0.31885993181E+02  0.00000000000E+00 0.  1.
         11    1    3    3    0    0  0.94751018106E+01 -0.12753771845E+02  0.80913495666E+00  0.15908832460E+02  0.51100000000E-03 0. -1.
        -11    1    3    3    0    0  0.11682944602E+02  0.12688865475E+02  0.92832611397E+01  0.19587685909E+02  0.51100000000E-03 0.  1.
        -12    1    3    3    0    0 -0.11738853196E+02 -0.65777327742E+01  0.19637566997E+02  0.23805488450E+02  0.00000000000E+00 0.  1.
</event>
<event>
 7    1  0.3750159E-013  0.5930175E+02  0.7816164E-02  0.1266605E+00
        -11   -1    0    0    0    0  0.00000000000E+00  0.00000000000E+00  0.45593999997E+02  0.45594000000E+02  0.51100000000E-03 0. -1.
         11   -1    0    0    0    0 -0.00000000000E+00 -0.00000000000E+00 -0.45593999997E+02  0.45594000000E+02  0.51100000000E-03 0.  1.
    9900012    2    1    2    0    0  0.20199461927E+02  0.16458510784E+02  0.18380204104E+02  0.59301753086E+02  0.49999651767E+02 0.  0.
        -12    1    1    2    0    0 -0.20199461927E+02 -0.16458510784E+02 -0.18380204104E+02  0.31886246914E+02  0.00000000000E+00 0.  1.
         11    1    3    3    0    0  0.39474270082E+01 -0.72218065832E+01  0.22231658315E+02  0.23706186998E+02  0.51100000000E-03 0. -1.
        -11    1    3    3    0    0  0.13201928427E+01 -0.32050143802E+01  0.23961158612E+01  0.42138340974E+01  0.51100000000E-03 0.  1.
         12    1    3    3    0    0  0.14931842076E+02  0.26885331747E+02 -0.62475700721E+01  0.31381731991E+02  0.00000000000E+00 0. -1.
</event>
<event>
 7    1  0.3750159E-013  0.5930197E+02  0.7816164E-02  0.1266605E+00
        -11   -1    0    0    0    0  0.00000000000E+00  0.00000000000E+00  0.45593999997E+02  0.45594000000E+02  0.51100000000E-03 0.  1.
         11   -1    0    0    0    0 -0.00000000000E+00 -0.00000000000E+00 -0.45593999997E+02  0.45594000000E+02  0.51100000000E-03 0. -1.
    9900012    2    1    2    0    0 -0.24708639543E+01 -0.17471069686E+01 -0.31742109262E+02  0.59301967763E+02  0.50000043287E+02 0.  0.
        -12    1    1    2    0    0  0.24708639543E+01  0.17471069686E+01  0.31742109262E+02  0.31886032237E+02  0.00000000000E+00 0.  1.
         11    1    3    3    0    0  0.52525939905E+00  0.73545370344E+01  0.51957733828E+01  0.90200428898E+01  0.51100000000E-03 0. -1.
        -11    1    3    3    0    0 -0.96182540917E+01 -0.68021250848E+01  0.88617068250E+00  0.11813763845E+02  0.51100000000E-03 0.  1.
        -12    1    3    3    0    0  0.66221307384E+01 -0.22995189183E+01 -0.37824053327E+02  0.38468161028E+02  0.00000000000E+00 0.  1.
</event>
<event>
 7    1  0.3750159E-013  0.5930195E+02  0.7816164E-02  0.1266605E+00
        -11   -1    0    0    0    0  0.00000000000E+00  0.00000000000E+00  0.45593999997E+02  0.45594000000E+02  0.51100000000E-03 0.  1.
         11   -1    0    0    0    0 -0.00000000000E+00 -0.00000000000E+00 -0.45593999997E+02  0.45594000000E+02  0.51100000000E-03 0. -1.
    9900012    2    1    2    0    0 -0.28228571104E+02  0.94225516055E+01 -0.11449167491E+02  0.59301950675E+02  0.50000012123E+02 0.  0.
        -12    1    1    2    0    0  0.28228571104E+02 -0.94225516055E+01  0.11449167491E+02  0.31886049325E+02  0.00000000000E+00 0.  1.
         11    1    3    3    0    0 -0.13972843322E+02  0.22082081848E+02 -0.99957756107E+00  0.26150675800E+02  0.51100000000E-03 0. -1.
        -11    1    3    3    0    0 -0.11745232218E+02  0.28679497178E+01  0.29988707201E+01  0.12456678582E+02  0.51100000000E-03 0.  1.
         12    1    3    3    0    0 -0.25104955648E+01 -0.15527479960E+02 -0.13448460650E+02  0.20694596293E+02  0.00000000000E+00 0. -1.
</event>
<event>
 7    1  0.3750159E-013  0.5930197E+02  0.7816164E-02  0.1266605E+00
        -11   -1    0    0    0    0  0.00000000000E+00  0.00000000000E+00  0.45593999997E+02  0.45594000000E+02  0.51100000000E-03 0.  1.
         11   -1    0    0    0    0 -0.00000000000E+00 -0.00000000000E+00 -0.45593999997E+02  0.45594000000E+02  0.51100000000E-03 0. -1.
    9900012    2    1    2    0    0  0.17517121449E+02 -0.20701185093E+01 -0.26562828347E+02  0.59301971958E+02  0.50000050939E+02 0.  0.
        -12    1    1    2    0    0 -0.17517121449E+02  0.20701185093E+01  0.26562828347E+02  0.31886028042E+02  0.00000000000E+00 0.  1.
         11    1    3    3    0    0  0.14938462540E+02 -0.10257778699E+02 -0.11148917084E+02  0.21276231793E+02  0.51100000000E-03 0. -1.
        -11    1    3    3    0    0 -0.14829096881E+02  0.67576415261E+01 -0.29323103489E+01  0.16557967193E+02  0.51100000000E-03 0.  1.
         12    1    3    3    0    0  0.17407755791E+02  0.14300186633E+01 -0.12481600914E+02  0.21467772973E+02  0.00000000000E+00 0. -1.
</event>
<event>
 7    1  0.3750159E-013  0.5930195E+02  0.7816164E-02  0.1266605E+00
        -11   -1    0    0    0    0  0.00000000000E+00  0.00000000000E+00  0.45593999997E+02  0.45594000000E+02  0.51100000000E-03 0.  1.
         11   -1    0    0    0    0 -0.00000000000E+00 -0.00000000000E+00 -0.45593999997E+02  0.45594000000E+02  0.51100000000E-03 0. -1.
    9900012    2    1    2    0    0  0.17164528118E+02  0.19131298765E+02 -0.18870413413E+02  0.59301951008E+02  0.50000012730E+02 0.  0.
        -12    1    1    2    0    0 -0.17164528118E+02 -0.19131298765E+02  0.18870413413E+02  0.31886048992E+02  0.00000000000E+00 0.  1.
         11    1    3    3    0    0  0.60067437487E-01 -0.10410077614E+02 -0.87984635350E+01  0.13630344268E+02  0.51100000000E-03 0. -1.
        -11    1    3    3    0    0  0.92533865481E+01 -0.35184684188E+01  0.96034193375E+00  0.99462072929E+01  0.51100000000E-03 0.  1.
         12    1    3    3    0    0  0.78510741325E+01  0.33059844797E+02 -0.11032291812E+02  0.35725399447E+02  0.00000000000E+00 0. -1.
</event>
<event>
 7    1  0.3750159E-013  0.5930196E+02  0.7816164E-02  0.1266605E+00
        -11   -1    0    0    0    0  0.00000000000E+00  0.00000000000E+00  0.45593999997E+02  0.45594000000E+02  0.51100000000E-03 0.  1.
         11   -1    0    0    0    0 -0.00000000000E+00 -0.00000000000E+00 -0.45593999997E+02  0.45594000000E+02  0.51100000000E-03 0. -1.
    9900012    2    1    2    0    0 -0.90242354878E+01 -0.10255333059E+02 -0.28811642649E+02  0.59301961763E+02  0.50000032345E+02 0.  0.
        -12    1    1    2    0    0  0.90242354878E+01  0.10255333059E+02  0.28811642649E+02  0.31886038237E+02  0.00000000000E+00 0.  1.
         11    1    3    3    0    0 -0.97802339291E+01 -0.10843161953E+02 -0.13490058577E+02  0.19879859595E+02  0.51100000000E-03 0. -1.
        -11    1    3    3    0    0 -0.12532046587E+02 -0.99489947729E+01 -0.15758119954E+02  0.22457805623E+02  0.51100000000E-03 0.  1.
         12    1    3    3    0    0  0.13288045029E+02  0.10536823668E+02  0.43653588168E+00  0.16964296545E+02  0.00000000000E+00 0. -1.
</event>
<event>
 7    1  0.3750159E-013  0.5930194E+02  0.7816164E-02  0.1266605E+00
        -11   -1    0    0    0    0  0.00000000000E+00  0.00000000000E+00  0.45593999997E+02  0.45594000000E+02  0.51100000000E-03 0. -1.
         11   -1    0    0    0    0 -0.00000000000E+00 -0.00000000000E+00 -0.45593999997E+02  0.45594000000E+02  0.51100000000E-03 0.  1.
    9900012    2    1    2    0    0  0.26501132135E+02  0.15276772849E+02 -0.90017329190E+01  0.59301937391E+02  0.49999987897E+02 0.  0.
        -12    1    1    2    0    0 -0.26501132135E+02 -0.15276772849E+02  0.90017329190E+01  0.31886062609E+02  0.00000000000E+00 0.  1.
         11    1    3    3    0    0 -0.32105264077E+01  0.33718629751E+01  0.95077311919E+01  0.10586495757E+02  0.51100000000E-03 0.  1.
        -11    1    3    3    0    0  0.19018672636E+02 -0.55926060924E+00  0.53369521503E+01  0.19761218075E+02  0.51100000000E-03 0. -1.
        -12    1    3    3    0    0  0.10692985907E+02  0.12464170483E+02 -0.23846416261E+02  0.28954223560E+02  0.00000000000E+00 0.  1.
</event>
<event>
 7    1  0.3750159E-013  0.5930194E+02  0.7816164E-02  0.1266605E+00
        -11   -1    0    0    0    0  0.00000000000E+00  0.00000000000E+00  0.45593999997E+02  0.45594000000E+02  0.51100000000E-03 0.  1.
         11   -1    0    0    0    0 -0.00000000000E+00 -0.00000000000E+00 -0.45593999997E+02  0.45594000000E+02  0.51100000000E-03 0. -1.
    9900012    2    1    2    0    0  0.22560289056E+02 -0.20769427094E+02 -0.87398482190E+01  0.59301942059E+02  0.49999996410E+02 0.  0.
        -12    1    1    2    0    0 -0.22560289056E+02  0.20769427094E+02  0.87398482190E+01  0.31886057941E+02  0.00000000000E+00 0.  1.
         11    1    3    3    0    0  0.17159911943E+02 -0.23451444708E+01 -0.15735453642E+02  0.23400144915E+02  0.51100000000E-03 0. -1.
        -11    1    3    3    0    0 -0.10365260780E+02 -0.40727109399E+01 -0.41004119105E+01  0.11867560134E+02  0.51100000000E-03 0.  1.
         12    1    3    3    0    0  0.15765637893E+02 -0.14351571684E+02  0.11096017333E+02  0.24034237010E+02  0.00000000000E+00 0. -1.
</event>
<event>
 7    1  0.3750159E-013  0.5930200E+02  0.7816164E-02  0.1266605E+00
        -11   -1    0    0    0    0  0.00000000000E+00  0.00000000000E+00  0.45593999997E+02  0.45594000000E+02  0.51100000000E-03 0. -1.
         11   -1    0    0    0    0 -0.00000000000E+00 -0.00000000000E+00 -0.45593999997E+02  0.45594000000E+02  0.51100000000E-03 0.  1.
    9900012    2    1    2    0    0  0.18825495748E+02  0.44561332236E+00  0.25731671423E+02  0.59302003456E+02  0.50000108383E+02 0.  0.
        -12    1    1    2    0    0 -0.18825495748E+02 -0.44561332236E+00 -0.25731671423E+02  0.31885996544E+02  0.00000000000E+00 0.  1.
         11    1    3    3    0    0 -0.23860332359E+01  0.46491592854E+00  0.84242927570E+01  0.87680106147E+01  0.51100000000E-03 0. -1.
        -11    1    3    3    0    0  0.31259838215E+01 -0.18953205190E+02  0.14763388436E+02  0.24227121170E+02  0.51100000000E-03 0.  1.
         12    1    3    3    0    0  0.18085545162E+02  0.18933902583E+02  0.25439902306E+01  0.26306871672E+02  0.00000000000E+00 0. -1.
</event>
<event>
 7    1  0.3750159E-013  0.5930194E+02  0.7816164E-02  0.1266605E+00
        -11   -1    0    0    0    0  0.00000000000E+00  0.00000000000E+00  0.45593999997E+02  0.45594000000E+02  0.51100000000E-03 0.  1.
         11   -1    0    0    0    0 -0.00000000000E+00 -0.00000000000E+00 -0.45593999997E+02  0.45594000000E+02  0.51100000000E-03 0. -1.
    9900012    2    1    2    0    0 -0.29104994570E+01  0.31277540776E+02  0.54740530101E+01  0.59301940030E+02  0.49999992709E+02 0.  0.
        -12    1    1    2    0    0  0.29104994570E+01 -0.31277540776E+02 -0.54740530101E+01  0.31886059970E+02  0.00000000000E+00 0.  1.
         11    1    3    3    0    0  0.96147936663E+01  0.21550510220E+02  0.93662974295E+01  0.25388900641E+02  0.51100000000E-03 0. -1.
        -11    1    3    3    0    0 -0.12112339813E+01  0.11725256432E+02 -0.14215735388E+02  0.18467156225E+02  0.51100000000E-03 0.  1.
        -12    1    3    3    0    0 -0.11314059142E+02 -0.19982258759E+01  0.10323490969E+02  0.15445883163E+02  0.00000000000E+00 0.  1.
</event>
<event>
 7    1  0.3750159E-013  0.5930194E+02  0.7816164E-02  0.1266605E+00
        -11   -1    0    0    0    0  0.00000000000E+00  0.00000000000E+00  0.45593999997E+02  0.45594000000E+02  0.51100000000E-03 0.  1.
         11   -1    0    0    0    0 -0.00000000000E+00 -0.00000000000E+00 -0.45593999997E+02  0.45594000000E+02  0.51100000000E-03 0. -1.
    9900012    2    1    2    0    0 -0.13164375265E+02  0.20659722358E+02 -0.20410685926E+02  0.59301937151E+02  0.49999987459E+02 0.  0.
        -12    1    1    2    0    0  0.13164375265E+02 -0.20659722358E+02  0.20410685926E+02  0.31886062849E+02  0.00000000000E+00 0.  1.
         11    1    3    3    0    0  0.63353850928E+01  0.10668948982E+02 -0.28894088365E+02  0.31445697947E+02  0.51100000000E-03 0. -1.
        -11    1    3    3    0    0 -0.68780217397E+01  0.34356458487E-01 -0.35831658850E+01  0.77554781567E+01  0.51100000000E-03 0.  1.
        -12    1    3    3    0    0 -0.12621738618E+02  0.99564169169E+01  0.12066568324E+02  0.20100761047E+02  0.00000000000E+00 0.  1.
</event>
<event>
 7    1  0.3750159E-013  0.5930192E+02  0.7816164E-02  0.1266605E+00
        -11   -1    0    0    0    0  0.00000000000E+00  0.00000000000E+00  0.45593999997E+02  0.45594000000E+02  0.51100000000E-03 0. -1.
         11   -1    0    0    0    0 -0.00000000000E+00 -0.00000000000E+00 -0.45593999997E+02  0.45594000000E+02  0.51100000000E-03 0.  1.
    9900012    2    1    2    0    0 -0.11595136339E+02 -0.25011371691E+02  0.16022046058E+02  0.59301923721E+02  0.49999962965E+02 0.  0.
        -12    1    1    2    0    0  0.11595136339E+02  0.25011371691E+02 -0.16022046058E+02  0.31886076279E+02  0.00000000000E+00 0.  1.
         11    1    3    3    0    0  0.11997975048E+02 -0.17248135387E+02  0.19546000709E+02  0.28696615194E+02  0.51100000000E-03 0. -1.
        -11    1    3    3    0    0 -0.61463797515E+00 -0.50697107507E+01 -0.53518196197E+01  0.73974130910E+01  0.51100000000E-03 0.  1.
         12    1    3    3    0    0 -0.22978473412E+02 -0.26935255531E+01  0.18278649683E+01  0.23207895436E+02  0.00000000000E+00 0. -1.
</event>
<event>
 7    1  0.3750159E-013  0.5930195E+02  0.7816164E-02  0.1266605E+00
        -11   -1    0    0    0    0  0.00000000000E+00  0.00000000000E+00  0.45593999997E+02  0.45594000000E+02  0.51100000000E-03 0. -1.
         11   -1    0    0    0    0 -0.00000000000E+00 -0.00000000000E+00 -0.45593999997E+02  0.45594000000E+02  0.51100000000E-03 0.  1.
    9900012    2    1    2    0    0  0.22761949846E+02  0.20298650227E+02  0.93047800239E+01  0.59301945162E+02  0.50000002068E+02 0.  0.
        -12    1    1    2    0    0 -0.22761949846E+02 -0.20298650227E+02 -0.93047800239E+01  0.31886054838E+02  0.00000000000E+00 0.  1.
         11    1    3    3    0    0 -0.13676946330E+02  0.33536645958E+01  0.71610770856E+01  0.15798321190E+02  0.51100000000E-03 0. -1.
        -11    1    3    3    0    0  0.71829066037E+01  0.78600983799E+01  0.66293304578E+01  0.12542859180E+02  0.51100000000E-03 0.  1.
        -12    1    3    3    0    0  0.29255989573E+02  0.90848872515E+01 -0.44856275195E+01  0.30960764792E+02  0.00000000000E+00 0.  1.
</event>
<event>
 7    1  0.3750159E-013  0.5930194E+02  0.7816164E-02  0.1266605E+00
        -11   -1    0    0    0    0  0.00000000000E+00  0.00000000000E+00  0.45593999997E+02  0.45594000000E+02  0.51100000000E-03 0. -1.
         11   -1    0    0    0    0 -0.00000000000E+00 -0.00000000000E+00 -0.45593999997E+02  0.45594000000E+02  0.51100000000E-03 0.  1.
    9900012    2    1    2    0    0  0.21948676086E+02 -0.20010404035E+02  0.11600003585E+02  0.59301941373E+02  0.49999995159E+02 0.  0.
        -12    1    1    2    0    0 -0.21948676086E+02  0.20010404035E+02 -0.11600003585E+02  0.31886058627E+02  0.00000000000E+00 0.  1.
         11    1    3    3    0    0  0.31841503979E+02 -0.21506879771E+02  0.16115972337E+02  0.41667155144E+02  0.51100000000E-03 0. -1.
        -11    1    3    3    0    0 -0.27496088745E+01  0.35011883466E+01  0.42471289920E+01  0.61527858517E+01  0.51100000000E-03 0.  1.
        -12    1    3    3    0    0 -0.71432190190E+01 -0.20047126110E+01 -0.87630977441E+01  0.11482000378E+02  0.00000000000E+00 0.  1.
</event>
<event>
 7    1  0.3750159E-013  0.5930195E+02  0.7816164E-02  0.1266605E+00
        -11   -1    0    0    0    0  0.00000000000E+00  0.00000000000E+00  0.45593999997E+02  0.45594000000E+02  0.51100000000E-03 0.  1.
         11   -1    0    0    0    0 -0.00000000000E+00 -0.00000000000E+00 -0.45593999997E+02  0.45594000000E+02  0.51100000000E-03 0. -1.
    9900012    2    1    2    0    0 -0.80966707448E+01  0.19809966165E+02 -0.23637460372E+02  0.59301947101E+02  0.50000005605E+02 0.  0.
        -12    1    1    2    0    0  0.80966707448E+01 -0.19809966165E+02  0.23637460372E+02  0.31886052899E+02  0.00000000000E+00 0.  1.
         11    1    3    3    0    0 -0.14367192392E+02  0.10947259336E+02 -0.14295415181E+02  0.23035138368E+02  0.51100000000E-03 0. -1.
        -11    1    3    3    0    0 -0.74085090931E+01 -0.74137863510E+01 -0.10679750768E+02  0.14963532730E+02  0.51100000000E-03 0.  1.
        -12    1    3    3    0    0  0.13679030740E+02  0.16276493180E+02  0.13377055774E+01  0.21303276002E+02  0.00000000000E+00 0.  1.
</event>
<event>
 7    1  0.3750159E-013  0.5930193E+02  0.7816164E-02  0.1266605E+00
        -11   -1    0    0    0    0  0.00000000000E+00  0.00000000000E+00  0.45593999997E+02  0.45594000000E+02  0.51100000000E-03 0. -1.
         11   -1    0    0    0    0 -0.00000000000E+00 -0.00000000000E+00 -0.45593999997E+02  0.45594000000E+02  0.51100000000E-03 0.  1.
    9900012    2    1    2    0    0 -0.28236055705E+02 -0.41925024197E+01  0.14208071719E+02  0.59301933759E+02  0.49999981273E+02 0.  0.
        -12    1    1    2    0    0  0.28236055705E+02  0.41925024197E+01 -0.14208071719E+02  0.31886066241E+02  0.00000000000E+00 0.  1.
         11    1    3    3    0    0 -0.18726123084E+02  0.51901968134E+01  0.19776291928E+02  0.27725575764E+02  0.51100000000E-03 0. -1.
        -11    1    3    3    0    0 -0.13573798589E+02 -0.29029616787E+00  0.72122702840E+01  0.15373650279E+02  0.51100000000E-03 0.  1.
        -12    1    3    3    0    0  0.40638659677E+01 -0.90924030653E+01 -0.12780490493E+02  0.16202707717E+02  0.00000000000E+00 0.  1.
</event>
<event>
 7    1  0.3750159E-013  0.5930197E+02  0.7816164E-02  0.1266605E+00
        -11   -1    0    0    0    0  0.00000000000E+00  0.00000000000E+00  0.45593999997E+02  0.45594000000E+02  0.51100000000E-03 0.  1.
         11   -1    0    0    0    0 -0.00000000000E+00 -0.00000000000E+00 -0.45593999997E+02  0.45594000000E+02  0.51100000000E-03 0. -1.
    9900012    2    1    2    0    0  0.33546211490E+01 -0.80012407943E+01 -0.30682986437E+02  0.59301968670E+02  0.50000044941E+02 0.  0.
        -12    1    1    2    0    0 -0.33546211490E+01  0.80012407943E+01  0.30682986437E+02  0.31886031330E+02  0.00000000000E+00 0.  1.
         11    1    3    3    0    0  0.39937111651E+01  0.17070801189E+00 -0.15520420949E+02  0.16026925370E+02  0.51100000000E-03 0. -1.
        -11    1    3    3    0    0 -0.16756186226E+02 -0.19030523975E+01 -0.19161287878E+02  0.25525405749E+02  0.51100000000E-03 0.  1.
        -12    1    3    3    0    0  0.16117096210E+02 -0.62688964087E+01  0.39987223906E+01  0.17749637551E+02  0.00000000000E+00 0.  1.
</event>
<event>
 7    1  0.3750159E-013  0.5930195E+02  0.7816164E-02  0.1266605E+00
        -11   -1    0    0    0    0  0.00000000000E+00  0.00000000000E+00  0.45593999997E+02  0.45594000000E+02  0.51100000000E-03 0. -1.
         11   -1    0    0    0    0 -0.00000000000E+00 -0.00000000000E+00 -0.45593999997E+02  0.45594000000E+02  0.51100000000E-03 0.  1.
    9900012    2    1    2    0    0 -0.29327503412E+02 -0.10185142548E+02  0.72718897944E+01  0.59301953424E+02  0.50000017136E+02 0.  0.
        -12    1    1    2    0    0  0.29327503412E+02  0.10185142548E+02 -0.72718897944E+01  0.31886046576E+02  0.00000000000E+00 0.  1.
         11    1    3    3    0    0 -0.34095375039E-01  0.11351083598E+01  0.35052312418E+01  0.36846003586E+01  0.51100000000E-03 0. -1.
        -11    1    3    3    0    0  0.61894874044E+01 -0.95208472670E+01  0.14579203839E+02  0.18479974887E+02  0.51100000000E-03 0.  1.
         12    1    3    3    0    0 -0.35482895441E+02 -0.17994036406E+01 -0.10812545286E+02  0.37137378178E+02  0.00000000000E+00 0. -1.
</event>
<event>
 7    1  0.3750159E-013  0.5930195E+02  0.7816164E-02  0.1266605E+00
        -11   -1    0    0    0    0  0.00000000000E+00  0.00000000000E+00  0.45593999997E+02  0.45594000000E+02  0.51100000000E-03 0. -1.
         11   -1    0    0    0    0 -0.00000000000E+00 -0.00000000000E+00 -0.45593999997E+02  0.45594000000E+02  0.51100000000E-03 0.  1.
    9900012    2    1    2    0    0 -0.15323923841E+02  0.27087840863E+02 -0.69387812898E+01  0.59301945834E+02  0.50000003294E+02 0.  0.
        -12    1    1    2    0    0  0.15323923841E+02 -0.27087840863E+02  0.69387812898E+01  0.31886054166E+02  0.00000000000E+00 0.  1.
         11    1    3    3    0    0  0.79004213501E+01  0.48352912939E+01 -0.38627319274E+01  0.10035805778E+02  0.51100000000E-03 0. -1.
        -11    1    3    3    0    0 -0.19785981529E+01 -0.90756123345E+01  0.50181061126E+01  0.10557602906E+02  0.51100000000E-03 0.  1.
         12    1    3    3    0    0 -0.21245747038E+02  0.31328161903E+02 -0.80941554750E+01  0.38708537150E+02  0.00000000000E+00 0. -1.
</event>
<event>
 7    1  0.3750159E-013  0.5930192E+02  0.7816164E-02  0.1266605E+00
        -11   -1    0    0    0    0  0.00000000000E+00  0.00000000000E+00  0.45593999997E+02  0.45594000000E+02  0.51100000000E-03 0.  1.
         11   -1    0    0    0    0 -0.00000000000E+00 -0.00000000000E+00 -0.45593999997E+02  0.45594000000E+02  0.51100000000E-03 0. -1.
    9900012    2    1    2    0    0 -0.21205202253E+02  0.14179740019E+02 -0.19131027264E+02  0.59301924140E+02  0.49999963730E+02 0.  0.
        -12    1    1    2    0    0  0.21205202253E+02 -0.14179740019E+02  0.19131027264E+02  0.31886075860E+02  0.00000000000E+00 0.  1.
         11    1    3    3    0    0  0.72354861441E+01 -0.71334536318E+01 -0.38378316885E+01  0.10861278598E+02  0.51100000000E-03 0. -1.
        -11    1    3    3    0    0  0.16021766212E+01  0.35744496553E+01 -0.12886643126E+02  0.13468824432E+02  0.51100000000E-03 0.  1.
        -12    1    3    3    0    0 -0.30042865018E+02  0.17738743996E+02 -0.24065524488E+01  0.34971821109E+02  0.00000000000E+00 0.  1.
</event>
<event>
 7    1  0.3750159E-013  0.5930166E+02  0.7816164E-02  0.1266606E+00
        -11   -1    0    0    0    0  0.00000000000E+00  0.00000000000E+00  0.45593999997E+02  0.45594000000E+02  0.51100000000E-03 0. -1.
         11   -1    0    0    0    0 -0.00000000000E+00 -0.00000000000E+00 -0.45593999997E+02  0.45594000000E+02  0.51100000000E-03 0.  1.
    9900012    2    1    2    0    0 -0.17277176282E+02 -0.81823595693E+01  0.25520318012E+02  0.59301663430E+02  0.49999488254E+02 0.  0.
        -12    1    1    2    0    0  0.17277176282E+02  0.81823595693E+01 -0.25520318012E+02  0.31886336570E+02  0.00000000000E+00 0.  1.
         11    1    3    3    0    0  0.60233354879E+01  0.57006742506E+00  0.45776174889E+00  0.60675442602E+01  0.51100000000E-03 0. -1.
        -11    1    3    3    0    0 -0.45441633926E+01 -0.82718608774E+01 -0.98235537106E+01  0.13622602948E+02  0.51100000000E-03 0.  1.
         12    1    3    3    0    0 -0.18756348377E+02 -0.48056611697E+00  0.34886109974E+02  0.39611516222E+02  0.00000000000E+00 0. -1.
</event>
<event>
 7    1  0.3750159E-013  0.5930194E+02  0.7816164E-02  0.1266605E+00
        -11   -1    0    0    0    0  0.00000000000E+00  0.00000000000E+00  0.45593999997E+02  0.45594000000E+02  0.51100000000E-03 0.  1.
         11   -1    0    0    0    0 -0.00000000000E+00 -0.00000000000E+00 -0.45593999997E+02  0.45594000000E+02  0.51100000000E-03 0. -1.
    9900012    2    1    2    0    0  0.21105206554E+02  0.40192232955E+01 -0.23561339063E+02  0.59301943517E+02  0.49999999069E+02 0.  0.
        -12    1    1    2    0    0 -0.21105206554E+02 -0.40192232955E+01  0.23561339063E+02  0.31886056483E+02  0.00000000000E+00 0.  1.
         11    1    3    3    0    0  0.24251593098E+01 -0.22747315808E+01 -0.78025019919E+01  0.84814408586E+01  0.51100000000E-03 0. -1.
        -11    1    3    3    0    0  0.18292697824E+01  0.31779187504E+01 -0.28958514495E+02  0.29189740622E+02  0.51100000000E-03 0.  1.
        -12    1    3    3    0    0  0.16850777461E+02  0.31160361259E+01  0.13199677424E+02  0.21630762037E+02  0.00000000000E+00 0.  1.
</event>
<event>
 7    1  0.3750159E-013  0.5930193E+02  0.7816164E-02  0.1266605E+00
        -11   -1    0    0    0    0  0.00000000000E+00  0.00000000000E+00  0.45593999997E+02  0.45594000000E+02  0.51100000000E-03 0.  1.
         11   -1    0    0    0    0 -0.00000000000E+00 -0.00000000000E+00 -0.45593999997E+02  0.45594000000E+02  0.51100000000E-03 0. -1.
    9900012    2    1    2    0    0 -0.10112505909E+02 -0.20974737006E+02 -0.21783453761E+02  0.59301933670E+02  0.49999981110E+02 0.  0.
        -12    1    1    2    0    0  0.10112505909E+02  0.20974737006E+02  0.21783453761E+02  0.31886066330E+02  0.00000000000E+00 0.  1.
         11    1    3    3    0    0 -0.13154903811E+02 -0.23012406753E+02 -0.27549056822E+01  0.26649800458E+02  0.51100000000E-03 0. -1.
        -11    1    3    3    0    0 -0.78708237701E+00 -0.11362830324E+02 -0.37962465481E+01  0.12006035972E+02  0.51100000000E-03 0.  1.
         12    1    3    3    0    0  0.38294802787E+01  0.13400500071E+02 -0.15232301530E+02  0.20646097241E+02  0.00000000000E+00 0. -1.
</event>
<event>
 7    1  0.3750159E-013  0.5930193E+02  0.7816164E-02  0.1266605E+00
        -11   -1    0    0    0    0  0.00000000000E+00  0.00000000000E+00  0.45593999997E+02  0.45594000000E+02  0.51100000000E-03 0. -1.
         11   -1    0    0    0    0 -0.00000000000E+00 -0.00000000000E+00 -0.45593999997E+02  0.45594000000E+02  0.51100000000E-03 0.  1.
    9900012    2    1    2    0    0  0.27792295363E+02  0.12374878484E+02 -0.95484088358E+01  0.59301930779E+02  0.49999975838E+02 0.  0.
        -12    1    1    2    0    0 -0.27792295363E+02 -0.12374878484E+02  0.95484088358E+01  0.31886069221E+02  0.00000000000E+00 0.  1.
         11    1    3    3    0    0  0.91236671239E+01  0.11655218092E+02 -0.16898610233E+02  0.22464381555E+02  0.51100000000E-03 0. -1.
        -11    1    3    3    0    0  0.17403478920E+02  0.87327540281E+01 -0.67180401821E+01  0.20597915807E+02  0.51100000000E-03 0.  1.
         12    1    3    3    0    0  0.12651493190E+01 -0.80130936357E+01  0.14068241579E+02  0.16239633418E+02  0.00000000000E+00 0. -1.
</event>
<event>
 7    1  0.3750159E-013  0.5930193E+02  0.7816164E-02  0.1266605E+00
        -11   -1    0    0    0    0  0.00000000000E+00  0.00000000000E+00  0.45593999997E+02  0.45594000000E+02  0.51100000000E-03 0.  1.
         11   -1    0    0    0    0 -0.00000000000E+00 -0.00000000000E+00 -0.45593999997E+02  0.45594000000E+02  0.51100000000E-03 0. -1.
    9900012    2    1    2    0    0 -0.23843930880E+02 -0.21162384667E+02  0.58453901414E+00  0.59301933286E+02  0.49999980410E+02 0.  0.
        -12    1    1    2    0    0  0.23843930880E+02  0.21162384667E+02 -0.58453901414E+00  0.31886066714E+02  0.00000000000E+00 0.  1.
         11    1    3    3    0    0  0.45145200526E+01 -0.69498790850E+01 -0.57871592614E+01  0.10108062286E+02  0.51100000000E-03 0. -1.
        -11    1    3    3    0    0 -0.26036333081E+02 -0.25523227022E+02  0.85368227774E+01  0.37446002474E+02  0.51100000000E-03 0.  1.
        -12    1    3    3    0    0 -0.23221178515E+01  0.11310721439E+02 -0.21651245019E+01  0.11747868526E+02  0.00000000000E+00 0.  1.
</event>
<event>
 7    1  0.3750159E-013  0.5930199E+02  0.7816164E-02  0.1266605E+00
        -11   -1    0    0    0    0  0.00000000000E+00  0.00000000000E+00  0.45593999997E+02  0.45594000000E+02  0.51100000000E-03 0.  1.
         11   -1    0    0    0    0 -0.00000000000E+00 -0.00000000000E+00 -0.45593999997E+02  0.45594000000E+02  0.51100000000E-03 0. -1.
    9900012    2    1    2    0    0 -0.18594538545E+02  0.11113373564E+02 -0.23397731725E+02  0.59301987619E+02  0.50000079500E+02 0.  0.
        -12    1    1    2    0    0  0.18594538545E+02 -0.11113373564E+02  0.23397731725E+02  0.31886012381E+02  0.00000000000E+00 0.  1.
         11    1    3    3    0    0 -0.56407605171E+01  0.39022764987E-01 -0.61587255830E+01  0.83516227798E+01  0.51100000000E-03 0. -1.
        -11    1    3    3    0    0 -0.11712976251E+02 -0.99189029362E+01  0.86326722836E+01  0.17609698439E+02  0.51100000000E-03 0.  1.
         12    1    3    3    0    0 -0.12408017771E+01  0.20993253735E+02 -0.25871678426E+02  0.33340666400E+02  0.00000000000E+00 0. -1.
</event>
<event>
 7    1  0.3750159E-013  0.5930194E+02  0.7816164E-02  0.1266605E+00
        -11   -1    0    0    0    0  0.00000000000E+00  0.00000000000E+00  0.45593999997E+02  0.45594000000E+02  0.51100000000E-03 0.  1.
         11   -1    0    0    0    0 -0.00000000000E+00 -0.00000000000E+00 -0.45593999997E+02  0.45594000000E+02  0.51100000000E-03 0. -1.
    9900012    2    1    2    0    0  0.40861239296E+01 -0.25522100809E+02  0.18672091766E+02  0.59301936439E+02  0.49999986161E+02 0.  0.
        -12    1    1    2    0    0 -0.40861239296E+01  0.25522100809E+02 -0.18672091766E+02  0.31886063561E+02  0.00000000000E+00 0.  1.
         11    1    3    3    0    0  0.59001097026E+01 -0.10302731711E+02  0.64365496253E+01  0.13505063738E+02  0.51100000000E-03 0. -1.
        -11    1    3    3    0    0  0.10097689848E+02 -0.26011771320E+02  0.59017772376E+01  0.28520283349E+02  0.51100000000E-03 0.  1.
         12    1    3    3    0    0 -0.11911675621E+02  0.10792402222E+02  0.63337649028E+01  0.17276589353E+02  0.00000000000E+00 0. -1.
</event>
<event>
 7    1  0.3750159E-013  0.5930194E+02  0.7816164E-02  0.1266605E+00
        -11   -1    0    0    0    0  0.00000000000E+00  0.00000000000E+00  0.45593999997E+02  0.45594000000E+02  0.51100000000E-03 0. -1.
         11   -1    0    0    0    0 -0.00000000000E+00 -0.00000000000E+00 -0.45593999997E+02  0.45594000000E+02  0.51100000000E-03 0.  1.
    9900012    2    1    2    0    0 -0.17520727136E+02 -0.21494883873E+02 -0.15738959897E+02  0.59301940809E+02  0.49999994130E+02 0.  0.
        -12    1    1    2    0    0  0.17520727136E+02  0.21494883873E+02  0.15738959897E+02  0.31886059191E+02  0.00000000000E+00 0.  1.
         11    1    3    3    0    0 -0.49736777155E+01  0.63873520443E+01 -0.63103994954E+01  0.10264349868E+02  0.51100000000E-03 0. -1.
        -11    1    3    3    0    0 -0.23493926268E+02 -0.92222058232E+01 -0.10593624776E+02  0.27372222012E+02  0.51100000000E-03 0.  1.
         12    1    3    3    0    0  0.10946876847E+02 -0.18660030094E+02  0.11650643741E+01  0.21665368929E+02  0.00000000000E+00 0. -1.
</event>
<event>
 7    1  0.3750159E-013  0.5930192E+02  0.7816164E-02  0.1266605E+00
        -11   -1    0    0    0    0  0.00000000000E+00  0.00000000000E+00  0.45593999997E+02  0.45594000000E+02  0.51100000000E-03 0.  1.
         11   -1    0    0    0    0 -0.00000000000E+00 -0.00000000000E+00 -0.45593999997E+02  0.45594000000E+02  0.51100000000E-03 0. -1.
    9900012    2    1    2    0    0 -0.14993498321E+02 -0.11350587944E+02 -0.25750361409E+02  0.59301922297E+02  0.49999960368E+02 0.  0.
        -12    1    1    2    0    0  0.14993498321E+02  0.11350587944E+02  0.25750361409E+02  0.31886077703E+02  0.00000000000E+00 0.  1.
         11    1    3    3    0    0  0.43277428473E+01  0.10254460605E+02  0.53175419163E+01  0.12335297838E+02  0.51100000000E-03 0.  1.
        -11    1    3    3    0    0 -0.22526572614E+00 -0.91811919065E+01 -0.99338688046E+00  0.92375238688E+01  0.51100000000E-03 0. -1.
         12    1    3    3    0    0 -0.19095975442E+02 -0.12423856643E+02 -0.30074516445E+02  0.37729100590E+02  0.00000000000E+00 0. -1.
</event>
<event>
 7    1  0.3750159E-013  0.5930193E+02  0.7816164E-02  0.1266605E+00
        -11   -1    0    0    0    0  0.00000000000E+00  0.00000000000E+00  0.45593999997E+02  0.45594000000E+02  0.51100000000E-03 0. -1.
         11   -1    0    0    0    0 -0.00000000000E+00 -0.00000000000E+00 -0.45593999997E+02  0.45594000000E+02  0.51100000000E-03 0.  1.
    9900012    2    1    2    0    0 -0.18249006734E+02 -0.12520512447E+02  0.22955000209E+02  0.59301929165E+02  0.49999972894E+02 0.  0.
        -12    1    1    2    0    0  0.18249006734E+02  0.12520512447E+02 -0.22955000209E+02  0.31886070835E+02  0.00000000000E+00 0.  1.
         11    1    3    3    0    0 -0.11412638621E+02  0.25381489873E+01  0.14473586856E+02  0.18605785050E+02  0.51100000000E-03 0. -1.
        -11    1    3    3    0    0  0.14125000774E+02 -0.16093741005E+01  0.67318458743E+01  0.15729700601E+02  0.51100000000E-03 0.  1.
         12    1    3    3    0    0 -0.20961368887E+02 -0.13449287333E+02  0.17495674782E+01  0.24966443515E+02  0.00000000000E+00 0. -1.
</event>
<event>
 7    1  0.3750159E-013  0.5930195E+02  0.7816164E-02  0.1266605E+00
        -11   -1    0    0    0    0  0.00000000000E+00  0.00000000000E+00  0.45593999997E+02  0.45594000000E+02  0.51100000000E-03 0. -1.
         11   -1    0    0    0    0 -0.00000000000E+00 -0.00000000000E+00 -0.45593999997E+02  0.45594000000E+02  0.51100000000E-03 0.  1.
    9900012    2    1    2    0    0  0.18708289528E+02 -0.40686462213E+01  0.25498351134E+02  0.59301954624E+02  0.50000019325E+02 0.  0.
        -12    1    1    2    0    0 -0.18708289528E+02  0.40686462213E+01 -0.25498351134E+02  0.31886045376E+02  0.00000000000E+00 0.  1.
         11    1    3    3    0    0  0.12150983332E+02  0.45355741281E+01  0.28139846426E+01  0.13271636615E+02  0.51100000000E-03 0. -1.
        -11    1    3    3    0    0  0.11195496033E+02  0.65612506661E+01 -0.51774538318E+01  0.13971226509E+02  0.51100000000E-03 0.  1.
        -12    1    3    3    0    0 -0.46381898368E+01 -0.15165471016E+02  0.27861820323E+02  0.32059091500E+02  0.00000000000E+00 0.  1.
</event>
<event>
 7    1  0.3750159E-013  0.5930193E+02  0.7816164E-02  0.1266605E+00
        -11   -1    0    0    0    0  0.00000000000E+00  0.00000000000E+00  0.45593999997E+02  0.45594000000E+02  0.51100000000E-03 0. -1.
         11   -1    0    0    0    0 -0.00000000000E+00 -0.00000000000E+00 -0.45593999997E+02  0.45594000000E+02  0.51100000000E-03 0.  1.
    9900012    2    1    2    0    0  0.17289945963E+02  0.23614302303E+02  0.12654807215E+02  0.59301927016E+02  0.49999968975E+02 0.  0.
        -12    1    1    2    0    0 -0.17289945963E+02 -0.23614302303E+02 -0.12654807215E+02  0.31886072984E+02  0.00000000000E+00 0.  1.
         11    1    3    3    0    0  0.19677500807E+02  0.16908791710E+01  0.16793026410E+02  0.25924290668E+02  0.51100000000E-03 0. -1.
        -11    1    3    3    0    0  0.36944341904E+01  0.19810551407E+02  0.62995737172E+01  0.21113773237E+02  0.51100000000E-03 0.  1.
        -12    1    3    3    0    0 -0.60819890344E+01  0.21128717257E+01 -0.10437792912E+02  0.12263863111E+02  0.00000000000E+00 0.  1.
</event>
<event>
 7    1  0.3750159E-013  0.5930197E+02  0.7816164E-02  0.1266605E+00
        -11   -1    0    0    0    0  0.00000000000E+00  0.00000000000E+00  0.45593999997E+02  0.45594000000E+02  0.51100000000E-03 0. -1.
         11   -1    0    0    0    0 -0.00000000000E+00 -0.00000000000E+00 -0.45593999997E+02  0.45594000000E+02  0.51100000000E-03 0.  1.
    9900012    2    1    2    0    0  0.13935700550E+02  0.62917692305E+01  0.27980864395E+02  0.59301970423E+02  0.50000048139E+02 0.  0.
        -12    1    1    2    0    0 -0.13935700550E+02 -0.62917692305E+01 -0.27980864395E+02  0.31886029577E+02  0.00000000000E+00 0.  1.
         11    1    3    3    0    0  0.20503256733E+02  0.55259211017E+01  0.14493908466E+02  0.25709778754E+02  0.51100000000E-03 0. -1.
        -11    1    3    3    0    0 -0.79669974670E+01  0.11702371659E+02  0.16904011883E+02  0.22049130801E+02  0.51100000000E-03 0.  1.
         12    1    3    3    0    0  0.13994412832E+01 -0.10936523530E+02 -0.34170559532E+01  0.11543060869E+02  0.00000000000E+00 0. -1.
</event>
<event>
 7    1  0.3750159E-013  0.5930196E+02  0.7816164E-02  0.1266605E+00
        -11   -1    0    0    0    0  0.00000000000E+00  0.00000000000E+00  0.45593999997E+02  0.45594000000E+02  0.51100000000E-03 0. -1.
         11   -1    0    0    0    0 -0.00000000000E+00 -0.00000000000E+00 -0.45593999997E+02  0.45594000000E+02  0.51100000000E-03 0.  1.
    9900012    2    1    2    0    0  0.26406525654E+02  0.87471745212E+01  0.15585313779E+02  0.59301958151E+02  0.50000025757E+02 0.  0.
        -12    1    1    2    0    0 -0.26406525654E+02 -0.87471745212E+01 -0.15585313779E+02  0.31886041849E+02  0.00000000000E+00 0.  1.
         11    1    3    3    0    0  0.26353478501E+02  0.13855526931E+02  0.13346492421E+02  0.32628366736E+02  0.51100000000E-03 0. -1.
        -11    1    3    3    0    0  0.12342177541E+02  0.47902550789E+00  0.41701616316E+01  0.13036451212E+02  0.51100000000E-03 0.  1.
        -12    1    3    3    0    0 -0.12289130388E+02 -0.55873779172E+01 -0.19313402745E+01  0.13637140204E+02  0.00000000000E+00 0.  1.
</event>
<event>
 7    1  0.3750159E-013  0.5930194E+02  0.7816164E-02  0.1266605E+00
        -11   -1    0    0    0    0  0.00000000000E+00  0.00000000000E+00  0.45593999997E+02  0.45594000000E+02  0.51100000000E-03 0. -1.
         11   -1    0    0    0    0 -0.00000000000E+00 -0.00000000000E+00 -0.45593999997E+02  0.45594000000E+02  0.51100000000E-03 0.  1.
    9900012    2    1    2    0    0  0.16695676505E+02  0.22095832577E+02  0.15803460040E+02  0.59301940656E+02  0.49999993851E+02 0.  0.
        -12    1    1    2    0    0 -0.16695676505E+02 -0.22095832577E+02 -0.15803460040E+02  0.31886059344E+02  0.00000000000E+00 0.  1.
         11    1    3    3    0    0  0.12798787386E+02  0.40432359544E+01  0.41290156886E+01  0.14042987088E+02  0.51100000000E-03 0. -1.
        -11    1    3    3    0    0  0.21323242810E+02  0.12432266147E+02  0.25881579524E+01  0.24818148346E+02  0.51100000000E-03 0.  1.
         12    1    3    3    0    0 -0.17426353691E+02  0.56203304756E+01  0.90862863995E+01  0.20440805223E+02  0.00000000000E+00 0. -1.
</event>
<event>
 7    1  0.3750159E-013  0.5930193E+02  0.7816164E-02  0.1266605E+00
        -11   -1    0    0    0    0  0.00000000000E+00  0.00000000000E+00  0.45593999997E+02  0.45594000000E+02  0.51100000000E-03 0.  1.
         11   -1    0    0    0    0 -0.00000000000E+00 -0.00000000000E+00 -0.45593999997E+02  0.45594000000E+02  0.51100000000E-03 0. -1.
    9900012    2    1    2    0    0 -0.17530598923E+02 -0.14327555608E+02 -0.22452631501E+02  0.59301930791E+02  0.49999975859E+02 0.  0.
        -12    1    1    2    0    0  0.17530598923E+02  0.14327555608E+02  0.22452631501E+02  0.31886069209E+02  0.00000000000E+00 0.  1.
         11    1    3    3    0    0 -0.27023200140E+01 -0.17559313127E+02 -0.88123985320E+00  0.17787877751E+02  0.51100000000E-03 0. -1.
        -11    1    3    3    0    0 -0.95843930294E+01 -0.80516650301E+01  0.39459632159E+01  0.13124805730E+02  0.51100000000E-03 0.  1.
         12    1    3    3    0    0 -0.52438858797E+01  0.11283422550E+02 -0.25517354863E+02  0.28389247309E+02  0.00000000000E+00 0. -1.
</event>
<event>
 7    1  0.3750159E-013  0.5930199E+02  0.7816164E-02  0.1266605E+00
        -11   -1    0    0    0    0  0.00000000000E+00  0.00000000000E+00  0.45593999997E+02  0.45594000000E+02  0.51100000000E-03 0.  1.
         11   -1    0    0    0    0 -0.00000000000E+00 -0.00000000000E+00 -0.45593999997E+02  0.45594000000E+02  0.51100000000E-03 0. -1.
    9900012    2    1    2    0    0  0.22473067348E+02  0.22564121090E+02 -0.15934490409E+01  0.59301993721E+02  0.50000090628E+02 0.  0.
        -12    1    1    2    0    0 -0.22473067348E+02 -0.22564121090E+02  0.15934490409E+01  0.31886006279E+02  0.00000000000E+00 0.  1.
         11    1    3    3    0    0  0.46591570431E+00 -0.65363088414E-01 -0.82136911333E+00  0.94657131707E+00  0.51100000000E-03 0. -1.
        -11    1    3    3    0    0  0.10454276183E+02 -0.49318801441E+01 -0.19800012791E+02  0.22927185589E+02  0.51100000000E-03 0.  1.
         12    1    3    3    0    0  0.11552875461E+02  0.27561364322E+02  0.19027932864E+02  0.35428236815E+02  0.00000000000E+00 0. -1.
</event>
<event>
 7    1  0.3750159E-013  0.5930194E+02  0.7816164E-02  0.1266605E+00
        -11   -1    0    0    0    0  0.00000000000E+00  0.00000000000E+00  0.45593999997E+02  0.45594000000E+02  0.51100000000E-03 0.  1.
         11   -1    0    0    0    0 -0.00000000000E+00 -0.00000000000E+00 -0.45593999997E+02  0.45594000000E+02  0.51100000000E-03 0. -1.
    9900012    2    1    2    0    0  0.22557540191E+02 -0.63035019171E+01 -0.21636636081E+02  0.59301940714E+02  0.49999993957E+02 0.  0.
        -12    1    1    2    0    0 -0.22557540191E+02  0.63035019171E+01  0.21636636081E+02  0.31886059286E+02  0.00000000000E+00 0.  1.
         11    1    3    3    0    0 -0.55542380786E+01  0.60671228284E+00  0.13182158927E+01  0.57406753809E+01  0.51100000000E-03 0. -1.
        -11    1    3    3    0    0 -0.39533008240E+01 -0.13753757916E+02 -0.12900622175E+02  0.19267083251E+02  0.51100000000E-03 0.  1.
         12    1    3    3    0    0  0.32065079094E+02  0.68435437158E+01 -0.10054229798E+02  0.34294182083E+02  0.00000000000E+00 0. -1.
</event>
<event>
 7    1  0.3750159E-013  0.5930193E+02  0.7816164E-02  0.1266605E+00
        -11   -1    0    0    0    0  0.00000000000E+00  0.00000000000E+00  0.45593999997E+02  0.45594000000E+02  0.51100000000E-03 0.  1.
         11   -1    0    0    0    0 -0.00000000000E+00 -0.00000000000E+00 -0.45593999997E+02  0.45594000000E+02  0.51100000000E-03 0. -1.
    9900012    2    1    2    0    0  0.21475022801E+02 -0.20993219285E+02 -0.10715845885E+02  0.59301933870E+02  0.49999981475E+02 0.  0.
        -12    1    1    2    0    0 -0.21475022801E+02  0.20993219285E+02  0.10715845885E+02  0.31886066130E+02  0.00000000000E+00 0.  1.
         11    1    3    3    0    0  0.11946353651E+02 -0.81521728325E-01  0.30189518512E+01  0.12322178455E+02  0.51100000000E-03 0. -1.
        -11    1    3    3    0    0  0.32036171163E+01 -0.20513676874E+02  0.95460417398E+01  0.22851717981E+02  0.51100000000E-03 0.  1.
         12    1    3    3    0    0  0.63250520338E+01 -0.39802068190E+00 -0.23280839476E+02  0.24128037434E+02  0.00000000000E+00 0. -1.
</event>
<event>
 7    1  0.3750159E-013  0.5930195E+02  0.7816164E-02  0.1266605E+00
        -11   -1    0    0    0    0  0.00000000000E+00  0.00000000000E+00  0.45593999997E+02  0.45594000000E+02  0.51100000000E-03 0.  1.
         11   -1    0    0    0    0 -0.00000000000E+00 -0.00000000000E+00 -0.45593999997E+02  0.45594000000E+02  0.51100000000E-03 0. -1.
    9900012    2    1    2    0    0  0.11543380936E+02 -0.27728963974E+02  0.10703973799E+02  0.59301950674E+02  0.50000012121E+02 0.  0.
        -12    1    1    2    0    0 -0.11543380936E+02  0.27728963974E+02 -0.10703973799E+02  0.31886049326E+02  0.00000000000E+00 0.  1.
         11    1    3    3    0    0  0.39393350660E+01 -0.29940589423E+02  0.13570255526E+02  0.33107538281E+02  0.51100000000E-03 0. -1.
        -11    1    3    3    0    0 -0.46701058361E+01  0.33097500498E+01  0.79509651206E+01  0.97970495825E+01  0.51100000000E-03 0.  1.
         12    1    3    3    0    0  0.12274151706E+02 -0.10981246015E+01 -0.10817246848E+02  0.16397362810E+02  0.00000000000E+00 0. -1.
</event>
<event>
 7    1  0.3750159E-013  0.5930197E+02  0.7816164E-02  0.1266605E+00
        -11   -1    0    0    0    0  0.00000000000E+00  0.00000000000E+00  0.45593999997E+02  0.45594000000E+02  0.51100000000E-03 0. -1.
         11   -1    0    0    0    0 -0.00000000000E+00 -0.00000000000E+00 -0.45593999997E+02  0.45594000000E+02  0.51100000000E-03 0.  1.
    9900012    2    1    2    0    0  0.41662208806E+01 -0.62667988246E+01  0.30985300778E+02  0.59301968133E+02  0.50000043962E+02 0.  0.
        -12    1    1    2    0    0 -0.41662208806E+01  0.62667988246E+01 -0.30985300778E+02  0.31886031867E+02  0.00000000000E+00 0.  1.
         11    1    3    3    0    0  0.15909128784E+02 -0.85585680411E+01  0.27295544187E+02  0.32732189024E+02  0.51100000000E-03 0. -1.
        -11    1    3    3    0    0 -0.52357087331E+01 -0.91342284870E+01  0.74453118326E+01  0.12894938718E+02  0.51100000000E-03 0.  1.
        -12    1    3    3    0    0 -0.65071991703E+01  0.11425997703E+02 -0.37555552413E+01  0.13674840391E+02  0.00000000000E+00 0.  1.
</event>
<event>
 7    1  0.3750159E-013  0.5930186E+02  0.7816164E-02  0.1266605E+00
        -11   -1    0    0    0    0  0.00000000000E+00  0.00000000000E+00  0.45593999997E+02  0.45594000000E+02  0.51100000000E-03 0.  1.
         11   -1    0    0    0    0 -0.00000000000E+00 -0.00000000000E+00 -0.45593999997E+02  0.45594000000E+02  0.51100000000E-03 0. -1.
    9900012    2    1    2    0    0 -0.51872434885E+01 -0.89453395372E+01 -0.30162879841E+02  0.59301860146E+02  0.49999847020E+02 0.  0.
        -12    1    1    2    0    0  0.51872434885E+01  0.89453395372E+01  0.30162879841E+02  0.31886139854E+02  0.00000000000E+00 0.  1.
         11    1    3    3    0    0 -0.84965946087E+00 -0.14012489068E+02 -0.26667231691E+02  0.30136572755E+02  0.51100000000E-03 0. -1.
        -11    1    3    3    0    0  0.50751339622E+01 -0.10026108733E+01 -0.13305970896E+02  0.14276241629E+02  0.51100000000E-03 0.  1.
        -12    1    3    3    0    0 -0.94127179899E+01  0.60697604044E+01  0.98103227462E+01  0.14889045762E+02  0.00000000000E+00 0.  1.
</event>
<event>
 7    1  0.3750159E-013  0.5930192E+02  0.7816164E-02  0.1266605E+00
        -11   -1    0    0    0    0  0.00000000000E+00  0.00000000000E+00  0.45593999997E+02  0.45594000000E+02  0.51100000000E-03 0. -1.
         11   -1    0    0    0    0 -0.00000000000E+00 -0.00000000000E+00 -0.45593999997E+02  0.45594000000E+02  0.51100000000E-03 0.  1.
    9900012    2    1    2    0    0  0.11799739378E+02 -0.29456941736E+02  0.31267457412E+01  0.59301924595E+02  0.49999964559E+02 0.  0.
        -12    1    1    2    0    0 -0.11799739378E+02  0.29456941736E+02 -0.31267457412E+01  0.31886075405E+02  0.00000000000E+00 0.  1.
         11    1    3    3    0    0  0.92282020243E+01  0.11269669963E+00  0.80069182326E+01  0.12218148509E+02  0.51100000000E-03 0. -1.
        -11    1    3    3    0    0  0.44217136560E+01  0.58286737394E+01  0.65705865883E+01  0.98334936615E+01  0.51100000000E-03 0.  1.
         12    1    3    3    0    0 -0.18501763023E+01 -0.35398312175E+02 -0.11450759080E+02  0.37250282424E+02  0.00000000000E+00 0. -1.
</event>
<event>
 7    1  0.3750159E-013  0.5930195E+02  0.7816164E-02  0.1266605E+00
        -11   -1    0    0    0    0  0.00000000000E+00  0.00000000000E+00  0.45593999997E+02  0.45594000000E+02  0.51100000000E-03 0.  1.
         11   -1    0    0    0    0 -0.00000000000E+00 -0.00000000000E+00 -0.45593999997E+02  0.45594000000E+02  0.51100000000E-03 0. -1.
    9900012    2    1    2    0    0 -0.12027458669E+02  0.14535838399E+02 -0.25705441160E+02  0.59301951872E+02  0.50000014306E+02 0.  0.
        -12    1    1    2    0    0  0.12027458669E+02 -0.14535838399E+02  0.25705441160E+02  0.31886048128E+02  0.00000000000E+00 0.  1.
         11    1    3    3    0    0 -0.28910123650E+01 -0.96496975358E+01  0.42467330644E+01  0.10932033526E+02  0.51100000000E-03 0. -1.
        -11    1    3    3    0    0  0.30388856119E+01  0.90390915304E+01  0.31004923907E+01  0.10027614611E+02  0.51100000000E-03 0.  1.
         12    1    3    3    0    0 -0.12175331916E+02  0.15146444405E+02 -0.33052666615E+02  0.38342303735E+02  0.00000000000E+00 0. -1.
</event>
<event>
 7    1  0.3750159E-013  0.5930195E+02  0.7816164E-02  0.1266605E+00
        -11   -1    0    0    0    0  0.00000000000E+00  0.00000000000E+00  0.45593999997E+02  0.45594000000E+02  0.51100000000E-03 0.  1.
         11   -1    0    0    0    0 -0.00000000000E+00 -0.00000000000E+00 -0.45593999997E+02  0.45594000000E+02  0.51100000000E-03 0. -1.
    9900012    2    1    2    0    0 -0.15251923038E+00  0.30151700840E+02  0.10371698090E+02  0.59301945887E+02  0.50000003390E+02 0.  0.
        -12    1    1    2    0    0  0.15251923038E+00 -0.30151700840E+02 -0.10371698090E+02  0.31886054113E+02  0.00000000000E+00 0.  1.
         11    1    3    3    0    0 -0.21399623769E+01  0.17444707851E+02  0.38537146771E+01  0.17993009422E+02  0.51100000000E-03 0. -1.
        -11    1    3    3    0    0  0.11759892170E+02  0.19722562745E+02  0.14234758331E+02  0.27016715012E+02  0.51100000000E-03 0.  1.
         12    1    3    3    0    0 -0.97724490231E+01 -0.70155697563E+01 -0.77167749176E+01  0.14292221452E+02  0.00000000000E+00 0. -1.
</event>
<event>
 7    1  0.3750159E-013  0.5930195E+02  0.7816164E-02  0.1266605E+00
        -11   -1    0    0    0    0  0.00000000000E+00  0.00000000000E+00  0.45593999997E+02  0.45594000000E+02  0.51100000000E-03 0.  1.
         11   -1    0    0    0    0 -0.00000000000E+00 -0.00000000000E+00 -0.45593999997E+02  0.45594000000E+02  0.51100000000E-03 0. -1.
    9900012    2    1    2    0    0 -0.25184952711E+02 -0.90113464654E+01 -0.17356098876E+02  0.59301946993E+02  0.50000005407E+02 0.  0.
        -12    1    1    2    0    0  0.25184952711E+02  0.90113464654E+01  0.17356098876E+02  0.31886053007E+02  0.00000000000E+00 0.  1.
         11    1    3    3    0    0 -0.89297743856E+01  0.23616060368E+01 -0.74066338068E+01  0.11839606339E+02  0.51100000000E-03 0. -1.
        -11    1    3    3    0    0 -0.68753225718E+01 -0.13038476960E+02 -0.25367192376E+02  0.29338820549E+02  0.51100000000E-03 0.  1.
        -12    1    3    3    0    0 -0.93798557538E+01  0.16655244575E+01  0.15417727307E+02  0.18123520105E+02  0.00000000000E+00 0.  1.
</event>
<event>
 7    1  0.3750159E-013  0.5930195E+02  0.7816164E-02  0.1266605E+00
        -11   -1    0    0    0    0  0.00000000000E+00  0.00000000000E+00  0.45593999997E+02  0.45594000000E+02  0.51100000000E-03 0.  1.
         11   -1    0    0    0    0 -0.00000000000E+00 -0.00000000000E+00 -0.45593999997E+02  0.45594000000E+02  0.51100000000E-03 0. -1.
    9900012    2    1    2    0    0 -0.15983420920E+01 -0.29902968805E+02 -0.10953432644E+02  0.59301954031E+02  0.50000018244E+02 0.  0.
        -12    1    1    2    0    0  0.15983420920E+01  0.29902968805E+02  0.10953432644E+02  0.31886045969E+02  0.00000000000E+00 0.  1.
         11    1    3    3    0    0 -0.64691910984E+01 -0.17430390022E+02 -0.18551790550E+02  0.26264764660E+02  0.51100000000E-03 0. -1.
        -11    1    3    3    0    0 -0.49482191721E+01 -0.52053986927E+01 -0.95707396009E+01  0.11965788954E+02  0.51100000000E-03 0.  1.
        -12    1    3    3    0    0  0.98190681784E+01 -0.72671800910E+01  0.17169097506E+02  0.21071400417E+02  0.00000000000E+00 0.  1.
</event>
<event>
 7    1  0.3750159E-013  0.5930198E+02  0.7816164E-02  0.1266605E+00
        -11   -1    0    0    0    0  0.00000000000E+00  0.00000000000E+00  0.45593999997E+02  0.45594000000E+02  0.51100000000E-03 0. -1.
         11   -1    0    0    0    0 -0.00000000000E+00 -0.00000000000E+00 -0.45593999997E+02  0.45594000000E+02  0.51100000000E-03 0.  1.
    9900012    2    1    2    0    0  0.14661382552E+02 -0.26803349651E+02  0.91292086418E+01  0.59301982041E+02  0.50000069327E+02 0.  0.
        -12    1    1    2    0    0 -0.14661382552E+02  0.26803349651E+02 -0.91292086418E+01  0.31886017959E+02  0.00000000000E+00 0.  1.
         11    1    3    3    0    0  0.14972379583E+01 -0.11482479907E+02  0.91304017676E+01  0.14746297943E+02  0.51100000000E-03 0. -1.
        -11    1    3    3    0    0  0.13740642526E+02 -0.96337309355E+01 -0.18627567824E+02  0.25071902841E+02  0.51100000000E-03 0.  1.
         12    1    3    3    0    0 -0.57649793209E+00 -0.56871388086E+01  0.18626374698E+02  0.19483781257E+02  0.00000000000E+00 0. -1.
</event>
<event>
 7    1  0.3750159E-013  0.5930190E+02  0.7816164E-02  0.1266605E+00
        -11   -1    0    0    0    0  0.00000000000E+00  0.00000000000E+00  0.45593999997E+02  0.45594000000E+02  0.51100000000E-03 0.  1.
         11   -1    0    0    0    0 -0.00000000000E+00 -0.00000000000E+00 -0.45593999997E+02  0.45594000000E+02  0.51100000000E-03 0. -1.
    9900012    2    1    2    0    0 -0.28004579087E+02 -0.15213095981E+02 -0.10141021879E+01  0.59301903619E+02  0.49999926305E+02 0.  0.
        -12    1    1    2    0    0  0.28004579087E+02  0.15213095981E+02  0.10141021879E+01  0.31886096381E+02  0.00000000000E+00 0.  1.
         11    1    3    3    0    0 -0.66222295913E+01  0.40091622695E+01  0.51720864411E+00  0.77585315560E+01  0.51100000000E-03 0. -1.
        -11    1    3    3    0    0 -0.14137195891E+02  0.11244480828E+02  0.65271152956E+01  0.19206818870E+02  0.51100000000E-03 0.  1.
         12    1    3    3    0    0 -0.72451536043E+01 -0.30466739078E+02 -0.80584261276E+01  0.32336553194E+02  0.00000000000E+00 0. -1.
</event>
<event>
 7    1  0.3750159E-013  0.5930196E+02  0.7816164E-02  0.1266605E+00
        -11   -1    0    0    0    0  0.00000000000E+00  0.00000000000E+00  0.45593999997E+02  0.45594000000E+02  0.51100000000E-03 0.  1.
         11   -1    0    0    0    0 -0.00000000000E+00 -0.00000000000E+00 -0.45593999997E+02  0.45594000000E+02  0.51100000000E-03 0. -1.
    9900012    2    1    2    0    0 -0.17616918796E+02 -0.19446691347E+02 -0.18116010576E+02  0.59301961183E+02  0.50000031288E+02 0.  0.
        -12    1    1    2    0    0  0.17616918796E+02  0.19446691347E+02  0.18116010576E+02  0.31886038817E+02  0.00000000000E+00 0.  1.
         11    1    3    3    0    0 -0.46668081196E+01 -0.45997153589E+01  0.90806922659E+01  0.11198011060E+02  0.51100000000E-03 0. -1.
        -11    1    3    3    0    0  0.23013258440E+01  0.10058662793E+02 -0.52840962214E+01  0.11592862932E+02  0.51100000000E-03 0.  1.
         12    1    3    3    0    0 -0.15251436521E+02 -0.24905638781E+02 -0.21912606620E+02  0.36511087192E+02  0.00000000000E+00 0. -1.
</event>
<event>
 7    1  0.3750159E-013  0.5930195E+02  0.7816164E-02  0.1266605E+00
        -11   -1    0    0    0    0  0.00000000000E+00  0.00000000000E+00  0.45593999997E+02  0.45594000000E+02  0.51100000000E-03 0.  1.
         11   -1    0    0    0    0 -0.00000000000E+00 -0.00000000000E+00 -0.45593999997E+02  0.45594000000E+02  0.51100000000E-03 0. -1.
    9900012    2    1    2    0    0 -0.30696437519E+02  0.50683110361E+01  0.69829334206E+01  0.59301946430E+02  0.50000004381E+02 0.  0.
        -12    1    1    2    0    0  0.30696437519E+02 -0.50683110361E+01 -0.69829334206E+01  0.31886053570E+02  0.00000000000E+00 0.  1.
         11    1    3    3    0    0  0.18389204636E+01  0.14937106292E+01 -0.89386659970E+01  0.92472996049E+01  0.51100000000E-03 0. -1.
        -11    1    3    3    0    0 -0.25340651910E+02 -0.33887872725E+01 -0.57295666150E+01  0.26200390307E+02  0.51100000000E-03 0.  1.
        -12    1    3    3    0    0 -0.71947060733E+01  0.69633876794E+01  0.21651166033E+02  0.23854256518E+02  0.00000000000E+00 0.  1.
</event>
<event>
 7    1  0.3750159E-013  0.5930193E+02  0.7816164E-02  0.1266605E+00
        -11   -1    0    0    0    0  0.00000000000E+00  0.00000000000E+00  0.45593999997E+02  0.45594000000E+02  0.51100000000E-03 0. -1.
         11   -1    0    0    0    0 -0.00000000000E+00 -0.00000000000E+00 -0.45593999997E+02  0.45594000000E+02  0.51100000000E-03 0.  1.
    9900012    2    1    2    0    0 -0.28577637351E+02  0.67286358135E+01 -0.12440475682E+02  0.59301932013E+02  0.49999978088E+02 0.  0.
        -12    1    1    2    0    0  0.28577637351E+02 -0.67286358135E+01  0.12440475682E+02  0.31886067987E+02  0.00000000000E+00 0.  1.
         11    1    3    3    0    0 -0.63658451359E+01 -0.53253371731E+01  0.11179024590E+02  0.13923138703E+02  0.51100000000E-03 0. -1.
        -11    1    3    3    0    0 -0.21730102534E+02 -0.27484598724E+01 -0.67263746034E+01  0.22912780350E+02  0.51100000000E-03 0.  1.
        -12    1    3    3    0    0 -0.48168968135E+00  0.14802432859E+02 -0.16893125668E+02  0.22466012960E+02  0.00000000000E+00 0.  1.
</event>
<event>
 7    1  0.3750159E-013  0.5930195E+02  0.7816164E-02  0.1266605E+00
        -11   -1    0    0    0    0  0.00000000000E+00  0.00000000000E+00  0.45593999997E+02  0.45594000000E+02  0.51100000000E-03 0. -1.
         11   -1    0    0    0    0 -0.00000000000E+00 -0.00000000000E+00 -0.45593999997E+02  0.45594000000E+02  0.51100000000E-03 0.  1.
    9900012    2    1    2    0    0  0.30433674236E+02  0.82243920422E+01 -0.47823883444E+01  0.59301946776E+02  0.50000005012E+02 0.  0.
        -12    1    1    2    0    0 -0.30433674236E+02 -0.82243920422E+01  0.47823883444E+01  0.31886053224E+02  0.00000000000E+00 0.  1.
         11    1    3    3    0    0  0.13325382439E+02 -0.71421016731E+00  0.14309797106E+02  0.19566456163E+02  0.51100000000E-03 0. -1.
        -11    1    3    3    0    0  0.27776863166E+01 -0.30165855654E+01  0.67265896397E+01  0.78779653584E+01  0.51100000000E-03 0.  1.
        -12    1    3    3    0    0  0.14330605480E+02  0.11955187775E+02 -0.25818775090E+02  0.31857525254E+02  0.00000000000E+00 0.  1.
</event>
<event>
 7    1  0.3750159E-013  0.5930196E+02  0.7816164E-02  0.1266605E+00
        -11   -1    0    0    0    0  0.00000000000E+00  0.00000000000E+00  0.45593999997E+02  0.45594000000E+02  0.51100000000E-03 0.  1.
         11   -1    0    0    0    0 -0.00000000000E+00 -0.00000000000E+00 -0.45593999997E+02  0.45594000000E+02  0.51100000000E-03 0. -1.
    9900012    2    1    2    0    0  0.11774543143E+02 -0.76949866246E+01 -0.28615844986E+02  0.59301964347E+02  0.50000037057E+02 0.  0.
        -12    1    1    2    0    0 -0.11774543143E+02  0.76949866246E+01  0.28615844986E+02  0.31886035653E+02  0.00000000000E+00 0.  1.
         11    1    3    3    0    0  0.38136420557E+00  0.36169110227E+01  0.40346785015E+01  0.54319531363E+01  0.51100000000E-03 0. -1.
        -11    1    3    3    0    0  0.20902284657E+02 -0.65891826026E+00 -0.33580650232E+02  0.39560077697E+02  0.51100000000E-03 0.  1.
         12    1    3    3    0    0 -0.95091057188E+01 -0.10652979387E+02  0.93012674456E+00  0.14309933513E+02  0.00000000000E+00 0. -1.
</event>
<event>
 7    1  0.3750159E-013  0.5930192E+02  0.7816164E-02  0.1266605E+00
        -11   -1    0    0    0    0  0.00000000000E+00  0.00000000000E+00  0.45593999997E+02  0.45594000000E+02  0.51100000000E-03 0. -1.
         11   -1    0    0    0    0 -0.00000000000E+00 -0.00000000000E+00 -0.45593999997E+02  0.45594000000E+02  0.51100000000E-03 0.  1.
    9900012    2    1    2    0    0  0.23515390301E+00  0.31797858890E+02  0.23586439065E+01  0.59301916384E+02  0.49999949584E+02 0.  0.
        -12    1    1    2    0    0 -0.23515390301E+00 -0.31797858890E+02 -0.23586439065E+01  0.31886083616E+02  0.00000000000E+00 0.  1.
         11    1    3    3    0    0  0.10681941306E+01 -0.17138607161E+01 -0.14662372159E+01  0.24956380124E+01  0.51100000000E-03 0. -1.
        -11    1    3    3    0    0  0.36098308941E+01  0.22161818034E+01 -0.17936844007E+02  0.18430211992E+02  0.51100000000E-03 0.  1.
         12    1    3    3    0    0 -0.44428711216E+01  0.31295537802E+02  0.21761725129E+02  0.38376066379E+02  0.00000000000E+00 0. -1.
</event>
<event>
 7    1  0.3750159E-013  0.5930190E+02  0.7816164E-02  0.1266605E+00
        -11   -1    0    0    0    0  0.00000000000E+00  0.00000000000E+00  0.45593999997E+02  0.45594000000E+02  0.51100000000E-03 0.  1.
         11   -1    0    0    0    0 -0.00000000000E+00 -0.00000000000E+00 -0.45593999997E+02  0.45594000000E+02  0.51100000000E-03 0. -1.
    9900012    2    1    2    0    0 -0.28353010214E+02 -0.14287028202E+02  0.29513908833E+01  0.59301904737E+02  0.49999928342E+02 0.  0.
        -12    1    1    2    0    0  0.28353010214E+02  0.14287028202E+02 -0.29513908833E+01  0.31886095263E+02  0.00000000000E+00 0.  1.
         11    1    3    3    0    0  0.50573354612E+01 -0.44950322379E+01 -0.52122625953E+01  0.85410560477E+01  0.51100000000E-03 0. -1.
        -11    1    3    3    0    0  0.52686573886E+01  0.15396558199E+01  0.88917689627E+01  0.10449538089E+02  0.51100000000E-03 0.  1.
         12    1    3    3    0    0 -0.38679003063E+02 -0.11331651784E+02 -0.72811548413E+00  0.40311310600E+02  0.00000000000E+00 0. -1.
</event>
<event>
 7    1  0.3750159E-013  0.5930194E+02  0.7816164E-02  0.1266605E+00
        -11   -1    0    0    0    0  0.00000000000E+00  0.00000000000E+00  0.45593999997E+02  0.45594000000E+02  0.51100000000E-03 0.  1.
         11   -1    0    0    0    0 -0.00000000000E+00 -0.00000000000E+00 -0.45593999997E+02  0.45594000000E+02  0.51100000000E-03 0. -1.
    9900012    2    1    2    0    0  0.40660648571E+01 -0.15709300426E+02 -0.27448240010E+02  0.59301939050E+02  0.49999990921E+02 0.  0.
        -12    1    1    2    0    0 -0.40660648571E+01  0.15709300426E+02  0.27448240010E+02  0.31886060950E+02  0.00000000000E+00 0.  1.
         11    1    3    3    0    0  0.14985816750E+02  0.27111481982E+01  0.49276105927E+00  0.15237054897E+02  0.51100000000E-03 0. -1.
        -11    1    3    3    0    0  0.74326471930E+01 -0.15408809129E+01 -0.12834620060E+02  0.14911271932E+02  0.51100000000E-03 0.  1.
        -12    1    3    3    0    0 -0.18352399086E+02 -0.16879567711E+02 -0.15106381009E+02  0.29153612221E+02  0.00000000000E+00 0.  1.
</event>
<event>
 7    1  0.3750159E-013  0.5930193E+02  0.7816164E-02  0.1266605E+00
        -11   -1    0    0    0    0  0.00000000000E+00  0.00000000000E+00  0.45593999997E+02  0.45594000000E+02  0.51100000000E-03 0. -1.
         11   -1    0    0    0    0 -0.00000000000E+00 -0.00000000000E+00 -0.45593999997E+02  0.45594000000E+02  0.51100000000E-03 0.  1.
    9900012    2    1    2    0    0 -0.19539456815E+02 -0.15044865724E+02  0.20213438473E+02  0.59301930123E+02  0.49999974642E+02 0.  0.
        -12    1    1    2    0    0  0.19539456815E+02  0.15044865724E+02 -0.20213438473E+02  0.31886069877E+02  0.00000000000E+00 0.  1.
         11    1    3    3    0    0 -0.12415116376E+02  0.70497437749E+01  0.45532717267E+01  0.14985535880E+02  0.51100000000E-03 0. -1.
        -11    1    3    3    0    0 -0.12280104814E-01 -0.19347785738E+01 -0.10417868216E+02  0.10596013276E+02  0.51100000000E-03 0.  1.
         12    1    3    3    0    0 -0.71120603339E+01 -0.20159830925E+02  0.26078034962E+02  0.33720380968E+02  0.00000000000E+00 0. -1.
</event>
<event>
 7    1  0.4045109E-013  0.5930182E+02  0.7816164E-02  0.1266605E+00
        -11   -1    0    0    0    0  0.00000000000E+00  0.00000000000E+00  0.45593999997E+02  0.45594000000E+02  0.51100000000E-03 0. -1.
         11   -1    0    0    0    0 -0.00000000000E+00 -0.00000000000E+00 -0.45593999997E+02  0.45594000000E+02  0.51100000000E-03 0.  1.
    9900012    2    1    2    0    0 -0.13060611500E+02  0.10705497757E+01  0.29068937451E+02  0.59301815310E+02  0.49999765249E+02 0.  0.
        -12    1    1    2    0    0  0.13060611500E+02 -0.10705497757E+01 -0.29068937451E+02  0.31886184690E+02  0.00000000000E+00 0.  1.
         11    1    3    3    0    0 -0.16128623733E+02 -0.34448348240E+01 -0.21621035832E+00  0.16493821197E+02  0.51100000000E-03 0. -1.
        -11    1    3    3    0    0  0.10647915610E+01  0.97286725424E+01 -0.28482949204E+01  0.10192822706E+02  0.51100000000E-03 0.  1.
         12    1    3    3    0    0  0.20032206724E+01 -0.52132879427E+01  0.32133442730E+02  0.32615171407E+02  0.00000000000E+00 0. -1.
</event>
<event>
 7    1  0.3750159E-013  0.5930195E+02  0.7816164E-02  0.1266605E+00
        -11   -1    0    0    0    0  0.00000000000E+00  0.00000000000E+00  0.45593999997E+02  0.45594000000E+02  0.51100000000E-03 0.  1.
         11   -1    0    0    0    0 -0.00000000000E+00 -0.00000000000E+00 -0.45593999997E+02  0.45594000000E+02  0.51100000000E-03 0. -1.
    9900012    2    1    2    0    0  0.24040157866E+02  0.19095611933E+02 -0.86109522489E+01  0.59301951578E+02  0.50000013770E+02 0.  0.
        -12    1    1    2    0    0 -0.24040157866E+02 -0.19095611933E+02  0.86109522489E+01  0.31886048422E+02  0.00000000000E+00 0.  1.
         11    1    3    3    0    0  0.16994439340E+02  0.29749218782E+02 -0.16712160623E+02  0.38119854401E+02  0.51100000000E-03 0. -1.
        -11    1    3    3    0    0  0.10881372824E+02 -0.34691173736E+01  0.44606145929E+01  0.12261163594E+02  0.51100000000E-03 0.  1.
        -12    1    3    3    0    0 -0.38356542972E+01 -0.71844894752E+01  0.36405937811E+01  0.89209335826E+01  0.00000000000E+00 0.  1.
</event>
<event>
 7    1  0.3750159E-013  0.5930197E+02  0.7816164E-02  0.1266605E+00
        -11   -1    0    0    0    0  0.00000000000E+00  0.00000000000E+00  0.45593999997E+02  0.45594000000E+02  0.51100000000E-03 0.  1.
         11   -1    0    0    0    0 -0.00000000000E+00 -0.00000000000E+00 -0.45593999997E+02  0.45594000000E+02  0.51100000000E-03 0. -1.
    9900012    2    1    2    0    0  0.22428306663E+02  0.51628781246E+01 -0.22068866994E+02  0.59301966370E+02  0.50000040746E+02 0.  0.
        -12    1    1    2    0    0 -0.22428306663E+02 -0.51628781246E+01  0.22068866994E+02  0.31886033630E+02  0.00000000000E+00 0.  1.
         11    1    3    3    0    0  0.91570067288E+01  0.85369070260E+01 -0.13780489615E+02  0.18618040931E+02  0.51100000000E-03 0. -1.
        -11    1    3    3    0    0  0.14815695818E+02  0.84192932037E+01 -0.18395488561E+02  0.25075552642E+02  0.51100000000E-03 0.  1.
        -12    1    3    3    0    0 -0.15443958840E+01 -0.11793322105E+02  0.10107111183E+02  0.15608372797E+02  0.00000000000E+00 0.  1.
</event>
<event>
 7    1  0.3750159E-013  0.5930192E+02  0.7816164E-02  0.1266605E+00
        -11   -1    0    0    0    0  0.00000000000E+00  0.00000000000E+00  0.45593999997E+02  0.45594000000E+02  0.51100000000E-03 0. -1.
         11   -1    0    0    0    0 -0.00000000000E+00 -0.00000000000E+00 -0.45593999997E+02  0.45594000000E+02  0.51100000000E-03 0.  1.
    9900012    2    1    2    0    0  0.16889599591E+02 -0.26478907197E+02 -0.55073692445E+01  0.59301918136E+02  0.49999952779E+02 0.  0.
        -12    1    1    2    0    0 -0.16889599591E+02  0.26478907197E+02  0.55073692445E+01  0.31886081864E+02  0.00000000000E+00 0.  1.
         11    1    3    3    0    0  0.98522061298E+01  0.65786953594E+01 -0.44044809837E+00  0.11854922735E+02  0.51100000000E-03 0. -1.
        -11    1    3    3    0    0 -0.26677671217E+01 -0.12802321609E+02 -0.17444424340E+02  0.21801934795E+02  0.51100000000E-03 0.  1.
         12    1    3    3    0    0  0.97051605827E+01 -0.20255280947E+02  0.12377503194E+02  0.25645060606E+02  0.00000000000E+00 0. -1.
</event>
<event>
 7    1  0.3750159E-013  0.5930193E+02  0.7816164E-02  0.1266605E+00
        -11   -1    0    0    0    0  0.00000000000E+00  0.00000000000E+00  0.45593999997E+02  0.45594000000E+02  0.51100000000E-03 0.  1.
         11   -1    0    0    0    0 -0.00000000000E+00 -0.00000000000E+00 -0.45593999997E+02  0.45594000000E+02  0.51100000000E-03 0. -1.
    9900012    2    1    2    0    0  0.13070197714E+02 -0.26803196205E+02 -0.11290702084E+02  0.59301931747E+02  0.49999977604E+02 0.  0.
        -12    1    1    2    0    0 -0.13070197714E+02  0.26803196205E+02  0.11290702084E+02  0.31886068253E+02  0.00000000000E+00 0.  1.
         11    1    3    3    0    0  0.16715285504E+02  0.42036750083E+01  0.41439178504E+01  0.17726920445E+02  0.51100000000E-03 0. -1.
        -11    1    3    3    0    0  0.19765859708E+01  0.13781923652E+01 -0.73374509356E+01  0.77229847073E+01  0.51100000000E-03 0.  1.
         12    1    3    3    0    0 -0.56216737605E+01 -0.32385063578E+02 -0.80971689985E+01  0.33852026595E+02  0.00000000000E+00 0. -1.
</event>
<event>
 7    1  0.3750159E-013  0.5930196E+02  0.7816164E-02  0.1266605E+00
        -11   -1    0    0    0    0  0.00000000000E+00  0.00000000000E+00  0.45593999997E+02  0.45594000000E+02  0.51100000000E-03 0.  1.
         11   -1    0    0    0    0 -0.00000000000E+00 -0.00000000000E+00 -0.45593999997E+02  0.45594000000E+02  0.51100000000E-03 0. -1.
    9900012    2    1    2    0    0 -0.11585385409E+02  0.19181900263E+02 -0.22683766640E+02  0.59301957258E+02  0.50000024129E+02 0.  0.
        -12    1    1    2    0    0  0.11585385409E+02 -0.19181900263E+02  0.22683766640E+02  0.31886042742E+02  0.00000000000E+00 0.  1.
         11    1    3    3    0    0  0.83298518075E+00 -0.39362976508E+01 -0.24523539395E+02  0.24851404150E+02  0.51100000000E-03 0. -1.
        -11    1    3    3    0    0  0.45529302427E+01  0.14107049715E+02 -0.16701935983E+01  0.14917358090E+02  0.51100000000E-03 0.  1.
        -12    1    3    3    0    0 -0.16971300832E+02  0.90111481987E+01  0.35099663538E+01  0.19533195018E+02  0.00000000000E+00 0.  1.
</event>
<event>
 7    1  0.3750159E-013  0.5930193E+02  0.7816164E-02  0.1266605E+00
        -11   -1    0    0    0    0  0.00000000000E+00  0.00000000000E+00  0.45593999997E+02  0.45594000000E+02  0.51100000000E-03 0.  1.
         11   -1    0    0    0    0 -0.00000000000E+00 -0.00000000000E+00 -0.45593999997E+02  0.45594000000E+02  0.51100000000E-03 0. -1.
    9900012    2    1    2    0    0  0.17146524389E+02 -0.96151249558E+01 -0.25105124878E+02  0.59301933737E+02  0.49999981233E+02 0.  0.
        -12    1    1    2    0    0 -0.17146524389E+02  0.96151249558E+01  0.25105124878E+02  0.31886066263E+02  0.00000000000E+00 0.  1.
         11    1    3    3    0    0 -0.98545238558E+01 -0.82417062657E+01  0.22203942123E+01  0.13037158943E+02  0.51100000000E-03 0. -1.
        -11    1    3    3    0    0  0.16188082522E+02  0.50658531215E+01 -0.88896083131E+00  0.16985497791E+02  0.51100000000E-03 0.  1.
         12    1    3    3    0    0  0.10812965723E+02 -0.64392718117E+01 -0.26436558259E+02  0.29279277003E+02  0.00000000000E+00 0. -1.
</event>
<event>
 7    1  0.3750159E-013  0.5930197E+02  0.7816164E-02  0.1266605E+00
        -11   -1    0    0    0    0  0.00000000000E+00  0.00000000000E+00  0.45593999997E+02  0.45594000000E+02  0.51100000000E-03 0.  1.
         11   -1    0    0    0    0 -0.00000000000E+00 -0.00000000000E+00 -0.45593999997E+02  0.45594000000E+02  0.51100000000E-03 0. -1.
    9900012    2    1    2    0    0  0.17125830621E+01 -0.17043804496E+02 -0.26894138645E+02  0.59301970051E+02  0.50000047460E+02 0.  0.
        -12    1    1    2    0    0 -0.17125830621E+01  0.17043804496E+02  0.26894138645E+02  0.31886029949E+02  0.00000000000E+00 0.  1.
         11    1    3    3    0    0 -0.77143672750E+01 -0.46310693299E+01 -0.81226063023E+01  0.12121674760E+02  0.51100000000E-03 0. -1.
        -11    1    3    3    0    0 -0.15685353980E+02 -0.66484221747E+01 -0.10958432471E+02  0.20256334550E+02  0.51100000000E-03 0.  1.
        -12    1    3    3    0    0  0.25112304317E+02 -0.57643129916E+01 -0.78130998714E+01  0.26923960741E+02  0.00000000000E+00 0.  1.
</event>
<event>
 7    1  0.3750159E-013  0.5930185E+02  0.7816164E-02  0.1266605E+00
        -11   -1    0    0    0    0  0.00000000000E+00  0.00000000000E+00  0.45593999997E+02  0.45594000000E+02  0.51100000000E-03 0. -1.
         11   -1    0    0    0    0 -0.00000000000E+00 -0.00000000000E+00 -0.45593999997E+02  0.45594000000E+02  0.51100000000E-03 0.  1.
    9900012    2    1    2    0    0 -0.17898634038E+02 -0.10610907780E+02  0.24161419950E+02  0.59301848173E+02  0.49999825184E+02 0.  0.
        -12    1    1    2    0    0  0.17898634038E+02  0.10610907780E+02 -0.24161419950E+02  0.31886151827E+02  0.00000000000E+00 0.  1.
         11    1    3    3    0    0 -0.20914550642E+02  0.24120323756E+01  0.35086007131E+01  0.21343537850E+02  0.51100000000E-03 0. -1.
        -11    1    3    3    0    0 -0.15699779969E+01 -0.13316548431E+02 -0.31021594549E+01  0.13762946144E+02  0.51100000000E-03 0.  1.
        -12    1    3    3    0    0  0.45858946006E+01  0.29360827533E+00  0.23754978692E+02  0.24195364179E+02  0.00000000000E+00 0.  1.
</event>
<event>
 7    1  0.3750159E-013  0.5930193E+02  0.7816164E-02  0.1266605E+00
        -11   -1    0    0    0    0  0.00000000000E+00  0.00000000000E+00  0.45593999997E+02  0.45594000000E+02  0.51100000000E-03 0.  1.
         11   -1    0    0    0    0 -0.00000000000E+00 -0.00000000000E+00 -0.45593999997E+02  0.45594000000E+02  0.51100000000E-03 0. -1.
    9900012    2    1    2    0    0 -0.24653961561E+01 -0.10333875666E+02 -0.30064169597E+02  0.59301930031E+02  0.49999974474E+02 0.  0.
        -12    1    1    2    0    0  0.24653961561E+01  0.10333875666E+02  0.30064169597E+02  0.31886069969E+02  0.00000000000E+00 0.  1.
         11    1    3    3    0    0  0.87727325599E+01  0.29841776826E+00 -0.17842654992E+01  0.89573150757E+01  0.51100000000E-03 0. -1.
        -11    1    3    3    0    0  0.16901165030E+01 -0.10921350187E+02  0.67872148189E+01  0.12969142954E+02  0.51100000000E-03 0.  1.
         12    1    3    3    0    0 -0.12928245219E+02  0.28905675206E+00 -0.35067118917E+02  0.37375472002E+02  0.00000000000E+00 0. -1.
</event>
<event>
 7    1  0.3750159E-013  0.5930196E+02  0.7816164E-02  0.1266605E+00
        -11   -1    0    0    0    0  0.00000000000E+00  0.00000000000E+00  0.45593999997E+02  0.45594000000E+02  0.51100000000E-03 0. -1.
         11   -1    0    0    0    0 -0.00000000000E+00 -0.00000000000E+00 -0.45593999997E+02  0.45594000000E+02  0.51100000000E-03 0.  1.
    9900012    2    1    2    0    0  0.26916571819E+02  0.17052680734E+02 -0.11931681075E+01  0.59301962165E+02  0.50000033078E+02 0.  0.
        -12    1    1    2    0    0 -0.26916571819E+02 -0.17052680734E+02  0.11931681075E+01  0.31886037835E+02  0.00000000000E+00 0.  1.
         11    1    3    3    0    0  0.18287534397E+01  0.10403242305E+02 -0.12488250910E+02  0.16356289330E+02  0.51100000000E-03 0. -1.
        -11    1    3    3    0    0  0.32862598194E+02  0.44153744599E+01  0.74290973821E+01  0.33979955560E+02  0.51100000000E-03 0.  1.
         12    1    3    3    0    0 -0.77747798144E+01  0.22340639688E+01  0.38659854207E+01  0.89657172748E+01  0.00000000000E+00 0. -1.
</event>
<event>
 7    1  0.3750159E-013  0.5930193E+02  0.7816164E-02  0.1266605E+00
        -11   -1    0    0    0    0  0.00000000000E+00  0.00000000000E+00  0.45593999997E+02  0.45594000000E+02  0.51100000000E-03 0.  1.
         11   -1    0    0    0    0 -0.00000000000E+00 -0.00000000000E+00 -0.45593999997E+02  0.45594000000E+02  0.51100000000E-03 0. -1.
    9900012    2    1    2    0    0  0.41416688688E+01 -0.17695215585E+02 -0.26200138617E+02  0.59301931895E+02  0.49999977873E+02 0.  0.
        -12    1    1    2    0    0 -0.41416688688E+01  0.17695215585E+02  0.26200138617E+02  0.31886068105E+02  0.00000000000E+00 0.  1.
         11    1    3    3    0    0  0.20438813063E+00  0.78492114937E+01 -0.11839930524E+01  0.79406382231E+01  0.51100000000E-03 0. -1.
        -11    1    3    3    0    0 -0.12611686633E+02 -0.13668401699E+02  0.63208497531E+00  0.18608583407E+02  0.51100000000E-03 0.  1.
         12    1    3    3    0    0  0.16548967371E+02 -0.11876025379E+02 -0.25648230540E+02  0.32752710265E+02  0.00000000000E+00 0. -1.
</event>
<event>
 7    1  0.3750159E-013  0.5930204E+02  0.7816164E-02  0.1266604E+00
        -11   -1    0    0    0    0  0.00000000000E+00  0.00000000000E+00  0.45593999997E+02  0.45594000000E+02  0.51100000000E-03 0. -1.
         11   -1    0    0    0    0 -0.00000000000E+00 -0.00000000000E+00 -0.45593999997E+02  0.45594000000E+02  0.51100000000E-03 0.  1.
    9900012    2    1    2    0    0  0.25282549062E+02  0.38244268234E+01  0.19049433006E+02  0.59302040308E+02  0.50000175592E+02 0.  0.
        -12    1    1    2    0    0 -0.25282549062E+02 -0.38244268234E+01 -0.19049433006E+02  0.31885959692E+02  0.00000000000E+00 0.  1.
         11    1    3    3    0    0  0.57266979251E+01  0.59462107077E+01 -0.44360196228E+01  0.93718067234E+01  0.51100000000E-03 0.  1.
        -11    1    3    3    0    0 -0.16032236808E+01 -0.12041176592E+02 -0.49561241019E+01  0.13119581787E+02  0.51100000000E-03 0. -1.
         12    1    3    3    0    0  0.21159074818E+02  0.99193927079E+01  0.28441576731E+02  0.36810651798E+02  0.00000000000E+00 0. -1.
</event>
<event>
 7    1  0.3750159E-013  0.5930197E+02  0.7816164E-02  0.1266605E+00
        -11   -1    0    0    0    0  0.00000000000E+00  0.00000000000E+00  0.45593999997E+02  0.45594000000E+02  0.51100000000E-03 0. -1.
         11   -1    0    0    0    0 -0.00000000000E+00 -0.00000000000E+00 -0.45593999997E+02  0.45594000000E+02  0.51100000000E-03 0.  1.
    9900012    2    1    2    0    0  0.20530947542E+02 -0.16643788037E+01  0.24339868736E+02  0.59301965849E+02  0.50000039797E+02 0.  0.
        -12    1    1    2    0    0 -0.20530947542E+02  0.16643788037E+01 -0.24339868736E+02  0.31886034151E+02  0.00000000000E+00 0.  1.
         11    1    3    3    0    0 -0.12702773371E+02  0.65179795809E+01  0.73860031201E+01  0.16074748878E+02  0.51100000000E-03 0. -1.
        -11    1    3    3    0    0  0.38820125454E+01  0.60147178247E+01  0.31039019529E+01  0.78026315758E+01  0.51100000000E-03 0.  1.
        -12    1    3    3    0    0  0.29351708367E+02 -0.14197076209E+02  0.13849963663E+02  0.35424585396E+02  0.00000000000E+00 0.  1.
</event>
<event>
 7    1  0.3750159E-013  0.5930193E+02  0.7816164E-02  0.1266605E+00
        -11   -1    0    0    0    0  0.00000000000E+00  0.00000000000E+00  0.45593999997E+02  0.45594000000E+02  0.51100000000E-03 0.  1.
         11   -1    0    0    0    0 -0.00000000000E+00 -0.00000000000E+00 -0.45593999997E+02  0.45594000000E+02  0.51100000000E-03 0. -1.
    9900012    2    1    2    0    0  0.17942843042E+01  0.27557498682E+02 -0.15940074686E+02  0.59301934536E+02  0.49999982689E+02 0.  0.
        -12    1    1    2    0    0 -0.17942843042E+01 -0.27557498682E+02  0.15940074686E+02  0.31886065464E+02  0.00000000000E+00 0.  1.
         11    1    3    3    0    0 -0.93603123337E+01  0.33321075611E+02 -0.12672411095E+02  0.36857828614E+02  0.51100000000E-03 0. -1.
        -11    1    3    3    0    0  0.78101181081E+01  0.47329184812E+01  0.31912978372E+01  0.96738226342E+01  0.51100000000E-03 0.  1.
        -12    1    3    3    0    0  0.33444785299E+01 -0.10496495410E+02 -0.64589614279E+01  0.12770283288E+02  0.00000000000E+00 0.  1.
</event>
<event>
 7    1  0.3750159E-013  0.5930195E+02  0.7816164E-02  0.1266605E+00
        -11   -1    0    0    0    0  0.00000000000E+00  0.00000000000E+00  0.45593999997E+02  0.45594000000E+02  0.51100000000E-03 0. -1.
         11   -1    0    0    0    0 -0.00000000000E+00 -0.00000000000E+00 -0.45593999997E+02  0.45594000000E+02  0.51100000000E-03 0.  1.
    9900012    2    1    2    0    0  0.15117558082E+02 -0.44129646209E+01 -0.27725535505E+02  0.59301950728E+02  0.50000012220E+02 0.  0.
        -12    1    1    2    0    0 -0.15117558082E+02  0.44129646209E+01  0.27725535505E+02  0.31886049272E+02  0.00000000000E+00 0.  1.
         11    1    3    3    0    0 -0.44308302853E+01  0.92068516811E+01 -0.32540497121E+02  0.34106924928E+02  0.51100000000E-03 0.  1.
        -11    1    3    3    0    0  0.61628319957E+01 -0.23054729955E+01 -0.11527059202E+01  0.66801523290E+01  0.51100000000E-03 0. -1.
        -12    1    3    3    0    0  0.13385556372E+02 -0.11314343307E+02  0.59676675358E+01  0.18514873472E+02  0.00000000000E+00 0.  1.
</event>
<event>
 7    1  0.3750159E-013  0.5930193E+02  0.7816164E-02  0.1266605E+00
        -11   -1    0    0    0    0  0.00000000000E+00  0.00000000000E+00  0.45593999997E+02  0.45594000000E+02  0.51100000000E-03 0.  1.
         11   -1    0    0    0    0 -0.00000000000E+00 -0.00000000000E+00 -0.45593999997E+02  0.45594000000E+02  0.51100000000E-03 0. -1.
    9900012    2    1    2    0    0  0.30661161086E+01 -0.20815803839E+02 -0.23958768791E+02  0.59301931578E+02  0.49999977294E+02 0.  0.
        -12    1    1    2    0    0 -0.30661161086E+01  0.20815803839E+02  0.23958768791E+02  0.31886068422E+02  0.00000000000E+00 0.  1.
         11    1    3    3    0    0 -0.93765217884E+01 -0.32872435219E+00 -0.10968680375E+02  0.14433958915E+02  0.51100000000E-03 0. -1.
        -11    1    3    3    0    0 -0.32858632570E+01  0.58897219274E+01 -0.12442519916E+02  0.14152809751E+02  0.51100000000E-03 0.  1.
         12    1    3    3    0    0  0.15728501154E+02 -0.26376801414E+02 -0.54756850014E+00  0.30715162911E+02  0.00000000000E+00 0. -1.
</event>
<event>
 7    1  0.3750159E-013  0.5930199E+02  0.7816164E-02  0.1266605E+00
        -11   -1    0    0    0    0  0.00000000000E+00  0.00000000000E+00  0.45593999997E+02  0.45594000000E+02  0.51100000000E-03 0. -1.
         11   -1    0    0    0    0 -0.00000000000E+00 -0.00000000000E+00 -0.45593999997E+02  0.45594000000E+02  0.51100000000E-03 0.  1.
    9900012    2    1    2    0    0 -0.19720905823E+02 -0.21665684234E+02  0.12585759503E+02  0.59301994574E+02  0.50000092183E+02 0.  0.
        -12    1    1    2    0    0  0.19720905823E+02  0.21665684234E+02 -0.12585759503E+02  0.31886005426E+02  0.00000000000E+00 0.  1.
         11    1    3    3    0    0 -0.23887402687E+02 -0.17523234878E+02  0.17643666409E+02  0.34481454905E+02  0.51100000000E-03 0. -1.
        -11    1    3    3    0    0 -0.51208815749E+01 -0.63740351065E+01  0.60495163300E+01  0.10170958644E+02  0.51100000000E-03 0.  1.
        -12    1    3    3    0    0  0.92873784396E+01  0.22315857514E+01 -0.11107423236E+02  0.14649581025E+02  0.00000000000E+00 0.  1.
</event>
<event>
 7    1  0.3750159E-013  0.5930193E+02  0.7816164E-02  0.1266605E+00
        -11   -1    0    0    0    0  0.00000000000E+00  0.00000000000E+00  0.45593999997E+02  0.45594000000E+02  0.51100000000E-03 0.  1.
         11   -1    0    0    0    0 -0.00000000000E+00 -0.00000000000E+00 -0.45593999997E+02  0.45594000000E+02  0.51100000000E-03 0. -1.
    9900012    2    1    2    0    0 -0.16956460434E+02  0.12253462824E+02 -0.24063507623E+02  0.59301932498E+02  0.49999978973E+02 0.  0.
        -12    1    1    2    0    0  0.16956460434E+02 -0.12253462824E+02  0.24063507623E+02  0.31886067502E+02  0.00000000000E+00 0.  1.
         11    1    3    3    0    0  0.79672780919E+01  0.93475546745E+01  0.50301248164E+01  0.13272394453E+02  0.51100000000E-03 0. -1.
        -11    1    3    3    0    0  0.31429320659E+01 -0.77069484976E+00 -0.13148858021E+02  0.13541213389E+02  0.51100000000E-03 0.  1.
         12    1    3    3    0    0 -0.28066670592E+02  0.36766029989E+01 -0.15944774418E+02  0.32488324656E+02  0.00000000000E+00 0. -1.
</event>
<event>
 7    1  0.3750159E-013  0.5930196E+02  0.7816164E-02  0.1266605E+00
        -11   -1    0    0    0    0  0.00000000000E+00  0.00000000000E+00  0.45593999997E+02  0.45594000000E+02  0.51100000000E-03 0. -1.
         11   -1    0    0    0    0 -0.00000000000E+00 -0.00000000000E+00 -0.45593999997E+02  0.45594000000E+02  0.51100000000E-03 0.  1.
    9900012    2    1    2    0    0  0.29093095347E+02 -0.13049428899E+02  0.15487110835E+00  0.59301956399E+02  0.50000022563E+02 0.  0.
        -12    1    1    2    0    0 -0.29093095347E+02  0.13049428899E+02 -0.15487110835E+00  0.31886043601E+02  0.00000000000E+00 0.  1.
         11    1    3    3    0    0  0.52009414515E+01  0.13909170396E+02 -0.51804991351E+00  0.14858774817E+02  0.51100000000E-03 0. -1.
        -11    1    3    3    0    0 -0.10173539172E+01  0.25232403175E+01  0.49118254985E+01  0.56149604346E+01  0.51100000000E-03 0.  1.
        -12    1    3    3    0    0  0.24909507812E+02 -0.29481839612E+02 -0.42389044767E+01  0.38828221148E+02  0.00000000000E+00 0.  1.
</event>
<event>
 7    1  0.3750159E-013  0.5930196E+02  0.7816164E-02  0.1266605E+00
        -11   -1    0    0    0    0  0.00000000000E+00  0.00000000000E+00  0.45593999997E+02  0.45594000000E+02  0.51100000000E-03 0.  1.
         11   -1    0    0    0    0 -0.00000000000E+00 -0.00000000000E+00 -0.45593999997E+02  0.45594000000E+02  0.51100000000E-03 0. -1.
    9900012    2    1    2    0    0  0.18974394237E+02  0.56875229253E+01 -0.24986881143E+02  0.59301956298E+02  0.50000022378E+02 0.  0.
        -12    1    1    2    0    0 -0.18974394237E+02 -0.56875229253E+01  0.24986881143E+02  0.31886043702E+02  0.00000000000E+00 0.  1.
         11    1    3    3    0    0 -0.32731524565E+01  0.13796571084E+02 -0.24309119449E+02  0.28142355789E+02  0.51100000000E-03 0. -1.
        -11    1    3    3    0    0 -0.30949439850E+01 -0.31323411940E+01  0.26191436948E+01  0.51234903709E+01  0.51100000000E-03 0.  1.
         12    1    3    3    0    0  0.25342490678E+02 -0.49767069646E+01 -0.32969053888E+01  0.26036110138E+02  0.00000000000E+00 0. -1.
</event>
<event>
 7    1  0.3750159E-013  0.5930210E+02  0.7816164E-02  0.1266604E+00
        -11   -1    0    0    0    0  0.00000000000E+00  0.00000000000E+00  0.45593999997E+02  0.45594000000E+02  0.51100000000E-03 0.  1.
         11   -1    0    0    0    0 -0.00000000000E+00 -0.00000000000E+00 -0.45593999997E+02  0.45594000000E+02  0.51100000000E-03 0. -1.
    9900012    2    1    2    0    0  0.23771321402E+02  0.19467193710E+02 -0.85242703118E+01  0.59302101291E+02  0.50000286810E+02 0.  0.
        -12    1    1    2    0    0 -0.23771321402E+02 -0.19467193710E+02  0.85242703118E+01  0.31885898709E+02  0.00000000000E+00 0.  1.
         11    1    3    3    0    0  0.18637019975E+01  0.45725034571E+01 -0.90026937894E+01  0.10267895049E+02  0.51100000000E-03 0. -1.
        -11    1    3    3    0    0  0.22558531444E+02  0.25036755927E+02  0.99533133098E+01  0.35139649036E+02  0.51100000000E-03 0.  1.
         12    1    3    3    0    0 -0.65091204003E+00 -0.10142065675E+02 -0.94748898322E+01  0.13894557207E+02  0.00000000000E+00 0. -1.
</event>
<event>
 7    1  0.3750159E-013  0.5930194E+02  0.7816164E-02  0.1266605E+00
        -11   -1    0    0    0    0  0.00000000000E+00  0.00000000000E+00  0.45593999997E+02  0.45594000000E+02  0.51100000000E-03 0.  1.
         11   -1    0    0    0    0 -0.00000000000E+00 -0.00000000000E+00 -0.45593999997E+02  0.45594000000E+02  0.51100000000E-03 0. -1.
    9900012    2    1    2    0    0 -0.39980277203E+01 -0.19658205686E+02 -0.24784902586E+02  0.59301942347E+02  0.49999996935E+02 0.  0.
        -12    1    1    2    0    0  0.39980277203E+01  0.19658205686E+02  0.24784902586E+02  0.31886057653E+02  0.00000000000E+00 0.  1.
         11    1    3    3    0    0 -0.51170010251E+00  0.20430664860E+01 -0.97791232617E+01  0.10003359920E+02  0.51100000000E-03 0. -1.
        -11    1    3    3    0    0 -0.15325685955E+02 -0.26362245403E+02 -0.19041265460E+02  0.35950165830E+02  0.51100000000E-03 0.  1.
        -12    1    3    3    0    0  0.11839358337E+02  0.46609732309E+01  0.40354861357E+01  0.13348416597E+02  0.00000000000E+00 0.  1.
</event>
<event>
 7    1  0.3750159E-013  0.5930193E+02  0.7816164E-02  0.1266605E+00
        -11   -1    0    0    0    0  0.00000000000E+00  0.00000000000E+00  0.45593999997E+02  0.45594000000E+02  0.51100000000E-03 0. -1.
         11   -1    0    0    0    0 -0.00000000000E+00 -0.00000000000E+00 -0.45593999997E+02  0.45594000000E+02  0.51100000000E-03 0.  1.
    9900012    2    1    2    0    0 -0.20804087912E+02 -0.32722594246E+01  0.23941673413E+02  0.59301929665E+02  0.49999973806E+02 0.  0.
        -12    1    1    2    0    0  0.20804087912E+02  0.32722594246E+01 -0.23941673413E+02  0.31886070335E+02  0.00000000000E+00 0.  1.
         11    1    3    3    0    0  0.32671981971E+01 -0.10966491595E+02  0.19467989133E+02  0.22581875987E+02  0.51100000000E-03 0. -1.
        -11    1    3    3    0    0 -0.18820003379E+02 -0.75312639110E+01  0.13629023154E+01  0.20316741035E+02  0.51100000000E-03 0.  1.
        -12    1    3    3    0    0 -0.52512827301E+01  0.15225496082E+02  0.31107819641E+01  0.16403312643E+02  0.00000000000E+00 0.  1.
</event>
<event>
 7    1  0.3750159E-013  0.5930191E+02  0.7816164E-02  0.1266605E+00
        -11   -1    0    0    0    0  0.00000000000E+00  0.00000000000E+00  0.45593999997E+02  0.45594000000E+02  0.51100000000E-03 0.  1.
         11   -1    0    0    0    0 -0.00000000000E+00 -0.00000000000E+00 -0.45593999997E+02  0.45594000000E+02  0.51100000000E-03 0. -1.
    9900012    2    1    2    0    0 -0.27000544521E+02 -0.15873334064E+01 -0.16887094939E+02  0.59301905738E+02  0.49999930169E+02 0.  0.
        -12    1    1    2    0    0  0.27000544521E+02  0.15873334064E+01  0.16887094939E+02  0.31886094262E+02  0.00000000000E+00 0.  1.
         11    1    3    3    0    0 -0.96801828350E+00  0.54377891367E+01 -0.48237148523E+00  0.55443027157E+01  0.51100000000E-03 0. -1.
        -11    1    3    3    0    0  0.71190467706E+01  0.94247697229E+01  0.26895650460E+01  0.12113664666E+02  0.51100000000E-03 0.  1.
         12    1    3    3    0    0 -0.33151573008E+02 -0.16449892266E+02 -0.19094288500E+02  0.41643938356E+02  0.00000000000E+00 0. -1.
</event>
<event>
 7    1  0.3750159E-013  0.5930191E+02  0.7816164E-02  0.1266605E+00
        -11   -1    0    0    0    0  0.00000000000E+00  0.00000000000E+00  0.45593999997E+02  0.45594000000E+02  0.51100000000E-03 0.  1.
         11   -1    0    0    0    0 -0.00000000000E+00 -0.00000000000E+00 -0.45593999997E+02  0.45594000000E+02  0.51100000000E-03 0. -1.
    9900012    2    1    2    0    0 -0.93800053551E+01 -0.15315554392E+02 -0.26347140589E+02  0.59301913316E+02  0.49999943990E+02 0.  0.
        -12    1    1    2    0    0  0.93800053551E+01  0.15315554392E+02  0.26347140589E+02  0.31886086684E+02  0.00000000000E+00 0.  1.
         11    1    3    3    0    0  0.13966642337E+02  0.85117702484E+00 -0.55624429059E+01  0.15057635002E+02  0.51100000000E-03 0. -1.
        -11    1    3    3    0    0 -0.11821682387E+02  0.43106593979E+01 -0.15843715757E+02  0.20232579869E+02  0.51100000000E-03 0.  1.
        -12    1    3    3    0    0 -0.11524965305E+02 -0.20477390814E+02 -0.49409819263E+01  0.24011698446E+02  0.00000000000E+00 0.  1.
</event>
<event>
 7    1  0.3750159E-013  0.5930189E+02  0.7816164E-02  0.1266605E+00
        -11   -1    0    0    0    0  0.00000000000E+00  0.00000000000E+00  0.45593999997E+02  0.45594000000E+02  0.51100000000E-03 0. -1.
         11   -1    0    0    0    0 -0.00000000000E+00 -0.00000000000E+00 -0.45593999997E+02  0.45594000000E+02  0.51100000000E-03 0.  1.
    9900012    2    1    2    0    0 -0.22079241522E+02  0.13166029363E+02  0.18864968219E+02  0.59301886074E+02  0.49999894306E+02 0.  0.
        -12    1    1    2    0    0  0.22079241522E+02 -0.13166029363E+02 -0.18864968219E+02  0.31886113926E+02  0.00000000000E+00 0.  1.
         11    1    3    3    0    0  0.72942252189E+00 -0.29842659651E+00 -0.57841337338E+01  0.58375781759E+01  0.51100000000E-03 0. -1.
        -11    1    3    3    0    0  0.87166962329E-01  0.54813156293E+01 -0.98639394701E+01  0.11284933373E+02  0.51100000000E-03 0.  1.
         12    1    3    3    0    0 -0.22895831007E+02  0.79831403302E+01  0.34513041423E+02  0.42179374525E+02  0.00000000000E+00 0. -1.
</event>
<event>
 7    1  0.3750159E-013  0.5930194E+02  0.7816164E-02  0.1266605E+00
        -11   -1    0    0    0    0  0.00000000000E+00  0.00000000000E+00  0.45593999997E+02  0.45594000000E+02  0.51100000000E-03 0.  1.
         11   -1    0    0    0    0 -0.00000000000E+00 -0.00000000000E+00 -0.45593999997E+02  0.45594000000E+02  0.51100000000E-03 0. -1.
    9900012    2    1    2    0    0 -0.10506936725E+02  0.29184180898E+02 -0.73897720196E+01  0.59301939339E+02  0.49999991448E+02 0.  0.
        -12    1    1    2    0    0  0.10506936725E+02 -0.29184180898E+02  0.73897720196E+01  0.31886060661E+02  0.00000000000E+00 0.  1.
         11    1    3    3    0    0  0.11993782016E+02  0.67337418581E+01  0.92679675018E+01  0.16585816481E+02  0.51100000000E-03 0. -1.
        -11    1    3    3    0    0 -0.87649481343E+01  0.22145137213E+02 -0.42284625406E+01  0.24189074263E+02  0.51100000000E-03 0.  1.
        -12    1    3    3    0    0 -0.13735770607E+02  0.30530182648E+00 -0.12429276981E+02  0.18527048595E+02  0.00000000000E+00 0.  1.
</event>
<event>
 7    1  0.3750159E-013  0.5930194E+02  0.7816164E-02  0.1266605E+00
        -11   -1    0    0    0    0  0.00000000000E+00  0.00000000000E+00  0.45593999997E+02  0.45594000000E+02  0.51100000000E-03 0.  1.
         11   -1    0    0    0    0 -0.00000000000E+00 -0.00000000000E+00 -0.45593999997E+02  0.45594000000E+02  0.51100000000E-03 0. -1.
    9900012    2    1    2    0    0  0.16626417735E+02  0.16300195772E+02 -0.21785009775E+02  0.59301940353E+02  0.49999993298E+02 0.  0.
        -12    1    1    2    0    0 -0.16626417735E+02 -0.16300195772E+02  0.21785009775E+02  0.31886059647E+02  0.00000000000E+00 0.  1.
         11    1    3    3    0    0  0.52800841459E+01 -0.44523953600E+01 -0.27843544092E+02  0.28687385048E+02  0.51100000000E-03 0. -1.
        -11    1    3    3    0    0  0.13157972059E+02  0.55416743741E+01  0.54559140321E+01  0.15284285452E+02  0.51100000000E-03 0.  1.
        -12    1    3    3    0    0 -0.18116384699E+01  0.15210916758E+02  0.60262028528E+00  0.15330269854E+02  0.00000000000E+00 0.  1.
</event>
<event>
 7    1  0.3750159E-013  0.5930194E+02  0.7816164E-02  0.1266605E+00
        -11   -1    0    0    0    0  0.00000000000E+00  0.00000000000E+00  0.45593999997E+02  0.45594000000E+02  0.51100000000E-03 0.  1.
         11   -1    0    0    0    0 -0.00000000000E+00 -0.00000000000E+00 -0.45593999997E+02  0.45594000000E+02  0.51100000000E-03 0. -1.
    9900012    2    1    2    0    0 -0.16892821291E+02  0.53322808135E+01 -0.26512639689E+02  0.59301942026E+02  0.49999996349E+02 0.  0.
        -12    1    1    2    0    0  0.16892821291E+02 -0.53322808135E+01  0.26512639689E+02  0.31886057974E+02  0.00000000000E+00 0.  1.
         11    1    3    3    0    0 -0.12663139680E+02  0.64786620377E+01 -0.77915549994E+01  0.16218399980E+02  0.51100000000E-03 0. -1.
        -11    1    3    3    0    0 -0.41668633536E+01 -0.86047464948E+01  0.97478604710E+01  0.13653761257E+02  0.51100000000E-03 0.  1.
         12    1    3    3    0    0 -0.62818257414E-01  0.74583652706E+01 -0.28468945161E+02  0.29429780788E+02  0.00000000000E+00 0. -1.
</event>
<event>
 7    1  0.3750159E-013  0.5930195E+02  0.7816164E-02  0.1266605E+00
        -11   -1    0    0    0    0  0.00000000000E+00  0.00000000000E+00  0.45593999997E+02  0.45594000000E+02  0.51100000000E-03 0.  1.
         11   -1    0    0    0    0 -0.00000000000E+00 -0.00000000000E+00 -0.45593999997E+02  0.45594000000E+02  0.51100000000E-03 0. -1.
    9900012    2    1    2    0    0  0.16654040408E+02 -0.17247796216E+02 -0.21020868854E+02  0.59301945625E+02  0.50000002912E+02 0.  0.
        -12    1    1    2    0    0 -0.16654040408E+02  0.17247796216E+02  0.21020868854E+02  0.31886054375E+02  0.00000000000E+00 0.  1.
         11    1    3    3    0    0  0.18237743215E+02 -0.12240635423E+02 -0.15716450442E+02  0.27008429201E+02  0.51100000000E-03 0. -1.
        -11    1    3    3    0    0  0.69464907958E+01  0.11400096833E+02 -0.17704605460E+01  0.13466642974E+02  0.51100000000E-03 0.  1.
         12    1    3    3    0    0 -0.85301936027E+01 -0.16407257626E+02 -0.35339578664E+01  0.18826873450E+02  0.00000000000E+00 0. -1.
</event>
<event>
 7    1  0.3750159E-013  0.5930195E+02  0.7816164E-02  0.1266605E+00
        -11   -1    0    0    0    0  0.00000000000E+00  0.00000000000E+00  0.45593999997E+02  0.45594000000E+02  0.51100000000E-03 0.  1.
         11   -1    0    0    0    0 -0.00000000000E+00 -0.00000000000E+00 -0.45593999997E+02  0.45594000000E+02  0.51100000000E-03 0. -1.
    9900012    2    1    2    0    0  0.13117668599E+02  0.13543120217E+02  0.25714413234E+02  0.59301946894E+02  0.50000005228E+02 0.  0.
        -12    1    1    2    0    0 -0.13117668599E+02 -0.13543120217E+02 -0.25714413234E+02  0.31886053106E+02  0.00000000000E+00 0.  1.
         11    1    3    3    0    0 -0.96505790197E+01  0.19890907494E+02  0.39510842362E+01  0.22458694157E+02  0.51100000000E-03 0. -1.
        -11    1    3    3    0    0 -0.99164010467E+00 -0.52364554250E+01  0.13475177203E+01  0.54972374683E+01  0.51100000000E-03 0.  1.
        -12    1    3    3    0    0  0.23759887724E+02 -0.11113318520E+01  0.20415811277E+02  0.31346015269E+02  0.00000000000E+00 0.  1.
</event>
<event>
 7    1  0.3750159E-013  0.5930193E+02  0.7816164E-02  0.1266605E+00
        -11   -1    0    0    0    0  0.00000000000E+00  0.00000000000E+00  0.45593999997E+02  0.45594000000E+02  0.51100000000E-03 0.  1.
         11   -1    0    0    0    0 -0.00000000000E+00 -0.00000000000E+00 -0.45593999997E+02  0.45594000000E+02  0.51100000000E-03 0. -1.
    9900012    2    1    2    0    0 -0.10767518882E+02  0.19274411003E+01 -0.29951072011E+02  0.59301933973E+02  0.49999981663E+02 0.  0.
        -12    1    1    2    0    0  0.10767518882E+02 -0.19274411003E+01  0.29951072011E+02  0.31886066027E+02  0.00000000000E+00 0.  1.
         11    1    3    3    0    0  0.33981687815E+01 -0.12636322674E+02  0.34586200426E+01  0.13534631678E+02  0.51100000000E-03 0. -1.
        -11    1    3    3    0    0  0.67441913085E+01  0.41710447052E+01 -0.84804115576E+01  0.11610301925E+02  0.51100000000E-03 0.  1.
         12    1    3    3    0    0 -0.20909878972E+02  0.10392719069E+02 -0.24929280496E+02  0.34157000371E+02  0.00000000000E+00 0. -1.
</event>
<event>
 7    1  0.3750159E-013  0.5930194E+02  0.7816164E-02  0.1266605E+00
        -11   -1    0    0    0    0  0.00000000000E+00  0.00000000000E+00  0.45593999997E+02  0.45594000000E+02  0.51100000000E-03 0.  1.
         11   -1    0    0    0    0 -0.00000000000E+00 -0.00000000000E+00 -0.45593999997E+02  0.45594000000E+02  0.51100000000E-03 0. -1.
    9900012    2    1    2    0    0  0.15060080764E+02 -0.14032223741E+02 -0.24351829486E+02  0.59301938233E+02  0.49999989431E+02 0.  0.
        -12    1    1    2    0    0 -0.15060080764E+02  0.14032223741E+02  0.24351829486E+02  0.31886061767E+02  0.00000000000E+00 0.  1.
         11    1    3    3    0    0  0.79835812939E+01 -0.72057546487E+01 -0.20917618308E+02  0.23520357699E+02  0.51100000000E-03 0. -1.
        -11    1    3    3    0    0 -0.54770416447E+01  0.53126130212E+01 -0.13586220948E+02  0.15582273332E+02  0.51100000000E-03 0.  1.
         12    1    3    3    0    0  0.12553541115E+02 -0.12139082113E+02  0.10152009770E+02  0.20199307202E+02  0.00000000000E+00 0. -1.
</event>
<event>
 7    1  0.3750159E-013  0.5930194E+02  0.7816164E-02  0.1266605E+00
        -11   -1    0    0    0    0  0.00000000000E+00  0.00000000000E+00  0.45593999997E+02  0.45594000000E+02  0.51100000000E-03 0.  1.
         11   -1    0    0    0    0 -0.00000000000E+00 -0.00000000000E+00 -0.45593999997E+02  0.45594000000E+02  0.51100000000E-03 0. -1.
    9900012    2    1    2    0    0  0.10006674911E+02 -0.11696466167E+01 -0.30252593912E+02  0.59301936361E+02  0.49999986017E+02 0.  0.
        -12    1    1    2    0    0 -0.10006674911E+02  0.11696466167E+01  0.30252593912E+02  0.31886063639E+02  0.00000000000E+00 0.  1.
         11    1    3    3    0    0  0.11665252854E+02 -0.10910152676E+02 -0.19505386222E+02  0.25210506688E+02  0.51100000000E-03 0. -1.
        -11    1    3    3    0    0 -0.16144746038E+01  0.20102511365E+02 -0.15335191375E+01  0.20225458527E+02  0.51100000000E-03 0.  1.
         12    1    3    3    0    0 -0.44103339370E-01 -0.10362005305E+02 -0.92136885532E+01  0.13865971146E+02  0.00000000000E+00 0. -1.
</event>
<event>
 7    1  0.3750159E-013  0.5930196E+02  0.7816164E-02  0.1266605E+00
        -11   -1    0    0    0    0  0.00000000000E+00  0.00000000000E+00  0.45593999997E+02  0.45594000000E+02  0.51100000000E-03 0.  1.
         11   -1    0    0    0    0 -0.00000000000E+00 -0.00000000000E+00 -0.45593999997E+02  0.45594000000E+02  0.51100000000E-03 0. -1.
    9900012    2    1    2    0    0 -0.32635440313E+01 -0.62871475718E+01 -0.31089238110E+02  0.59301958061E+02  0.50000025594E+02 0.  0.
        -12    1    1    2    0    0  0.32635440313E+01  0.62871475718E+01  0.31089238110E+02  0.31886041939E+02  0.00000000000E+00 0.  1.
         11    1    3    3    0    0 -0.10659047391E+02 -0.13100018061E+02 -0.11358648448E+02  0.20353001236E+02  0.51100000000E-03 0. -1.
        -11    1    3    3    0    0  0.35237566367E+01 -0.32769540831E+00  0.86939321914E+01  0.93866235850E+01  0.51100000000E-03 0.  1.
        -12    1    3    3    0    0  0.38717467229E+01  0.71405658976E+01 -0.28424521853E+02  0.29562333241E+02  0.00000000000E+00 0.  1.
</event>
<event>
 7    1  0.3750159E-013  0.5930194E+02  0.7816164E-02  0.1266605E+00
        -11   -1    0    0    0    0  0.00000000000E+00  0.00000000000E+00  0.45593999997E+02  0.45594000000E+02  0.51100000000E-03 0.  1.
         11   -1    0    0    0    0 -0.00000000000E+00 -0.00000000000E+00 -0.45593999997E+02  0.45594000000E+02  0.51100000000E-03 0. -1.
    9900012    2    1    2    0    0  0.24600020730E+02  0.71737652564E+00 -0.20274248544E+02  0.59301940303E+02  0.49999993206E+02 0.  0.
        -12    1    1    2    0    0 -0.24600020730E+02 -0.71737652564E+00  0.20274248544E+02  0.31886059697E+02  0.00000000000E+00 0.  1.
         11    1    3    3    0    0  0.70944049145E+01 -0.42024650838E+00 -0.74350761845E+00  0.71456274783E+01  0.51100000000E-03 0.  1.
        -11    1    3    3    0    0  0.17301182669E+02 -0.18215533478E+02 -0.21004031322E+02  0.32746082417E+02  0.51100000000E-03 0. -1.
        -12    1    3    3    0    0  0.20443314638E+00  0.19353156512E+02  0.14732903965E+01  0.19410230407E+02  0.00000000000E+00 0.  1.
</event>
<event>
 7    1  0.3750159E-013  0.5930196E+02  0.7816164E-02  0.1266605E+00
        -11   -1    0    0    0    0  0.00000000000E+00  0.00000000000E+00  0.45593999997E+02  0.45594000000E+02  0.51100000000E-03 0.  1.
         11   -1    0    0    0    0 -0.00000000000E+00 -0.00000000000E+00 -0.45593999997E+02  0.45594000000E+02  0.51100000000E-03 0. -1.
    9900012    2    1    2    0    0 -0.40303281486E+01  0.84137552064E+01 -0.30490730914E+02  0.59301960839E+02  0.50000030661E+02 0.  0.
        -12    1    1    2    0    0  0.40303281486E+01 -0.84137552064E+01  0.30490730914E+02  0.31886039161E+02  0.00000000000E+00 0.  1.
         11    1    3    3    0    0  0.57583446769E+01 -0.30028738568E+01 -0.13031672228E+02  0.14560228918E+02  0.51100000000E-03 0. -1.
        -11    1    3    3    0    0 -0.21000604439E+01 -0.14227597221E+02 -0.51556574814E+01  0.15277944262E+02  0.51100000000E-03 0.  1.
         12    1    3    3    0    0 -0.76886123816E+01  0.25644226284E+02 -0.12303401205E+02  0.29463787660E+02  0.00000000000E+00 0. -1.
</event>
<event>
 7    1  0.3750159E-013  0.5930195E+02  0.7816164E-02  0.1266605E+00
        -11   -1    0    0    0    0  0.00000000000E+00  0.00000000000E+00  0.45593999997E+02  0.45594000000E+02  0.51100000000E-03 0.  1.
         11   -1    0    0    0    0 -0.00000000000E+00 -0.00000000000E+00 -0.45593999997E+02  0.45594000000E+02  0.51100000000E-03 0. -1.
    9900012    2    1    2    0    0 -0.26592928359E+02 -0.17591926337E+02 -0.24643176180E+00  0.59301946002E+02  0.50000003600E+02 0.  0.
        -12    1    1    2    0    0  0.26592928359E+02  0.17591926337E+02  0.24643176180E+00  0.31886053998E+02  0.00000000000E+00 0.  1.
         11    1    3    3    0    0 -0.25174516322E+02 -0.10896240253E+02  0.14044485025E+02  0.30817720285E+02  0.51100000000E-03 0.  1.
        -11    1    3    3    0    0 -0.52955652891E+01 -0.14628701318E+02 -0.71207367267E+01  0.17109845288E+02  0.51100000000E-03 0. -1.
        -12    1    3    3    0    0  0.38771532524E+01  0.79330152334E+01 -0.71701800602E+01  0.11374380428E+02  0.00000000000E+00 0.  1.
</event>
<event>
 7    1  0.3750159E-013  0.5930193E+02  0.7816164E-02  0.1266605E+00
        -11   -1    0    0    0    0  0.00000000000E+00  0.00000000000E+00  0.45593999997E+02  0.45594000000E+02  0.51100000000E-03 0.  1.
         11   -1    0    0    0    0 -0.00000000000E+00 -0.00000000000E+00 -0.45593999997E+02  0.45594000000E+02  0.51100000000E-03 0. -1.
    9900012    2    1    2    0    0  0.28162592596E+02  0.11717499727E+02 -0.92892401261E+01  0.59301930884E+02  0.49999976029E+02 0.  0.
        -12    1    1    2    0    0 -0.28162592596E+02 -0.11717499727E+02  0.92892401261E+01  0.31886069116E+02  0.00000000000E+00 0.  1.
         11    1    3    3    0    0 -0.93964994844E+00  0.62437966908E+01 -0.21112742143E+00  0.63176351739E+01  0.51100000000E-03 0. -1.
        -11    1    3    3    0    0  0.92976111510E+01  0.18465634242E+02  0.96245649943E+01  0.22804768639E+02  0.51100000000E-03 0.  1.
         12    1    3    3    0    0  0.19804631393E+02 -0.12991931207E+02 -0.18702677699E+02  0.30179527071E+02  0.00000000000E+00 0. -1.
</event>
<event>
 7    1  0.3750159E-013  0.5930195E+02  0.7816164E-02  0.1266605E+00
        -11   -1    0    0    0    0  0.00000000000E+00  0.00000000000E+00  0.45593999997E+02  0.45594000000E+02  0.51100000000E-03 0. -1.
         11   -1    0    0    0    0 -0.00000000000E+00 -0.00000000000E+00 -0.45593999997E+02  0.45594000000E+02  0.51100000000E-03 0.  1.
    9900012    2    1    2    0    0 -0.15888386756E+02 -0.20345194948E+02  0.18717707682E+02  0.59301947060E+02  0.50000005531E+02 0.  0.
        -12    1    1    2    0    0  0.15888386756E+02  0.20345194948E+02 -0.18717707682E+02  0.31886052940E+02  0.00000000000E+00 0.  1.
         11    1    3    3    0    0 -0.53348406805E+01 -0.66841778431E+01  0.11953294457E+02  0.14697619098E+02  0.51100000000E-03 0. -1.
        -11    1    3    3    0    0 -0.14868804787E+02 -0.18925991553E+02  0.18958874198E+02  0.30638430494E+02  0.51100000000E-03 0.  1.
        -12    1    3    3    0    0  0.43152587108E+01  0.52649744480E+01 -0.12194460972E+02  0.13965897468E+02  0.00000000000E+00 0.  1.
</event>
<event>
 7    1  0.3750159E-013  0.5930196E+02  0.7816164E-02  0.1266605E+00
        -11   -1    0    0    0    0  0.00000000000E+00  0.00000000000E+00  0.45593999997E+02  0.45594000000E+02  0.51100000000E-03 0.  1.
         11   -1    0    0    0    0 -0.00000000000E+00 -0.00000000000E+00 -0.45593999997E+02  0.45594000000E+02  0.51100000000E-03 0. -1.
    9900012    2    1    2    0    0 -0.21918534081E+02  0.68196099629E+01 -0.22131208195E+02  0.59301959285E+02  0.50000027826E+02 0.  0.
        -12    1    1    2    0    0  0.21918534081E+02 -0.68196099629E+01  0.22131208195E+02  0.31886040715E+02  0.00000000000E+00 0.  1.
         11    1    3    3    0    0  0.49026892741E+01 -0.34604059875E+01 -0.23048830958E+01  0.64283168919E+01  0.51100000000E-03 0.  1.
        -11    1    3    3    0    0  0.99213968024E+00 -0.12713147058E+02 -0.71844101507E+01  0.14636399788E+02  0.51100000000E-03 0. -1.
         12    1    3    3    0    0 -0.27813363036E+02  0.22993163009E+02 -0.12641914948E+02  0.38237242605E+02  0.00000000000E+00 0. -1.
</event>
<event>
 7    1  0.3750159E-013  0.5930195E+02  0.7816164E-02  0.1266605E+00
        -11   -1    0    0    0    0  0.00000000000E+00  0.00000000000E+00  0.45593999997E+02  0.45594000000E+02  0.51100000000E-03 0.  1.
         11   -1    0    0    0    0 -0.00000000000E+00 -0.00000000000E+00 -0.45593999997E+02  0.45594000000E+02  0.51100000000E-03 0. -1.
    9900012    2    1    2    0    0  0.95164881407E+01 -0.10509445140E+02 -0.28560606138E+02  0.59301949654E+02  0.50000010261E+02 0.  0.
        -12    1    1    2    0    0 -0.95164881407E+01  0.10509445140E+02  0.28560606138E+02  0.31886050346E+02  0.00000000000E+00 0.  1.
         11    1    3    3    0    0 -0.11249472705E+02  0.29180540453E+00 -0.60751454247E+01  0.12788400163E+02  0.51100000000E-03 0. -1.
        -11    1    3    3    0    0  0.10321226439E+02 -0.47179348763E+01 -0.30140564828E+02  0.32206214821E+02  0.51100000000E-03 0.  1.
        -12    1    3    3    0    0  0.10444734407E+02 -0.60833156681E+01  0.76551041141E+01  0.14307334670E+02  0.00000000000E+00 0.  1.
</event>
<event>
 7    1  0.3750159E-013  0.5930194E+02  0.7816164E-02  0.1266605E+00
        -11   -1    0    0    0    0  0.00000000000E+00  0.00000000000E+00  0.45593999997E+02  0.45594000000E+02  0.51100000000E-03 0. -1.
         11   -1    0    0    0    0 -0.00000000000E+00 -0.00000000000E+00 -0.45593999997E+02  0.45594000000E+02  0.51100000000E-03 0.  1.
    9900012    2    1    2    0    0  0.23459060544E+02 -0.11180931797E+00  0.21595849989E+02  0.59301940982E+02  0.49999994445E+02 0.  0.
        -12    1    1    2    0    0 -0.23459060544E+02  0.11180931797E+00 -0.21595849989E+02  0.31886059018E+02  0.00000000000E+00 0.  1.
         11    1    3    3    0    0  0.13689668512E+02 -0.22529065903E+01  0.71678348553E+01  0.15616032430E+02  0.51100000000E-03 0. -1.
        -11    1    3    3    0    0  0.12413251605E+02 -0.12016965188E+02  0.21548220186E+02  0.27619233537E+02  0.51100000000E-03 0.  1.
         12    1    3    3    0    0 -0.26438595724E+01  0.14158062460E+02 -0.71202050518E+01  0.16066675015E+02  0.00000000000E+00 0. -1.
</event>
<event>
 7    1  0.3750159E-013  0.5930196E+02  0.7816164E-02  0.1266605E+00
        -11   -1    0    0    0    0  0.00000000000E+00  0.00000000000E+00  0.45593999997E+02  0.45594000000E+02  0.51100000000E-03 0.  1.
         11   -1    0    0    0    0 -0.00000000000E+00 -0.00000000000E+00 -0.45593999997E+02  0.45594000000E+02  0.51100000000E-03 0. -1.
    9900012    2    1    2    0    0  0.24437893222E+02 -0.18750769073E+02 -0.82412120235E+01  0.59301960083E+02  0.50000029281E+02 0.  0.
        -12    1    1    2    0    0 -0.24437893222E+02  0.18750769073E+02  0.82412120235E+01  0.31886039917E+02  0.00000000000E+00 0.  1.
         11    1    3    3    0    0 -0.15479275085E+00  0.75893987067E+01  0.40832244623E+01  0.86194927806E+01  0.51100000000E-03 0. -1.
        -11    1    3    3    0    0  0.16313980580E+01 -0.69559600981E+00  0.96715991157E+01  0.98328603747E+01  0.51100000000E-03 0.  1.
         12    1    3    3    0    0  0.22961287915E+02 -0.25644571770E+02 -0.21996035602E+02  0.40849606928E+02  0.00000000000E+00 0. -1.
</event>
<event>
 7    1  0.3750159E-013  0.5930195E+02  0.7816164E-02  0.1266605E+00
        -11   -1    0    0    0    0  0.00000000000E+00  0.00000000000E+00  0.45593999997E+02  0.45594000000E+02  0.51100000000E-03 0.  1.
         11   -1    0    0    0    0 -0.00000000000E+00 -0.00000000000E+00 -0.45593999997E+02  0.45594000000E+02  0.51100000000E-03 0. -1.
    9900012    2    1    2    0    0 -0.15177376470E+02  0.65139917946E+01 -0.27275177925E+02  0.59301950128E+02  0.50000011125E+02 0.  0.
        -12    1    1    2    0    0  0.15177376470E+02 -0.65139917946E+01  0.27275177925E+02  0.31886049872E+02  0.00000000000E+00 0.  1.
         11    1    3    3    0    0 -0.13838287662E+02  0.17024039771E+01 -0.15502156676E+02  0.20849778095E+02  0.51100000000E-03 0. -1.
        -11    1    3    3    0    0 -0.12613515489E+02 -0.36331928659E+01  0.70830356747E+01  0.14915436904E+02  0.51100000000E-03 0.  1.
        -12    1    3    3    0    0  0.11274426682E+02  0.84447806834E+01 -0.18856056924E+02  0.23536735129E+02  0.00000000000E+00 0.  1.
</event>
<event>
 7    1  0.3750159E-013  0.5930191E+02  0.7816164E-02  0.1266605E+00
        -11   -1    0    0    0    0  0.00000000000E+00  0.00000000000E+00  0.45593999997E+02  0.45594000000E+02  0.51100000000E-03 0. -1.
         11   -1    0    0    0    0 -0.00000000000E+00 -0.00000000000E+00 -0.45593999997E+02  0.45594000000E+02  0.51100000000E-03 0.  1.
    9900012    2    1    2    0    0 -0.29240625572E+02 -0.82226809371E+01  0.97003082725E+01  0.59301911400E+02  0.49999940495E+02 0.  0.
        -12    1    1    2    0    0  0.29240625572E+02  0.82226809371E+01 -0.97003082725E+01  0.31886088600E+02  0.00000000000E+00 0.  1.
         11    1    3    3    0    0 -0.56304637820E+01  0.12396635500E+02  0.95282921287E+01  0.16618274437E+02  0.51100000000E-03 0. -1.
        -11    1    3    3    0    0  0.63934207899E+01 -0.74911945349E+01 -0.10943690979E+01  0.99091608595E+01  0.51100000000E-03 0.  1.
         12    1    3    3    0    0 -0.30003582579E+02 -0.13128121902E+02  0.12663852417E+01  0.32774476104E+02  0.00000000000E+00 0. -1.
</event>
<event>
 7    1  0.3750159E-013  0.5930214E+02  0.7816164E-02  0.1266604E+00
        -11   -1    0    0    0    0  0.00000000000E+00  0.00000000000E+00  0.45593999997E+02  0.45594000000E+02  0.51100000000E-03 0.  1.
         11   -1    0    0    0    0 -0.00000000000E+00 -0.00000000000E+00 -0.45593999997E+02  0.45594000000E+02  0.51100000000E-03 0. -1.
    9900012    2    1    2    0    0  0.30987060589E+01  0.20773975267E+02 -0.23990584488E+02  0.59302138373E+02  0.50000354438E+02 0.  0.
        -12    1    1    2    0    0 -0.30987060589E+01 -0.20773975267E+02  0.23990584488E+02  0.31885861627E+02  0.00000000000E+00 0.  1.
         11    1    3    3    0    0 -0.21863094713E+01  0.22357483406E+00  0.11561755034E+02  0.11768777105E+02  0.51100000000E-03 0. -1.
        -11    1    3    3    0    0 -0.67319390143E+01 -0.89319923557E+00 -0.98954282342E+01  0.12001512737E+02  0.51100000000E-03 0.  1.
         12    1    3    3    0    0  0.12016954544E+02  0.21443599669E+02 -0.25656911288E+02  0.35531848532E+02  0.00000000000E+00 0. -1.
</event>
<event>
 7    1  0.3750159E-013  0.5930195E+02  0.7816164E-02  0.1266605E+00
        -11   -1    0    0    0    0  0.00000000000E+00  0.00000000000E+00  0.45593999997E+02  0.45594000000E+02  0.51100000000E-03 0.  1.
         11   -1    0    0    0    0 -0.00000000000E+00 -0.00000000000E+00 -0.45593999997E+02  0.45594000000E+02  0.51100000000E-03 0. -1.
    9900012    2    1    2    0    0  0.36037979712E+01 -0.10696964917E+02 -0.29821267594E+02  0.59301946321E+02  0.50000004183E+02 0.  0.
        -12    1    1    2    0    0 -0.36037979712E+01  0.10696964917E+02  0.29821267594E+02  0.31886053679E+02  0.00000000000E+00 0.  1.
         11    1    3    3    0    0 -0.87812132567E+01 -0.54172549523E+01  0.55600548116E+01  0.11720519069E+02  0.51100000000E-03 0. -1.
        -11    1    3    3    0    0 -0.93716676451E+01 -0.30901203309E+01 -0.94757180944E+01  0.13680871017E+02  0.51100000000E-03 0.  1.
         12    1    3    3    0    0  0.21756678873E+02 -0.21895896336E+01 -0.25905604312E+02  0.33900556236E+02  0.00000000000E+00 0. -1.
</event>
<event>
 7    1  0.3750159E-013  0.5930194E+02  0.7816164E-02  0.1266605E+00
        -11   -1    0    0    0    0  0.00000000000E+00  0.00000000000E+00  0.45593999997E+02  0.45594000000E+02  0.51100000000E-03 0.  1.
         11   -1    0    0    0    0 -0.00000000000E+00 -0.00000000000E+00 -0.45593999997E+02  0.45594000000E+02  0.51100000000E-03 0. -1.
    9900012    2    1    2    0    0 -0.26796820322E+02 -0.17236348069E+02 -0.12486962681E+01  0.59301944796E+02  0.50000001401E+02 0.  0.
        -12    1    1    2    0    0  0.26796820322E+02  0.17236348069E+02  0.12486962681E+01  0.31886055204E+02  0.00000000000E+00 0.  1.
         11    1    3    3    0    0 -0.21684666816E+02  0.92644924678E+01 -0.26941884382E+01  0.23734242082E+02  0.51100000000E-03 0. -1.
        -11    1    3    3    0    0 -0.44010397196E+01 -0.52261479567E+01 -0.94448702463E+01  0.11657072845E+02  0.51100000000E-03 0.  1.
        -12    1    3    3    0    0 -0.71111378587E+00 -0.21274692580E+02  0.10890362416E+02  0.23910629869E+02  0.00000000000E+00 0.  1.
</event>
<event>
 7    1  0.3750159E-013  0.5930195E+02  0.7816164E-02  0.1266605E+00
        -11   -1    0    0    0    0  0.00000000000E+00  0.00000000000E+00  0.45593999997E+02  0.45594000000E+02  0.51100000000E-03 0.  1.
         11   -1    0    0    0    0 -0.00000000000E+00 -0.00000000000E+00 -0.45593999997E+02  0.45594000000E+02  0.51100000000E-03 0. -1.
    9900012    2    1    2    0    0  0.10765428835E+02 -0.24672446109E+02 -0.17090826373E+02  0.59301946605E+02  0.50000004700E+02 0.  0.
        -12    1    1    2    0    0 -0.10765428835E+02  0.24672446109E+02  0.17090826373E+02  0.31886053395E+02  0.00000000000E+00 0.  1.
         11    1    3    3    0    0  0.72967820879E+01  0.53150485442E+01 -0.11019058414E+02  0.14244733007E+02  0.51100000000E-03 0. -1.
        -11    1    3    3    0    0  0.11133381858E+02 -0.34175853386E+01 -0.12057428372E+02  0.16763462063E+02  0.51100000000E-03 0.  1.
        -12    1    3    3    0    0 -0.76647351104E+01 -0.26569909314E+02  0.59856604125E+01  0.28293751534E+02  0.00000000000E+00 0.  1.
</event>
<event>
 7    1  0.3750159E-013  0.5930194E+02  0.7816164E-02  0.1266605E+00
        -11   -1    0    0    0    0  0.00000000000E+00  0.00000000000E+00  0.45593999997E+02  0.45594000000E+02  0.51100000000E-03 0.  1.
         11   -1    0    0    0    0 -0.00000000000E+00 -0.00000000000E+00 -0.45593999997E+02  0.45594000000E+02  0.51100000000E-03 0. -1.
    9900012    2    1    2    0    0 -0.20368412158E+02  0.17142417386E+02 -0.17549540133E+02  0.59301936484E+02  0.49999986242E+02 0.  0.
        -12    1    1    2    0    0  0.20368412158E+02 -0.17142417386E+02  0.17549540133E+02  0.31886063516E+02  0.00000000000E+00 0.  1.
         11    1    3    3    0    0 -0.14127620986E+02 -0.10092464382E+01  0.43623600304E+01  0.14820203723E+02  0.51100000000E-03 0. -1.
        -11    1    3    3    0    0 -0.45776181504E+01 -0.35070721651E+01 -0.22016292437E+02  0.22758982315E+02  0.51100000000E-03 0.  1.
        -12    1    3    3    0    0 -0.16631730209E+01  0.21658735990E+02  0.10439227294E+00  0.21722750445E+02  0.00000000000E+00 0.  1.
</event>
<event>
 7    1  0.3750159E-013  0.5930195E+02  0.7816164E-02  0.1266605E+00
        -11   -1    0    0    0    0  0.00000000000E+00  0.00000000000E+00  0.45593999997E+02  0.45594000000E+02  0.51100000000E-03 0. -1.
         11   -1    0    0    0    0 -0.00000000000E+00 -0.00000000000E+00 -0.45593999997E+02  0.45594000000E+02  0.51100000000E-03 0.  1.
    9900012    2    1    2    0    0 -0.73815507552E+01  0.23105152286E+02 -0.20697466409E+02  0.59301945533E+02  0.50000002746E+02 0.  0.
        -12    1    1    2    0    0  0.73815507552E+01 -0.23105152286E+02  0.20697466409E+02  0.31886054467E+02  0.00000000000E+00 0.  1.
         11    1    3    3    0    0 -0.60728360251E+01  0.16433599954E+02 -0.17378672136E+02  0.24677130917E+02  0.51100000000E-03 0. -1.
        -11    1    3    3    0    0 -0.52297596228E+01  0.17633140878E+02 -0.10270277738E+02  0.21065532228E+02  0.51100000000E-03 0.  1.
        -12    1    3    3    0    0  0.39210448927E+01 -0.10961588547E+02  0.69514834655E+01  0.13559282388E+02  0.00000000000E+00 0.  1.
</event>
<event>
 7    1  0.3750159E-013  0.5930193E+02  0.7816164E-02  0.1266605E+00
        -11   -1    0    0    0    0  0.00000000000E+00  0.00000000000E+00  0.45593999997E+02  0.45594000000E+02  0.51100000000E-03 0. -1.
         11   -1    0    0    0    0 -0.00000000000E+00 -0.00000000000E+00 -0.45593999997E+02  0.45594000000E+02  0.51100000000E-03 0.  1.
    9900012    2    1    2    0    0  0.16350104853E+02 -0.10421858894E+02  0.25313634245E+02  0.59301934858E+02  0.49999983277E+02 0.  0.
        -12    1    1    2    0    0 -0.16350104853E+02  0.10421858894E+02 -0.25313634245E+02  0.31886065142E+02  0.00000000000E+00 0.  1.
         11    1    3    3    0    0 -0.55458827665E+00 -0.79367927822E+01  0.22586094927E+02  0.23946438819E+02  0.51100000000E-03 0. -1.
        -11    1    3    3    0    0 -0.44842115167E+01  0.55816847395E+01  0.91429675809E+01  0.11612803878E+02  0.51100000000E-03 0.  1.
        -12    1    3    3    0    0  0.21388904647E+02 -0.80667508511E+01 -0.64154282624E+01  0.23742692161E+02  0.00000000000E+00 0.  1.
</event>
<event>
 7    1  0.3750159E-013  0.5930194E+02  0.7816164E-02  0.1266605E+00
        -11   -1    0    0    0    0  0.00000000000E+00  0.00000000000E+00  0.45593999997E+02  0.45594000000E+02  0.51100000000E-03 0. -1.
         11   -1    0    0    0    0 -0.00000000000E+00 -0.00000000000E+00 -0.45593999997E+02  0.45594000000E+02  0.51100000000E-03 0.  1.
    9900012    2    1    2    0    0 -0.22834600096E+02 -0.20777376331E+02  0.79751284487E+01  0.59301937174E+02  0.49999987500E+02 0.  0.
        -12    1    1    2    0    0  0.22834600096E+02  0.20777376331E+02 -0.79751284487E+01  0.31886062826E+02  0.00000000000E+00 0.  1.
         11    1    3    3    0    0 -0.43727067793E+01 -0.17493328749E+02 -0.96113069146E+00  0.18057156137E+02  0.51100000000E-03 0. -1.
        -11    1    3    3    0    0  0.61339849377E+01 -0.77478580951E+01 -0.65344049719E+01  0.11847089300E+02  0.51100000000E-03 0.  1.
        -12    1    3    3    0    0 -0.24595878255E+02  0.44638105122E+01  0.15470664112E+02  0.29397691737E+02  0.00000000000E+00 0.  1.
</event>
<event>
 7    1  0.3750159E-013  0.5930194E+02  0.7816164E-02  0.1266605E+00
        -11   -1    0    0    0    0  0.00000000000E+00  0.00000000000E+00  0.45593999997E+02  0.45594000000E+02  0.51100000000E-03 0. -1.
         11   -1    0    0    0    0 -0.00000000000E+00 -0.00000000000E+00 -0.45593999997E+02  0.45594000000E+02  0.51100000000E-03 0.  1.
    9900012    2    1    2    0    0  0.21803071986E+02  0.16159057154E+02  0.16740124523E+02  0.59301939642E+02  0.49999992002E+02 0.  0.
        -12    1    1    2    0    0 -0.21803071986E+02 -0.16159057154E+02 -0.16740124523E+02  0.31886060358E+02  0.00000000000E+00 0.  1.
         11    1    3    3    0    0 -0.85528226601E+01  0.11534487793E+02  0.86611628886E+01  0.16769344858E+02  0.51100000000E-03 0. -1.
        -11    1    3    3    0    0  0.37747049423E+01 -0.57057182477E+01 -0.74055439227E+01  0.10081949175E+02  0.51100000000E-03 0.  1.
         12    1    3    3    0    0  0.26581189703E+02  0.10330287608E+02  0.15484505557E+02  0.32450645609E+02  0.00000000000E+00 0. -1.
</event>
<event>
 7    1  0.3750159E-013  0.5930195E+02  0.7816164E-02  0.1266605E+00
        -11   -1    0    0    0    0  0.00000000000E+00  0.00000000000E+00  0.45593999997E+02  0.45594000000E+02  0.51100000000E-03 0. -1.
         11   -1    0    0    0    0 -0.00000000000E+00 -0.00000000000E+00 -0.45593999997E+02  0.45594000000E+02  0.51100000000E-03 0.  1.
    9900012    2    1    2    0    0 -0.72555036554E+01  0.25077832914E+02  0.18307922864E+02  0.59301951694E+02  0.50000013982E+02 0.  0.
        -12    1    1    2    0    0  0.72555036554E+01 -0.25077832914E+02 -0.18307922864E+02  0.31886048306E+02  0.00000000000E+00 0.  1.
         11    1    3    3    0    0 -0.22100814171E+01  0.16358687476E+02  0.25994027894E+01  0.16710715452E+02  0.51100000000E-03 0. -1.
        -11    1    3    3    0    0 -0.21532570008E+02  0.82287841915E+01  0.81774286961E+01  0.24458838908E+02  0.51100000000E-03 0.  1.
        -12    1    3    3    0    0  0.16487147769E+02  0.49036124686E+00  0.75310913788E+01  0.18132397334E+02  0.00000000000E+00 0.  1.
</event>
<event>
 7    1  0.3750159E-013  0.5930216E+02  0.7816164E-02  0.1266604E+00
        -11   -1    0    0    0    0  0.00000000000E+00  0.00000000000E+00  0.45593999997E+02  0.45594000000E+02  0.51100000000E-03 0.  1.
         11   -1    0    0    0    0 -0.00000000000E+00 -0.00000000000E+00 -0.45593999997E+02  0.45594000000E+02  0.51100000000E-03 0. -1.
    9900012    2    1    2    0    0 -0.84763875971E+01 -0.30682353665E+02 -0.18576890587E+01  0.59302157032E+02  0.50000388467E+02 0.  0.
        -12    1    1    2    0    0  0.84763875971E+01  0.30682353665E+02  0.18576890587E+01  0.31885842968E+02  0.00000000000E+00 0.  1.
         11    1    3    3    0    0 -0.47959039006E+01 -0.30202373444E+02  0.32771539900E+01  0.30755874145E+02  0.51100000000E-03 0. -1.
        -11    1    3    3    0    0 -0.31492045373E+01 -0.99825745044E+01 -0.12650171359E+02  0.16419382407E+02  0.51100000000E-03 0.  1.
        -12    1    3    3    0    0 -0.53127915929E+00  0.95025942831E+01  0.75153283100E+01  0.12126900480E+02  0.00000000000E+00 0.  1.
</event>
<event>
 7    1  0.3750159E-013  0.5930195E+02  0.7816164E-02  0.1266605E+00
        -11   -1    0    0    0    0  0.00000000000E+00  0.00000000000E+00  0.45593999997E+02  0.45594000000E+02  0.51100000000E-03 0.  1.
         11   -1    0    0    0    0 -0.00000000000E+00 -0.00000000000E+00 -0.45593999997E+02  0.45594000000E+02  0.51100000000E-03 0. -1.
    9900012    2    1    2    0    0  0.27542273210E+02 -0.85438231344E+01 -0.13606857971E+02  0.59301948016E+02  0.50000007274E+02 0.  0.
        -12    1    1    2    0    0 -0.27542273210E+02  0.85438231344E+01  0.13606857971E+02  0.31886051984E+02  0.00000000000E+00 0.  1.
         11    1    3    3    0    0  0.88665241806E+01 -0.84276585590E+01 -0.18040129816E+02  0.21796489715E+02  0.51100000000E-03 0. -1.
        -11    1    3    3    0    0 -0.83425391107E+01  0.76394402014E+00 -0.38675251020E+01  0.92270970492E+01  0.51100000000E-03 0.  1.
         12    1    3    3    0    0  0.27018288140E+02 -0.88010859553E+00  0.83007969478E+01  0.28278361252E+02  0.00000000000E+00 0. -1.
</event>
<event>
 7    1  0.3750159E-013  0.5930193E+02  0.7816164E-02  0.1266605E+00
        -11   -1    0    0    0    0  0.00000000000E+00  0.00000000000E+00  0.45593999997E+02  0.45594000000E+02  0.51100000000E-03 0. -1.
         11   -1    0    0    0    0 -0.00000000000E+00 -0.00000000000E+00 -0.45593999997E+02  0.45594000000E+02  0.51100000000E-03 0.  1.
    9900012    2    1    2    0    0  0.17688419547E+02  0.19966755605E+02 -0.17469118838E+02  0.59301927360E+02  0.49999969602E+02 0.  0.
        -12    1    1    2    0    0 -0.17688419547E+02 -0.19966755605E+02  0.17469118838E+02  0.31886072640E+02  0.00000000000E+00 0.  1.
         11    1    3    3    0    0 -0.58500318145E+01  0.14575724595E+02 -0.34242861352E+00  0.15709610985E+02  0.51100000000E-03 0. -1.
        -11    1    3    3    0    0  0.65168936415E+01  0.47873733609E+01 -0.23924115659E+02  0.25253755300E+02  0.51100000000E-03 0.  1.
        -12    1    3    3    0    0  0.17021557719E+02  0.60365764927E+00  0.67974254349E+01  0.18338561075E+02  0.00000000000E+00 0.  1.
</event>
<event>
 7    1  0.3750159E-013  0.5930188E+02  0.7816164E-02  0.1266605E+00
        -11   -1    0    0    0    0  0.00000000000E+00  0.00000000000E+00  0.45593999997E+02  0.45594000000E+02  0.51100000000E-03 0. -1.
         11   -1    0    0    0    0 -0.00000000000E+00 -0.00000000000E+00 -0.45593999997E+02  0.45594000000E+02  0.51100000000E-03 0.  1.
    9900012    2    1    2    0    0  0.26023164600E+01 -0.56793181714E+01  0.31268166305E+02  0.59301875589E+02  0.49999875185E+02 0.  0.
        -12    1    1    2    0    0 -0.26023164600E+01  0.56793181714E+01 -0.31268166305E+02  0.31886124411E+02  0.00000000000E+00 0.  1.
         11    1    3    3    0    0  0.93307128238E+01 -0.82301067684E+01  0.10470540247E+02  0.16261275243E+02  0.51100000000E-03 0. -1.
        -11    1    3    3    0    0 -0.91153627800E+01 -0.13820714016E+02  0.11702890380E+00  0.16556438945E+02  0.51100000000E-03 0.  1.
        -12    1    3    3    0    0  0.23869664162E+01  0.16371502612E+02  0.20680597154E+02  0.26484161401E+02  0.00000000000E+00 0.  1.
</event>
<event>
 7    1  0.3750159E-013  0.5930193E+02  0.7816164E-02  0.1266605E+00
        -11   -1    0    0    0    0  0.00000000000E+00  0.00000000000E+00  0.45593999997E+02  0.45594000000E+02  0.51100000000E-03 0.  1.
         11   -1    0    0    0    0 -0.00000000000E+00 -0.00000000000E+00 -0.45593999997E+02  0.45594000000E+02  0.51100000000E-03 0. -1.
    9900012    2    1    2    0    0  0.23267142989E+02  0.20658768598E+02 -0.69696991128E+01  0.59301931434E+02  0.49999977032E+02 0.  0.
        -12    1    1    2    0    0 -0.23267142989E+02 -0.20658768598E+02  0.69696991128E+01  0.31886068566E+02  0.00000000000E+00 0.  1.
         11    1    3    3    0    0  0.11452381744E+02  0.21553233779E+02 -0.42807291411E+01  0.24779499110E+02  0.51100000000E-03 0. -1.
        -11    1    3    3    0    0  0.20582008592E+02  0.21445401647E+00 -0.10156652527E+02  0.22952617694E+02  0.51100000000E-03 0.  1.
        -12    1    3    3    0    0 -0.87672473461E+01 -0.11089191972E+01  0.74676825555E+01  0.11569814630E+02  0.00000000000E+00 0.  1.
</event>
<event>
 7    1  0.3750159E-013  0.5930195E+02  0.7816164E-02  0.1266605E+00
        -11   -1    0    0    0    0  0.00000000000E+00  0.00000000000E+00  0.45593999997E+02  0.45594000000E+02  0.51100000000E-03 0.  1.
         11   -1    0    0    0    0 -0.00000000000E+00 -0.00000000000E+00 -0.45593999997E+02  0.45594000000E+02  0.51100000000E-03 0. -1.
    9900012    2    1    2    0    0 -0.82585890079E+01 -0.55397837190E+01 -0.30295658270E+02  0.59301946528E+02  0.50000004559E+02 0.  0.
        -12    1    1    2    0    0  0.82585890079E+01  0.55397837190E+01  0.30295658270E+02  0.31886053472E+02  0.00000000000E+00 0.  1.
         11    1    3    3    0    0 -0.10135281511E+02 -0.12890643826E+02 -0.24287734921E+02  0.29305062658E+02  0.51100000000E-03 0. -1.
        -11    1    3    3    0    0 -0.28135174838E+01 -0.10380758289E+02 -0.19748091204E+00  0.10757091719E+02  0.51100000000E-03 0.  1.
        -12    1    3    3    0    0  0.46902099869E+01  0.17731618396E+02 -0.58104424365E+01  0.19239792150E+02  0.00000000000E+00 0.  1.
</event>
<event>
 7    1  0.3750159E-013  0.5930194E+02  0.7816164E-02  0.1266605E+00
        -11   -1    0    0    0    0  0.00000000000E+00  0.00000000000E+00  0.45593999997E+02  0.45594000000E+02  0.51100000000E-03 0. -1.
         11   -1    0    0    0    0 -0.00000000000E+00 -0.00000000000E+00 -0.45593999997E+02  0.45594000000E+02  0.51100000000E-03 0.  1.
    9900012    2    1    2    0    0  0.20397347388E+02 -0.23609748587E+02 -0.65763751351E+01  0.59301941624E+02  0.49999995617E+02 0.  0.
        -12    1    1    2    0    0 -0.20397347388E+02  0.23609748587E+02  0.65763751351E+01  0.31886058376E+02  0.00000000000E+00 0.  1.
         11    1    3    3    0    0  0.43541239655E+01  0.62765381460E+01  0.20611399416E+01  0.79121188518E+01  0.51100000000E-03 0. -1.
        -11    1    3    3    0    0 -0.44605788527E+00  0.31954708720E+01 -0.13705836356E+02  0.14080481249E+02  0.51100000000E-03 0.  1.
        -12    1    3    3    0    0  0.16489281308E+02 -0.33081757605E+02  0.50683212795E+01  0.37309341523E+02  0.00000000000E+00 0.  1.
</event>
<event>
 7    1  0.3750159E-013  0.5930192E+02  0.7816164E-02  0.1266605E+00
        -11   -1    0    0    0    0  0.00000000000E+00  0.00000000000E+00  0.45593999997E+02  0.45594000000E+02  0.51100000000E-03 0. -1.
         11   -1    0    0    0    0 -0.00000000000E+00 -0.00000000000E+00 -0.45593999997E+02  0.45594000000E+02  0.51100000000E-03 0.  1.
    9900012    2    1    2    0    0  0.34804841918E+01 -0.28876658602E+02  0.13067022383E+02  0.59301917516E+02  0.49999951649E+02 0.  0.
        -12    1    1    2    0    0 -0.34804841918E+01  0.28876658602E+02 -0.13067022383E+02  0.31886082484E+02  0.00000000000E+00 0.  1.
         11    1    3    3    0    0  0.12646540875E+02 -0.20993323402E+01  0.95033514230E+01  0.15957940998E+02  0.51100000000E-03 0. -1.
        -11    1    3    3    0    0  0.85095494976E+01 -0.86616388048E+01  0.11595827610E+02  0.16789867113E+02  0.51100000000E-03 0.  1.
        -12    1    3    3    0    0 -0.17675606180E+02 -0.18115687457E+02 -0.80321566500E+01  0.26554109405E+02  0.00000000000E+00 0.  1.
</event>
<event>
 7    1  0.3750159E-013  0.5930197E+02  0.7816164E-02  0.1266605E+00
        -11   -1    0    0    0    0  0.00000000000E+00  0.00000000000E+00  0.45593999997E+02  0.45594000000E+02  0.51100000000E-03 0.  1.
         11   -1    0    0    0    0 -0.00000000000E+00 -0.00000000000E+00 -0.45593999997E+02  0.45594000000E+02  0.51100000000E-03 0. -1.
    9900012    2    1    2    0    0  0.23334978075E+02  0.26173918752E+01 -0.21571903290E+02  0.59301969304E+02  0.50000046098E+02 0.  0.
        -12    1    1    2    0    0 -0.23334978075E+02 -0.26173918752E+01  0.21571903290E+02  0.31886030696E+02  0.00000000000E+00 0.  1.
         11    1    3    3    0    0  0.55328586263E+01 -0.10527676159E+02 -0.13723248142E+02  0.18159626365E+02  0.51100000000E-03 0. -1.
        -11    1    3    3    0    0  0.22916373654E+02  0.13043150056E+01 -0.13964695820E+02  0.26867715733E+02  0.51100000000E-03 0.  1.
        -12    1    3    3    0    0 -0.51142542060E+01  0.11840753028E+02  0.61160406722E+01  0.14274627206E+02  0.00000000000E+00 0.  1.
</event>
<event>
 7    1  0.3750159E-013  0.5930196E+02  0.7816164E-02  0.1266605E+00
        -11   -1    0    0    0    0  0.00000000000E+00  0.00000000000E+00  0.45593999997E+02  0.45594000000E+02  0.51100000000E-03 0.  1.
         11   -1    0    0    0    0 -0.00000000000E+00 -0.00000000000E+00 -0.45593999997E+02  0.45594000000E+02  0.51100000000E-03 0. -1.
    9900012    2    1    2    0    0  0.67256463839E+00  0.84387026676E+01 -0.30741757658E+02  0.59301957446E+02  0.50000024471E+02 0.  0.
        -12    1    1    2    0    0 -0.67256463839E+00 -0.84387026676E+01  0.30741757658E+02  0.31886042554E+02  0.00000000000E+00 0.  1.
         11    1    3    3    0    0 -0.98746436665E+01  0.16935283482E+02 -0.21203756823E+02  0.28877529635E+02  0.51100000000E-03 0.  1.
        -11    1    3    3    0    0  0.58560546456E+01 -0.23552261424E+01 -0.17934520235E+02  0.19012824159E+02  0.51100000000E-03 0. -1.
        -12    1    3    3    0    0  0.46911536593E+01 -0.61413546716E+01  0.83965194004E+01  0.11411603651E+02  0.00000000000E+00 0.  1.
</event>
<event>
 7    1  0.3750159E-013  0.5930196E+02  0.7816164E-02  0.1266605E+00
        -11   -1    0    0    0    0  0.00000000000E+00  0.00000000000E+00  0.45593999997E+02  0.45594000000E+02  0.51100000000E-03 0.  1.
         11   -1    0    0    0    0 -0.00000000000E+00 -0.00000000000E+00 -0.45593999997E+02  0.45594000000E+02  0.51100000000E-03 0. -1.
    9900012    2    1    2    0    0  0.15009216689E+02 -0.46180250334E+01 -0.27750980807E+02  0.59301957966E+02  0.50000025420E+02 0.  0.
        -12    1    1    2    0    0 -0.15009216689E+02  0.46180250334E+01  0.27750980807E+02  0.31886042034E+02  0.00000000000E+00 0.  1.
         11    1    3    3    0    0  0.20652503161E+01  0.29035829392E+01 -0.51961124124E+01  0.63004473822E+01  0.51100000000E-03 0. -1.
        -11    1    3    3    0    0 -0.43443610046E-01  0.18680539170E+02 -0.98251482040E+01  0.21106822796E+02  0.51100000000E-03 0.  1.
         12    1    3    3    0    0  0.12987409983E+02 -0.26202147143E+02 -0.12729720191E+02  0.31894687788E+02  0.00000000000E+00 0. -1.
</event>
<event>
 7    1  0.3750159E-013  0.5930183E+02  0.7816164E-02  0.1266605E+00
        -11   -1    0    0    0    0  0.00000000000E+00  0.00000000000E+00  0.45593999997E+02  0.45594000000E+02  0.51100000000E-03 0.  1.
         11   -1    0    0    0    0 -0.00000000000E+00 -0.00000000000E+00 -0.45593999997E+02  0.45594000000E+02  0.51100000000E-03 0. -1.
    9900012    2    1    2    0    0  0.81540043809E+01  0.17214804597E+02 -0.25571282605E+02  0.59301830917E+02  0.49999793712E+02 0.  0.
        -12    1    1    2    0    0 -0.81540043809E+01 -0.17214804597E+02  0.25571282605E+02  0.31886169083E+02  0.00000000000E+00 0.  1.
         11    1    3    3    0    0 -0.29908629104E+01 -0.78768587830E+01  0.14305796592E+01  0.85461525647E+01  0.51100000000E-03 0.  1.
        -11    1    3    3    0    0  0.85654077191E+01  0.14228437280E+02 -0.33816872583E+02  0.37674865738E+02  0.51100000000E-03 0. -1.
         12    1    3    3    0    0  0.25794595722E+01  0.10863226101E+02  0.68150103189E+01  0.13080812614E+02  0.00000000000E+00 0. -1.
</event>
<event>
 7    1  0.3750159E-013  0.5930195E+02  0.7816164E-02  0.1266605E+00
        -11   -1    0    0    0    0  0.00000000000E+00  0.00000000000E+00  0.45593999997E+02  0.45594000000E+02  0.51100000000E-03 0.  1.
         11   -1    0    0    0    0 -0.00000000000E+00 -0.00000000000E+00 -0.45593999997E+02  0.45594000000E+02  0.51100000000E-03 0. -1.
    9900012    2    1    2    0    0  0.30931875868E+02  0.36012876976E+01 -0.68534694845E+01  0.59301948790E+02  0.50000008685E+02 0.  0.
        -12    1    1    2    0    0 -0.30931875868E+02 -0.36012876976E+01  0.68534694845E+01  0.31886051210E+02  0.00000000000E+00 0.  1.
         11    1    3    3    0    0  0.11644406458E+02  0.60179050267E+01 -0.85799517809E+01  0.15665980834E+02  0.51100000000E-03 0. -1.
        -11    1    3    3    0    0 -0.10357562167E+02 -0.82468425028E+01  0.21895136033E+01  0.13419518449E+02  0.51100000000E-03 0.  1.
         12    1    3    3    0    0  0.29645031577E+02  0.58302251737E+01 -0.46303130695E+00  0.30216449507E+02  0.00000000000E+00 0. -1.
</event>
<event>
 7    1  0.3750159E-013  0.5930192E+02  0.7816164E-02  0.1266605E+00
        -11   -1    0    0    0    0  0.00000000000E+00  0.00000000000E+00  0.45593999997E+02  0.45594000000E+02  0.51100000000E-03 0. -1.
         11   -1    0    0    0    0 -0.00000000000E+00 -0.00000000000E+00 -0.45593999997E+02  0.45594000000E+02  0.51100000000E-03 0.  1.
    9900012    2    1    2    0    0 -0.80344604078E+01  0.16314813363E+02  0.26191527390E+02  0.59301924730E+02  0.49999964806E+02 0.  0.
        -12    1    1    2    0    0  0.80344604078E+01 -0.16314813363E+02 -0.26191527390E+02  0.31886075270E+02  0.00000000000E+00 0.  1.
         11    1    3    3    0    0 -0.12701214880E+02  0.17038907741E+02 -0.56906629088E+01  0.22000656377E+02  0.51100000000E-03 0. -1.
        -11    1    3    3    0    0  0.82015724708E+01  0.66540351116E+01  0.13191261483E+02  0.16898264823E+02  0.51100000000E-03 0.  1.
        -12    1    3    3    0    0 -0.35348179988E+01 -0.73781294895E+01  0.18690928816E+02  0.20403003530E+02  0.00000000000E+00 0.  1.
</event>
<event>
 7    1  0.3750159E-013  0.5930196E+02  0.7816164E-02  0.1266605E+00
        -11   -1    0    0    0    0  0.00000000000E+00  0.00000000000E+00  0.45593999997E+02  0.45594000000E+02  0.51100000000E-03 0.  1.
         11   -1    0    0    0    0 -0.00000000000E+00 -0.00000000000E+00 -0.45593999997E+02  0.45594000000E+02  0.51100000000E-03 0. -1.
    9900012    2    1    2    0    0 -0.13781391080E+02 -0.22469990312E+02 -0.17941362797E+02  0.59301957541E+02  0.50000024644E+02 0.  0.
        -12    1    1    2    0    0  0.13781391080E+02  0.22469990312E+02  0.17941362797E+02  0.31886042459E+02  0.00000000000E+00 0.  1.
         11    1    3    3    0    0  0.57665630926E+01  0.34431903332E+00 -0.17921681417E+01  0.60484438004E+01  0.51100000000E-03 0. -1.
        -11    1    3    3    0    0  0.35380485448E+01 -0.23163994298E+02  0.25112970217E+01  0.23566820582E+02  0.51100000000E-03 0.  1.
         12    1    3    3    0    0 -0.23086002718E+02  0.34968495317E+00 -0.18660491677E+02  0.29686693158E+02  0.00000000000E+00 0. -1.
</event>
<event>
 7    1  0.3750159E-013  0.5930193E+02  0.7816164E-02  0.1266605E+00
        -11   -1    0    0    0    0  0.00000000000E+00  0.00000000000E+00  0.45593999997E+02  0.45594000000E+02  0.51100000000E-03 0.  1.
         11   -1    0    0    0    0 -0.00000000000E+00 -0.00000000000E+00 -0.45593999997E+02  0.45594000000E+02  0.51100000000E-03 0. -1.
    9900012    2    1    2    0    0 -0.31497221641E+02  0.39573105446E+01 -0.29977491129E+01  0.59301925021E+02  0.49999965335E+02 0.  0.
        -12    1    1    2    0    0  0.31497221641E+02 -0.39573105446E+01  0.29977491129E+01  0.31886074979E+02  0.00000000000E+00 0.  1.
         11    1    3    3    0    0 -0.50153585913E+01  0.20351211751E+02 -0.61737761673E+01  0.21850426860E+02  0.51100000000E-03 0. -1.
        -11    1    3    3    0    0  0.10726077552E+01 -0.45722186326E+01 -0.44966958998E+01  0.65019954550E+01  0.51100000000E-03 0.  1.
         12    1    3    3    0    0 -0.27554470805E+02 -0.11821682573E+02  0.76727229542E+01  0.30949502706E+02  0.00000000000E+00 0. -1.
</event>
<event>
 7    1  0.3750159E-013  0.5930200E+02  0.7816164E-02  0.1266605E+00
        -11   -1    0    0    0    0  0.00000000000E+00  0.00000000000E+00  0.45593999997E+02  0.45594000000E+02  0.51100000000E-03 0.  1.
         11   -1    0    0    0    0 -0.00000000000E+00 -0.00000000000E+00 -0.45593999997E+02  0.45594000000E+02  0.51100000000E-03 0. -1.
    9900012    2    1    2    0    0 -0.26061183226E+02 -0.13462233952E+02 -0.12502007312E+02  0.59301996786E+02  0.50000096219E+02 0.  0.
        -12    1    1    2    0    0  0.26061183226E+02  0.13462233952E+02  0.12502007312E+02  0.31886003214E+02  0.00000000000E+00 0.  1.
         11    1    3    3    0    0 -0.86257921970E+01 -0.11970719576E+02 -0.14580726976E+02  0.20743674159E+02  0.51100000000E-03 0. -1.
        -11    1    3    3    0    0 -0.15044312434E+02  0.50712422494E+01 -0.13911754158E+02  0.21108901880E+02  0.51100000000E-03 0.  1.
        -12    1    3    3    0    0 -0.23910785949E+01 -0.65627566249E+01  0.15990473822E+02  0.17449420747E+02  0.00000000000E+00 0.  1.
</event>
<event>
 7    1  0.3750159E-013  0.5930199E+02  0.7816164E-02  0.1266605E+00
        -11   -1    0    0    0    0  0.00000000000E+00  0.00000000000E+00  0.45593999997E+02  0.45594000000E+02  0.51100000000E-03 0.  1.
         11   -1    0    0    0    0 -0.00000000000E+00 -0.00000000000E+00 -0.45593999997E+02  0.45594000000E+02  0.51100000000E-03 0. -1.
    9900012    2    1    2    0    0  0.87299302038E+01 -0.14600960863E+02 -0.26968835613E+02  0.59301986862E+02  0.50000078120E+02 0.  0.
        -12    1    1    2    0    0 -0.87299302038E+01  0.14600960863E+02  0.26968835613E+02  0.31886013138E+02  0.00000000000E+00 0.  1.
         11    1    3    3    0    0 -0.43605849974E+01  0.10164723413E+02 -0.13245544404E+01  0.11139602700E+02  0.51100000000E-03 0. -1.
        -11    1    3    3    0    0 -0.42518313600E+01  0.26457332699E+01  0.21466254336E+01  0.54484837765E+01  0.51100000000E-03 0.  1.
         12    1    3    3    0    0  0.17342346561E+02 -0.27411417547E+02 -0.27790906606E+02  0.42713900386E+02  0.00000000000E+00 0. -1.
</event>
<event>
 7    1  0.3750159E-013  0.5930193E+02  0.7816164E-02  0.1266605E+00
        -11   -1    0    0    0    0  0.00000000000E+00  0.00000000000E+00  0.45593999997E+02  0.45594000000E+02  0.51100000000E-03 0. -1.
         11   -1    0    0    0    0 -0.00000000000E+00 -0.00000000000E+00 -0.45593999997E+02  0.45594000000E+02  0.51100000000E-03 0.  1.
    9900012    2    1    2    0    0 -0.29908146074E+02  0.10918045860E+02  0.17379968851E+01  0.59301928430E+02  0.49999971554E+02 0.  0.
        -12    1    1    2    0    0  0.29908146074E+02 -0.10918045860E+02 -0.17379968851E+01  0.31886071570E+02  0.00000000000E+00 0.  1.
         11    1    3    3    0    0  0.13873539099E+01  0.80476580755E+01  0.12548259794E+01  0.82622115606E+01  0.51100000000E-03 0. -1.
        -11    1    3    3    0    0  0.84523148342E+01  0.48041242881E+01  0.50987964035E+01  0.10978112828E+02  0.51100000000E-03 0.  1.
         12    1    3    3    0    0 -0.39747814818E+02 -0.19337365039E+01 -0.46156254978E+01  0.40061604042E+02  0.00000000000E+00 0. -1.
</event>
<event>
 7    1  0.3750159E-013  0.5930183E+02  0.7816164E-02  0.1266605E+00
        -11   -1    0    0    0    0  0.00000000000E+00  0.00000000000E+00  0.45593999997E+02  0.45594000000E+02  0.51100000000E-03 0.  1.
         11   -1    0    0    0    0 -0.00000000000E+00 -0.00000000000E+00 -0.45593999997E+02  0.45594000000E+02  0.51100000000E-03 0. -1.
    9900012    2    1    2    0    0 -0.22708092438E+02  0.21309178429E+02  0.68548622994E+01  0.59301832394E+02  0.49999796406E+02 0.  0.
        -12    1    1    2    0    0  0.22708092438E+02 -0.21309178429E+02 -0.68548622994E+01  0.31886167606E+02  0.00000000000E+00 0.  1.
         11    1    3    3    0    0 -0.17527184988E+02  0.18075720037E+02 -0.65525783300E+00  0.25186568475E+02  0.51100000000E-03 0. -1.
        -11    1    3    3    0    0 -0.17236826589E+02  0.91241821159E+01  0.19828905309E+01  0.19603335055E+02  0.51100000000E-03 0.  1.
        -12    1    3    3    0    0  0.12055919139E+02 -0.58907237239E+01  0.55272296015E+01  0.14511928864E+02  0.00000000000E+00 0.  1.
</event>
<event>
 7    1  0.3750159E-013  0.5930196E+02  0.7816164E-02  0.1266605E+00
        -11   -1    0    0    0    0  0.00000000000E+00  0.00000000000E+00  0.45593999997E+02  0.45594000000E+02  0.51100000000E-03 0.  1.
         11   -1    0    0    0    0 -0.00000000000E+00 -0.00000000000E+00 -0.45593999997E+02  0.45594000000E+02  0.51100000000E-03 0. -1.
    9900012    2    1    2    0    0  0.17443611625E+01  0.12290304405E+02 -0.29370480898E+02  0.59301960321E+02  0.50000029715E+02 0.  0.
        -12    1    1    2    0    0 -0.17443611625E+01 -0.12290304405E+02  0.29370480898E+02  0.31886039679E+02  0.00000000000E+00 0.  1.
         11    1    3    3    0    0 -0.11904655295E+02  0.11228882306E+02 -0.68683578512E+01  0.17747759165E+02  0.51100000000E-03 0. -1.
        -11    1    3    3    0    0 -0.52122084029E+01  0.88688112281E+01  0.11039169264E+01  0.10346089207E+02  0.51100000000E-03 0.  1.
        -12    1    3    3    0    0  0.18861224860E+02 -0.78073891293E+01 -0.23606039973E+02  0.31208111950E+02  0.00000000000E+00 0.  1.
</event>
<event>
 7    1  0.3750159E-013  0.5930191E+02  0.7816164E-02  0.1266605E+00
        -11   -1    0    0    0    0  0.00000000000E+00  0.00000000000E+00  0.45593999997E+02  0.45594000000E+02  0.51100000000E-03 0.  1.
         11   -1    0    0    0    0 -0.00000000000E+00 -0.00000000000E+00 -0.45593999997E+02  0.45594000000E+02  0.51100000000E-03 0. -1.
    9900012    2    1    2    0    0  0.69859531653E+01 -0.92750616522E+01 -0.29696677855E+02  0.59301906073E+02  0.49999930780E+02 0.  0.
        -12    1    1    2    0    0 -0.69859531653E+01  0.92750616522E+01  0.29696677855E+02  0.31886093927E+02  0.00000000000E+00 0.  1.
         11    1    3    3    0    0  0.10808096706E+02  0.37290678622E+01 -0.36410333443E+01  0.11999084365E+02  0.51100000000E-03 0. -1.
        -11    1    3    3    0    0  0.12971277914E+02 -0.15547606718E+02 -0.21881577557E+02  0.29812506805E+02  0.51100000000E-03 0.  1.
        -12    1    3    3    0    0 -0.16793421455E+02  0.25434772038E+01 -0.41740669542E+01  0.17490314903E+02  0.00000000000E+00 0.  1.
</event>
<event>
 7    1  0.3750159E-013  0.5930195E+02  0.7816164E-02  0.1266605E+00
        -11   -1    0    0    0    0  0.00000000000E+00  0.00000000000E+00  0.45593999997E+02  0.45594000000E+02  0.51100000000E-03 0. -1.
         11   -1    0    0    0    0 -0.00000000000E+00 -0.00000000000E+00 -0.45593999997E+02  0.45594000000E+02  0.51100000000E-03 0.  1.
    9900012    2    1    2    0    0  0.17519686545E+02  0.20440307185E+02  0.17087271354E+02  0.59301946359E+02  0.50000004252E+02 0.  0.
        -12    1    1    2    0    0 -0.17519686545E+02 -0.20440307185E+02 -0.17087271354E+02  0.31886053641E+02  0.00000000000E+00 0.  1.
         11    1    3    3    0    0 -0.84326637796E+01  0.20223934266E+02  0.53722664103E+01  0.22560553678E+02  0.51100000000E-03 0. -1.
        -11    1    3    3    0    0 -0.11764413844E+01  0.20464625767E+01 -0.45011239486E+01  0.50825328794E+01  0.51100000000E-03 0.  1.
         12    1    3    3    0    0  0.27128791709E+02 -0.18300896571E+01  0.16216128892E+02  0.31658859802E+02  0.00000000000E+00 0. -1.
</event>
<event>
 7    1  0.3750159E-013  0.5930191E+02  0.7816164E-02  0.1266605E+00
        -11   -1    0    0    0    0  0.00000000000E+00  0.00000000000E+00  0.45593999997E+02  0.45594000000E+02  0.51100000000E-03 0. -1.
         11   -1    0    0    0    0 -0.00000000000E+00 -0.00000000000E+00 -0.45593999997E+02  0.45594000000E+02  0.51100000000E-03 0.  1.
    9900012    2    1    2    0    0  0.80861649133E+01  0.24852471922E+02  0.18267220990E+02  0.59301909203E+02  0.49999936488E+02 0.  0.
        -12    1    1    2    0    0 -0.80861649133E+01 -0.24852471922E+02 -0.18267220990E+02  0.31886090797E+02  0.00000000000E+00 0.  1.
         11    1    3    3    0    0  0.99864717275E+01  0.57493342632E+01  0.20006071878E+01  0.11695592820E+02  0.51100000000E-03 0. -1.
        -11    1    3    3    0    0 -0.64921073351E+01 -0.65931230098E+01 -0.77997556092E+01  0.12101773279E+02  0.51100000000E-03 0.  1.
         12    1    3    3    0    0  0.45918005209E+01  0.25696260668E+02  0.24066369411E+02  0.35504543104E+02  0.00000000000E+00 0. -1.
</event>
<event>
 7    1  0.3750159E-013  0.5930194E+02  0.7816164E-02  0.1266605E+00
        -11   -1    0    0    0    0  0.00000000000E+00  0.00000000000E+00  0.45593999997E+02  0.45594000000E+02  0.51100000000E-03 0.  1.
         11   -1    0    0    0    0 -0.00000000000E+00 -0.00000000000E+00 -0.45593999997E+02  0.45594000000E+02  0.51100000000E-03 0. -1.
    9900012    2    1    2    0    0  0.17485362829E+02 -0.26462642617E+02  0.32728062023E+01  0.59301943047E+02  0.49999998212E+02 0.  0.
        -12    1    1    2    0    0 -0.17485362829E+02  0.26462642617E+02 -0.32728062023E+01  0.31886056953E+02  0.00000000000E+00 0.  1.
         11    1    3    3    0    0 -0.24029400055E+01 -0.20485560832E+02  0.20978442406E+02  0.29419846521E+02  0.51100000000E-03 0. -1.
        -11    1    3    3    0    0  0.23414651079E+01 -0.60871767020E+01 -0.49941556988E+01  0.82144854044E+01  0.51100000000E-03 0.  1.
        -12    1    3    3    0    0  0.17546837726E+02  0.11009491662E+00 -0.12711480505E+02  0.21667611122E+02  0.00000000000E+00 0.  1.
</event>
<event>
 7    1  0.3750159E-013  0.5930186E+02  0.7816164E-02  0.1266605E+00
        -11   -1    0    0    0    0  0.00000000000E+00  0.00000000000E+00  0.45593999997E+02  0.45594000000E+02  0.51100000000E-03 0.  1.
         11   -1    0    0    0    0 -0.00000000000E+00 -0.00000000000E+00 -0.45593999997E+02  0.45594000000E+02  0.51100000000E-03 0. -1.
    9900012    2    1    2    0    0  0.15412460937E+02  0.24445636895E+02 -0.13475629385E+02  0.59301863473E+02  0.49999853087E+02 0.  0.
        -12    1    1    2    0    0 -0.15412460937E+02 -0.24445636895E+02  0.13475629385E+02  0.31886136527E+02  0.00000000000E+00 0.  1.
         11    1    3    3    0    0 -0.11419742511E+00  0.14121717908E+02  0.45802587955E+01  0.14846370891E+02  0.51100000000E-03 0. -1.
        -11    1    3    3    0    0  0.18186312243E+02 -0.31489172372E+01  0.36074012843E+01  0.18806142003E+02  0.51100000000E-03 0.  1.
         12    1    3    3    0    0 -0.26596538807E+01  0.13472836224E+02 -0.21663289465E+02  0.25649350579E+02  0.00000000000E+00 0. -1.
</event>
<event>
 7    1  0.3750159E-013  0.5930195E+02  0.7816164E-02  0.1266605E+00
        -11   -1    0    0    0    0  0.00000000000E+00  0.00000000000E+00  0.45593999997E+02  0.45594000000E+02  0.51100000000E-03 0.  1.
         11   -1    0    0    0    0 -0.00000000000E+00 -0.00000000000E+00 -0.45593999997E+02  0.45594000000E+02  0.51100000000E-03 0. -1.
    9900012    2    1    2    0    0 -0.27382232178E+02  0.14489988905E+02 -0.75481142161E+01  0.59301945905E+02  0.50000003424E+02 0.  0.
        -12    1    1    2    0    0  0.27382232178E+02 -0.14489988905E+02  0.75481142161E+01  0.31886054095E+02  0.00000000000E+00 0.  1.
         11    1    3    3    0    0 -0.79350618129E+01  0.17230793200E+02 -0.19503952005E+02  0.27207895625E+02  0.51100000000E-03 0. -1.
        -11    1    3    3    0    0  0.27642405884E+01 -0.65558859471E+01  0.41898621755E+01  0.82568524205E+01  0.51100000000E-03 0.  1.
        -12    1    3    3    0    0 -0.22211410954E+02  0.38150816521E+01  0.77659756134E+01  0.23837197859E+02  0.00000000000E+00 0.  1.
</event>
<event>
 7    1  0.3750159E-013  0.5930196E+02  0.7816164E-02  0.1266605E+00
        -11   -1    0    0    0    0  0.00000000000E+00  0.00000000000E+00  0.45593999997E+02  0.45594000000E+02  0.51100000000E-03 0.  1.
         11   -1    0    0    0    0 -0.00000000000E+00 -0.00000000000E+00 -0.45593999997E+02  0.45594000000E+02  0.51100000000E-03 0. -1.
    9900012    2    1    2    0    0  0.71506965407E+01  0.21564815907E+01 -0.30998977826E+02  0.59301960733E+02  0.50000030466E+02 0.  0.
        -12    1    1    2    0    0 -0.71506965407E+01 -0.21564815907E+01  0.30998977826E+02  0.31886039267E+02  0.00000000000E+00 0.  1.
         11    1    3    3    0    0 -0.11604993415E+02  0.51485150271E+01 -0.87966949865E+01  0.15445546999E+02  0.51100000000E-03 0.  1.
        -11    1    3    3    0    0  0.14354517089E+02 -0.14638457269E+02 -0.23676066851E+02  0.31319207107E+02  0.51100000000E-03 0. -1.
         12    1    3    3    0    0  0.44011728671E+01  0.11646423832E+02  0.14737840109E+01  0.12537206626E+02  0.00000000000E+00 0. -1.
</event>
<event>
 7    1  0.3750159E-013  0.5930194E+02  0.7816164E-02  0.1266605E+00
        -11   -1    0    0    0    0  0.00000000000E+00  0.00000000000E+00  0.45593999997E+02  0.45594000000E+02  0.51100000000E-03 0. -1.
         11   -1    0    0    0    0 -0.00000000000E+00 -0.00000000000E+00 -0.45593999997E+02  0.45594000000E+02  0.51100000000E-03 0.  1.
    9900012    2    1    2    0    0  0.24245695836E+01 -0.27140619954E+02  0.16559857051E+02  0.59301942629E+02  0.49999997448E+02 0.  0.
        -12    1    1    2    0    0 -0.24245695836E+01  0.27140619954E+02 -0.16559857051E+02  0.31886057371E+02  0.00000000000E+00 0.  1.
         11    1    3    3    0    0 -0.12233915994E+02 -0.28911260127E+02  0.16090402684E+02  0.35276489643E+02  0.51100000000E-03 0. -1.
        -11    1    3    3    0    0 -0.29615353308E+01  0.47828885054E+01 -0.20201565352E+01  0.59772691640E+01  0.51100000000E-03 0.  1.
        -12    1    3    3    0    0  0.17620020908E+02 -0.30122483317E+01  0.24896109026E+01  0.18048183822E+02  0.00000000000E+00 0.  1.
</event>
<event>
 7    1  0.3750159E-013  0.5930194E+02  0.7816164E-02  0.1266605E+00
        -11   -1    0    0    0    0  0.00000000000E+00  0.00000000000E+00  0.45593999997E+02  0.45594000000E+02  0.51100000000E-03 0.  1.
         11   -1    0    0    0    0 -0.00000000000E+00 -0.00000000000E+00 -0.45593999997E+02  0.45594000000E+02  0.51100000000E-03 0. -1.
    9900012    2    1    2    0    0 -0.14630965934E+02 -0.26611912686E+01 -0.28205912560E+02  0.59301943385E+02  0.49999998827E+02 0.  0.
        -12    1    1    2    0    0  0.14630965934E+02  0.26611912686E+01  0.28205912560E+02  0.31886056615E+02  0.00000000000E+00 0.  1.
         11    1    3    3    0    0 -0.27116185699E+02  0.49659732779E+01 -0.10210350268E+02  0.29397273178E+02  0.51100000000E-03 0. -1.
        -11    1    3    3    0    0 -0.32229035199E+01 -0.71283398390E+01 -0.36773637179E+01  0.86442663155E+01  0.51100000000E-03 0.  1.
         12    1    3    3    0    0  0.15708123284E+02 -0.49882470748E+00 -0.14318198574E+02  0.21260403891E+02  0.00000000000E+00 0. -1.
</event>
<event>
 7    1  0.3750159E-013  0.5930194E+02  0.7816164E-02  0.1266605E+00
        -11   -1    0    0    0    0  0.00000000000E+00  0.00000000000E+00  0.45593999997E+02  0.45594000000E+02  0.51100000000E-03 0.  1.
         11   -1    0    0    0    0 -0.00000000000E+00 -0.00000000000E+00 -0.45593999997E+02  0.45594000000E+02  0.51100000000E-03 0. -1.
    9900012    2    1    2    0    0  0.13067009269E+02 -0.53162787538E+01 -0.28595655673E+02  0.59301936047E+02  0.49999985445E+02 0.  0.
        -12    1    1    2    0    0 -0.13067009269E+02  0.53162787538E+01  0.28595655673E+02  0.31886063953E+02  0.00000000000E+00 0.  1.
         11    1    3    3    0    0  0.10624483151E+02  0.78702139482E+00 -0.47922159425E+01  0.11681796899E+02  0.51100000000E-03 0. -1.
        -11    1    3    3    0    0  0.17502021265E+02  0.36899263317E+01 -0.23654375461E+02  0.29655788363E+02  0.51100000000E-03 0.  1.
        -12    1    3    3    0    0 -0.15059495147E+02 -0.97932264803E+01 -0.14906426988E+00  0.17964350785E+02  0.00000000000E+00 0.  1.
</event>
<event>
 7    1  0.3750159E-013  0.5930195E+02  0.7816164E-02  0.1266605E+00
        -11   -1    0    0    0    0  0.00000000000E+00  0.00000000000E+00  0.45593999997E+02  0.45594000000E+02  0.51100000000E-03 0.  1.
         11   -1    0    0    0    0 -0.00000000000E+00 -0.00000000000E+00 -0.45593999997E+02  0.45594000000E+02  0.51100000000E-03 0. -1.
    9900012    2    1    2    0    0  0.17935306863E+02 -0.17679136344E+02 -0.19557432032E+02  0.59301949103E+02  0.50000009256E+02 0.  0.
        -12    1    1    2    0    0 -0.17935306863E+02  0.17679136344E+02  0.19557432032E+02  0.31886050897E+02  0.00000000000E+00 0.  1.
         11    1    3    3    0    0  0.51241393228E+00  0.82406287003E+01 -0.52158549205E+01  0.97660469089E+01  0.51100000000E-03 0. -1.
        -11    1    3    3    0    0  0.28969775414E+01  0.90637682251E+01 -0.23136985846E+01  0.97927307078E+01  0.51100000000E-03 0.  1.
         12    1    3    3    0    0  0.14525915389E+02 -0.34983533270E+02 -0.12027878527E+02  0.39743171486E+02  0.00000000000E+00 0. -1.
</event>
<event>
 7    1  0.3750159E-013  0.5930198E+02  0.7816164E-02  0.1266605E+00
        -11   -1    0    0    0    0  0.00000000000E+00  0.00000000000E+00  0.45593999997E+02  0.45594000000E+02  0.51100000000E-03 0.  1.
         11   -1    0    0    0    0 -0.00000000000E+00 -0.00000000000E+00 -0.45593999997E+02  0.45594000000E+02  0.51100000000E-03 0. -1.
    9900012    2    1    2    0    0 -0.98891776597E+01  0.95930920493E+01 -0.28755782307E+02  0.59301980086E+02  0.50000065762E+02 0.  0.
        -12    1    1    2    0    0  0.98891776597E+01 -0.95930920493E+01  0.28755782307E+02  0.31886019914E+02  0.00000000000E+00 0.  1.
         11    1    3    3    0    0  0.17058830138E+01  0.18572622515E+02 -0.29762357058E+02  0.35123357497E+02  0.51100000000E-03 0. -1.
        -11    1    3    3    0    0  0.13555408189E+01  0.47878061869E+01  0.17173123987E+01  0.52640042867E+01  0.51100000000E-03 0.  1.
         12    1    3    3    0    0 -0.12950601492E+02 -0.13767336653E+02 -0.71073764750E+00  0.18914618302E+02  0.00000000000E+00 0. -1.
</event>
<event>
 7    1  0.3750159E-013  0.5930206E+02  0.7816164E-02  0.1266604E+00
        -11   -1    0    0    0    0  0.00000000000E+00  0.00000000000E+00  0.45593999997E+02  0.45594000000E+02  0.51100000000E-03 0.  1.
         11   -1    0    0    0    0 -0.00000000000E+00 -0.00000000000E+00 -0.45593999997E+02  0.45594000000E+02  0.51100000000E-03 0. -1.
    9900012    2    1    2    0    0  0.46764882564E+01  0.31178305610E+02 -0.47704199727E+01  0.59302059684E+02  0.50000210929E+02 0.  0.
        -12    1    1    2    0    0 -0.46764882564E+01 -0.31178305610E+02  0.47704199727E+01  0.31885940316E+02  0.00000000000E+00 0.  1.
         11    1    3    3    0    0  0.50549942127E+01  0.16251396346E+02  0.13827884974E+02  0.21928776820E+02  0.51100000000E-03 0.  1.
        -11    1    3    3    0    0  0.31396283412E+01  0.23207947281E+02 -0.13361890470E+02  0.26963052504E+02  0.51100000000E-03 0. -1.
         12    1    3    3    0    0 -0.35181342975E+01 -0.82810380177E+01 -0.52364144762E+01  0.10410230360E+02  0.00000000000E+00 0. -1.
</event>
<event>
 7    1  0.3750159E-013  0.5930195E+02  0.7816164E-02  0.1266605E+00
        -11   -1    0    0    0    0  0.00000000000E+00  0.00000000000E+00  0.45593999997E+02  0.45594000000E+02  0.51100000000E-03 0.  1.
         11   -1    0    0    0    0 -0.00000000000E+00 -0.00000000000E+00 -0.45593999997E+02  0.45594000000E+02  0.51100000000E-03 0. -1.
    9900012    2    1    2    0    0 -0.28889880271E+00  0.82386037089E+01 -0.30801980390E+02  0.59301952118E+02  0.50000014754E+02 0.  0.
        -12    1    1    2    0    0  0.28889880271E+00 -0.82386037089E+01  0.30801980390E+02  0.31886047882E+02  0.00000000000E+00 0.  1.
         11    1    3    3    0    0 -0.17875794118E+02 -0.65984667070E+00 -0.10671915066E+02  0.20829526745E+02  0.51100000000E-03 0. -1.
        -11    1    3    3    0    0  0.50067434688E+00 -0.38389918405E+01  0.44775098399E+01  0.59191745861E+01  0.51100000000E-03 0.  1.
         12    1    3    3    0    0  0.17086220969E+02  0.12737442220E+02 -0.24607575164E+02  0.32553250786E+02  0.00000000000E+00 0. -1.
</event>
<event>
 7    1  0.3750159E-013  0.5930195E+02  0.7816164E-02  0.1266605E+00
        -11   -1    0    0    0    0  0.00000000000E+00  0.00000000000E+00  0.45593999997E+02  0.45594000000E+02  0.51100000000E-03 0. -1.
         11   -1    0    0    0    0 -0.00000000000E+00 -0.00000000000E+00 -0.45593999997E+02  0.45594000000E+02  0.51100000000E-03 0.  1.
    9900012    2    1    2    0    0  0.77528059388E+01  0.26650387201E+02  0.15696206001E+02  0.59301952570E+02  0.50000015578E+02 0.  0.
        -12    1    1    2    0    0 -0.77528059388E+01 -0.26650387201E+02 -0.15696206001E+02  0.31886047430E+02  0.00000000000E+00 0.  1.
         11    1    3    3    0    0  0.62465014582E+01 -0.78222063203E+01  0.58475920003E+01  0.11593102460E+02  0.51100000000E-03 0. -1.
        -11    1    3    3    0    0  0.25571233044E+01 -0.30110316959E+01  0.94126156384E+01  0.10207963797E+02  0.51100000000E-03 0.  1.
        -12    1    3    3    0    0 -0.10508188239E+01  0.37483625217E+02  0.43599836265E+00  0.37500886312E+02  0.00000000000E+00 0.  1.
</event>
<event>
 7    1  0.3750159E-013  0.5930196E+02  0.7816164E-02  0.1266605E+00
        -11   -1    0    0    0    0  0.00000000000E+00  0.00000000000E+00  0.45593999997E+02  0.45594000000E+02  0.51100000000E-03 0.  1.
         11   -1    0    0    0    0 -0.00000000000E+00 -0.00000000000E+00 -0.45593999997E+02  0.45594000000E+02  0.51100000000E-03 0. -1.
    9900012    2    1    2    0    0 -0.73893469113E+01 -0.29090716701E+02  0.10763252815E+02  0.59301955135E+02  0.50000020257E+02 0.  0.
        -12    1    1    2    0    0  0.73893469113E+01  0.29090716701E+02 -0.10763252815E+02  0.31886044865E+02  0.00000000000E+00 0.  1.
         11    1    3    3    0    0 -0.12312921864E+02 -0.47417930964E+01 -0.73937177955E+00  0.13215117006E+02  0.51100000000E-03 0. -1.
        -11    1    3    3    0    0 -0.14427782713E+02 -0.15109449805E+02 -0.16067304771E+01  0.20953232937E+02  0.51100000000E-03 0.  1.
        -12    1    3    3    0    0  0.19351357665E+02 -0.92394738000E+01  0.13109355072E+02  0.25133605193E+02  0.00000000000E+00 0.  1.
</event>
<event>
 7    1  0.3750159E-013  0.5930197E+02  0.7816164E-02  0.1266605E+00
        -11   -1    0    0    0    0  0.00000000000E+00  0.00000000000E+00  0.45593999997E+02  0.45594000000E+02  0.51100000000E-03 0.  1.
         11   -1    0    0    0    0 -0.00000000000E+00 -0.00000000000E+00 -0.45593999997E+02  0.45594000000E+02  0.51100000000E-03 0. -1.
    9900012    2    1    2    0    0  0.41551242371E+00  0.18100661799E+02 -0.26247141685E+02  0.59301967717E+02  0.50000043204E+02 0.  0.
        -12    1    1    2    0    0 -0.41551242371E+00 -0.18100661799E+02  0.26247141685E+02  0.31886032283E+02  0.00000000000E+00 0.  1.
         11    1    3    3    0    0 -0.10367217211E+02  0.12788865148E+02 -0.18895030022E+02  0.25061053934E+02  0.51100000000E-03 0. -1.
        -11    1    3    3    0    0  0.45794046672E+01  0.18397287101E+02 -0.43630939171E+01  0.19454246543E+02  0.51100000000E-03 0.  1.
         12    1    3    3    0    0  0.62033249678E+01 -0.13085490450E+02 -0.29890177460E+01  0.14786667240E+02  0.00000000000E+00 0. -1.
</event>
<event>
 7    1  0.3750159E-013  0.5930193E+02  0.7816164E-02  0.1266605E+00
        -11   -1    0    0    0    0  0.00000000000E+00  0.00000000000E+00  0.45593999997E+02  0.45594000000E+02  0.51100000000E-03 0.  1.
         11   -1    0    0    0    0 -0.00000000000E+00 -0.00000000000E+00 -0.45593999997E+02  0.45594000000E+02  0.51100000000E-03 0. -1.
    9900012    2    1    2    0    0 -0.86359488759E+01 -0.28183106582E+02 -0.12159536435E+02  0.59301930378E+02  0.49999975107E+02 0.  0.
        -12    1    1    2    0    0  0.86359488759E+01  0.28183106582E+02  0.12159536435E+02  0.31886069622E+02  0.00000000000E+00 0.  1.
         11    1    3    3    0    0 -0.46386499527E+01 -0.96641225567E+01 -0.18285983614E+02  0.21196451004E+02  0.51100000000E-03 0. -1.
        -11    1    3    3    0    0 -0.11632050612E+02  0.50106711118E+01  0.19437138087E+00  0.12666854658E+02  0.51100000000E-03 0.  1.
        -12    1    3    3    0    0  0.76347516885E+01 -0.23529655137E+02  0.59320757974E+01  0.25438624717E+02  0.00000000000E+00 0.  1.
</event>
<event>
 7    1  0.3750159E-013  0.5930190E+02  0.7816164E-02  0.1266605E+00
        -11   -1    0    0    0    0  0.00000000000E+00  0.00000000000E+00  0.45593999997E+02  0.45594000000E+02  0.51100000000E-03 0.  1.
         11   -1    0    0    0    0 -0.00000000000E+00 -0.00000000000E+00 -0.45593999997E+02  0.45594000000E+02  0.51100000000E-03 0. -1.
    9900012    2    1    2    0    0  0.29692367508E+02 -0.43813843109E+01  0.10765227999E+02  0.59301900355E+02  0.49999920352E+02 0.  0.
        -12    1    1    2    0    0 -0.29692367508E+02  0.43813843109E+01 -0.10765227999E+02  0.31886099645E+02  0.00000000000E+00 0.  1.
         11    1    3    3    0    0  0.74781745713E+01  0.18666269685E+02  0.38239338745E+00  0.20112159105E+02  0.51100000000E-03 0.  1.
        -11    1    3    3    0    0 -0.85845673383E+00 -0.37957206608E+01 -0.42534790238E+01  0.57651129534E+01  0.51100000000E-03 0. -1.
        -12    1    3    3    0    0  0.23072649670E+02 -0.19251933336E+02  0.14636313636E+02  0.33424628297E+02  0.00000000000E+00 0.  1.
</event>
<event>
 7    1  0.3750159E-013  0.5930195E+02  0.7816164E-02  0.1266605E+00
        -11   -1    0    0    0    0  0.00000000000E+00  0.00000000000E+00  0.45593999997E+02  0.45594000000E+02  0.51100000000E-03 0. -1.
         11   -1    0    0    0    0 -0.00000000000E+00 -0.00000000000E+00 -0.45593999997E+02  0.45594000000E+02  0.51100000000E-03 0.  1.
    9900012    2    1    2    0    0 -0.13571870523E+02  0.65651719197E+01  0.28096670022E+02  0.59301952610E+02  0.50000015653E+02 0.  0.
        -12    1    1    2    0    0  0.13571870523E+02 -0.65651719197E+01 -0.28096670022E+02  0.31886047390E+02  0.00000000000E+00 0.  1.
         11    1    3    3    0    0 -0.69705023147E+01  0.10518762185E+02  0.70680021159E+01  0.14463364567E+02  0.51100000000E-03 0. -1.
        -11    1    3    3    0    0 -0.49040559219E+01  0.17186375955E+02  0.13253304038E+02  0.22250198901E+02  0.51100000000E-03 0.  1.
         12    1    3    3    0    0 -0.16973122860E+01 -0.21139966220E+02  0.77753638675E+01  0.22588389142E+02  0.00000000000E+00 0. -1.
</event>
<event>
 7    1  0.3750159E-013  0.5930195E+02  0.7816164E-02  0.1266605E+00
        -11   -1    0    0    0    0  0.00000000000E+00  0.00000000000E+00  0.45593999997E+02  0.45594000000E+02  0.51100000000E-03 0.  1.
         11   -1    0    0    0    0 -0.00000000000E+00 -0.00000000000E+00 -0.45593999997E+02  0.45594000000E+02  0.51100000000E-03 0. -1.
    9900012    2    1    2    0    0  0.16514370192E+02 -0.11829188192E+02 -0.24577762038E+02  0.59301945008E+02  0.50000001788E+02 0.  0.
        -12    1    1    2    0    0 -0.16514370192E+02  0.11829188192E+02  0.24577762038E+02  0.31886054992E+02  0.00000000000E+00 0.  1.
         11    1    3    3    0    0  0.25426509061E+02  0.59585933457E+01 -0.84408607585E+01  0.27445588503E+02  0.51100000000E-03 0. -1.
        -11    1    3    3    0    0 -0.47472121887E+01  0.65587548045E+00 -0.11396510694E+02  0.12363116616E+02  0.51100000000E-03 0.  1.
        -12    1    3    3    0    0 -0.41649266799E+01 -0.18443657018E+02 -0.47403905858E+01  0.19493239889E+02  0.00000000000E+00 0.  1.
</event>
<event>
 7    1  0.3750159E-013  0.5930196E+02  0.7816164E-02  0.1266605E+00
        -11   -1    0    0    0    0  0.00000000000E+00  0.00000000000E+00  0.45593999997E+02  0.45594000000E+02  0.51100000000E-03 0. -1.
         11   -1    0    0    0    0 -0.00000000000E+00 -0.00000000000E+00 -0.45593999997E+02  0.45594000000E+02  0.51100000000E-03 0.  1.
    9900012    2    1    2    0    0  0.19024442562E+02 -0.19462729919E+02  0.16613018282E+02  0.59301958428E+02  0.50000026263E+02 0.  0.
        -12    1    1    2    0    0 -0.19024442562E+02  0.19462729919E+02 -0.16613018282E+02  0.31886041572E+02  0.00000000000E+00 0.  1.
         11    1    3    3    0    0  0.16222191250E+02  0.49356237852E+01  0.38049174590E+01  0.17378068599E+02  0.51100000000E-03 0. -1.
        -11    1    3    3    0    0  0.82399434281E+01  0.49688012791E+01  0.54381344952E+00  0.96374990106E+01  0.51100000000E-03 0.  1.
         12    1    3    3    0    0 -0.54376921161E+01 -0.29367154983E+02  0.12264287374E+02  0.32286390819E+02  0.00000000000E+00 0. -1.
</event>
<event>
 7    1  0.3750159E-013  0.5930194E+02  0.7816164E-02  0.1266605E+00
        -11   -1    0    0    0    0  0.00000000000E+00  0.00000000000E+00  0.45593999997E+02  0.45594000000E+02  0.51100000000E-03 0. -1.
         11   -1    0    0    0    0 -0.00000000000E+00 -0.00000000000E+00 -0.45593999997E+02  0.45594000000E+02  0.51100000000E-03 0.  1.
    9900012    2    1    2    0    0  0.12473188435E+02 -0.28652695217E+02  0.63374576056E+01  0.59301941262E+02  0.49999994956E+02 0.  0.
        -12    1    1    2    0    0 -0.12473188435E+02  0.28652695217E+02 -0.63374576056E+01  0.31886058738E+02  0.00000000000E+00 0.  1.
         11    1    3    3    0    0 -0.21515024958E+01  0.34325516819E+01  0.65185469968E+01  0.76748178642E+01  0.51100000000E-03 0. -1.
        -11    1    3    3    0    0  0.27142470466E+01  0.21398297197E+01 -0.12797030461E+02  0.13255564762E+02  0.51100000000E-03 0.  1.
         12    1    3    3    0    0  0.11910443885E+02 -0.34225076619E+02  0.12615941070E+02  0.38371558636E+02  0.00000000000E+00 0. -1.
</event>
<event>
 7    1  0.3750159E-013  0.5930190E+02  0.7816164E-02  0.1266605E+00
        -11   -1    0    0    0    0  0.00000000000E+00  0.00000000000E+00  0.45593999997E+02  0.45594000000E+02  0.51100000000E-03 0. -1.
         11   -1    0    0    0    0 -0.00000000000E+00 -0.00000000000E+00 -0.45593999997E+02  0.45594000000E+02  0.51100000000E-03 0.  1.
    9900012    2    1    2    0    0  0.16609397970E+02  0.27196389314E+02  0.10988969545E+01  0.59301901663E+02  0.49999922737E+02 0.  0.
        -12    1    1    2    0    0 -0.16609397970E+02 -0.27196389314E+02 -0.10988969545E+01  0.31886098337E+02  0.00000000000E+00 0.  1.
         11    1    3    3    0    0  0.91584315627E+01  0.15359196594E+01  0.35449007810E+00  0.92930932076E+01  0.51100000000E-03 0. -1.
        -11    1    3    3    0    0  0.19742056625E+02  0.34396203953E+00 -0.67820047765E+01  0.20877324990E+02  0.51100000000E-03 0.  1.
        -12    1    3    3    0    0 -0.12291090218E+02  0.25316507615E+02  0.75264116529E+01  0.29131483466E+02  0.00000000000E+00 0.  1.
</event>
<event>
 7    1  0.3750159E-013  0.5930193E+02  0.7816164E-02  0.1266605E+00
        -11   -1    0    0    0    0  0.00000000000E+00  0.00000000000E+00  0.45593999997E+02  0.45594000000E+02  0.51100000000E-03 0.  1.
         11   -1    0    0    0    0 -0.00000000000E+00 -0.00000000000E+00 -0.45593999997E+02  0.45594000000E+02  0.51100000000E-03 0. -1.
    9900012    2    1    2    0    0  0.73557974524E+01 -0.30926906356E+02 -0.24779687528E+01  0.59301927459E+02  0.49999969783E+02 0.  0.
        -12    1    1    2    0    0 -0.73557974524E+01  0.30926906356E+02  0.24779687528E+01  0.31886072541E+02  0.00000000000E+00 0.  1.
         11    1    3    3    0    0  0.90398131494E+01 -0.39921473313E+01 -0.79434298567E+01  0.12678861946E+02  0.51100000000E-03 0.  1.
        -11    1    3    3    0    0 -0.80568280391E+01  0.18551496557E+01  0.13705929744E+02  0.16006453970E+02  0.51100000000E-03 0. -1.
         12    1    3    3    0    0  0.63728123421E+01 -0.28789908681E+02 -0.82404686397E+01  0.30616611543E+02  0.00000000000E+00 0. -1.
</event>
<event>
 7    1  0.3750159E-013  0.5930193E+02  0.7816164E-02  0.1266605E+00
        -11   -1    0    0    0    0  0.00000000000E+00  0.00000000000E+00  0.45593999997E+02  0.45594000000E+02  0.51100000000E-03 0.  1.
         11   -1    0    0    0    0 -0.00000000000E+00 -0.00000000000E+00 -0.45593999997E+02  0.45594000000E+02  0.51100000000E-03 0. -1.
    9900012    2    1    2    0    0 -0.73625779763E+01 -0.22904383540E+02 -0.20926134055E+02  0.59301930530E+02  0.49999975383E+02 0.  0.
        -12    1    1    2    0    0  0.73625779763E+01  0.22904383540E+02  0.20926134055E+02  0.31886069470E+02  0.00000000000E+00 0.  1.
         11    1    3    3    0    0  0.79406484923E+01 -0.60143224856E+01  0.30462820067E+01  0.10416612106E+02  0.51100000000E-03 0.  1.
        -11    1    3    3    0    0  0.11321299133E+02 -0.38686451840E+01 -0.23362673297E+01  0.12190011276E+02  0.51100000000E-03 0. -1.
         12    1    3    3    0    0 -0.26624525601E+02 -0.13021415870E+02 -0.21636148732E+02  0.36695307148E+02  0.00000000000E+00 0. -1.
</event>
<event>
 7    1  0.3750159E-013  0.5930195E+02  0.7816164E-02  0.1266605E+00
        -11   -1    0    0    0    0  0.00000000000E+00  0.00000000000E+00  0.45593999997E+02  0.45594000000E+02  0.51100000000E-03 0.  1.
         11   -1    0    0    0    0 -0.00000000000E+00 -0.00000000000E+00 -0.45593999997E+02  0.45594000000E+02  0.51100000000E-03 0. -1.
    9900012    2    1    2    0    0  0.16560158695E+00  0.55751462520E+01 -0.31394436271E+02  0.59301948059E+02  0.50000007352E+02 0.  0.
        -12    1    1    2    0    0 -0.16560158695E+00 -0.55751462520E+01  0.31394436271E+02  0.31886051941E+02  0.00000000000E+00 0.  1.
         11    1    3    3    0    0  0.21159043234E+01  0.25067385656E+01 -0.33328459809E+01  0.46763930476E+01  0.51100000000E-03 0. -1.
        -11    1    3    3    0    0  0.22260802505E+02  0.11463383270E+01 -0.16463614998E+02  0.27711153689E+02  0.51100000000E-03 0.  1.
         12    1    3    3    0    0 -0.24211105241E+02  0.19220693595E+01 -0.11597975292E+02  0.26914401322E+02  0.00000000000E+00 0. -1.
</event>
<event>
 7    1  0.3750159E-013  0.5930193E+02  0.7816164E-02  0.1266605E+00
        -11   -1    0    0    0    0  0.00000000000E+00  0.00000000000E+00  0.45593999997E+02  0.45594000000E+02  0.51100000000E-03 0. -1.
         11   -1    0    0    0    0 -0.00000000000E+00 -0.00000000000E+00 -0.45593999997E+02  0.45594000000E+02  0.51100000000E-03 0.  1.
    9900012    2    1    2    0    0  0.25535424569E+02  0.18073615557E+02 -0.61650591642E+01  0.59301930287E+02  0.49999974941E+02 0.  0.
        -12    1    1    2    0    0 -0.25535424569E+02 -0.18073615557E+02  0.61650591642E+01  0.31886069713E+02  0.00000000000E+00 0.  1.
         11    1    3    3    0    0  0.17804514939E+02  0.14108696590E+02  0.89146174918E+01  0.24403411174E+02  0.51100000000E-03 0. -1.
        -11    1    3    3    0    0  0.60908816481E+01 -0.20096070259E+01  0.84263857960E+01  0.10589680708E+02  0.51100000000E-03 0.  1.
        -12    1    3    3    0    0  0.16400279824E+01  0.59745259929E+01 -0.23506062452E+02  0.24308838405E+02  0.00000000000E+00 0.  1.
</event>
<event>
 7    1  0.3750159E-013  0.5930196E+02  0.7816164E-02  0.1266605E+00
        -11   -1    0    0    0    0  0.00000000000E+00  0.00000000000E+00  0.45593999997E+02  0.45594000000E+02  0.51100000000E-03 0.  1.
         11   -1    0    0    0    0 -0.00000000000E+00 -0.00000000000E+00 -0.45593999997E+02  0.45594000000E+02  0.51100000000E-03 0. -1.
    9900012    2    1    2    0    0  0.30715341016E+02 -0.57378888384E+01 -0.63532870920E+01  0.59301956048E+02  0.50000021922E+02 0.  0.
        -12    1    1    2    0    0 -0.30715341016E+02  0.57378888384E+01  0.63532870920E+01  0.31886043952E+02  0.00000000000E+00 0.  1.
         11    1    3    3    0    0  0.24294981027E+02 -0.90605143189E+01 -0.13079867133E+02  0.29041727691E+02  0.51100000000E-03 0. -1.
        -11    1    3    3    0    0  0.77089243451E+01  0.13617324973E+02 -0.31205934176E+01  0.15956100950E+02  0.51100000000E-03 0.  1.
         12    1    3    3    0    0 -0.12885643564E+01 -0.10294699493E+02  0.98471734583E+01  0.14304127407E+02  0.00000000000E+00 0. -1.
</event>
<event>
 7    1  0.3750159E-013  0.5930197E+02  0.7816164E-02  0.1266605E+00
        -11   -1    0    0    0    0  0.00000000000E+00  0.00000000000E+00  0.45593999997E+02  0.45594000000E+02  0.51100000000E-03 0. -1.
         11   -1    0    0    0    0 -0.00000000000E+00 -0.00000000000E+00 -0.45593999997E+02  0.45594000000E+02  0.51100000000E-03 0.  1.
    9900012    2    1    2    0    0  0.23947778021E+02  0.21026870610E+02  0.10457110896E+01  0.59301970591E+02  0.50000048444E+02 0.  0.
        -12    1    1    2    0    0 -0.23947778021E+02 -0.21026870610E+02 -0.10457110896E+01  0.31886029409E+02  0.00000000000E+00 0.  1.
         11    1    3    3    0    0  0.81344861153E+01 -0.67853394944E+01 -0.25233606574E+01  0.10889354695E+02  0.51100000000E-03 0. -1.
        -11    1    3    3    0    0  0.86512373682E+01 -0.78817437492E+01 -0.88043362254E+00  0.11736309307E+02  0.51100000000E-03 0.  1.
         12    1    3    3    0    0  0.71620545378E+01  0.35693953854E+02  0.44495053695E+01  0.36676306588E+02  0.00000000000E+00 0. -1.
</event>
<event>
 7    1  0.3750159E-013  0.5930194E+02  0.7816164E-02  0.1266605E+00
        -11   -1    0    0    0    0  0.00000000000E+00  0.00000000000E+00  0.45593999997E+02  0.45594000000E+02  0.51100000000E-03 0.  1.
         11   -1    0    0    0    0 -0.00000000000E+00 -0.00000000000E+00 -0.45593999997E+02  0.45594000000E+02  0.51100000000E-03 0. -1.
    9900012    2    1    2    0    0  0.32164652577E+00 -0.70000616641E+01 -0.31106529859E+02  0.59301944746E+02  0.50000001310E+02 0.  0.
        -12    1    1    2    0    0 -0.32164652577E+00  0.70000616641E+01  0.31106529859E+02  0.31886055254E+02  0.00000000000E+00 0.  1.
         11    1    3    3    0    0  0.80669576836E+01 -0.13226205662E+02 -0.11178727674E+02  0.19104247568E+02  0.51100000000E-03 0. -1.
        -11    1    3    3    0    0 -0.53103549650E+01 -0.51294403901E+01 -0.26045132469E+02  0.27071386262E+02  0.51100000000E-03 0.  1.
        -12    1    3    3    0    0 -0.24349561928E+01  0.11355584388E+02  0.61173302835E+01  0.13126310915E+02  0.00000000000E+00 0.  1.
</event>
<event>
 7    1  0.3750159E-013  0.5930195E+02  0.7816164E-02  0.1266605E+00
        -11   -1    0    0    0    0  0.00000000000E+00  0.00000000000E+00  0.45593999997E+02  0.45594000000E+02  0.51100000000E-03 0.  1.
         11   -1    0    0    0    0 -0.00000000000E+00 -0.00000000000E+00 -0.45593999997E+02  0.45594000000E+02  0.51100000000E-03 0. -1.
    9900012    2    1    2    0    0 -0.31710431947E+02  0.16757089274E+01 -0.28914682220E+01  0.59301951591E+02  0.50000013793E+02 0.  0.
        -12    1    1    2    0    0  0.31710431947E+02 -0.16757089274E+01  0.28914682220E+01  0.31886048409E+02  0.00000000000E+00 0.  1.
         11    1    3    3    0    0 -0.24342809821E+02  0.21069361705E+02  0.37727791125E+01  0.32414877065E+02  0.51100000000E-03 0. -1.
        -11    1    3    3    0    0 -0.56096337172E+01  0.77102659233E+00 -0.30550600210E+00  0.56706090172E+01  0.51100000000E-03 0.  1.
         12    1    3    3    0    0 -0.17579884092E+01 -0.20164679370E+02 -0.63587413324E+01  0.21216465509E+02  0.00000000000E+00 0. -1.
</event>
<event>
 7    1  0.3750159E-013  0.5930195E+02  0.7816164E-02  0.1266605E+00
        -11   -1    0    0    0    0  0.00000000000E+00  0.00000000000E+00  0.45593999997E+02  0.45594000000E+02  0.51100000000E-03 0.  1.
         11   -1    0    0    0    0 -0.00000000000E+00 -0.00000000000E+00 -0.45593999997E+02  0.45594000000E+02  0.51100000000E-03 0. -1.
    9900012    2    1    2    0    0  0.29449088343E+02 -0.11990749549E+02  0.23861052325E+01  0.59301946981E+02  0.50000005385E+02 0.  0.
        -12    1    1    2    0    0 -0.29449088343E+02  0.11990749549E+02 -0.23861052325E+01  0.31886053019E+02  0.00000000000E+00 0.  1.
         11    1    3    3    0    0  0.39855218976E+01  0.29017615214E+01 -0.73615246225E+01  0.88598335059E+01  0.51100000000E-03 0. -1.
        -11    1    3    3    0    0 -0.99893080292E+01  0.37105107895E+00  0.60070955020E+01  0.11662296105E+02  0.51100000000E-03 0.  1.
         12    1    3    3    0    0  0.35452874475E+02 -0.15263562149E+02  0.37405343529E+01  0.38779817370E+02  0.00000000000E+00 0. -1.
</event>
<event>
 7    1  0.4978329E-013  0.5930192E+02  0.7816164E-02  0.1266605E+00
        -11   -1    0    0    0    0  0.00000000000E+00  0.00000000000E+00  0.45593999997E+02  0.45594000000E+02  0.51100000000E-03 0. -1.
         11   -1    0    0    0    0 -0.00000000000E+00 -0.00000000000E+00 -0.45593999997E+02  0.45594000000E+02  0.51100000000E-03 0.  1.
    9900012    2    1    2    0    0  0.38329998095E+00 -0.13769926076E+02  0.28756986851E+02  0.59301920345E+02  0.49999956808E+02 0.  0.
        -12    1    1    2    0    0 -0.38329998095E+00  0.13769926076E+02 -0.28756986851E+02  0.31886079655E+02  0.00000000000E+00 0.  1.
         11    1    3    3    0    0  0.53406938688E+00  0.60108157500E+01  0.12538416002E+01  0.61633801692E+01  0.51100000000E-03 0. -1.
        -11    1    3    3    0    0 -0.52312312115E+01  0.52523888400E+01 -0.70089631996E+01  0.10201908346E+02  0.51100000000E-03 0.  1.
         12    1    3    3    0    0  0.50804618056E+01 -0.25033130666E+02  0.34512108451E+02  0.42936631829E+02  0.00000000000E+00 0. -1.
</event>
<event>
 7    1  0.3750159E-013  0.5930193E+02  0.7816164E-02  0.1266605E+00
        -11   -1    0    0    0    0  0.00000000000E+00  0.00000000000E+00  0.45593999997E+02  0.45594000000E+02  0.51100000000E-03 0. -1.
         11   -1    0    0    0    0 -0.00000000000E+00 -0.00000000000E+00 -0.45593999997E+02  0.45594000000E+02  0.51100000000E-03 0.  1.
    9900012    2    1    2    0    0 -0.22920574016E+02  0.20253221020E+02  0.90097755150E+01  0.59301925771E+02  0.49999966704E+02 0.  0.
        -12    1    1    2    0    0  0.22920574016E+02 -0.20253221020E+02 -0.90097755150E+01  0.31886074229E+02  0.00000000000E+00 0.  1.
         11    1    3    3    0    0 -0.57736430783E+01 -0.44186474825E+01 -0.35421301796E+01  0.80874029479E+01  0.51100000000E-03 0. -1.
        -11    1    3    3    0    0  0.10872913593E+02  0.31173886121E+01 -0.42378591759E+01  0.12078816681E+02  0.51100000000E-03 0.  1.
         12    1    3    3    0    0 -0.28019844531E+02  0.21554479890E+02  0.16789764870E+02  0.39135706142E+02  0.00000000000E+00 0. -1.
</event>
<event>
 7    1  0.3750159E-013  0.5930186E+02  0.7816164E-02  0.1266605E+00
        -11   -1    0    0    0    0  0.00000000000E+00  0.00000000000E+00  0.45593999997E+02  0.45594000000E+02  0.51100000000E-03 0. -1.
         11   -1    0    0    0    0 -0.00000000000E+00 -0.00000000000E+00 -0.45593999997E+02  0.45594000000E+02  0.51100000000E-03 0.  1.
    9900012    2    1    2    0    0 -0.24709625690E+02 -0.20130488137E+02  0.96111681516E+00  0.59301860379E+02  0.49999847445E+02 0.  0.
        -12    1    1    2    0    0  0.24709625690E+02  0.20130488137E+02 -0.96111681516E+00  0.31886139621E+02  0.00000000000E+00 0.  1.
         11    1    3    3    0    0 -0.24146421906E+02 -0.18260313723E+02  0.10026499567E+02  0.31890742260E+02  0.51100000000E-03 0. -1.
        -11    1    3    3    0    0 -0.23176651971E+01 -0.10684847367E+02  0.39234503367E+01  0.11615980287E+02  0.51100000000E-03 0.  1.
        -12    1    3    3    0    0  0.17544614124E+01  0.88146729527E+01 -0.12988833088E+02  0.15795137831E+02  0.00000000000E+00 0.  1.
</event>
<event>
 7    1  0.3750159E-013  0.5930196E+02  0.7816164E-02  0.1266605E+00
        -11   -1    0    0    0    0  0.00000000000E+00  0.00000000000E+00  0.45593999997E+02  0.45594000000E+02  0.51100000000E-03 0.  1.
         11   -1    0    0    0    0 -0.00000000000E+00 -0.00000000000E+00 -0.45593999997E+02  0.45594000000E+02  0.51100000000E-03 0. -1.
    9900012    2    1    2    0    0  0.30173128668E+02  0.33272511217E+01 -0.97586461045E+01  0.59301961246E+02  0.50000031401E+02 0.  0.
        -12    1    1    2    0    0 -0.30173128668E+02 -0.33272511217E+01  0.97586461045E+01  0.31886038754E+02  0.00000000000E+00 0.  1.
         11    1    3    3    0    0  0.85118016519E+01 -0.66759618645E+01 -0.77626480434E+01  0.13314576189E+02  0.51100000000E-03 0. -1.
        -11    1    3    3    0    0  0.18173956617E+02 -0.95481232537E+01  0.99477191077E+01  0.22812638437E+02  0.51100000000E-03 0.  1.
        -12    1    3    3    0    0  0.34873703997E+01  0.19551336240E+02 -0.11943717169E+02  0.23174746619E+02  0.00000000000E+00 0.  1.
</event>
<event>
 7    1  0.3750159E-013  0.5930194E+02  0.7816164E-02  0.1266605E+00
        -11   -1    0    0    0    0  0.00000000000E+00  0.00000000000E+00  0.45593999997E+02  0.45594000000E+02  0.51100000000E-03 0.  1.
         11   -1    0    0    0    0 -0.00000000000E+00 -0.00000000000E+00 -0.45593999997E+02  0.45594000000E+02  0.51100000000E-03 0. -1.
    9900012    2    1    2    0    0  0.25571906414E+01 -0.26858492302E+02 -0.16994195734E+02  0.59301944720E+02  0.50000001262E+02 0.  0.
        -12    1    1    2    0    0 -0.25571906414E+01  0.26858492302E+02  0.16994195734E+02  0.31886055280E+02  0.00000000000E+00 0.  1.
         11    1    3    3    0    0  0.34145833445E+01 -0.34877362715E+02 -0.21559545554E+01  0.35110368122E+02  0.51100000000E-03 0. -1.
        -11    1    3    3    0    0 -0.22815888523E+01  0.69118643314E+01  0.17658080449E+01  0.74898327444E+01  0.51100000000E-03 0.  1.
        -12    1    3    3    0    0  0.14241961492E+01  0.11070060816E+01 -0.16604049223E+02  0.16701743853E+02  0.00000000000E+00 0.  1.
</event>
<event>
 7    1  0.3750159E-013  0.5930196E+02  0.7816164E-02  0.1266605E+00
        -11   -1    0    0    0    0  0.00000000000E+00  0.00000000000E+00  0.45593999997E+02  0.45594000000E+02  0.51100000000E-03 0.  1.
         11   -1    0    0    0    0 -0.00000000000E+00 -0.00000000000E+00 -0.45593999997E+02  0.45594000000E+02  0.51100000000E-03 0. -1.
    9900012    2    1    2    0    0  0.51133618947E+01 -0.15657866793E+02 -0.27302095070E+02  0.59301958264E+02  0.50000025964E+02 0.  0.
        -12    1    1    2    0    0 -0.51133618947E+01  0.15657866793E+02  0.27302095070E+02  0.31886041736E+02  0.00000000000E+00 0.  1.
         11    1    3    3    0    0  0.25293602946E+01 -0.85350867784E+00 -0.11991130028E+02  0.12284679083E+02  0.51100000000E-03 0. -1.
        -11    1    3    3    0    0 -0.15583002949E+02 -0.18079372097E+02 -0.15672626478E+02  0.28553894609E+02  0.51100000000E-03 0.  1.
         12    1    3    3    0    0  0.18167004549E+02  0.32750139822E+01  0.36166143606E+00  0.18463384573E+02  0.00000000000E+00 0. -1.
</event>
<event>
 7    1  0.3750159E-013  0.5930195E+02  0.7816164E-02  0.1266605E+00
        -11   -1    0    0    0    0  0.00000000000E+00  0.00000000000E+00  0.45593999997E+02  0.45594000000E+02  0.51100000000E-03 0.  1.
         11   -1    0    0    0    0 -0.00000000000E+00 -0.00000000000E+00 -0.45593999997E+02  0.45594000000E+02  0.51100000000E-03 0. -1.
    9900012    2    1    2    0    0 -0.31682699599E+02  0.13825032693E+01  0.33189491875E+01  0.59301949871E+02  0.50000010656E+02 0.  0.
        -12    1    1    2    0    0  0.31682699599E+02 -0.13825032693E+01 -0.33189491875E+01  0.31886050129E+02  0.00000000000E+00 0.  1.
         11    1    3    3    0    0 -0.70181342525E+01 -0.67381712217E+01 -0.52232763517E+01  0.11042634464E+02  0.51100000000E-03 0. -1.
        -11    1    3    3    0    0 -0.51798282983E+01 -0.13568651667E+02 -0.59557879581E+01  0.15697462843E+02  0.51100000000E-03 0.  1.
         12    1    3    3    0    0 -0.19484737048E+02  0.21689326158E+02  0.14498013497E+02  0.32561852563E+02  0.00000000000E+00 0. -1.
</event>
<event>
 7    1  0.3750159E-013  0.5930195E+02  0.7816164E-02  0.1266605E+00
        -11   -1    0    0    0    0  0.00000000000E+00  0.00000000000E+00  0.45593999997E+02  0.45594000000E+02  0.51100000000E-03 0.  1.
         11   -1    0    0    0    0 -0.00000000000E+00 -0.00000000000E+00 -0.45593999997E+02  0.45594000000E+02  0.51100000000E-03 0. -1.
    9900012    2    1    2    0    0 -0.30559148767E+02 -0.75047105383E+01 -0.51515255628E+01  0.59301945537E+02  0.50000002752E+02 0.  0.
        -12    1    1    2    0    0  0.30559148767E+02  0.75047105383E+01  0.51515255628E+01  0.31886054463E+02  0.00000000000E+00 0.  1.
         11    1    3    3    0    0 -0.22164745395E+02  0.10525245014E+02  0.22747121604E+01  0.24642058289E+02  0.51100000000E-03 0. -1.
        -11    1    3    3    0    0 -0.14421333483E+02 -0.16524654761E+02  0.33837628919E+01  0.22192091519E+02  0.51100000000E-03 0.  1.
         12    1    3    3    0    0  0.60269301118E+01 -0.15053007910E+01 -0.10810000615E+02  0.12467795729E+02  0.00000000000E+00 0. -1.
</event>
<event>
 7    1  0.3750159E-013  0.5930194E+02  0.7816164E-02  0.1266605E+00
        -11   -1    0    0    0    0  0.00000000000E+00  0.00000000000E+00  0.45593999997E+02  0.45594000000E+02  0.51100000000E-03 0. -1.
         11   -1    0    0    0    0 -0.00000000000E+00 -0.00000000000E+00 -0.45593999997E+02  0.45594000000E+02  0.51100000000E-03 0.  1.
    9900012    2    1    2    0    0  0.21278783341E+02 -0.12896968728E+02  0.19939967979E+02  0.59301941199E+02  0.49999994841E+02 0.  0.
        -12    1    1    2    0    0 -0.21278783341E+02  0.12896968728E+02 -0.19939967979E+02  0.31886058801E+02  0.00000000000E+00 0.  1.
         11    1    3    3    0    0  0.11892788562E+02  0.23848436666E+01  0.20892266030E+02  0.24158076895E+02  0.51100000000E-03 0. -1.
        -11    1    3    3    0    0  0.40078552977E+01  0.92127709067E+01 -0.56862038514E+00  0.10062871423E+02  0.51100000000E-03 0.  1.
        -12    1    3    3    0    0  0.53781394809E+01 -0.24494583301E+02 -0.38367766621E+00  0.25080992882E+02  0.00000000000E+00 0.  1.
</event>
<event>
 7    1  0.3750159E-013  0.5930193E+02  0.7816164E-02  0.1266605E+00
        -11   -1    0    0    0    0  0.00000000000E+00  0.00000000000E+00  0.45593999997E+02  0.45594000000E+02  0.51100000000E-03 0.  1.
         11   -1    0    0    0    0 -0.00000000000E+00 -0.00000000000E+00 -0.45593999997E+02  0.45594000000E+02  0.51100000000E-03 0. -1.
    9900012    2    1    2    0    0 -0.18678694002E+02 -0.68952594077E+01 -0.24905489431E+02  0.59301927559E+02  0.49999969964E+02 0.  0.
        -12    1    1    2    0    0  0.18678694002E+02  0.68952594077E+01  0.24905489431E+02  0.31886072441E+02  0.00000000000E+00 0.  1.
         11    1    3    3    0    0  0.44801251961E+00 -0.19461762231E+02 -0.18603625431E+02  0.26926859894E+02  0.51100000000E-03 0. -1.
        -11    1    3    3    0    0 -0.65836456716E+01  0.57379301476E+01 -0.13734060773E+02  0.16275523287E+02  0.51100000000E-03 0.  1.
        -12    1    3    3    0    0 -0.12543060851E+02  0.68285726754E+01  0.74321967724E+01  0.16099544377E+02  0.00000000000E+00 0.  1.
</event>
<event>
 7    1  0.3750159E-013  0.5930195E+02  0.7816164E-02  0.1266605E+00
        -11   -1    0    0    0    0  0.00000000000E+00  0.00000000000E+00  0.45593999997E+02  0.45594000000E+02  0.51100000000E-03 0.  1.
         11   -1    0    0    0    0 -0.00000000000E+00 -0.00000000000E+00 -0.45593999997E+02  0.45594000000E+02  0.51100000000E-03 0. -1.
    9900012    2    1    2    0    0  0.93801015776E+01  0.13870512371E+02 -0.27135640000E+02  0.59301946979E+02  0.50000005382E+02 0.  0.
        -12    1    1    2    0    0 -0.93801015776E+01 -0.13870512371E+02  0.27135640000E+02  0.31886053021E+02  0.00000000000E+00 0.  1.
         11    1    3    3    0    0  0.84813957599E+01  0.53490212778E+01 -0.96058985691E+01  0.13885942181E+02  0.51100000000E-03 0. -1.
        -11    1    3    3    0    0 -0.17107514352E+02  0.79116153140E+01 -0.19705648002E+02  0.27268539888E+02  0.51100000000E-03 0.  1.
         12    1    3    3    0    0  0.18006220170E+02  0.60987577964E+00  0.21759065708E+01  0.18147464910E+02  0.00000000000E+00 0. -1.
</event>
<event>
 7    1  0.3750159E-013  0.5930195E+02  0.7816164E-02  0.1266605E+00
        -11   -1    0    0    0    0  0.00000000000E+00  0.00000000000E+00  0.45593999997E+02  0.45594000000E+02  0.51100000000E-03 0.  1.
         11   -1    0    0    0    0 -0.00000000000E+00 -0.00000000000E+00 -0.45593999997E+02  0.45594000000E+02  0.51100000000E-03 0. -1.
    9900012    2    1    2    0    0  0.12310763907E+02 -0.29209705542E+02 -0.34581303845E+01  0.59301945500E+02  0.50000002684E+02 0.  0.
        -12    1    1    2    0    0 -0.12310763907E+02  0.29209705542E+02  0.34581303845E+01  0.31886054500E+02  0.00000000000E+00 0.  1.
         11    1    3    3    0    0  0.52383828000E+01 -0.24711595218E+01  0.37141084895E+01  0.68805440101E+01  0.51100000000E-03 0.  1.
        -11    1    3    3    0    0  0.18780318038E+02 -0.65850523800E+01  0.11116048836E+02  0.22795389938E+02  0.51100000000E-03 0. -1.
         12    1    3    3    0    0 -0.11707936931E+02 -0.20153493641E+02 -0.18288287710E+02  0.29626011552E+02  0.00000000000E+00 0. -1.
</event>
<event>
 7    1  0.3750159E-013  0.5930180E+02  0.7816164E-02  0.1266605E+00
        -11   -1    0    0    0    0  0.00000000000E+00  0.00000000000E+00  0.45593999997E+02  0.45594000000E+02  0.51100000000E-03 0. -1.
         11   -1    0    0    0    0 -0.00000000000E+00 -0.00000000000E+00 -0.45593999997E+02  0.45594000000E+02  0.51100000000E-03 0.  1.
    9900012    2    1    2    0    0  0.82273673837E+01 -0.14430643504E+02  0.27217583456E+02  0.59301797730E+02  0.49999733188E+02 0.  0.
        -12    1    1    2    0    0 -0.82273673837E+01  0.14430643504E+02 -0.27217583456E+02  0.31886202270E+02  0.00000000000E+00 0.  1.
         11    1    3    3    0    0 -0.18892383913E+02 -0.48117063882E+01  0.12054296796E+01  0.19532735325E+02  0.51100000000E-03 0. -1.
        -11    1    3    3    0    0  0.51227897434E+01 -0.24521764189E+01  0.11252417120E+01  0.57898456902E+01  0.51100000000E-03 0.  1.
        -12    1    3    3    0    0  0.21996961554E+02 -0.71667606968E+01  0.24886912065E+02  0.33979216715E+02  0.00000000000E+00 0.  1.
</event>
<event>
 7    1  0.3750159E-013  0.5930195E+02  0.7816164E-02  0.1266605E+00
        -11   -1    0    0    0    0  0.00000000000E+00  0.00000000000E+00  0.45593999997E+02  0.45594000000E+02  0.51100000000E-03 0.  1.
         11   -1    0    0    0    0 -0.00000000000E+00 -0.00000000000E+00 -0.45593999997E+02  0.45594000000E+02  0.51100000000E-03 0. -1.
    9900012    2    1    2    0    0  0.17620536486E+00 -0.50839801350E+01 -0.31477647041E+02  0.59301950298E+02  0.50000011436E+02 0.  0.
        -12    1    1    2    0    0 -0.17620536486E+00  0.50839801350E+01  0.31477647041E+02  0.31886049702E+02  0.00000000000E+00 0.  1.
         11    1    3    3    0    0  0.12919927472E+02  0.96957616078E+01 -0.17767946959E+02  0.24013168438E+02  0.51100000000E-03 0. -1.
        -11    1    3    3    0    0 -0.67692860992E+01  0.25381617883E+01  0.52422504718E+01  0.89301002137E+01  0.51100000000E-03 0.  1.
        -12    1    3    3    0    0 -0.59744360080E+01 -0.17317903531E+02 -0.18951950554E+02  0.26358681646E+02  0.00000000000E+00 0.  1.
</event>
<event>
 7    1  0.3750159E-013  0.5930227E+02  0.7816164E-02  0.1266604E+00
        -11   -1    0    0    0    0  0.00000000000E+00  0.00000000000E+00  0.45593999997E+02  0.45594000000E+02  0.51100000000E-03 0. -1.
         11   -1    0    0    0    0 -0.00000000000E+00 -0.00000000000E+00 -0.45593999997E+02  0.45594000000E+02  0.51100000000E-03 0.  1.
    9900012    2    1    2    0    0  0.74186620780E+01  0.23781997250E+02  0.19901752326E+02  0.59302271439E+02  0.50000597116E+02 0.  0.
        -12    1    1    2    0    0 -0.74186620780E+01 -0.23781997250E+02 -0.19901752326E+02  0.31885728561E+02  0.00000000000E+00 0.  1.
         11    1    3    3    0    0  0.48708715928E+01  0.22290127533E+02 -0.38932790057E+01  0.23145902384E+02  0.51100000000E-03 0.  1.
        -11    1    3    3    0    0 -0.39754233001E+00  0.11251929649E+02  0.23383958602E+02  0.25953294221E+02  0.51100000000E-03 0. -1.
        -12    1    3    3    0    0  0.29453328151E+01 -0.97600599323E+01  0.41107273001E+00  0.10203074834E+02  0.00000000000E+00 0.  1.
</event>
<event>
 7    1  0.3750159E-013  0.5930194E+02  0.7816164E-02  0.1266605E+00
        -11   -1    0    0    0    0  0.00000000000E+00  0.00000000000E+00  0.45593999997E+02  0.45594000000E+02  0.51100000000E-03 0. -1.
         11   -1    0    0    0    0 -0.00000000000E+00 -0.00000000000E+00 -0.45593999997E+02  0.45594000000E+02  0.51100000000E-03 0.  1.
    9900012    2    1    2    0    0  0.30454830376E+02  0.38489441349E+00  0.94379973039E+01  0.59301943015E+02  0.49999998154E+02 0.  0.
        -12    1    1    2    0    0 -0.30454830376E+02 -0.38489441349E+00 -0.94379973039E+01  0.31886056985E+02  0.00000000000E+00 0.  1.
         11    1    3    3    0    0  0.23262832903E+02 -0.21301405467E+01  0.19662460451E+02  0.30533739447E+02  0.51100000000E-03 0. -1.
        -11    1    3    3    0    0  0.46940802966E+01  0.68684302745E+01  0.69718873315E+01  0.10854351086E+02  0.51100000000E-03 0.  1.
        -12    1    3    3    0    0  0.24979171763E+01 -0.43533953143E+01 -0.17196350478E+02  0.17913852482E+02  0.00000000000E+00 0.  1.
</event>
<event>
 7    1  0.3750159E-013  0.5930193E+02  0.7816164E-02  0.1266605E+00
        -11   -1    0    0    0    0  0.00000000000E+00  0.00000000000E+00  0.45593999997E+02  0.45594000000E+02  0.51100000000E-03 0.  1.
         11   -1    0    0    0    0 -0.00000000000E+00 -0.00000000000E+00 -0.45593999997E+02  0.45594000000E+02  0.51100000000E-03 0. -1.
    9900012    2    1    2    0    0 -0.18353674318E+02  0.34877767627E+01 -0.25839883368E+02  0.59301929057E+02  0.49999972697E+02 0.  0.
        -12    1    1    2    0    0  0.18353674318E+02 -0.34877767627E+01  0.25839883368E+02  0.31886070943E+02  0.00000000000E+00 0.  1.
         11    1    3    3    0    0  0.56064033839E+01 -0.73960350923E+01 -0.65842957646E+01  0.11379193511E+02  0.51100000000E-03 0. -1.
        -11    1    3    3    0    0 -0.92747869354E+01  0.10570864000E+02  0.85626816251E+01  0.16464639543E+02  0.51100000000E-03 0.  1.
         12    1    3    3    0    0 -0.14685290767E+02  0.31294785524E+00 -0.27818269228E+02  0.31458096003E+02  0.00000000000E+00 0. -1.
</event>
<event>
 7    1  0.3750159E-013  0.5930191E+02  0.7816164E-02  0.1266605E+00
        -11   -1    0    0    0    0  0.00000000000E+00  0.00000000000E+00  0.45593999997E+02  0.45594000000E+02  0.51100000000E-03 0.  1.
         11   -1    0    0    0    0 -0.00000000000E+00 -0.00000000000E+00 -0.45593999997E+02  0.45594000000E+02  0.51100000000E-03 0. -1.
    9900012    2    1    2    0    0  0.68869597016E+01  0.28924443740E+02 -0.11518198141E+02  0.59301912940E+02  0.49999943303E+02 0.  0.
        -12    1    1    2    0    0 -0.68869597016E+01 -0.28924443740E+02  0.11518198141E+02  0.31886087060E+02  0.00000000000E+00 0.  1.
         11    1    3    3    0    0  0.13709024227E+02  0.50387107315E+01 -0.16363397493E+02  0.21933689359E+02  0.51100000000E-03 0. -1.
        -11    1    3    3    0    0 -0.34947383724E+01  0.56157924355E+00  0.12186926149E+02  0.12690537292E+02  0.51100000000E-03 0.  1.
        -12    1    3    3    0    0 -0.33273261534E+01  0.23324153765E+02 -0.73417267968E+01  0.24677686288E+02  0.00000000000E+00 0.  1.
</event>
<event>
 7    1  0.3750159E-013  0.5930195E+02  0.7816164E-02  0.1266605E+00
        -11   -1    0    0    0    0  0.00000000000E+00  0.00000000000E+00  0.45593999997E+02  0.45594000000E+02  0.51100000000E-03 0. -1.
         11   -1    0    0    0    0 -0.00000000000E+00 -0.00000000000E+00 -0.45593999997E+02  0.45594000000E+02  0.51100000000E-03 0.  1.
    9900012    2    1    2    0    0  0.14288436306E+02  0.25907250311E+02  0.11890126714E+02  0.59301950636E+02  0.50000012052E+02 0.  0.
        -12    1    1    2    0    0 -0.14288436306E+02 -0.25907250311E+02 -0.11890126714E+02  0.31886049364E+02  0.00000000000E+00 0.  1.
         11    1    3    3    0    0  0.58232527265E+01  0.16144689390E+02  0.18517538605E+00  0.17163786238E+02  0.51100000000E-03 0. -1.
        -11    1    3    3    0    0  0.15748103361E+02  0.20837415163E+02  0.30237866927E+01  0.26293419640E+02  0.51100000000E-03 0.  1.
         12    1    3    3    0    0 -0.72829197813E+01 -0.11074854242E+02  0.86811646354E+01  0.15844744758E+02  0.00000000000E+00 0. -1.
</event>
<event>
 7    1  0.3750159E-013  0.5930195E+02  0.7816164E-02  0.1266605E+00
        -11   -1    0    0    0    0  0.00000000000E+00  0.00000000000E+00  0.45593999997E+02  0.45594000000E+02  0.51100000000E-03 0. -1.
         11   -1    0    0    0    0 -0.00000000000E+00 -0.00000000000E+00 -0.45593999997E+02  0.45594000000E+02  0.51100000000E-03 0.  1.
    9900012    2    1    2    0    0 -0.27267006207E+02  0.14504269192E+02  0.79282091003E+01  0.59301953650E+02  0.50000017549E+02 0.  0.
        -12    1    1    2    0    0  0.27267006207E+02 -0.14504269192E+02 -0.79282091003E+01  0.31886046350E+02  0.00000000000E+00 0.  1.
         11    1    3    3    0    0 -0.10736012646E+02  0.78247278973E+01  0.98552333804E+01  0.16541280466E+02  0.51100000000E-03 0. -1.
        -11    1    3    3    0    0 -0.11736540273E+02  0.10148737410E+01  0.17991174559E+02  0.21504853139E+02  0.51100000000E-03 0.  1.
        -12    1    3    3    0    0 -0.47944532882E+01  0.56646675542E+01 -0.19918198839E+02  0.21255820046E+02  0.00000000000E+00 0.  1.
</event>
<event>
 7    1  0.4304636E-013  0.5930193E+02  0.7816164E-02  0.1266605E+00
        -11   -1    0    0    0    0  0.00000000000E+00  0.00000000000E+00  0.45593999997E+02  0.45594000000E+02  0.51100000000E-03 0.  1.
         11   -1    0    0    0    0 -0.00000000000E+00 -0.00000000000E+00 -0.45593999997E+02  0.45594000000E+02  0.51100000000E-03 0. -1.
    9900012    2    1    2    0    0 -0.14623852650E+02  0.20348119253E+02 -0.19718471781E+02  0.59301934817E+02  0.49999983202E+02 0.  0.
        -12    1    1    2    0    0  0.14623852650E+02 -0.20348119253E+02  0.19718471781E+02  0.31886065183E+02  0.00000000000E+00 0.  1.
         11    1    3    3    0    0 -0.55535891505E+01  0.20116817109E+02 -0.40218715299E+01  0.21253332301E+02  0.51100000000E-03 0. -1.
        -11    1    3    3    0    0 -0.10293940908E+01 -0.96429295773E+01  0.70435985050E+01  0.11985742496E+02  0.51100000000E-03 0.  1.
         12    1    3    3    0    0 -0.80408694089E+01  0.98742317216E+01 -0.22740198756E+02  0.26062860020E+02  0.00000000000E+00 0. -1.
</event>
<event>
 7    1  0.3750159E-013  0.5930194E+02  0.7816164E-02  0.1266605E+00
        -11   -1    0    0    0    0  0.00000000000E+00  0.00000000000E+00  0.45593999997E+02  0.45594000000E+02  0.51100000000E-03 0. -1.
         11   -1    0    0    0    0 -0.00000000000E+00 -0.00000000000E+00 -0.45593999997E+02  0.45594000000E+02  0.51100000000E-03 0.  1.
    9900012    2    1    2    0    0 -0.82584465201E+01  0.24611310221E+02  0.18514928387E+02  0.59301935600E+02  0.49999984630E+02 0.  0.
        -12    1    1    2    0    0  0.82584465201E+01 -0.24611310221E+02 -0.18514928387E+02  0.31886064400E+02  0.00000000000E+00 0.  1.
         11    1    3    3    0    0 -0.20608357570E+01 -0.54681278033E+01  0.18658699692E+01  0.61342429601E+01  0.51100000000E-03 0. -1.
        -11    1    3    3    0    0 -0.88346132707E+01 -0.78728811581E+01  0.75954699775E+01  0.14061430006E+02  0.51100000000E-03 0.  1.
         12    1    3    3    0    0  0.26370025075E+01  0.37952319183E+02  0.90535884404E+01  0.39106262634E+02  0.00000000000E+00 0. -1.
</event>
<event>
 7    1  0.3750159E-013  0.5930193E+02  0.7816164E-02  0.1266605E+00
        -11   -1    0    0    0    0  0.00000000000E+00  0.00000000000E+00  0.45593999997E+02  0.45594000000E+02  0.51100000000E-03 0. -1.
         11   -1    0    0    0    0 -0.00000000000E+00 -0.00000000000E+00 -0.45593999997E+02  0.45594000000E+02  0.51100000000E-03 0.  1.
    9900012    2    1    2    0    0 -0.16251019226E+02 -0.24381689156E+02 -0.12576134641E+02  0.59301928519E+02  0.49999971715E+02 0.  0.
        -12    1    1    2    0    0  0.16251019226E+02  0.24381689156E+02  0.12576134641E+02  0.31886071481E+02  0.00000000000E+00 0.  1.
         11    1    3    3    0    0 -0.88692618333E+01 -0.97453571898E+01 -0.16545311038E+02  0.21151432808E+02  0.51100000000E-03 0.  1.
        -11    1    3    3    0    0  0.34339077199E+01 -0.22117714032E+02 -0.40517132755E+01  0.22746458558E+02  0.51100000000E-03 0. -1.
        -12    1    3    3    0    0 -0.10815665113E+02  0.74813820653E+01  0.80208896729E+01  0.15404037152E+02  0.00000000000E+00 0.  1.
</event>
<event>
 7    1  0.3750159E-013  0.5930193E+02  0.7816164E-02  0.1266605E+00
        -11   -1    0    0    0    0  0.00000000000E+00  0.00000000000E+00  0.45593999997E+02  0.45594000000E+02  0.51100000000E-03 0.  1.
         11   -1    0    0    0    0 -0.00000000000E+00 -0.00000000000E+00 -0.45593999997E+02  0.45594000000E+02  0.51100000000E-03 0. -1.
    9900012    2    1    2    0    0 -0.18711912021E+02 -0.21952099274E+01 -0.25724829185E+02  0.59301930397E+02  0.49999975141E+02 0.  0.
        -12    1    1    2    0    0  0.18711912021E+02  0.21952099274E+01  0.25724829185E+02  0.31886069603E+02  0.00000000000E+00 0.  1.
         11    1    3    3    0    0 -0.21558903504E+01 -0.11425766096E+01 -0.19622030216E+02  0.19773148828E+02  0.51100000000E-03 0. -1.
        -11    1    3    3    0    0 -0.20580628341E+02  0.68759682736E+01 -0.15442893967E+02  0.26633140576E+02  0.51100000000E-03 0.  1.
        -12    1    3    3    0    0  0.40246066699E+01 -0.79286015913E+01  0.93400949984E+01  0.12895640993E+02  0.00000000000E+00 0.  1.
</event>
<event>
 7    1  0.3750159E-013  0.5930193E+02  0.7816164E-02  0.1266605E+00
        -11   -1    0    0    0    0  0.00000000000E+00  0.00000000000E+00  0.45593999997E+02  0.45594000000E+02  0.51100000000E-03 0.  1.
         11   -1    0    0    0    0 -0.00000000000E+00 -0.00000000000E+00 -0.45593999997E+02  0.45594000000E+02  0.51100000000E-03 0. -1.
    9900012    2    1    2    0    0 -0.12166276879E+02  0.29257089836E+02 -0.35673075404E+01  0.59301932794E+02  0.49999979513E+02 0.  0.
        -12    1    1    2    0    0  0.12166276879E+02 -0.29257089836E+02  0.35673075404E+01  0.31886067206E+02  0.00000000000E+00 0.  1.
         11    1    3    3    0    0  0.58055398831E+01  0.16356101560E+02  0.51891846094E+01  0.18115021080E+02  0.51100000000E-03 0. -1.
        -11    1    3    3    0    0  0.45086581211E+01 -0.47705057932E+01  0.61020956835E+01  0.89622148807E+01  0.51100000000E-03 0.  1.
         12    1    3    3    0    0 -0.22480474883E+02  0.17671494070E+02 -0.14858587833E+02  0.32224696834E+02  0.00000000000E+00 0. -1.
</event>
<event>
 7    1  0.3750159E-013  0.5930194E+02  0.7816164E-02  0.1266605E+00
        -11   -1    0    0    0    0  0.00000000000E+00  0.00000000000E+00  0.45593999997E+02  0.45594000000E+02  0.51100000000E-03 0. -1.
         11   -1    0    0    0    0 -0.00000000000E+00 -0.00000000000E+00 -0.45593999997E+02  0.45594000000E+02  0.51100000000E-03 0.  1.
    9900012    2    1    2    0    0  0.16973645471E+02 -0.23197686225E+02  0.13801579116E+02  0.59301939207E+02  0.49999991209E+02 0.  0.
        -12    1    1    2    0    0 -0.16973645471E+02  0.23197686225E+02 -0.13801579116E+02  0.31886060793E+02  0.00000000000E+00 0.  1.
         11    1    3    3    0    0  0.19560720566E+01 -0.29672896505E+02  0.79017644766E+01  0.30769219798E+02  0.51100000000E-03 0. -1.
        -11    1    3    3    0    0  0.68347141259E+01  0.27352829007E+01 -0.86917232106E+01  0.11390396936E+02  0.51100000000E-03 0.  1.
        -12    1    3    3    0    0  0.81828592890E+01  0.37399273794E+01  0.14591537850E+02  0.17142322473E+02  0.00000000000E+00 0.  1.
</event>
<event>
 7    1  0.3750159E-013  0.5930188E+02  0.7816164E-02  0.1266605E+00
        -11   -1    0    0    0    0  0.00000000000E+00  0.00000000000E+00  0.45593999997E+02  0.45594000000E+02  0.51100000000E-03 0.  1.
         11   -1    0    0    0    0 -0.00000000000E+00 -0.00000000000E+00 -0.45593999997E+02  0.45594000000E+02  0.51100000000E-03 0. -1.
    9900012    2    1    2    0    0 -0.41593852284E+01  0.99978116469E+01 -0.29991132650E+02  0.59301878241E+02  0.49999880020E+02 0.  0.
        -12    1    1    2    0    0  0.41593852284E+01 -0.99978116469E+01  0.29991132650E+02  0.31886121759E+02  0.00000000000E+00 0.  1.
         11    1    3    3    0    0 -0.78026872250E+00 -0.24956161689E+01 -0.20577340012E+02  0.20742802163E+02  0.51100000000E-03 0. -1.
        -11    1    3    3    0    0  0.11135326421E+02 -0.67833903473E+01 -0.53283998830E+01  0.14085514711E+02  0.51100000000E-03 0.  1.
        -12    1    3    3    0    0 -0.14514442927E+02  0.19276818163E+02 -0.40853927547E+01  0.24473561366E+02  0.00000000000E+00 0.  1.
</event>
<event>
 7    1  0.3750159E-013  0.5930192E+02  0.7816164E-02  0.1266605E+00
        -11   -1    0    0    0    0  0.00000000000E+00  0.00000000000E+00  0.45593999997E+02  0.45594000000E+02  0.51100000000E-03 0. -1.
         11   -1    0    0    0    0 -0.00000000000E+00 -0.00000000000E+00 -0.45593999997E+02  0.45594000000E+02  0.51100000000E-03 0.  1.
    9900012    2    1    2    0    0 -0.31285140843E+01 -0.29101136215E+01  0.31598513131E+02  0.59301915359E+02  0.49999947714E+02 0.  0.
        -12    1    1    2    0    0  0.31285140843E+01  0.29101136215E+01 -0.31598513131E+02  0.31886084641E+02  0.00000000000E+00 0.  1.
         11    1    3    3    0    0  0.20451413556E+01 -0.68422041049E+01 -0.39633845899E+01  0.81674217380E+01  0.51100000000E-03 0. -1.
        -11    1    3    3    0    0  0.15161720586E+02  0.28447439558E+01  0.97210164511E+01  0.18233718776E+02  0.51100000000E-03 0.  1.
         12    1    3    3    0    0 -0.20335376026E+02  0.10873465276E+01  0.25840881270E+02  0.32900774845E+02  0.00000000000E+00 0. -1.
</event>
<event>
 7    1  0.3750159E-013  0.5930190E+02  0.7816164E-02  0.1266605E+00
        -11   -1    0    0    0    0  0.00000000000E+00  0.00000000000E+00  0.45593999997E+02  0.45594000000E+02  0.51100000000E-03 0.  1.
         11   -1    0    0    0    0 -0.00000000000E+00 -0.00000000000E+00 -0.45593999997E+02  0.45594000000E+02  0.51100000000E-03 0. -1.
    9900012    2    1    2    0    0 -0.54624539169E+01 -0.69483666584E+01 -0.30636660981E+02  0.59301902747E+02  0.49999924713E+02 0.  0.
        -12    1    1    2    0    0  0.54624539169E+01  0.69483666584E+01  0.30636660981E+02  0.31886097253E+02  0.00000000000E+00 0.  1.
         11    1    3    3    0    0 -0.19078993333E+02 -0.13525866252E+02 -0.19250377065E+02  0.30290824714E+02  0.51100000000E-03 0.  1.
        -11    1    3    3    0    0  0.33784979768E+01 -0.48384260320E+01 -0.12307482508E+02  0.13649129679E+02  0.51100000000E-03 0. -1.
        -12    1    3    3    0    0  0.10238041439E+02  0.11415925625E+02  0.92119859207E+00  0.15361948354E+02  0.00000000000E+00 0.  1.
</event>
<event>
 7    1  0.3750159E-013  0.5930196E+02  0.7816164E-02  0.1266605E+00
        -11   -1    0    0    0    0  0.00000000000E+00  0.00000000000E+00  0.45593999997E+02  0.45594000000E+02  0.51100000000E-03 0. -1.
         11   -1    0    0    0    0 -0.00000000000E+00 -0.00000000000E+00 -0.45593999997E+02  0.45594000000E+02  0.51100000000E-03 0.  1.
    9900012    2    1    2    0    0 -0.21959561242E+02  0.22851980656E+02  0.35049214766E+01  0.59301955648E+02  0.50000021193E+02 0.  0.
        -12    1    1    2    0    0  0.21959561242E+02 -0.22851980656E+02 -0.35049214766E+01  0.31886044352E+02  0.00000000000E+00 0.  1.
         11    1    3    3    0    0 -0.21401419104E+02  0.12978704109E+02 -0.12006708653E+02  0.27760197279E+02  0.51100000000E-03 0. -1.
        -11    1    3    3    0    0 -0.94428384816E+01  0.34644536009E+01 -0.25871859090E+01  0.10385719452E+02  0.51100000000E-03 0.  1.
        -12    1    3    3    0    0  0.88846963435E+01  0.64088229462E+01  0.18098816039E+02  0.21156038918E+02  0.00000000000E+00 0.  1.
</event>
<event>
 7    1  0.3750159E-013  0.5930196E+02  0.7816164E-02  0.1266605E+00
        -11   -1    0    0    0    0  0.00000000000E+00  0.00000000000E+00  0.45593999997E+02  0.45594000000E+02  0.51100000000E-03 0.  1.
         11   -1    0    0    0    0 -0.00000000000E+00 -0.00000000000E+00 -0.45593999997E+02  0.45594000000E+02  0.51100000000E-03 0. -1.
    9900012    2    1    2    0    0 -0.14567826186E+02  0.23176426406E+02 -0.16350872259E+02  0.59301963489E+02  0.50000035493E+02 0.  0.
        -12    1    1    2    0    0  0.14567826186E+02 -0.23176426406E+02  0.16350872259E+02  0.31886036511E+02  0.00000000000E+00 0.  1.
         11    1    3    3    0    0 -0.11407583516E+02 -0.16754239518E+01 -0.73158846042E+01  0.13655115338E+02  0.51100000000E-03 0. -1.
        -11    1    3    3    0    0 -0.96125999501E+01 -0.40924087721E+01  0.63631182588E+01  0.12232708678E+02  0.51100000000E-03 0.  1.
         12    1    3    3    0    0  0.64523572801E+01  0.28944259130E+02 -0.15398105914E+02  0.33414139474E+02  0.00000000000E+00 0. -1.
</event>
<event>
 7    1  0.3750159E-013  0.5930194E+02  0.7816164E-02  0.1266605E+00
        -11   -1    0    0    0    0  0.00000000000E+00  0.00000000000E+00  0.45593999997E+02  0.45594000000E+02  0.51100000000E-03 0.  1.
         11   -1    0    0    0    0 -0.00000000000E+00 -0.00000000000E+00 -0.45593999997E+02  0.45594000000E+02  0.51100000000E-03 0. -1.
    9900012    2    1    2    0    0  0.14795974617E+02  0.23696167771E+02 -0.15371775368E+02  0.59301941764E+02  0.49999995871E+02 0.  0.
        -12    1    1    2    0    0 -0.14795974617E+02 -0.23696167771E+02  0.15371775368E+02  0.31886058236E+02  0.00000000000E+00 0.  1.
         11    1    3    3    0    0  0.12659741258E+01 -0.13024763942E+01  0.76915811035E+01  0.79031357940E+01  0.51100000000E-03 0. -1.
        -11    1    3    3    0    0 -0.36307086747E+01  0.21254187000E+02  0.10253741208E+01  0.21586428673E+02  0.51100000000E-03 0.  1.
         12    1    3    3    0    0  0.17160709166E+02  0.37444571647E+01 -0.24088730592E+02  0.29812377297E+02  0.00000000000E+00 0. -1.
</event>
<event>
 7    1  0.3750159E-013  0.5930193E+02  0.7816164E-02  0.1266605E+00
        -11   -1    0    0    0    0  0.00000000000E+00  0.00000000000E+00  0.45593999997E+02  0.45594000000E+02  0.51100000000E-03 0.  1.
         11   -1    0    0    0    0 -0.00000000000E+00 -0.00000000000E+00 -0.45593999997E+02  0.45594000000E+02  0.51100000000E-03 0. -1.
    9900012    2    1    2    0    0 -0.15100458098E+02  0.11703404588E+02 -0.25528957330E+02  0.59301934453E+02  0.49999982538E+02 0.  0.
        -12    1    1    2    0    0  0.15100458098E+02 -0.11703404588E+02  0.25528957330E+02  0.31886065547E+02  0.00000000000E+00 0.  1.
         11    1    3    3    0    0 -0.44987712439E+01 -0.10702853231E+02 -0.11241362710E+02  0.16160391265E+02  0.51100000000E-03 0. -1.
        -11    1    3    3    0    0 -0.15610681880E+01  0.66907084474E+01  0.10428782383E+02  0.12488475314E+02  0.51100000000E-03 0.  1.
        -12    1    3    3    0    0 -0.90406186664E+01  0.15715549372E+02 -0.24716377003E+02  0.30653067874E+02  0.00000000000E+00 0.  1.
</event>
<event>
 7    1  0.3750159E-013  0.5930195E+02  0.7816164E-02  0.1266605E+00
        -11   -1    0    0    0    0  0.00000000000E+00  0.00000000000E+00  0.45593999997E+02  0.45594000000E+02  0.51100000000E-03 0.  1.
         11   -1    0    0    0    0 -0.00000000000E+00 -0.00000000000E+00 -0.45593999997E+02  0.45594000000E+02  0.51100000000E-03 0. -1.
    9900012    2    1    2    0    0  0.20382627927E+02  0.12274391413E+02 -0.21227527624E+02  0.59301950781E+02  0.50000012316E+02 0.  0.
        -12    1    1    2    0    0 -0.20382627927E+02 -0.12274391413E+02  0.21227527624E+02  0.31886049219E+02  0.00000000000E+00 0.  1.
         11    1    3    3    0    0  0.76826146144E+01  0.36449779137E+01  0.38038014282E+01  0.93154354096E+01  0.51100000000E-03 0. -1.
        -11    1    3    3    0    0  0.51558743456E+01 -0.15691351648E+02 -0.40849989217E+01  0.17014369611E+02  0.51100000000E-03 0.  1.
         12    1    3    3    0    0  0.75441389671E+01  0.24320765147E+02 -0.20946330131E+02  0.32972145760E+02  0.00000000000E+00 0. -1.
</event>
<event>
 7    1  0.3750159E-013  0.5930194E+02  0.7816164E-02  0.1266605E+00
        -11   -1    0    0    0    0  0.00000000000E+00  0.00000000000E+00  0.45593999997E+02  0.45594000000E+02  0.51100000000E-03 0.  1.
         11   -1    0    0    0    0 -0.00000000000E+00 -0.00000000000E+00 -0.45593999997E+02  0.45594000000E+02  0.51100000000E-03 0. -1.
    9900012    2    1    2    0    0 -0.13084163997E+02  0.62188575942E+01 -0.28405130623E+02  0.59301937480E+02  0.49999988059E+02 0.  0.
        -12    1    1    2    0    0  0.13084163997E+02 -0.62188575942E+01  0.28405130623E+02  0.31886062520E+02  0.00000000000E+00 0.  1.
         11    1    3    3    0    0 -0.10936239207E+02  0.11127704283E+02 -0.30416178924E+02  0.34184368814E+02  0.51100000000E-03 0. -1.
        -11    1    3    3    0    0 -0.55762718069E+01 -0.97993495005E+01 -0.77448906007E+01  0.13678647176E+02  0.51100000000E-03 0.  1.
        -12    1    3    3    0    0  0.34283470162E+01  0.48905028115E+01  0.97559389014E+01  0.11438921490E+02  0.00000000000E+00 0.  1.
</event>
<event>
 7    1  0.3750159E-013  0.5930197E+02  0.7816164E-02  0.1266605E+00
        -11   -1    0    0    0    0  0.00000000000E+00  0.00000000000E+00  0.45593999997E+02  0.45594000000E+02  0.51100000000E-03 0. -1.
         11   -1    0    0    0    0 -0.00000000000E+00 -0.00000000000E+00 -0.45593999997E+02  0.45594000000E+02  0.51100000000E-03 0.  1.
    9900012    2    1    2    0    0  0.29971564260E+01  0.87689990293E+01  0.30509682901E+02  0.59301967928E+02  0.50000043588E+02 0.  0.
        -12    1    1    2    0    0 -0.29971564260E+01 -0.87689990293E+01 -0.30509682901E+02  0.31886032072E+02  0.00000000000E+00 0.  1.
         11    1    3    3    0    0  0.49448877519E+01  0.96056032990E+01  0.67229552123E+01  0.12724686898E+02  0.51100000000E-03 0. -1.
        -11    1    3    3    0    0  0.12430506650E+02  0.14073672112E+02  0.74682648493E+01  0.20207937114E+02  0.51100000000E-03 0.  1.
         12    1    3    3    0    0 -0.14378237976E+02 -0.14910276382E+02  0.16318462839E+02  0.26369343915E+02  0.00000000000E+00 0. -1.
</event>
<event>
 7    1  0.3750159E-013  0.5930193E+02  0.7816164E-02  0.1266605E+00
        -11   -1    0    0    0    0  0.00000000000E+00  0.00000000000E+00  0.45593999997E+02  0.45594000000E+02  0.51100000000E-03 0.  1.
         11   -1    0    0    0    0 -0.00000000000E+00 -0.00000000000E+00 -0.45593999997E+02  0.45594000000E+02  0.51100000000E-03 0. -1.
    9900012    2    1    2    0    0  0.14983520195E+02  0.45089005075E+01 -0.27782820136E+02  0.59301934769E+02  0.49999983115E+02 0.  0.
        -12    1    1    2    0    0 -0.14983520195E+02 -0.45089005075E+01  0.27782820136E+02  0.31886065231E+02  0.00000000000E+00 0.  1.
         11    1    3    3    0    0  0.12314200621E+01  0.87538713857E+01 -0.68830890228E+01  0.11203730377E+02  0.51100000000E-03 0. -1.
        -11    1    3    3    0    0  0.74614745190E+01  0.17193138522E+02 -0.20265574574E+01  0.18851645807E+02  0.51100000000E-03 0.  1.
        -12    1    3    3    0    0  0.62906256138E+01 -0.21438109400E+02 -0.18873173655E+02  0.29246558585E+02  0.00000000000E+00 0.  1.
</event>
<event>
 7    1  0.3750159E-013  0.5930197E+02  0.7816164E-02  0.1266605E+00
        -11   -1    0    0    0    0  0.00000000000E+00  0.00000000000E+00  0.45593999997E+02  0.45594000000E+02  0.51100000000E-03 0. -1.
         11   -1    0    0    0    0 -0.00000000000E+00 -0.00000000000E+00 -0.45593999997E+02  0.45594000000E+02  0.51100000000E-03 0.  1.
    9900012    2    1    2    0    0  0.27603112212E+02  0.14505982923E+02 -0.66605778847E+01  0.59301974187E+02  0.50000055004E+02 0.  0.
        -12    1    1    2    0    0 -0.27603112212E+02 -0.14505982923E+02  0.66605778847E+01  0.31886025813E+02  0.00000000000E+00 0.  1.
         11    1    3    3    0    0  0.80262909049E+01 -0.81974541725E+01  0.15301100392E+02  0.19124415653E+02  0.51100000000E-03 0. -1.
        -11    1    3    3    0    0  0.97534650379E+01  0.40721049600E+01 -0.12590439082E+01  0.10644120954E+02  0.51100000000E-03 0.  1.
        -12    1    3    3    0    0  0.98233562695E+01  0.18631332135E+02 -0.20702634369E+02  0.29533437581E+02  0.00000000000E+00 0.  1.
</event>
<event>
 7    1  0.3750159E-013  0.5930192E+02  0.7816164E-02  0.1266605E+00
        -11   -1    0    0    0    0  0.00000000000E+00  0.00000000000E+00  0.45593999997E+02  0.45594000000E+02  0.51100000000E-03 0. -1.
         11   -1    0    0    0    0 -0.00000000000E+00 -0.00000000000E+00 -0.45593999997E+02  0.45594000000E+02  0.51100000000E-03 0.  1.
    9900012    2    1    2    0    0 -0.15736840770E+02 -0.29001686783E+01  0.27580115301E+02  0.59301923166E+02  0.49999961954E+02 0.  0.
        -12    1    1    2    0    0  0.15736840770E+02  0.29001686783E+01 -0.27580115301E+02  0.31886076834E+02  0.00000000000E+00 0.  1.
         11    1    3    3    0    0 -0.22727156460E+01 -0.76328065374E+01  0.32400481500E+01  0.85978418408E+01  0.51100000000E-03 0. -1.
        -11    1    3    3    0    0 -0.18157730281E+01  0.21346901765E+01 -0.12068370632E+02  0.12389491669E+02  0.51100000000E-03 0.  1.
         12    1    3    3    0    0 -0.11648352096E+02  0.25979476826E+01  0.36408437784E+02  0.38314589657E+02  0.00000000000E+00 0. -1.
</event>
<event>
 7    1  0.3750159E-013  0.5930195E+02  0.7816164E-02  0.1266605E+00
        -11   -1    0    0    0    0  0.00000000000E+00  0.00000000000E+00  0.45593999997E+02  0.45594000000E+02  0.51100000000E-03 0.  1.
         11   -1    0    0    0    0 -0.00000000000E+00 -0.00000000000E+00 -0.45593999997E+02  0.45594000000E+02  0.51100000000E-03 0. -1.
    9900012    2    1    2    0    0  0.54546853208E+01 -0.15350490483E+01 -0.31378503873E+02  0.59301945481E+02  0.50000002650E+02 0.  0.
        -12    1    1    2    0    0 -0.54546853208E+01  0.15350490483E+01  0.31378503873E+02  0.31886054519E+02  0.00000000000E+00 0.  1.
         11    1    3    3    0    0  0.16755768327E+02 -0.60924540209E+01 -0.99522792655E+01  0.20418658895E+02  0.51100000000E-03 0. -1.
        -11    1    3    3    0    0  0.70386093035E+01 -0.76658932185E+01 -0.69592137330E+01  0.12519528578E+02  0.51100000000E-03 0.  1.
        -12    1    3    3    0    0 -0.18339692310E+02  0.12223298191E+02 -0.14467010874E+02  0.26363758008E+02  0.00000000000E+00 0.  1.
</event>
<event>
 7    1  0.3750159E-013  0.5930195E+02  0.7816164E-02  0.1266605E+00
        -11   -1    0    0    0    0  0.00000000000E+00  0.00000000000E+00  0.45593999997E+02  0.45594000000E+02  0.51100000000E-03 0.  1.
         11   -1    0    0    0    0 -0.00000000000E+00 -0.00000000000E+00 -0.45593999997E+02  0.45594000000E+02  0.51100000000E-03 0. -1.
    9900012    2    1    2    0    0  0.13042894410E+02  0.28807106322E+01 -0.28953489060E+02  0.59301951059E+02  0.50000012823E+02 0.  0.
        -12    1    1    2    0    0 -0.13042894410E+02 -0.28807106322E+01  0.28953489060E+02  0.31886048941E+02  0.00000000000E+00 0.  1.
         11    1    3    3    0    0  0.13380739877E+02  0.15754320591E+02 -0.22868226451E+02  0.30825291535E+02  0.51100000000E-03 0. -1.
        -11    1    3    3    0    0 -0.49724817968E+01 -0.11628152811E+02 -0.14221017682E+02  0.19030944727E+02  0.51100000000E-03 0.  1.
        -12    1    3    3    0    0  0.46346363302E+01 -0.12454571482E+01  0.81357550730E+01  0.94457147972E+01  0.00000000000E+00 0.  1.
</event>
<event>
 7    1  0.3750159E-013  0.5930193E+02  0.7816164E-02  0.1266605E+00
        -11   -1    0    0    0    0  0.00000000000E+00  0.00000000000E+00  0.45593999997E+02  0.45594000000E+02  0.51100000000E-03 0. -1.
         11   -1    0    0    0    0 -0.00000000000E+00 -0.00000000000E+00 -0.45593999997E+02  0.45594000000E+02  0.51100000000E-03 0.  1.
    9900012    2    1    2    0    0  0.47375640532E+00 -0.20064995969E+02  0.24776859310E+02  0.59301933049E+02  0.49999979977E+02 0.  0.
        -12    1    1    2    0    0 -0.47375640532E+00  0.20064995969E+02 -0.24776859310E+02  0.31886066951E+02  0.00000000000E+00 0.  1.
         11    1    3    3    0    0  0.10091427626E+02 -0.70076339404E+01 -0.17051947713E+01  0.12403690356E+02  0.51100000000E-03 0. -1.
        -11    1    3    3    0    0 -0.34050603380E+01 -0.18908051144E+02  0.14463925328E+00  0.19212749797E+02  0.51100000000E-03 0.  1.
        -12    1    3    3    0    0 -0.62126108825E+01  0.58506891156E+01  0.26337414828E+02  0.27685492896E+02  0.00000000000E+00 0.  1.
</event>
<event>
 7    1  0.3750159E-013  0.5930218E+02  0.7816164E-02  0.1266604E+00
        -11   -1    0    0    0    0  0.00000000000E+00  0.00000000000E+00  0.45593999997E+02  0.45594000000E+02  0.51100000000E-03 0. -1.
         11   -1    0    0    0    0 -0.00000000000E+00 -0.00000000000E+00 -0.45593999997E+02  0.45594000000E+02  0.51100000000E-03 0.  1.
    9900012    2    1    2    0    0  0.31071977777E+00 -0.16922490727E+02  0.27022918231E+02  0.59302182637E+02  0.50000435164E+02 0.  0.
        -12    1    1    2    0    0 -0.31071977777E+00  0.16922490727E+02 -0.27022918231E+02  0.31885817363E+02  0.00000000000E+00 0.  1.
         11    1    3    3    0    0  0.14531307895E+01 -0.45408842252E+01 -0.44220111510E+01  0.65027226235E+01  0.51100000000E-03 0. -1.
        -11    1    3    3    0    0 -0.11883039780E+02 -0.18224193845E+02  0.31592816355E+01  0.21984288399E+02  0.51100000000E-03 0.  1.
         12    1    3    3    0    0  0.10740628768E+02  0.58425873431E+01  0.28285647747E+02  0.30815171615E+02  0.00000000000E+00 0. -1.
</event>
<event>
 7    1  0.3750159E-013  0.5930194E+02  0.7816164E-02  0.1266605E+00
        -11   -1    0    0    0    0  0.00000000000E+00  0.00000000000E+00  0.45593999997E+02  0.45594000000E+02  0.51100000000E-03 0. -1.
         11   -1    0    0    0    0 -0.00000000000E+00 -0.00000000000E+00 -0.45593999997E+02  0.45594000000E+02  0.51100000000E-03 0.  1.
    9900012    2    1    2    0    0  0.75123216231E+00  0.19651338627E+02  0.25099424303E+02  0.59301944114E+02  0.50000000157E+02 0.  0.
        -12    1    1    2    0    0 -0.75123216231E+00 -0.19651338627E+02 -0.25099424303E+02  0.31886055886E+02  0.00000000000E+00 0.  1.
         11    1    3    3    0    0  0.47759539810E+01  0.15847583678E+02  0.17492144150E+02  0.24081751433E+02  0.51100000000E-03 0. -1.
        -11    1    3    3    0    0  0.58687724602E+01  0.16123840535E+02 -0.10727547878E+01  0.17192193777E+02  0.51100000000E-03 0.  1.
        -12    1    3    3    0    0 -0.98934942789E+01 -0.12320085586E+02  0.86800349415E+01  0.18027998904E+02  0.00000000000E+00 0.  1.
</event>
<event>
 7    1  0.3750159E-013  0.5930195E+02  0.7816164E-02  0.1266605E+00
        -11   -1    0    0    0    0  0.00000000000E+00  0.00000000000E+00  0.45593999997E+02  0.45594000000E+02  0.51100000000E-03 0.  1.
         11   -1    0    0    0    0 -0.00000000000E+00 -0.00000000000E+00 -0.45593999997E+02  0.45594000000E+02  0.51100000000E-03 0. -1.
    9900012    2    1    2    0    0  0.24597284016E+02 -0.41769943793E+01 -0.19855640078E+02  0.59301951233E+02  0.50000013142E+02 0.  0.
        -12    1    1    2    0    0 -0.24597284016E+02  0.41769943793E+01  0.19855640078E+02  0.31886048767E+02  0.00000000000E+00 0.  1.
         11    1    3    3    0    0 -0.52422389544E+01 -0.18434760956E+01  0.35025345062E+01  0.65686544739E+01  0.51100000000E-03 0. -1.
        -11    1    3    3    0    0 -0.14732037982E+01 -0.92923824857E+01  0.43322268650E+01  0.10357938577E+02  0.51100000000E-03 0.  1.
         12    1    3    3    0    0  0.31312726769E+02  0.69588642019E+01 -0.27690401450E+02  0.42375358183E+02  0.00000000000E+00 0. -1.
</event>
<event>
 7    1  0.3750159E-013  0.5930194E+02  0.7816164E-02  0.1266605E+00
        -11   -1    0    0    0    0  0.00000000000E+00  0.00000000000E+00  0.45593999997E+02  0.45594000000E+02  0.51100000000E-03 0. -1.
         11   -1    0    0    0    0 -0.00000000000E+00 -0.00000000000E+00 -0.45593999997E+02  0.45594000000E+02  0.51100000000E-03 0.  1.
    9900012    2    1    2    0    0  0.25252360146E+02 -0.19461686330E+02  0.53068530732E+00  0.59301944197E+02  0.50000000309E+02 0.  0.
        -12    1    1    2    0    0 -0.25252360146E+02  0.19461686330E+02 -0.53068530732E+00  0.31886055803E+02  0.00000000000E+00 0.  1.
         11    1    3    3    0    0  0.38608768124E+01 -0.24044384775E+02  0.68214158128E+01  0.25289731571E+02  0.51100000000E-03 0. -1.
        -11    1    3    3    0    0  0.32552548488E+01 -0.13088342390E+01  0.89421290662E+01  0.96058005233E+01  0.51100000000E-03 0.  1.
        -12    1    3    3    0    0  0.18136228485E+02  0.58915326842E+01 -0.15232859572E+02  0.24406412103E+02  0.00000000000E+00 0.  1.
</event>
<event>
 7    1  0.3750159E-013  0.5930195E+02  0.7816164E-02  0.1266605E+00
        -11   -1    0    0    0    0  0.00000000000E+00  0.00000000000E+00  0.45593999997E+02  0.45594000000E+02  0.51100000000E-03 0. -1.
         11   -1    0    0    0    0 -0.00000000000E+00 -0.00000000000E+00 -0.45593999997E+02  0.45594000000E+02  0.51100000000E-03 0.  1.
    9900012    2    1    2    0    0 -0.18960455382E+02 -0.20518478601E+02  0.15369239683E+02  0.59301947237E+02  0.50000005853E+02 0.  0.
        -12    1    1    2    0    0  0.18960455382E+02  0.20518478601E+02 -0.15369239683E+02  0.31886052763E+02  0.00000000000E+00 0.  1.
         11    1    3    3    0    0 -0.14649451820E+02 -0.89930887334E+01  0.80455761046E+01  0.18979288151E+02  0.51100000000E-03 0. -1.
        -11    1    3    3    0    0 -0.19721921235E+02 -0.12652251996E+02  0.82536617148E+01  0.24842636530E+02  0.51100000000E-03 0.  1.
        -12    1    3    3    0    0  0.15410917674E+02  0.11268621290E+01 -0.92999813602E+00  0.15480022556E+02  0.00000000000E+00 0.  1.
</event>
<event>
 7    1  0.3750159E-013  0.5930195E+02  0.7816164E-02  0.1266605E+00
        -11   -1    0    0    0    0  0.00000000000E+00  0.00000000000E+00  0.45593999997E+02  0.45594000000E+02  0.51100000000E-03 0.  1.
         11   -1    0    0    0    0 -0.00000000000E+00 -0.00000000000E+00 -0.45593999997E+02  0.45594000000E+02  0.51100000000E-03 0. -1.
    9900012    2    1    2    0    0  0.22447854494E+02 -0.13359109854E+02  0.18285185416E+02  0.59301953002E+02  0.50000016366E+02 0.  0.
        -12    1    1    2    0    0 -0.22447854494E+02  0.13359109854E+02 -0.18285185416E+02  0.31886046998E+02  0.00000000000E+00 0.  1.
         11    1    3    3    0    0  0.32769055616E+00 -0.10153410300E+02  0.69328409997E+00  0.10182326106E+02  0.51100000000E-03 0. -1.
        -11    1    3    3    0    0  0.29901050695E+01 -0.15600120055E+02 -0.53676772798E+01  0.16766527180E+02  0.51100000000E-03 0.  1.
        -12    1    3    3    0    0  0.19130058868E+02  0.12394420501E+02  0.22959578596E+02  0.32353099715E+02  0.00000000000E+00 0.  1.
</event>
<event>
 7    1  0.3750159E-013  0.5930193E+02  0.7816164E-02  0.1266605E+00
        -11   -1    0    0    0    0  0.00000000000E+00  0.00000000000E+00  0.45593999997E+02  0.45594000000E+02  0.51100000000E-03 0.  1.
         11   -1    0    0    0    0 -0.00000000000E+00 -0.00000000000E+00 -0.45593999997E+02  0.45594000000E+02  0.51100000000E-03 0. -1.
    9900012    2    1    2    0    0  0.12195487066E+01  0.17348669201E+02 -0.26725607342E+02  0.59301926083E+02  0.49999967272E+02 0.  0.
        -12    1    1    2    0    0 -0.12195487066E+01 -0.17348669201E+02  0.26725607342E+02  0.31886073917E+02  0.00000000000E+00 0.  1.
         11    1    3    3    0    0  0.18918724038E+02  0.20225730762E+02 -0.21823841832E+02  0.35260152817E+02  0.51100000000E-03 0. -1.
        -11    1    3    3    0    0 -0.49633725619E+01 -0.28620295415E+01  0.52376526602E+01  0.77626854847E+01  0.51100000000E-03 0.  1.
        -12    1    3    3    0    0 -0.12735802770E+02 -0.15032019429E-01 -0.10139418169E+02  0.16279087781E+02  0.00000000000E+00 0.  1.
</event>
<event>
 7    1  0.5661799E-013  0.5930199E+02  0.7816164E-02  0.1266605E+00
        -11   -1    0    0    0    0  0.00000000000E+00  0.00000000000E+00  0.45593999997E+02  0.45594000000E+02  0.51100000000E-03 0. -1.
         11   -1    0    0    0    0 -0.00000000000E+00 -0.00000000000E+00 -0.45593999997E+02  0.45594000000E+02  0.51100000000E-03 0.  1.
    9900012    2    1    2    0    0  0.90152211850E+01  0.19986107610E+02  0.23151649420E+02  0.59301990822E+02  0.50000085342E+02 0.  0.
        -12    1    1    2    0    0 -0.90152211850E+01 -0.19986107610E+02 -0.23151649420E+02  0.31886009178E+02  0.00000000000E+00 0.  1.
         11    1    3    3    0    0 -0.63079416405E+01  0.83115487106E+00  0.13836694169E+02  0.15229414038E+02  0.51100000000E-03 0. -1.
        -11    1    3    3    0    0  0.33211271273E+01  0.66955961213E+01 -0.13505664213E+02  0.15435797968E+02  0.51100000000E-03 0.  1.
         12    1    3    3    0    0  0.12002035698E+02  0.12459356618E+02  0.22820619464E+02  0.28636778816E+02  0.00000000000E+00 0. -1.
</event>
<event>
 7    1  0.3750159E-013  0.5930188E+02  0.7816164E-02  0.1266605E+00
        -11   -1    0    0    0    0  0.00000000000E+00  0.00000000000E+00  0.45593999997E+02  0.45594000000E+02  0.51100000000E-03 0.  1.
         11   -1    0    0    0    0 -0.00000000000E+00 -0.00000000000E+00 -0.45593999997E+02  0.45594000000E+02  0.51100000000E-03 0. -1.
    9900012    2    1    2    0    0  0.26303176278E+01  0.22887385329E+02 -0.22044811917E+02  0.59301879031E+02  0.49999881461E+02 0.  0.
        -12    1    1    2    0    0 -0.26303176278E+01 -0.22887385329E+02  0.22044811917E+02  0.31886120969E+02  0.00000000000E+00 0.  1.
         11    1    3    3    0    0 -0.30483631311E+01 -0.19469243801E+01 -0.14803713984E+02  0.15239192246E+02  0.51100000000E-03 0. -1.
        -11    1    3    3    0    0  0.11056352312E+02 -0.33171999916E+01  0.53931048154E+01  0.12740970216E+02  0.51100000000E-03 0.  1.
         12    1    3    3    0    0 -0.53776715532E+01  0.28151509700E+02 -0.12634202748E+02  0.31321716569E+02  0.00000000000E+00 0. -1.
</event>
<event>
 7    1  0.3750159E-013  0.5930192E+02  0.7816164E-02  0.1266605E+00
        -11   -1    0    0    0    0  0.00000000000E+00  0.00000000000E+00  0.45593999997E+02  0.45594000000E+02  0.51100000000E-03 0.  1.
         11   -1    0    0    0    0 -0.00000000000E+00 -0.00000000000E+00 -0.45593999997E+02  0.45594000000E+02  0.51100000000E-03 0. -1.
    9900012    2    1    2    0    0 -0.20497680623E+02 -0.64244093449E+01 -0.23564676815E+02  0.59301922477E+02  0.49999960698E+02 0.  0.
        -12    1    1    2    0    0  0.20497680623E+02  0.64244093449E+01  0.23564676815E+02  0.31886077523E+02  0.00000000000E+00 0.  1.
         11    1    3    3    0    0 -0.64290785553E+01 -0.14335158348E+02  0.89715781591E+00  0.15736413452E+02  0.51100000000E-03 0. -1.
        -11    1    3    3    0    0  0.60374816369E+01  0.36284053805E+01 -0.21711160784E+02  0.22825227556E+02  0.51100000000E-03 0.  1.
         12    1    3    3    0    0 -0.20106083705E+02  0.42823436222E+01 -0.27506738475E+01  0.20740281470E+02  0.00000000000E+00 0. -1.
</event>
<event>
 7    1  0.3750159E-013  0.5930194E+02  0.7816164E-02  0.1266605E+00
        -11   -1    0    0    0    0  0.00000000000E+00  0.00000000000E+00  0.45593999997E+02  0.45594000000E+02  0.51100000000E-03 0.  1.
         11   -1    0    0    0    0 -0.00000000000E+00 -0.00000000000E+00 -0.45593999997E+02  0.45594000000E+02  0.51100000000E-03 0. -1.
    9900012    2    1    2    0    0 -0.29507495852E+02 -0.88872879385E+01 -0.81880842893E+01  0.59301938426E+02  0.49999989785E+02 0.  0.
        -12    1    1    2    0    0  0.29507495852E+02  0.88872879385E+01  0.81880842893E+01  0.31886061574E+02  0.00000000000E+00 0.  1.
         11    1    3    3    0    0 -0.26224818409E+02 -0.12207240677E+02 -0.15322373242E+02  0.32734277868E+02  0.51100000000E-03 0. -1.
        -11    1    3    3    0    0 -0.11912257475E+02  0.62811013943E+01 -0.20501378358E+01  0.13621937391E+02  0.51100000000E-03 0.  1.
        -12    1    3    3    0    0  0.86295800321E+01 -0.29611486558E+01  0.91844267884E+01  0.12945723167E+02  0.00000000000E+00 0.  1.
</event>
<event>
 7    1  0.3750159E-013  0.5930191E+02  0.7816164E-02  0.1266605E+00
        -11   -1    0    0    0    0  0.00000000000E+00  0.00000000000E+00  0.45593999997E+02  0.45594000000E+02  0.51100000000E-03 0.  1.
         11   -1    0    0    0    0 -0.00000000000E+00 -0.00000000000E+00 -0.45593999997E+02  0.45594000000E+02  0.51100000000E-03 0. -1.
    9900012    2    1    2    0    0  0.23080158974E+02  0.10750577407E+02 -0.19195159438E+02  0.59301909009E+02  0.49999936134E+02 0.  0.
        -12    1    1    2    0    0 -0.23080158974E+02 -0.10750577407E+02  0.19195159438E+02  0.31886090991E+02  0.00000000000E+00 0.  1.
         11    1    3    3    0    0  0.16204914923E+02  0.98544286376E+01 -0.96892231327E+01  0.21297654251E+02  0.51100000000E-03 0. -1.
        -11    1    3    3    0    0  0.51932551553E+01  0.92817536380E+01  0.11294533580E+02  0.15514101287E+02  0.51100000000E-03 0.  1.
         12    1    3    3    0    0  0.16819888960E+01 -0.83856048690E+01 -0.20800469885E+02  0.22490153470E+02  0.00000000000E+00 0. -1.
</event>
<event>
 7    1  0.3750159E-013  0.5930206E+02  0.7816164E-02  0.1266604E+00
        -11   -1    0    0    0    0  0.00000000000E+00  0.00000000000E+00  0.45593999997E+02  0.45594000000E+02  0.51100000000E-03 0.  1.
         11   -1    0    0    0    0 -0.00000000000E+00 -0.00000000000E+00 -0.45593999997E+02  0.45594000000E+02  0.51100000000E-03 0. -1.
    9900012    2    1    2    0    0  0.17014190699E+02  0.14830260712E+02 -0.22523191808E+02  0.59302055022E+02  0.50000202426E+02 0.  0.
        -12    1    1    2    0    0 -0.17014190699E+02 -0.14830260712E+02  0.22523191808E+02  0.31885944978E+02  0.00000000000E+00 0.  1.
         11    1    3    3    0    0 -0.63342916400E+01 -0.39026094266E+01 -0.12237016541E+02  0.14321249422E+02  0.51100000000E-03 0.  1.
        -11    1    3    3    0    0  0.10783226232E+02  0.19785992326E+02 -0.19146766316E+02  0.29569614825E+02  0.51100000000E-03 0. -1.
        -12    1    3    3    0    0  0.12565256107E+02 -0.10531221873E+01  0.88605910485E+01  0.15411190775E+02  0.00000000000E+00 0.  1.
</event>
<event>
 7    1  0.3750159E-013  0.5930195E+02  0.7816164E-02  0.1266605E+00
        -11   -1    0    0    0    0  0.00000000000E+00  0.00000000000E+00  0.45593999997E+02  0.45594000000E+02  0.51100000000E-03 0.  1.
         11   -1    0    0    0    0 -0.00000000000E+00 -0.00000000000E+00 -0.45593999997E+02  0.45594000000E+02  0.51100000000E-03 0. -1.
    9900012    2    1    2    0    0  0.10123014874E+02 -0.21591934667E+02  0.21166797518E+02  0.59301946779E+02  0.50000005018E+02 0.  0.
        -12    1    1    2    0    0 -0.10123014874E+02  0.21591934667E+02 -0.21166797518E+02  0.31886053221E+02  0.00000000000E+00 0.  1.
         11    1    3    3    0    0 -0.39288252776E+01 -0.13911511298E+02 -0.92609036149E+01  0.17167706622E+02  0.51100000000E-03 0. -1.
        -11    1    3    3    0    0  0.24161396911E+01 -0.81072898349E+01 -0.10946756451E+01  0.85301931105E+01  0.51100000000E-03 0.  1.
        -12    1    3    3    0    0  0.11635700460E+02  0.42686646511E+00  0.31522376778E+02  0.33604047047E+02  0.00000000000E+00 0.  1.
</event>
<event>
 7    1  0.3750159E-013  0.5930194E+02  0.7816164E-02  0.1266605E+00
        -11   -1    0    0    0    0  0.00000000000E+00  0.00000000000E+00  0.45593999997E+02  0.45594000000E+02  0.51100000000E-03 0. -1.
         11   -1    0    0    0    0 -0.00000000000E+00 -0.00000000000E+00 -0.45593999997E+02  0.45594000000E+02  0.51100000000E-03 0.  1.
    9900012    2    1    2    0    0  0.18116186033E+02 -0.12968854734E+02 -0.22810822789E+02  0.59301936810E+02  0.49999986836E+02 0.  0.
        -12    1    1    2    0    0 -0.18116186033E+02  0.12968854734E+02  0.22810822789E+02  0.31886063190E+02  0.00000000000E+00 0.  1.
         11    1    3    3    0    0 -0.13656766826E+02 -0.74879005659E+01 -0.11752791469E+02  0.19511638645E+02  0.51100000000E-03 0. -1.
        -11    1    3    3    0    0  0.15185195881E+02 -0.12704467590E+02 -0.31609908532E+01  0.20049576906E+02  0.51100000000E-03 0.  1.
        -12    1    3    3    0    0  0.16587756978E+02  0.72235134218E+01 -0.78970404665E+01  0.19740721259E+02  0.00000000000E+00 0.  1.
</event>
<event>
 7    1  0.3750159E-013  0.5930192E+02  0.7816164E-02  0.1266605E+00
        -11   -1    0    0    0    0  0.00000000000E+00  0.00000000000E+00  0.45593999997E+02  0.45594000000E+02  0.51100000000E-03 0.  1.
         11   -1    0    0    0    0 -0.00000000000E+00 -0.00000000000E+00 -0.45593999997E+02  0.45594000000E+02  0.51100000000E-03 0. -1.
    9900012    2    1    2    0    0  0.27297260978E+02 -0.16147614478E+02  0.32917991535E+01  0.59301923855E+02  0.49999963210E+02 0.  0.
        -12    1    1    2    0    0 -0.27297260978E+02  0.16147614478E+02 -0.32917991535E+01  0.31886076145E+02  0.00000000000E+00 0.  1.
         11    1    3    3    0    0  0.98384081533E+01 -0.60108791019E+01  0.11544731818E+02  0.16315813665E+02  0.51100000000E-03 0.  1.
        -11    1    3    3    0    0  0.47333069573E+01  0.86397594027E+00 -0.21212647005E+02  0.21751483682E+02  0.51100000000E-03 0. -1.
         12    1    3    3    0    0  0.12725545868E+02 -0.11000711317E+02  0.12959714341E+02  0.21234626507E+02  0.00000000000E+00 0. -1.
</event>
<event>
 7    1  0.3750159E-013  0.5930203E+02  0.7816164E-02  0.1266604E+00
        -11   -1    0    0    0    0  0.00000000000E+00  0.00000000000E+00  0.45593999997E+02  0.45594000000E+02  0.51100000000E-03 0.  1.
         11   -1    0    0    0    0 -0.00000000000E+00 -0.00000000000E+00 -0.45593999997E+02  0.45594000000E+02  0.51100000000E-03 0. -1.
    9900012    2    1    2    0    0  0.54715427363E+01  0.27669439719E+02 -0.14872097019E+02  0.59302032177E+02  0.50000160763E+02 0.  0.
        -12    1    1    2    0    0 -0.54715427363E+01 -0.27669439719E+02  0.14872097019E+02  0.31885967823E+02  0.00000000000E+00 0.  1.
         11    1    3    3    0    0 -0.40979744131E+01 -0.49811019223E+01  0.35161546320E+01  0.73462993615E+01  0.51100000000E-03 0. -1.
        -11    1    3    3    0    0  0.27561516789E+01  0.34108978596E+02 -0.21522409016E+01  0.34287766537E+02  0.51100000000E-03 0.  1.
         12    1    3    3    0    0  0.68133654706E+01 -0.14584369548E+01 -0.16236010749E+02  0.17667966279E+02  0.00000000000E+00 0. -1.
</event>
<event>
 7    1  0.3750159E-013  0.5930195E+02  0.7816164E-02  0.1266605E+00
        -11   -1    0    0    0    0  0.00000000000E+00  0.00000000000E+00  0.45593999997E+02  0.45594000000E+02  0.51100000000E-03 0.  1.
         11   -1    0    0    0    0 -0.00000000000E+00 -0.00000000000E+00 -0.45593999997E+02  0.45594000000E+02  0.51100000000E-03 0. -1.
    9900012    2    1    2    0    0  0.22310615246E+02 -0.21890047885E+02 -0.63073229478E+01  0.59301951768E+02  0.50000014117E+02 0.  0.
        -12    1    1    2    0    0 -0.22310615246E+02  0.21890047885E+02  0.63073229478E+01  0.31886048232E+02  0.00000000000E+00 0.  1.
         11    1    3    3    0    0  0.84692256859E+01  0.43226804296E+01 -0.12828003812E+02  0.15967812370E+02  0.51100000000E-03 0. -1.
        -11    1    3    3    0    0  0.10093312781E+02 -0.33924937406E+00  0.12939599731E+02  0.16414118755E+02  0.51100000000E-03 0.  1.
         12    1    3    3    0    0  0.37480767790E+01 -0.25873478941E+02 -0.64189188667E+01  0.26920020644E+02  0.00000000000E+00 0. -1.
</event>
<event>
 7    1  0.3750159E-013  0.5930193E+02  0.7816164E-02  0.1266605E+00
        -11   -1    0    0    0    0  0.00000000000E+00  0.00000000000E+00  0.45593999997E+02  0.45594000000E+02  0.51100000000E-03 0.  1.
         11   -1    0    0    0    0 -0.00000000000E+00 -0.00000000000E+00 -0.45593999997E+02  0.45594000000E+02  0.51100000000E-03 0. -1.
    9900012    2    1    2    0    0  0.29246816650E+02 -0.71109971984E+00 -0.12682251687E+02  0.59301930082E+02  0.49999974566E+02 0.  0.
        -12    1    1    2    0    0 -0.29246816650E+02  0.71109971984E+00  0.12682251687E+02  0.31886069918E+02  0.00000000000E+00 0.  1.
         11    1    3    3    0    0  0.16719536419E+02  0.14237756279E+02 -0.70183776537E+01  0.23054592321E+02  0.51100000000E-03 0. -1.
        -11    1    3    3    0    0 -0.34203436047E+01  0.43301443533E+01  0.64170125743E+01  0.84632707114E+01  0.51100000000E-03 0.  1.
         12    1    3    3    0    0  0.15947623835E+02 -0.19279000353E+02 -0.12080886607E+02  0.27784067049E+02  0.00000000000E+00 0. -1.
</event>
<event>
 7    1  0.3750159E-013  0.5930190E+02  0.7816164E-02  0.1266605E+00
        -11   -1    0    0    0    0  0.00000000000E+00  0.00000000000E+00  0.45593999997E+02  0.45594000000E+02  0.51100000000E-03 0. -1.
         11   -1    0    0    0    0 -0.00000000000E+00 -0.00000000000E+00 -0.45593999997E+02  0.45594000000E+02  0.51100000000E-03 0.  1.
    9900012    2    1    2    0    0  0.13451148846E+02 -0.19360795460E+02  0.21469729418E+02  0.59301904482E+02  0.49999927877E+02 0.  0.
        -12    1    1    2    0    0 -0.13451148846E+02  0.19360795460E+02 -0.21469729418E+02  0.31886095518E+02  0.00000000000E+00 0.  1.
         11    1    3    3    0    0 -0.33190656782E+01 -0.14045183675E+01  0.37664375549E+01  0.52129570243E+01  0.51100000000E-03 0. -1.
        -11    1    3    3    0    0 -0.12262369343E+01  0.70899750632E+01 -0.10210664224E+02  0.12491159577E+02  0.51100000000E-03 0.  1.
         12    1    3    3    0    0  0.17996451458E+02 -0.25046252156E+02  0.27913956087E+02  0.41597787881E+02  0.00000000000E+00 0. -1.
</event>
<event>
 7    1  0.3750159E-013  0.5930192E+02  0.7816164E-02  0.1266605E+00
        -11   -1    0    0    0    0  0.00000000000E+00  0.00000000000E+00  0.45593999997E+02  0.45594000000E+02  0.51100000000E-03 0.  1.
         11   -1    0    0    0    0 -0.00000000000E+00 -0.00000000000E+00 -0.45593999997E+02  0.45594000000E+02  0.51100000000E-03 0. -1.
    9900012    2    1    2    0    0 -0.20350061288E+02  0.20157065328E+02  0.14010357554E+02  0.59301915325E+02  0.49999947654E+02 0.  0.
        -12    1    1    2    0    0  0.20350061288E+02 -0.20157065328E+02 -0.14010357554E+02  0.31886084675E+02  0.00000000000E+00 0.  1.
         11    1    3    3    0    0  0.47790197550E+00 -0.14652912407E+01 -0.27431311412E+00  0.15654764974E+01  0.51100000000E-03 0. -1.
        -11    1    3    3    0    0 -0.17090596532E+02 -0.10718047353E+02 -0.37504447692E+01  0.20519036652E+02  0.51100000000E-03 0.  1.
         12    1    3    3    0    0 -0.37373667314E+01  0.32340403922E+02  0.18035115438E+02  0.37217402176E+02  0.00000000000E+00 0. -1.
</event>
<event>
 7    1  0.3750159E-013  0.5930194E+02  0.7816164E-02  0.1266605E+00
        -11   -1    0    0    0    0  0.00000000000E+00  0.00000000000E+00  0.45593999997E+02  0.45594000000E+02  0.51100000000E-03 0.  1.
         11   -1    0    0    0    0 -0.00000000000E+00 -0.00000000000E+00 -0.45593999997E+02  0.45594000000E+02  0.51100000000E-03 0. -1.
    9900012    2    1    2    0    0 -0.16991454184E+02  0.25005235850E+01 -0.26865561414E+02  0.59301944685E+02  0.50000001198E+02 0.  0.
        -12    1    1    2    0    0  0.16991454184E+02 -0.25005235850E+01  0.26865561414E+02  0.31886055315E+02  0.00000000000E+00 0.  1.
         11    1    3    3    0    0 -0.26626016872E+01  0.53419724287E+01  0.23712670422E+01  0.64225403713E+01  0.51100000000E-03 0. -1.
        -11    1    3    3    0    0 -0.26003877385E+02  0.52905585423E+01 -0.87606828136E+01  0.27945325412E+02  0.51100000000E-03 0.  1.
         12    1    3    3    0    0  0.11675024889E+02 -0.81320073860E+01 -0.20476145643E+02  0.24934078901E+02  0.00000000000E+00 0. -1.
</event>
<event>
 7    1  0.3750159E-013  0.5930192E+02  0.7816164E-02  0.1266605E+00
        -11   -1    0    0    0    0  0.00000000000E+00  0.00000000000E+00  0.45593999997E+02  0.45594000000E+02  0.51100000000E-03 0.  1.
         11   -1    0    0    0    0 -0.00000000000E+00 -0.00000000000E+00 -0.45593999997E+02  0.45594000000E+02  0.51100000000E-03 0. -1.
    9900012    2    1    2    0    0  0.13749334842E+01 -0.31497124137E+02  0.47710457975E+01  0.59301919196E+02  0.49999954713E+02 0.  0.
        -12    1    1    2    0    0 -0.13749334842E+01  0.31497124137E+02 -0.47710457975E+01  0.31886080804E+02  0.00000000000E+00 0.  1.
         11    1    3    3    0    0  0.33082774512E+01 -0.15830833632E+02 -0.13776904311E+02  0.21245307383E+02  0.51100000000E-03 0. -1.
        -11    1    3    3    0    0 -0.15222958454E+02 -0.53928143209E+01  0.66163952665E+01  0.17452724629E+02  0.51100000000E-03 0.  1.
         12    1    3    3    0    0  0.13289614487E+02 -0.10273476185E+02  0.11931554842E+02  0.20603887184E+02  0.00000000000E+00 0. -1.
</event>
<event>
 7    1  0.3750159E-013  0.5930194E+02  0.7816164E-02  0.1266605E+00
        -11   -1    0    0    0    0  0.00000000000E+00  0.00000000000E+00  0.45593999997E+02  0.45594000000E+02  0.51100000000E-03 0. -1.
         11   -1    0    0    0    0 -0.00000000000E+00 -0.00000000000E+00 -0.45593999997E+02  0.45594000000E+02  0.51100000000E-03 0.  1.
    9900012    2    1    2    0    0  0.75065269043E+00 -0.31470250676E+02  0.50774484984E+01  0.59301942854E+02  0.49999997859E+02 0.  0.
        -12    1    1    2    0    0 -0.75065269043E+00  0.31470250676E+02 -0.50774484984E+01  0.31886057146E+02  0.00000000000E+00 0.  1.
         11    1    3    3    0    0  0.10992447349E+02 -0.72659700251E+01  0.13576090450E+02  0.18919261383E+02  0.51100000000E-03 0. -1.
        -11    1    3    3    0    0 -0.12207553507E+02 -0.19591677598E+02  0.69769824635E+01  0.24115067454E+02  0.51100000000E-03 0.  1.
        -12    1    3    3    0    0  0.19657588488E+01 -0.46126030527E+01 -0.15475624415E+02  0.16267614017E+02  0.00000000000E+00 0.  1.
</event>
<event>
 7    1  0.3750159E-013  0.5930210E+02  0.7816164E-02  0.1266604E+00
        -11   -1    0    0    0    0  0.00000000000E+00  0.00000000000E+00  0.45593999997E+02  0.45594000000E+02  0.51100000000E-03 0.  1.
         11   -1    0    0    0    0 -0.00000000000E+00 -0.00000000000E+00 -0.45593999997E+02  0.45594000000E+02  0.51100000000E-03 0. -1.
    9900012    2    1    2    0    0  0.26499237727E+02  0.31579416898E+01 -0.17450733785E+02  0.59302104914E+02  0.50000293416E+02 0.  0.
        -12    1    1    2    0    0 -0.26499237727E+02 -0.31579416898E+01  0.17450733785E+02  0.31885895086E+02  0.00000000000E+00 0.  1.
         11    1    3    3    0    0  0.24431553935E+01 -0.49199373940E+01  0.16928282523E+01  0.57480831579E+01  0.51100000000E-03 0.  1.
        -11    1    3    3    0    0  0.22475775084E+02 -0.12375336372E+02 -0.24067168081E+00  0.25658669862E+02  0.51100000000E-03 0. -1.
         12    1    3    3    0    0  0.15803072497E+01  0.20453215456E+02 -0.18902890356E+02  0.27895351894E+02  0.00000000000E+00 0. -1.
</event>
<event>
 7    1  0.3750159E-013  0.5930193E+02  0.7816164E-02  0.1266605E+00
        -11   -1    0    0    0    0  0.00000000000E+00  0.00000000000E+00  0.45593999997E+02  0.45594000000E+02  0.51100000000E-03 0. -1.
         11   -1    0    0    0    0 -0.00000000000E+00 -0.00000000000E+00 -0.45593999997E+02  0.45594000000E+02  0.51100000000E-03 0.  1.
    9900012    2    1    2    0    0 -0.19112954535E+02 -0.44675489565E+00  0.25518947504E+02  0.59301932467E+02  0.49999978917E+02 0.  0.
        -12    1    1    2    0    0  0.19112954535E+02  0.44675489565E+00 -0.25518947504E+02  0.31886067533E+02  0.00000000000E+00 0.  1.
         11    1    3    3    0    0 -0.15641169439E+02  0.55742716631E+01 -0.59425300973E+01  0.17636109271E+02  0.51100000000E-03 0. -1.
        -11    1    3    3    0    0  0.65009152439E+01 -0.22346230281E-01 -0.15328205112E+01  0.66792168211E+01  0.51100000000E-03 0.  1.
        -12    1    3    3    0    0 -0.99727003398E+01 -0.59986803285E+01  0.32994298112E+02  0.34986606375E+02  0.00000000000E+00 0.  1.
</event>
<event>
 7    1  0.3750159E-013  0.5930197E+02  0.7816164E-02  0.1266605E+00
        -11   -1    0    0    0    0  0.00000000000E+00  0.00000000000E+00  0.45593999997E+02  0.45594000000E+02  0.51100000000E-03 0. -1.
         11   -1    0    0    0    0 -0.00000000000E+00 -0.00000000000E+00 -0.45593999997E+02  0.45594000000E+02  0.51100000000E-03 0.  1.
    9900012    2    1    2    0    0 -0.30876853533E+02 -0.92467472694E+00  0.79046696499E+01  0.59301969991E+02  0.50000047350E+02 0.  0.
        -12    1    1    2    0    0  0.30876853533E+02  0.92467472694E+00 -0.79046696499E+01  0.31886030009E+02  0.00000000000E+00 0.  1.
         11    1    3    3    0    0  0.87109374116E+01 -0.87081571626E+01 -0.27134600897E+00  0.12320148565E+02  0.51100000000E-03 0. -1.
        -11    1    3    3    0    0  0.12623232195E+01  0.51587328798E+01  0.50478548060E+00  0.53348658351E+01  0.51100000000E-03 0.  1.
         12    1    3    3    0    0 -0.40850114165E+02  0.26247495559E+01  0.76712301783E+01  0.41646955590E+02  0.00000000000E+00 0. -1.
</event>
<event>
 7    1  0.3750159E-013  0.5930194E+02  0.7816164E-02  0.1266605E+00
        -11   -1    0    0    0    0  0.00000000000E+00  0.00000000000E+00  0.45593999997E+02  0.45594000000E+02  0.51100000000E-03 0. -1.
         11   -1    0    0    0    0 -0.00000000000E+00 -0.00000000000E+00 -0.45593999997E+02  0.45594000000E+02  0.51100000000E-03 0.  1.
    9900012    2    1    2    0    0  0.17716870393E+02 -0.15092728765E+02  0.21795479255E+02  0.59301939189E+02  0.49999991175E+02 0.  0.
        -12    1    1    2    0    0 -0.17716870393E+02  0.15092728765E+02 -0.21795479255E+02  0.31886060811E+02  0.00000000000E+00 0.  1.
         11    1    3    3    0    0 -0.51655682485E+01 -0.12809254050E+02  0.56191350557E+01  0.14910894127E+02  0.51100000000E-03 0. -1.
        -11    1    3    3    0    0 -0.23782739759E+01 -0.76923441468E+01 -0.62410956517E+01  0.10187228316E+02  0.51100000000E-03 0.  1.
         12    1    3    3    0    0  0.25260712617E+02  0.54088694314E+01  0.22417439851E+02  0.34203816745E+02  0.00000000000E+00 0. -1.
</event>
<event>
 7    1  0.3750159E-013  0.5930194E+02  0.7816164E-02  0.1266605E+00
        -11   -1    0    0    0    0  0.00000000000E+00  0.00000000000E+00  0.45593999997E+02  0.45594000000E+02  0.51100000000E-03 0.  1.
         11   -1    0    0    0    0 -0.00000000000E+00 -0.00000000000E+00 -0.45593999997E+02  0.45594000000E+02  0.51100000000E-03 0. -1.
    9900012    2    1    2    0    0  0.69036334116E+01 -0.18709724842E+02 -0.24879845530E+02  0.59301942364E+02  0.49999996967E+02 0.  0.
        -12    1    1    2    0    0 -0.69036334116E+01  0.18709724842E+02  0.24879845530E+02  0.31886057636E+02  0.00000000000E+00 0.  1.
         11    1    3    3    0    0  0.14495209685E+02 -0.30895934279E+01 -0.31506503999E+02  0.34818335483E+02  0.51100000000E-03 0. -1.
        -11    1    3    3    0    0 -0.11720342244E+02 -0.62486758583E+01  0.29729849722E+01  0.13610694773E+02  0.51100000000E-03 0.  1.
        -12    1    3    3    0    0  0.41287659712E+01 -0.93714555560E+01  0.36536734966E+01  0.10872912108E+02  0.00000000000E+00 0.  1.
</event>
<event>
 7    1  0.3750159E-013  0.5930194E+02  0.7816164E-02  0.1266605E+00
        -11   -1    0    0    0    0  0.00000000000E+00  0.00000000000E+00  0.45593999997E+02  0.45594000000E+02  0.51100000000E-03 0. -1.
         11   -1    0    0    0    0 -0.00000000000E+00 -0.00000000000E+00 -0.45593999997E+02  0.45594000000E+02  0.51100000000E-03 0.  1.
    9900012    2    1    2    0    0 -0.10755177623E+02  0.18496586767E+02  0.23641555619E+02  0.59301941607E+02  0.49999995586E+02 0.  0.
        -12    1    1    2    0    0  0.10755177623E+02 -0.18496586767E+02 -0.23641555619E+02  0.31886058393E+02  0.00000000000E+00 0.  1.
         11    1    3    3    0    0 -0.48155356027E+01 -0.22072418798E+01  0.13197779337E+01  0.54592228304E+01  0.51100000000E-03 0. -1.
        -11    1    3    3    0    0 -0.51383176516E+01 -0.70735468964E+01 -0.86036367788E+01  0.12266211317E+02  0.51100000000E-03 0.  1.
         12    1    3    3    0    0 -0.80132436887E+00  0.27777375543E+02  0.30925414464E+02  0.41576507460E+02  0.00000000000E+00 0. -1.
</event>
<event>
 7    1  0.3750159E-013  0.5930197E+02  0.7816164E-02  0.1266605E+00
        -11   -1    0    0    0    0  0.00000000000E+00  0.00000000000E+00  0.45593999997E+02  0.45594000000E+02  0.51100000000E-03 0.  1.
         11   -1    0    0    0    0 -0.00000000000E+00 -0.00000000000E+00 -0.45593999997E+02  0.45594000000E+02  0.51100000000E-03 0. -1.
    9900012    2    1    2    0    0  0.28533305652E+02  0.12361624154E+02 -0.70540360338E+01  0.59301973162E+02  0.50000053134E+02 0.  0.
        -12    1    1    2    0    0 -0.28533305652E+02 -0.12361624154E+02  0.70540360338E+01  0.31886026838E+02  0.00000000000E+00 0.  1.
         11    1    3    3    0    0  0.41284748251E+01  0.39434113484E+01 -0.70783671595E+01  0.90938484345E+01  0.51100000000E-03 0. -1.
        -11    1    3    3    0    0  0.18864903232E+02  0.18632443375E+01 -0.20524258986E+02  0.27939245884E+02  0.51100000000E-03 0.  1.
        -12    1    3    3    0    0  0.55399275942E+01  0.65549684683E+01  0.20548590111E+02  0.22268878843E+02  0.00000000000E+00 0.  1.
</event>
<event>
 7    1  0.3750159E-013  0.5930194E+02  0.7816164E-02  0.1266605E+00
        -11   -1    0    0    0    0  0.00000000000E+00  0.00000000000E+00  0.45593999997E+02  0.45594000000E+02  0.51100000000E-03 0.  1.
         11   -1    0    0    0    0 -0.00000000000E+00 -0.00000000000E+00 -0.45593999997E+02  0.45594000000E+02  0.51100000000E-03 0. -1.
    9900012    2    1    2    0    0  0.18259226280E+02 -0.11370382379E+01 -0.26115671760E+02  0.59301944870E+02  0.50000001536E+02 0.  0.
        -12    1    1    2    0    0 -0.18259226280E+02  0.11370382379E+01  0.26115671760E+02  0.31886055130E+02  0.00000000000E+00 0.  1.
         11    1    3    3    0    0  0.94449995539E+01 -0.89327862798E+01 -0.53734305572E+01  0.14066856206E+02  0.51100000000E-03 0. -1.
        -11    1    3    3    0    0  0.86018050626E+01 -0.80595201219E+01 -0.25985441937E+02  0.28534016679E+02  0.51100000000E-03 0.  1.
         12    1    3    3    0    0  0.21242166302E+00  0.15855268164E+02  0.52432007339E+01  0.16701071985E+02  0.00000000000E+00 0. -1.
</event>
<event>
 7    1  0.3750159E-013  0.5930192E+02  0.7816164E-02  0.1266605E+00
        -11   -1    0    0    0    0  0.00000000000E+00  0.00000000000E+00  0.45593999997E+02  0.45594000000E+02  0.51100000000E-03 0.  1.
         11   -1    0    0    0    0 -0.00000000000E+00 -0.00000000000E+00 -0.45593999997E+02  0.45594000000E+02  0.51100000000E-03 0. -1.
    9900012    2    1    2    0    0  0.20778231607E+02 -0.75329455783E+01 -0.22983513855E+02  0.59301920171E+02  0.49999956490E+02 0.  0.
        -12    1    1    2    0    0 -0.20778231607E+02  0.75329455783E+01  0.22983513855E+02  0.31886079829E+02  0.00000000000E+00 0.  1.
         11    1    3    3    0    0  0.10483407189E+02 -0.65790388361E+00  0.89047233438E-01  0.10504408288E+02  0.51100000000E-03 0. -1.
        -11    1    3    3    0    0  0.18144439145E+02  0.83819302795E+01  0.71563856212E-01  0.19987059532E+02  0.51100000000E-03 0.  1.
        -12    1    3    3    0    0 -0.78496147276E+01 -0.15256971974E+02 -0.23144124944E+02  0.28810452350E+02  0.00000000000E+00 0.  1.
</event>
<event>
 7    1  0.3750159E-013  0.5930191E+02  0.7816164E-02  0.1266605E+00
        -11   -1    0    0    0    0  0.00000000000E+00  0.00000000000E+00  0.45593999997E+02  0.45594000000E+02  0.51100000000E-03 0.  1.
         11   -1    0    0    0    0 -0.00000000000E+00 -0.00000000000E+00 -0.45593999997E+02  0.45594000000E+02  0.51100000000E-03 0. -1.
    9900012    2    1    2    0    0 -0.90658825666E+01  0.10961429135E+02 -0.28537334871E+02  0.59301911546E+02  0.49999940761E+02 0.  0.
        -12    1    1    2    0    0  0.90658825666E+01 -0.10961429135E+02  0.28537334871E+02  0.31886088454E+02  0.00000000000E+00 0.  1.
         11    1    3    3    0    0  0.64435030657E+01  0.91427877151E+01 -0.23385350863E+02  0.25922652916E+02  0.51100000000E-03 0. -1.
        -11    1    3    3    0    0 -0.86662052144E+01  0.69744787074E+01 -0.16042694179E+02  0.19522154155E+02  0.51100000000E-03 0.  1.
        -12    1    3    3    0    0 -0.68431804180E+01 -0.51558372875E+01  0.10890710172E+02  0.13857104475E+02  0.00000000000E+00 0.  1.
</event>
<event>
 7    1  0.3750159E-013  0.5930193E+02  0.7816164E-02  0.1266605E+00
        -11   -1    0    0    0    0  0.00000000000E+00  0.00000000000E+00  0.45593999997E+02  0.45594000000E+02  0.51100000000E-03 0. -1.
         11   -1    0    0    0    0 -0.00000000000E+00 -0.00000000000E+00 -0.45593999997E+02  0.45594000000E+02  0.51100000000E-03 0.  1.
    9900012    2    1    2    0    0  0.15353906743E+02 -0.25787699412E+02  0.10769091680E+02  0.59301933626E+02  0.49999981029E+02 0.  0.
        -12    1    1    2    0    0 -0.15353906743E+02  0.25787699412E+02 -0.10769091680E+02  0.31886066374E+02  0.00000000000E+00 0.  1.
         11    1    3    3    0    0  0.16403891561E+02 -0.97535894348E+01  0.86959420071E+01  0.20972352583E+02  0.51100000000E-03 0. -1.
        -11    1    3    3    0    0  0.88963846461E+01 -0.40668874937E+01 -0.13263901709E+02  0.16480786464E+02  0.51100000000E-03 0.  1.
        -12    1    3    3    0    0 -0.99463694644E+01 -0.11967222483E+02  0.15337051381E+02  0.21848794579E+02  0.00000000000E+00 0.  1.
</event>
<event>
 7    1  0.3750159E-013  0.5930195E+02  0.7816164E-02  0.1266605E+00
        -11   -1    0    0    0    0  0.00000000000E+00  0.00000000000E+00  0.45593999997E+02  0.45594000000E+02  0.51100000000E-03 0.  1.
         11   -1    0    0    0    0 -0.00000000000E+00 -0.00000000000E+00 -0.45593999997E+02  0.45594000000E+02  0.51100000000E-03 0. -1.
    9900012    2    1    2    0    0 -0.21889979792E+02  0.12341375121E+02 -0.19627522254E+02  0.59301946858E+02  0.50000005161E+02 0.  0.
        -12    1    1    2    0    0  0.21889979792E+02 -0.12341375121E+02  0.19627522254E+02  0.31886053142E+02  0.00000000000E+00 0.  1.
         11    1    3    3    0    0  0.68259588459E+01  0.59952639239E+01  0.17812464445E+01  0.92579556512E+01  0.51100000000E-03 0. -1.
        -11    1    3    3    0    0  0.20249766338E-01  0.85163282920E+01  0.58853537274E+01  0.10352084157E+02  0.51100000000E-03 0.  1.
         12    1    3    3    0    0 -0.28736188404E+02 -0.21702170951E+01 -0.27294122426E+02  0.39691907050E+02  0.00000000000E+00 0. -1.
</event>
<event>
 7    1  0.3750159E-013  0.5930192E+02  0.7816164E-02  0.1266605E+00
        -11   -1    0    0    0    0  0.00000000000E+00  0.00000000000E+00  0.45593999997E+02  0.45594000000E+02  0.51100000000E-03 0.  1.
         11   -1    0    0    0    0 -0.00000000000E+00 -0.00000000000E+00 -0.45593999997E+02  0.45594000000E+02  0.51100000000E-03 0. -1.
    9900012    2    1    2    0    0 -0.32020903091E+00  0.31046444607E+02 -0.72620752893E+01  0.59301921626E+02  0.49999959144E+02 0.  0.
        -12    1    1    2    0    0  0.32020903091E+00 -0.31046444607E+02  0.72620752893E+01  0.31886078374E+02  0.00000000000E+00 0.  1.
         11    1    3    3    0    0 -0.39190809822E+01 -0.64866077707E+01 -0.56063947185E+00  0.75993152977E+01  0.51100000000E-03 0. -1.
        -11    1    3    3    0    0 -0.11233974405E+02  0.19519522440E+02  0.82545744214E+01  0.23986494874E+02  0.51100000000E-03 0.  1.
         12    1    3    3    0    0  0.14832846356E+02  0.18013529938E+02 -0.14956010239E+02  0.27716111454E+02  0.00000000000E+00 0. -1.
</event>
<event>
 7    1  0.3750159E-013  0.5930195E+02  0.7816164E-02  0.1266605E+00
        -11   -1    0    0    0    0  0.00000000000E+00  0.00000000000E+00  0.45593999997E+02  0.45594000000E+02  0.51100000000E-03 0.  1.
         11   -1    0    0    0    0 -0.00000000000E+00 -0.00000000000E+00 -0.45593999997E+02  0.45594000000E+02  0.51100000000E-03 0. -1.
    9900012    2    1    2    0    0  0.97709559107E+01 -0.30224833324E+02 -0.27763638333E+01  0.59301947799E+02  0.50000006877E+02 0.  0.
        -12    1    1    2    0    0 -0.97709559107E+01  0.30224833324E+02  0.27763638333E+01  0.31886052201E+02  0.00000000000E+00 0.  1.
         11    1    3    3    0    0  0.91494913495E+00 -0.12708378499E+01  0.65493181959E+01  0.67339238080E+01  0.51100000000E-03 0.  1.
        -11    1    3    3    0    0 -0.81615151956E+01 -0.98304669884E+01 -0.20882591017E+02  0.24481238109E+02  0.51100000000E-03 0. -1.
         12    1    3    3    0    0  0.17017521971E+02 -0.19123528485E+02  0.11556908988E+02  0.28086785881E+02  0.00000000000E+00 0. -1.
</event>
<event>
 7    1  0.3750159E-013  0.5930198E+02  0.7816164E-02  0.1266605E+00
        -11   -1    0    0    0    0  0.00000000000E+00  0.00000000000E+00  0.45593999997E+02  0.45594000000E+02  0.51100000000E-03 0.  1.
         11   -1    0    0    0    0 -0.00000000000E+00 -0.00000000000E+00 -0.45593999997E+02  0.45594000000E+02  0.51100000000E-03 0. -1.
    9900012    2    1    2    0    0  0.15713662312E+01 -0.51932530662E+01 -0.31420996830E+02  0.59301982515E+02  0.50000070192E+02 0.  0.
        -12    1    1    2    0    0 -0.15713662312E+01  0.51932530662E+01  0.31420996830E+02  0.31886017485E+02  0.00000000000E+00 0.  1.
         11    1    3    3    0    0 -0.23422611011E+02 -0.11119188791E+01 -0.15384283655E+02  0.28045164539E+02  0.51100000000E-03 0. -1.
        -11    1    3    3    0    0 -0.61619269427E+00 -0.13723134444E+00  0.21859606630E+00  0.66806465233E+00  0.51100000000E-03 0.  1.
        -12    1    3    3    0    0  0.25610169936E+02 -0.39441028427E+01 -0.16255309241E+02  0.30588753324E+02  0.00000000000E+00 0.  1.
</event>
<event>
 7    1  0.3750159E-013  0.5930196E+02  0.7816164E-02  0.1266605E+00
        -11   -1    0    0    0    0  0.00000000000E+00  0.00000000000E+00  0.45593999997E+02  0.45594000000E+02  0.51100000000E-03 0. -1.
         11   -1    0    0    0    0 -0.00000000000E+00 -0.00000000000E+00 -0.45593999997E+02  0.45594000000E+02  0.51100000000E-03 0.  1.
    9900012    2    1    2    0    0 -0.17734184995E+02 -0.23659666496E+02 -0.11934747697E+02  0.59301963264E+02  0.50000035082E+02 0.  0.
        -12    1    1    2    0    0  0.17734184995E+02  0.23659666496E+02  0.11934747697E+02  0.31886036736E+02  0.00000000000E+00 0.  1.
         11    1    3    3    0    0  0.78895368824E+01 -0.10729023902E+02 -0.12382490633E+02  0.18184686432E+02  0.51100000000E-03 0. -1.
        -11    1    3    3    0    0  0.37713444959E+01  0.52711219647E+01  0.87716340393E+00  0.65404267424E+01  0.51100000000E-03 0.  1.
         12    1    3    3    0    0 -0.29395066373E+02 -0.18201764559E+02 -0.42942046792E+00  0.34576850089E+02  0.00000000000E+00 0. -1.
</event>
<event>
 7    1  0.3750159E-013  0.5930197E+02  0.7816164E-02  0.1266605E+00
        -11   -1    0    0    0    0  0.00000000000E+00  0.00000000000E+00  0.45593999997E+02  0.45594000000E+02  0.51100000000E-03 0.  1.
         11   -1    0    0    0    0 -0.00000000000E+00 -0.00000000000E+00 -0.45593999997E+02  0.45594000000E+02  0.51100000000E-03 0. -1.
    9900012    2    1    2    0    0  0.52073383845E+00 -0.30299746061E+02 -0.99183143674E+01  0.59301972731E+02  0.50000052348E+02 0.  0.
        -12    1    1    2    0    0 -0.52073383845E+00  0.30299746061E+02  0.99183143674E+01  0.31886027269E+02  0.00000000000E+00 0.  1.
         11    1    3    3    0    0  0.15632580140E+01 -0.28321567278E+02  0.80853807590E+01  0.29494547479E+02  0.51100000000E-03 0. -1.
        -11    1    3    3    0    0 -0.48443084480E+01  0.53958860026E+01  0.25148157004E+01  0.76751031498E+01  0.51100000000E-03 0.  1.
         12    1    3    3    0    0  0.38017842724E+01 -0.73740647857E+01 -0.20518510827E+02  0.22132322103E+02  0.00000000000E+00 0. -1.
</event>
<event>
 7    1  0.3750159E-013  0.5930194E+02  0.7816164E-02  0.1266605E+00
        -11   -1    0    0    0    0  0.00000000000E+00  0.00000000000E+00  0.45593999997E+02  0.45594000000E+02  0.51100000000E-03 0.  1.
         11   -1    0    0    0    0 -0.00000000000E+00 -0.00000000000E+00 -0.45593999997E+02  0.45594000000E+02  0.51100000000E-03 0. -1.
    9900012    2    1    2    0    0 -0.10736798463E+02 -0.25754857541E+02 -0.15431442135E+02  0.59301938240E+02  0.49999989445E+02 0.  0.
        -12    1    1    2    0    0  0.10736798463E+02  0.25754857541E+02  0.15431442135E+02  0.31886061760E+02  0.00000000000E+00 0.  1.
         11    1    3    3    0    0  0.30695658865E+00 -0.50693676010E+01 -0.12127671386E+02  0.13148122441E+02  0.51100000000E-03 0. -1.
        -11    1    3    3    0    0  0.14004595122E+02 -0.10329794380E+01 -0.27608089522E+01  0.14311456857E+02  0.51100000000E-03 0.  1.
         12    1    3    3    0    0 -0.25048350174E+02 -0.19652510502E+02 -0.54296179657E+00  0.31842358942E+02  0.00000000000E+00 0. -1.
</event>
<event>
 7    1  0.3750159E-013  0.5930197E+02  0.7816164E-02  0.1266605E+00
        -11   -1    0    0    0    0  0.00000000000E+00  0.00000000000E+00  0.45593999997E+02  0.45594000000E+02  0.51100000000E-03 0. -1.
         11   -1    0    0    0    0 -0.00000000000E+00 -0.00000000000E+00 -0.45593999997E+02  0.45594000000E+02  0.51100000000E-03 0.  1.
    9900012    2    1    2    0    0  0.26934806282E+02 -0.10494125485E+02  0.13457661007E+02  0.59301967024E+02  0.50000041939E+02 0.  0.
        -12    1    1    2    0    0 -0.26934806282E+02  0.10494125485E+02 -0.13457661007E+02  0.31886032976E+02  0.00000000000E+00 0.  1.
         11    1    3    3    0    0  0.52331825384E+00 -0.72149619359E+01 -0.38531120874E+01  0.81960972877E+01  0.51100000000E-03 0. -1.
        -11    1    3    3    0    0 -0.27159804668E+01 -0.14711930419E+02 -0.74543563694E+00  0.14979089461E+02  0.51100000000E-03 0.  1.
         12    1    3    3    0    0  0.29127468495E+02  0.11432766869E+02  0.18056208732E+02  0.36126780275E+02  0.00000000000E+00 0. -1.
</event>
<event>
 7    1  0.3750159E-013  0.5930193E+02  0.7816164E-02  0.1266605E+00
        -11   -1    0    0    0    0  0.00000000000E+00  0.00000000000E+00  0.45593999997E+02  0.45594000000E+02  0.51100000000E-03 0.  1.
         11   -1    0    0    0    0 -0.00000000000E+00 -0.00000000000E+00 -0.45593999997E+02  0.45594000000E+02  0.51100000000E-03 0. -1.
    9900012    2    1    2    0    0 -0.20270947581E+01 -0.29077277017E+01 -0.31688441245E+02  0.59301932477E+02  0.49999978934E+02 0.  0.
        -12    1    1    2    0    0  0.20270947581E+01  0.29077277017E+01  0.31688441245E+02  0.31886067523E+02  0.00000000000E+00 0.  1.
         11    1    3    3    0    0  0.45807843219E+01 -0.47906458240E+01 -0.27040577257E+02  0.27841097160E+02  0.51100000000E-03 0. -1.
        -11    1    3    3    0    0  0.41246797942E+01 -0.12441729664E+02 -0.66900991462E+00  0.13124678852E+02  0.51100000000E-03 0.  1.
         12    1    3    3    0    0 -0.10732558874E+02  0.14324647786E+02 -0.39788540733E+01  0.18336156465E+02  0.00000000000E+00 0. -1.
</event>
<event>
 7    1  0.3750159E-013  0.5930196E+02  0.7816164E-02  0.1266605E+00
        -11   -1    0    0    0    0  0.00000000000E+00  0.00000000000E+00  0.45593999997E+02  0.45594000000E+02  0.51100000000E-03 0. -1.
         11   -1    0    0    0    0 -0.00000000000E+00 -0.00000000000E+00 -0.45593999997E+02  0.45594000000E+02  0.51100000000E-03 0.  1.
    9900012    2    1    2    0    0  0.42906468087E+01  0.28227542985E+02  0.14195616808E+02  0.59301962780E+02  0.50000034200E+02 0.  0.
        -12    1    1    2    0    0 -0.42906468087E+01 -0.28227542985E+02 -0.14195616808E+02  0.31886037220E+02  0.00000000000E+00 0.  1.
         11    1    3    3    0    0 -0.10159283175E+02 -0.10545649639E+01  0.14679134334E+02  0.17882956326E+02  0.51100000000E-03 0. -1.
        -11    1    3    3    0    0  0.81960537596E+00  0.81621507772E+01  0.11050666680E+02  0.13762619395E+02  0.51100000000E-03 0.  1.
        -12    1    3    3    0    0  0.13630324608E+02  0.21119957172E+02 -0.11534184207E+02  0.27656387059E+02  0.00000000000E+00 0.  1.
</event>
<event>
 7    1  0.3750159E-013  0.5930195E+02  0.7816164E-02  0.1266605E+00
        -11   -1    0    0    0    0  0.00000000000E+00  0.00000000000E+00  0.45593999997E+02  0.45594000000E+02  0.51100000000E-03 0.  1.
         11   -1    0    0    0    0 -0.00000000000E+00 -0.00000000000E+00 -0.45593999997E+02  0.45594000000E+02  0.51100000000E-03 0. -1.
    9900012    2    1    2    0    0  0.85320507684E+01 -0.11070293364E+02 -0.28659601456E+02  0.59301952250E+02  0.50000014996E+02 0.  0.
        -12    1    1    2    0    0 -0.85320507684E+01  0.11070293364E+02  0.28659601456E+02  0.31886047750E+02  0.00000000000E+00 0.  1.
         11    1    3    3    0    0  0.51258321269E+01 -0.30528708609E+01 -0.88999525602E+00  0.60321030580E+01  0.51100000000E-03 0. -1.
        -11    1    3    3    0    0 -0.17385794400E+02  0.60755022501E+01 -0.43412077116E+01  0.18921513131E+02  0.51100000000E-03 0.  1.
         12    1    3    3    0    0  0.20792013042E+02 -0.14092924753E+02 -0.23428398488E+02  0.34348336061E+02  0.00000000000E+00 0. -1.
</event>
<event>
 7    1  0.3750159E-013  0.5930197E+02  0.7816164E-02  0.1266605E+00
        -11   -1    0    0    0    0  0.00000000000E+00  0.00000000000E+00  0.45593999997E+02  0.45594000000E+02  0.51100000000E-03 0.  1.
         11   -1    0    0    0    0 -0.00000000000E+00 -0.00000000000E+00 -0.45593999997E+02  0.45594000000E+02  0.51100000000E-03 0. -1.
    9900012    2    1    2    0    0 -0.26319147596E+02 -0.15974390987E+02 -0.82970178064E+01  0.59301965408E+02  0.50000038992E+02 0.  0.
        -12    1    1    2    0    0  0.26319147596E+02  0.15974390987E+02  0.82970178064E+01  0.31886034592E+02  0.00000000000E+00 0.  1.
         11    1    3    3    0    0 -0.29590647329E+01 -0.85702945828E+01 -0.70212840774E+01  0.11467538693E+02  0.51100000000E-03 0. -1.
        -11    1    3    3    0    0 -0.63720957235E+01 -0.21032942815E+02  0.90053329673E+01  0.23750459143E+02  0.51100000000E-03 0.  1.
         12    1    3    3    0    0 -0.16987987139E+02  0.13628846412E+02 -0.10281066696E+02  0.24083967571E+02  0.00000000000E+00 0. -1.
</event>
<event>
 7    1  0.3750159E-013  0.5930193E+02  0.7816164E-02  0.1266605E+00
        -11   -1    0    0    0    0  0.00000000000E+00  0.00000000000E+00  0.45593999997E+02  0.45594000000E+02  0.51100000000E-03 0.  1.
         11   -1    0    0    0    0 -0.00000000000E+00 -0.00000000000E+00 -0.45593999997E+02  0.45594000000E+02  0.51100000000E-03 0. -1.
    9900012    2    1    2    0    0 -0.17199375019E+02  0.26611339525E+02 -0.35692149635E+01  0.59301934269E+02  0.49999982202E+02 0.  0.
        -12    1    1    2    0    0  0.17199375019E+02 -0.26611339525E+02  0.35692149635E+01  0.31886065731E+02  0.00000000000E+00 0.  1.
         11    1    3    3    0    0  0.50686277128E+01  0.10785228437E+00 -0.14808959937E+02  0.15652728634E+02  0.51100000000E-03 0. -1.
        -11    1    3    3    0    0 -0.83259873807E+01 -0.22315416889E+01 -0.23577317831E+01  0.89364838497E+01  0.51100000000E-03 0.  1.
         12    1    3    3    0    0 -0.13942015352E+02  0.28735028929E+02  0.13597476757E+02  0.34712721786E+02  0.00000000000E+00 0. -1.
</event>
<event>
 7    1  0.3750159E-013  0.5930194E+02  0.7816164E-02  0.1266605E+00
        -11   -1    0    0    0    0  0.00000000000E+00  0.00000000000E+00  0.45593999997E+02  0.45594000000E+02  0.51100000000E-03 0. -1.
         11   -1    0    0    0    0 -0.00000000000E+00 -0.00000000000E+00 -0.45593999997E+02  0.45594000000E+02  0.51100000000E-03 0.  1.
    9900012    2    1    2    0    0  0.87791147493E+01 -0.27851270603E+02 -0.12804485001E+02  0.59301937745E+02  0.49999988542E+02 0.  0.
        -12    1    1    2    0    0 -0.87791147493E+01  0.27851270603E+02  0.12804485001E+02  0.31886062255E+02  0.00000000000E+00 0.  1.
         11    1    3    3    0    0  0.19450266051E+01  0.79534479229E+01  0.31732041062E+01  0.87812121554E+01  0.51100000000E-03 0.  1.
        -11    1    3    3    0    0  0.12319061742E+02 -0.32242766582E+02 -0.14013763284E+01  0.34544451580E+02  0.51100000000E-03 0. -1.
         12    1    3    3    0    0 -0.54849735982E+01 -0.35619519440E+01 -0.14576312779E+02  0.15976274010E+02  0.00000000000E+00 0. -1.
</event>
<event>
 7    1  0.3750159E-013  0.5930197E+02  0.7816164E-02  0.1266605E+00
        -11   -1    0    0    0    0  0.00000000000E+00  0.00000000000E+00  0.45593999997E+02  0.45594000000E+02  0.51100000000E-03 0. -1.
         11   -1    0    0    0    0 -0.00000000000E+00 -0.00000000000E+00 -0.45593999997E+02  0.45594000000E+02  0.51100000000E-03 0.  1.
    9900012    2    1    2    0    0 -0.20438960341E+02 -0.22608863390E+02  0.93705446929E+01  0.59301969964E+02  0.50000047302E+02 0.  0.
        -12    1    1    2    0    0  0.20438960341E+02  0.22608863390E+02 -0.93705446929E+01  0.31886030036E+02  0.00000000000E+00 0.  1.
         11    1    3    3    0    0 -0.15702672994E+02 -0.14139523017E+02 -0.44765692985E+01  0.21599530626E+02  0.51100000000E-03 0. -1.
        -11    1    3    3    0    0 -0.42973177437E+01 -0.16813614199E+02  0.20616827247E+02  0.26948434616E+02  0.51100000000E-03 0.  1.
         12    1    3    3    0    0 -0.43896960259E+00  0.83442738268E+01 -0.67697132556E+01  0.10754004722E+02  0.00000000000E+00 0. -1.
</event>
<event>
 7    1  0.3750159E-013  0.5930194E+02  0.7816164E-02  0.1266605E+00
        -11   -1    0    0    0    0  0.00000000000E+00  0.00000000000E+00  0.45593999997E+02  0.45594000000E+02  0.51100000000E-03 0.  1.
         11   -1    0    0    0    0 -0.00000000000E+00 -0.00000000000E+00 -0.45593999997E+02  0.45594000000E+02  0.51100000000E-03 0. -1.
    9900012    2    1    2    0    0  0.20301728433E+02  0.13344616095E+02  0.20651436660E+02  0.59301940473E+02  0.49999993516E+02 0.  0.
        -12    1    1    2    0    0 -0.20301728433E+02 -0.13344616095E+02 -0.20651436660E+02  0.31886059527E+02  0.00000000000E+00 0.  1.
         11    1    3    3    0    0 -0.11542702018E+02 -0.33987853616E+01 -0.39110162817E+01  0.12652342092E+02  0.51100000000E-03 0. -1.
        -11    1    3    3    0    0  0.23321568279E+01 -0.12937594862E+01 -0.17508907507E+01  0.31903585629E+01  0.51100000000E-03 0.  1.
        -12    1    3    3    0    0  0.29512273623E+02  0.18037160942E+02  0.26313343692E+02  0.43459239817E+02  0.00000000000E+00 0.  1.
</event>
<event>
 7    1  0.3750159E-013  0.5930196E+02  0.7816164E-02  0.1266605E+00
        -11   -1    0    0    0    0  0.00000000000E+00  0.00000000000E+00  0.45593999997E+02  0.45594000000E+02  0.51100000000E-03 0. -1.
         11   -1    0    0    0    0 -0.00000000000E+00 -0.00000000000E+00 -0.45593999997E+02  0.45594000000E+02  0.51100000000E-03 0.  1.
    9900012    2    1    2    0    0 -0.19503436288E+02 -0.19736242898E+02  0.15710392052E+02  0.59301957141E+02  0.50000023916E+02 0.  0.
        -12    1    1    2    0    0  0.19503436288E+02  0.19736242898E+02 -0.15710392052E+02  0.31886042859E+02  0.00000000000E+00 0.  1.
         11    1    3    3    0    0  0.35259657281E+00 -0.14255420326E+01  0.25124762862E+01  0.29101600952E+01  0.51100000000E-03 0. -1.
        -11    1    3    3    0    0  0.14986101512E+02 -0.26246088527E+01 -0.18477645863E+01  0.15325992444E+02  0.51100000000E-03 0.  1.
         12    1    3    3    0    0 -0.34842134374E+02 -0.15686092012E+02  0.15045680352E+02  0.41065804602E+02  0.00000000000E+00 0. -1.
</event>
<event>
 7    1  0.3750159E-013  0.5930193E+02  0.7816164E-02  0.1266605E+00
        -11   -1    0    0    0    0  0.00000000000E+00  0.00000000000E+00  0.45593999997E+02  0.45594000000E+02  0.51100000000E-03 0. -1.
         11   -1    0    0    0    0 -0.00000000000E+00 -0.00000000000E+00 -0.45593999997E+02  0.45594000000E+02  0.51100000000E-03 0.  1.
    9900012    2    1    2    0    0 -0.24844305872E+02  0.19901190828E+02  0.18505768444E+01  0.59301928350E+02  0.49999971408E+02 0.  0.
        -12    1    1    2    0    0  0.24844305872E+02 -0.19901190828E+02 -0.18505768444E+01  0.31886071650E+02  0.00000000000E+00 0.  1.
         11    1    3    3    0    0 -0.15083552778E+02  0.16134076370E+02 -0.24957590190E+00  0.22088102524E+02  0.51100000000E-03 0. -1.
        -11    1    3    3    0    0 -0.76759477799E+01  0.14598909413E+02 -0.11198188890E+02  0.19936092021E+02  0.51100000000E-03 0.  1.
         12    1    3    3    0    0 -0.20848053138E+01 -0.10831794956E+02  0.13298341636E+02  0.17277733805E+02  0.00000000000E+00 0. -1.
</event>
<event>
 7    1  0.3750159E-013  0.5930195E+02  0.7816164E-02  0.1266605E+00
        -11   -1    0    0    0    0  0.00000000000E+00  0.00000000000E+00  0.45593999997E+02  0.45594000000E+02  0.51100000000E-03 0.  1.
         11   -1    0    0    0    0 -0.00000000000E+00 -0.00000000000E+00 -0.45593999997E+02  0.45594000000E+02  0.51100000000E-03 0. -1.
    9900012    2    1    2    0    0 -0.81450691328E+00 -0.29220276525E+02 -0.12737029574E+02  0.59301954399E+02  0.50000018914E+02 0.  0.
        -12    1    1    2    0    0  0.81450691328E+00  0.29220276525E+02  0.12737029574E+02  0.31886045601E+02  0.00000000000E+00 0.  1.
         11    1    3    3    0    0 -0.45674065107E+01 -0.62280538501E+00 -0.47092896945E+01  0.65898784867E+01  0.51100000000E-03 0. -1.
        -11    1    3    3    0    0 -0.16413712961E+02 -0.57624381559E+00  0.25133899007E+01  0.16615028112E+02  0.51100000000E-03 0.  1.
         12    1    3    3    0    0  0.20166612558E+02 -0.28021227325E+02 -0.10541129780E+02  0.36097047800E+02  0.00000000000E+00 0. -1.
</event>
<event>
 7    1  0.3750159E-013  0.5930192E+02  0.7816164E-02  0.1266605E+00
        -11   -1    0    0    0    0  0.00000000000E+00  0.00000000000E+00  0.45593999997E+02  0.45594000000E+02  0.51100000000E-03 0.  1.
         11   -1    0    0    0    0 -0.00000000000E+00 -0.00000000000E+00 -0.45593999997E+02  0.45594000000E+02  0.51100000000E-03 0. -1.
    9900012    2    1    2    0    0  0.28758952500E+02 -0.49705887113E+01  0.12842815971E+02  0.59301921171E+02  0.49999958315E+02 0.  0.
        -12    1    1    2    0    0 -0.28758952500E+02  0.49705887113E+01 -0.12842815971E+02  0.31886078829E+02  0.00000000000E+00 0.  1.
         11    1    3    3    0    0 -0.70170636098E+00  0.51922262943E+00 -0.10427597485E+02  0.10464070600E+02  0.51100000000E-03 0. -1.
        -11    1    3    3    0    0 -0.30545608845E+01 -0.59874346512E+01 -0.26774480984E+01  0.72352224900E+01  0.51100000000E-03 0.  1.
        -12    1    3    3    0    0  0.32515219745E+02  0.49762331043E+00  0.25947861554E+02  0.41602628081E+02  0.00000000000E+00 0.  1.
</event>
<event>
 7    1  0.3750159E-013  0.5930195E+02  0.7816164E-02  0.1266605E+00
        -11   -1    0    0    0    0  0.00000000000E+00  0.00000000000E+00  0.45593999997E+02  0.45594000000E+02  0.51100000000E-03 0. -1.
         11   -1    0    0    0    0 -0.00000000000E+00 -0.00000000000E+00 -0.45593999997E+02  0.45594000000E+02  0.51100000000E-03 0.  1.
    9900012    2    1    2    0    0  0.29172154339E+02 -0.10469427955E+02  0.74897798902E+01  0.59301947983E+02  0.50000007213E+02 0.  0.
        -12    1    1    2    0    0 -0.29172154339E+02  0.10469427955E+02 -0.74897798902E+01  0.31886052017E+02  0.00000000000E+00 0.  1.
         11    1    3    3    0    0  0.10892215758E+01 -0.96153542148E+01 -0.58898828208E+01  0.11328378535E+02  0.51100000000E-03 0. -1.
        -11    1    3    3    0    0 -0.67060121140E+01 -0.70375683119E+01 -0.11092903081E+01  0.97840937990E+01  0.51100000000E-03 0.  1.
         12    1    3    3    0    0  0.34788944877E+02  0.61834945716E+01  0.14488953019E+02  0.38189475649E+02  0.00000000000E+00 0. -1.
</event>
<event>
 7    1  0.3750159E-013  0.5930194E+02  0.7816164E-02  0.1266605E+00
        -11   -1    0    0    0    0  0.00000000000E+00  0.00000000000E+00  0.45593999997E+02  0.45594000000E+02  0.51100000000E-03 0.  1.
         11   -1    0    0    0    0 -0.00000000000E+00 -0.00000000000E+00 -0.45593999997E+02  0.45594000000E+02  0.51100000000E-03 0. -1.
    9900012    2    1    2    0    0  0.29529191683E+02  0.72507978992E+01 -0.96007114209E+01  0.59301938917E+02  0.49999990678E+02 0.  0.
        -12    1    1    2    0    0 -0.29529191683E+02 -0.72507978992E+01  0.96007114209E+01  0.31886061083E+02  0.00000000000E+00 0.  1.
         11    1    3    3    0    0 -0.40388064590E-01  0.40661001134E+00 -0.14503298327E+01  0.15067912204E+01  0.51100000000E-03 0. -1.
        -11    1    3    3    0    0  0.67237223680E+01  0.26237333277E+02 -0.60627581991E+01  0.27755416358E+02  0.51100000000E-03 0.  1.
        -12    1    3    3    0    0  0.22845857380E+02 -0.19393145389E+02 -0.20876233892E+01  0.30039731339E+02  0.00000000000E+00 0.  1.
</event>
<event>
 7    1  0.3750159E-013  0.5930196E+02  0.7816164E-02  0.1266605E+00
        -11   -1    0    0    0    0  0.00000000000E+00  0.00000000000E+00  0.45593999997E+02  0.45594000000E+02  0.51100000000E-03 0.  1.
         11   -1    0    0    0    0 -0.00000000000E+00 -0.00000000000E+00 -0.45593999997E+02  0.45594000000E+02  0.51100000000E-03 0. -1.
    9900012    2    1    2    0    0 -0.23382373021E+02  0.82995063186E+00 -0.21663222531E+02  0.59301962357E+02  0.50000033428E+02 0.  0.
        -12    1    1    2    0    0  0.23382373021E+02 -0.82995063186E+00  0.21663222531E+02  0.31886037643E+02  0.00000000000E+00 0.  1.
         11    1    3    3    0    0 -0.11068117330E+02  0.50329533675E+01  0.10433280445E+01  0.12203375537E+02  0.51100000000E-03 0. -1.
        -11    1    3    3    0    0  0.13790068247E+02  0.12113886351E+01 -0.36139209644E+01  0.14307126535E+02  0.51100000000E-03 0.  1.
         12    1    3    3    0    0 -0.26104323938E+02 -0.54143913708E+01 -0.19092629611E+02  0.32791460285E+02  0.00000000000E+00 0. -1.
</event>
<event>
 7    1  0.3750159E-013  0.5930194E+02  0.7816164E-02  0.1266605E+00
        -11   -1    0    0    0    0  0.00000000000E+00  0.00000000000E+00  0.45593999997E+02  0.45594000000E+02  0.51100000000E-03 0.  1.
         11   -1    0    0    0    0 -0.00000000000E+00 -0.00000000000E+00 -0.45593999997E+02  0.45594000000E+02  0.51100000000E-03 0. -1.
    9900012    2    1    2    0    0 -0.14556059193E+02 -0.27832805455E+02 -0.54933552033E+01  0.59301939250E+02  0.49999991287E+02 0.  0.
        -12    1    1    2    0    0  0.14556059193E+02  0.27832805455E+02  0.54933552033E+01  0.31886060750E+02  0.00000000000E+00 0.  1.
         11    1    3    3    0    0 -0.16736176559E+01 -0.19133339329E+02 -0.35898658060E+01  0.19539007311E+02  0.51100000000E-03 0. -1.
        -11    1    3    3    0    0 -0.29696536450E+00 -0.16977651393E+02 -0.12721406782E+02  0.21217045648E+02  0.51100000000E-03 0.  1.
        -12    1    3    3    0    0 -0.12585476173E+02  0.82781852663E+01  0.10817917385E+02  0.18545886292E+02  0.00000000000E+00 0.  1.
</event>
<event>
 7    1  0.3750159E-013  0.5930193E+02  0.7816164E-02  0.1266605E+00
        -11   -1    0    0    0    0  0.00000000000E+00  0.00000000000E+00  0.45593999997E+02  0.45594000000E+02  0.51100000000E-03 0. -1.
         11   -1    0    0    0    0 -0.00000000000E+00 -0.00000000000E+00 -0.45593999997E+02  0.45594000000E+02  0.51100000000E-03 0.  1.
    9900012    2    1    2    0    0  0.25415912588E+02  0.11954143241E+02  0.15094734864E+02  0.59301934486E+02  0.49999982599E+02 0.  0.
        -12    1    1    2    0    0 -0.25415912588E+02 -0.11954143241E+02 -0.15094734864E+02  0.31886065514E+02  0.00000000000E+00 0.  1.
         11    1    3    3    0    0  0.11861987670E+01  0.74843070903E+01  0.13038190698E+02  0.15080329475E+02  0.51100000000E-03 0. -1.
        -11    1    3    3    0    0  0.61679738093E+01 -0.15757961274E+02  0.24635122912E+01  0.17100471850E+02  0.51100000000E-03 0.  1.
        -12    1    3    3    0    0  0.18061740012E+02  0.20227797424E+02 -0.40696812516E+00  0.27121133161E+02  0.00000000000E+00 0.  1.
</event>
<event>
 7    1  0.3750159E-013  0.5930195E+02  0.7816164E-02  0.1266605E+00
        -11   -1    0    0    0    0  0.00000000000E+00  0.00000000000E+00  0.45593999997E+02  0.45594000000E+02  0.51100000000E-03 0.  1.
         11   -1    0    0    0    0 -0.00000000000E+00 -0.00000000000E+00 -0.45593999997E+02  0.45594000000E+02  0.51100000000E-03 0. -1.
    9900012    2    1    2    0    0  0.33861115971E+01  0.26570786736E+02 -0.17298769106E+02  0.59301954900E+02  0.50000019828E+02 0.  0.
        -12    1    1    2    0    0 -0.33861115971E+01 -0.26570786736E+02  0.17298769106E+02  0.31886045100E+02  0.00000000000E+00 0.  1.
         11    1    3    3    0    0  0.13119632813E+02 -0.64699543334E+01 -0.93324598963E+00  0.14657967887E+02  0.51100000000E-03 0. -1.
        -11    1    3    3    0    0 -0.33143983360E+01 -0.15486669649E+01  0.27771824452E+01  0.45930761253E+01  0.51100000000E-03 0.  1.
         12    1    3    3    0    0 -0.64191228802E+01  0.34589408035E+02 -0.19142705561E+02  0.40050910888E+02  0.00000000000E+00 0. -1.
</event>
<event>
 7    1  0.3750159E-013  0.5930196E+02  0.7816164E-02  0.1266605E+00
        -11   -1    0    0    0    0  0.00000000000E+00  0.00000000000E+00  0.45593999997E+02  0.45594000000E+02  0.51100000000E-03 0.  1.
         11   -1    0    0    0    0 -0.00000000000E+00 -0.00000000000E+00 -0.45593999997E+02  0.45594000000E+02  0.51100000000E-03 0. -1.
    9900012    2    1    2    0    0  0.24683863323E+01  0.23565809171E+01 -0.31702890417E+02  0.59301958140E+02  0.50000025737E+02 0.  0.
        -12    1    1    2    0    0 -0.24683863323E+01 -0.23565809171E+01  0.31702890417E+02  0.31886041860E+02  0.00000000000E+00 0.  1.
         11    1    3    3    0    0  0.51348235082E+01 -0.92174492368E+01 -0.60081713537E+01  0.12141907024E+02  0.51100000000E-03 0. -1.
        -11    1    3    3    0    0  0.67204259825E+00 -0.13622986776E+02 -0.12596618345E+02  0.18566426795E+02  0.51100000000E-03 0.  1.
         12    1    3    3    0    0 -0.33384797742E+01  0.25197016930E+02 -0.13098100719E+02  0.28593624321E+02  0.00000000000E+00 0. -1.
</event>
<event>
 7    1  0.3750159E-013  0.5930185E+02  0.7816164E-02  0.1266605E+00
        -11   -1    0    0    0    0  0.00000000000E+00  0.00000000000E+00  0.45593999997E+02  0.45594000000E+02  0.51100000000E-03 0. -1.
         11   -1    0    0    0    0 -0.00000000000E+00 -0.00000000000E+00 -0.45593999997E+02  0.45594000000E+02  0.51100000000E-03 0.  1.
    9900012    2    1    2    0    0  0.57270025017E+00  0.15139837892E+02  0.28056793820E+02  0.59301853220E+02  0.49999834388E+02 0.  0.
        -12    1    1    2    0    0 -0.57270025017E+00 -0.15139837892E+02 -0.28056793820E+02  0.31886146780E+02  0.00000000000E+00 0.  1.
         11    1    3    3    0    0  0.11342402516E+02 -0.59267244966E+01  0.24982951272E+02  0.28069984194E+02  0.51100000000E-03 0. -1.
        -11    1    3    3    0    0 -0.25658473888E+01  0.86509436804E+01  0.11115344631E+02  0.14316888136E+02  0.51100000000E-03 0.  1.
        -12    1    3    3    0    0 -0.82038548771E+01  0.12415618709E+02 -0.80415020829E+01  0.16914980890E+02  0.00000000000E+00 0.  1.
</event>
<event>
 7    1  0.3750159E-013  0.5930195E+02  0.7816164E-02  0.1266605E+00
        -11   -1    0    0    0    0  0.00000000000E+00  0.00000000000E+00  0.45593999997E+02  0.45594000000E+02  0.51100000000E-03 0. -1.
         11   -1    0    0    0    0 -0.00000000000E+00 -0.00000000000E+00 -0.45593999997E+02  0.45594000000E+02  0.51100000000E-03 0.  1.
    9900012    2    1    2    0    0  0.99793270377E+01  0.21543636582E+02  0.21283914895E+02  0.59301948527E+02  0.50000008205E+02 0.  0.
        -12    1    1    2    0    0 -0.99793270377E+01 -0.21543636582E+02 -0.21283914895E+02  0.31886051473E+02  0.00000000000E+00 0.  1.
         11    1    3    3    0    0  0.22649829278E+02  0.17629568257E+02  0.16983239822E+02  0.33350365490E+02  0.51100000000E-03 0. -1.
        -11    1    3    3    0    0 -0.19544869872E+01 -0.27518297851E+00  0.11965060341E+02  0.12126764378E+02  0.51100000000E-03 0.  1.
        -12    1    3    3    0    0 -0.10716015253E+02  0.41892513043E+01 -0.76643852681E+01  0.13824818658E+02  0.00000000000E+00 0.  1.
</event>
<event>
 7    1  0.3750159E-013  0.5930193E+02  0.7816164E-02  0.1266605E+00
        -11   -1    0    0    0    0  0.00000000000E+00  0.00000000000E+00  0.45593999997E+02  0.45594000000E+02  0.51100000000E-03 0. -1.
         11   -1    0    0    0    0 -0.00000000000E+00 -0.00000000000E+00 -0.45593999997E+02  0.45594000000E+02  0.51100000000E-03 0.  1.
    9900012    2    1    2    0    0 -0.11675050359E+02 -0.28376933652E+02  0.86697208012E+01  0.59301933715E+02  0.49999981192E+02 0.  0.
        -12    1    1    2    0    0  0.11675050359E+02  0.28376933652E+02 -0.86697208012E+01  0.31886066285E+02  0.00000000000E+00 0.  1.
         11    1    3    3    0    0 -0.89784542287E+01 -0.50054141572E+01 -0.61628724221E+00  0.10297894030E+02  0.51100000000E-03 0. -1.
        -11    1    3    3    0    0 -0.11538135100E+02 -0.25988902659E+02  0.20078104777E+02  0.34809221691E+02  0.51100000000E-03 0.  1.
        -12    1    3    3    0    0  0.88415389706E+01  0.26173831644E+01 -0.10792096734E+02  0.14194817995E+02  0.00000000000E+00 0.  1.
</event>
<event>
 7    1  0.3750159E-013  0.5930178E+02  0.7816164E-02  0.1266605E+00
        -11   -1    0    0    0    0  0.00000000000E+00  0.00000000000E+00  0.45593999997E+02  0.45594000000E+02  0.51100000000E-03 0.  1.
         11   -1    0    0    0    0 -0.00000000000E+00 -0.00000000000E+00 -0.45593999997E+02  0.45594000000E+02  0.51100000000E-03 0. -1.
    9900012    2    1    2    0    0 -0.15661356741E+02 -0.27716364929E+02 -0.18044877048E+01  0.59301777964E+02  0.49999697139E+02 0.  0.
        -12    1    1    2    0    0  0.15661356741E+02  0.27716364929E+02  0.18044877048E+01  0.31886222036E+02  0.00000000000E+00 0.  1.
         11    1    3    3    0    0 -0.12191431311E+02 -0.89244638305E+01 -0.86011681225E+01  0.17385544150E+02  0.51100000000E-03 0. -1.
        -11    1    3    3    0    0 -0.44500258677E+01  0.10832228247E+02  0.14997804531E+01  0.11806322064E+02  0.51100000000E-03 0.  1.
        -12    1    3    3    0    0  0.98010043719E+00 -0.29624129345E+02  0.52968999645E+01  0.30109911750E+02  0.00000000000E+00 0.  1.
</event>
<event>
 7    1  0.3750159E-013  0.5930192E+02  0.7816164E-02  0.1266605E+00
        -11   -1    0    0    0    0  0.00000000000E+00  0.00000000000E+00  0.45593999997E+02  0.45594000000E+02  0.51100000000E-03 0. -1.
         11   -1    0    0    0    0 -0.00000000000E+00 -0.00000000000E+00 -0.45593999997E+02  0.45594000000E+02  0.51100000000E-03 0.  1.
    9900012    2    1    2    0    0  0.23634658045E+01  0.30388224458E+02  0.93643924524E+01  0.59301921497E+02  0.49999958909E+02 0.  0.
        -12    1    1    2    0    0 -0.23634658045E+01 -0.30388224458E+02 -0.93643924524E+01  0.31886078503E+02  0.00000000000E+00 0.  1.
         11    1    3    3    0    0  0.16500755304E+00  0.13528950331E+02  0.53485923214E+01  0.14548785676E+02  0.51100000000E-03 0.  1.
        -11    1    3    3    0    0 -0.94452314814E+01 -0.10673434399E+02  0.42017727325E+01  0.14858986976E+02  0.51100000000E-03 0. -1.
         12    1    3    3    0    0  0.11643689733E+02  0.27532708526E+02 -0.18597260148E+00  0.29894148845E+02  0.00000000000E+00 0. -1.
</event>
<event>
 7    1  0.3750159E-013  0.5930192E+02  0.7816164E-02  0.1266605E+00
        -11   -1    0    0    0    0  0.00000000000E+00  0.00000000000E+00  0.45593999997E+02  0.45594000000E+02  0.51100000000E-03 0. -1.
         11   -1    0    0    0    0 -0.00000000000E+00 -0.00000000000E+00 -0.45593999997E+02  0.45594000000E+02  0.51100000000E-03 0.  1.
    9900012    2    1    2    0    0 -0.45479688691E+01  0.30560117973E+02  0.78814634389E+01  0.59301916872E+02  0.49999950474E+02 0.  0.
        -12    1    1    2    0    0  0.45479688691E+01 -0.30560117973E+02 -0.78814634389E+01  0.31886083128E+02  0.00000000000E+00 0.  1.
         11    1    3    3    0    0  0.17774422616E+02  0.24796842150E+02  0.48010085624E+01  0.30884675220E+02  0.51100000000E-03 0. -1.
        -11    1    3    3    0    0 -0.61174849280E+01 -0.35769869108E+01  0.62472628616E+01  0.94470498425E+01  0.51100000000E-03 0.  1.
        -12    1    3    3    0    0 -0.16204906557E+02  0.93402627337E+01 -0.31668079851E+01  0.18970191809E+02  0.00000000000E+00 0.  1.
</event>
<event>
 7    1  0.3750159E-013  0.5930195E+02  0.7816164E-02  0.1266605E+00
        -11   -1    0    0    0    0  0.00000000000E+00  0.00000000000E+00  0.45593999997E+02  0.45594000000E+02  0.51100000000E-03 0.  1.
         11   -1    0    0    0    0 -0.00000000000E+00 -0.00000000000E+00 -0.45593999997E+02  0.45594000000E+02  0.51100000000E-03 0. -1.
    9900012    2    1    2    0    0  0.41179332475E+01 -0.62071428945E+01 -0.31003777560E+02  0.59301949443E+02  0.50000009876E+02 0.  0.
        -12    1    1    2    0    0 -0.41179332475E+01  0.62071428945E+01  0.31003777560E+02  0.31886050557E+02  0.00000000000E+00 0.  1.
         11    1    3    3    0    0 -0.10762046873E+02 -0.68078568522E+01 -0.22804973653E+02  0.26119636126E+02  0.51100000000E-03 0. -1.
        -11    1    3    3    0    0  0.47638589318E+00 -0.68027837929E+01 -0.14326618126E+02  0.15866845876E+02  0.51100000000E-03 0.  1.
         12    1    3    3    0    0  0.14403594227E+02  0.74034977505E+01  0.61278142191E+01  0.17315467441E+02  0.00000000000E+00 0. -1.
</event>
<event>
 7    1  0.3750159E-013  0.5930193E+02  0.7816164E-02  0.1266605E+00
        -11   -1    0    0    0    0  0.00000000000E+00  0.00000000000E+00  0.45593999997E+02  0.45594000000E+02  0.51100000000E-03 0.  1.
         11   -1    0    0    0    0 -0.00000000000E+00 -0.00000000000E+00 -0.45593999997E+02  0.45594000000E+02  0.51100000000E-03 0. -1.
    9900012    2    1    2    0    0  0.12677655346E+01  0.64347912698E+01 -0.31204290785E+02  0.59301928879E+02  0.49999972373E+02 0.  0.
        -12    1    1    2    0    0 -0.12677655346E+01 -0.64347912698E+01  0.31204290785E+02  0.31886071121E+02  0.00000000000E+00 0.  1.
         11    1    3    3    0    0  0.12794801537E+01  0.87085557056E+01 -0.99167849731E+01  0.13259662002E+02  0.51100000000E-03 0. -1.
        -11    1    3    3    0    0  0.22334564373E+01  0.19151624407E+02 -0.10252171294E+02  0.21837583693E+02  0.51100000000E-03 0.  1.
         12    1    3    3    0    0 -0.22451710563E+01 -0.21425388842E+02 -0.11035334518E+02  0.24204683184E+02  0.00000000000E+00 0. -1.
</event>
<event>
 7    1  0.3750159E-013  0.5930196E+02  0.7816164E-02  0.1266605E+00
        -11   -1    0    0    0    0  0.00000000000E+00  0.00000000000E+00  0.45593999997E+02  0.45594000000E+02  0.51100000000E-03 0.  1.
         11   -1    0    0    0    0 -0.00000000000E+00 -0.00000000000E+00 -0.45593999997E+02  0.45594000000E+02  0.51100000000E-03 0. -1.
    9900012    2    1    2    0    0  0.31236304292E+02 -0.47540002348E+01 -0.42909316377E+01  0.59301963583E+02  0.50000035664E+02 0.  0.
        -12    1    1    2    0    0 -0.31236304292E+02  0.47540002348E+01  0.42909316377E+01  0.31886036417E+02  0.00000000000E+00 0.  1.
         11    1    3    3    0    0  0.14470891712E+02 -0.10447479311E+02  0.66934208468E+01  0.19061962485E+02  0.51100000000E-03 0. -1.
        -11    1    3    3    0    0  0.99175220799E+01 -0.45434724188E+01  0.10713813040E+02  0.15290067885E+02  0.51100000000E-03 0.  1.
        -12    1    3    3    0    0  0.68478905001E+01  0.10236951495E+02 -0.21698165524E+02  0.24949933213E+02  0.00000000000E+00 0.  1.
</event>
<event>
 7    1  0.3750159E-013  0.5930194E+02  0.7816164E-02  0.1266605E+00
        -11   -1    0    0    0    0  0.00000000000E+00  0.00000000000E+00  0.45593999997E+02  0.45594000000E+02  0.51100000000E-03 0.  1.
         11   -1    0    0    0    0 -0.00000000000E+00 -0.00000000000E+00 -0.45593999997E+02  0.45594000000E+02  0.51100000000E-03 0. -1.
    9900012    2    1    2    0    0 -0.32633065721E+00  0.31668920837E+01 -0.31726722780E+02  0.59301942930E+02  0.49999997997E+02 0.  0.
        -12    1    1    2    0    0  0.32633065721E+00 -0.31668920837E+01  0.31726722780E+02  0.31886057070E+02  0.00000000000E+00 0.  1.
         11    1    3    3    0    0 -0.16224665815E+01 -0.13792198736E+02 -0.33187821377E+02  0.35976223145E+02  0.51100000000E-03 0. -1.
        -11    1    3    3    0    0 -0.14363984157E+01  0.90881740764E+01 -0.69162595096E+01  0.11510551434E+02  0.51100000000E-03 0.  1.
        -12    1    3    3    0    0  0.27325343399E+01  0.78709167430E+01  0.83773581070E+01  0.11815168350E+02  0.00000000000E+00 0.  1.
</event>
<event>
 7    1  0.3750159E-013  0.5930194E+02  0.7816164E-02  0.1266605E+00
        -11   -1    0    0    0    0  0.00000000000E+00  0.00000000000E+00  0.45593999997E+02  0.45594000000E+02  0.51100000000E-03 0.  1.
         11   -1    0    0    0    0 -0.00000000000E+00 -0.00000000000E+00 -0.45593999997E+02  0.45594000000E+02  0.51100000000E-03 0. -1.
    9900012    2    1    2    0    0  0.12262906848E+02  0.56977323847E+01 -0.28876940151E+02  0.59301941743E+02  0.49999995833E+02 0.  0.
        -12    1    1    2    0    0 -0.12262906848E+02 -0.56977323847E+01  0.28876940151E+02  0.31886058257E+02  0.00000000000E+00 0.  1.
         11    1    3    3    0    0  0.11053736299E+02 -0.50983712983E+01 -0.30771705222E+02  0.33091937366E+02  0.51100000000E-03 0. -1.
        -11    1    3    3    0    0  0.10828134015E+02  0.10446175820E+02 -0.31063743337E+01  0.15362963167E+02  0.51100000000E-03 0.  1.
        -12    1    3    3    0    0 -0.96189634658E+01  0.34992786249E+00  0.50011394049E+01  0.10847041210E+02  0.00000000000E+00 0.  1.
</event>
<event>
 7    1  0.3750159E-013  0.5930191E+02  0.7816164E-02  0.1266605E+00
        -11   -1    0    0    0    0  0.00000000000E+00  0.00000000000E+00  0.45593999997E+02  0.45594000000E+02  0.51100000000E-03 0. -1.
         11   -1    0    0    0    0 -0.00000000000E+00 -0.00000000000E+00 -0.45593999997E+02  0.45594000000E+02  0.51100000000E-03 0.  1.
    9900012    2    1    2    0    0 -0.17281634755E+02 -0.24873978913E+02 -0.99676073839E+01  0.59301907048E+02  0.49999932558E+02 0.  0.
        -12    1    1    2    0    0  0.17281634755E+02  0.24873978913E+02  0.99676073839E+01  0.31886092952E+02  0.00000000000E+00 0.  1.
         11    1    3    3    0    0 -0.66997801750E+01 -0.99865662698E+01 -0.53145733714E+01  0.13147746979E+02  0.51100000000E-03 0. -1.
        -11    1    3    3    0    0 -0.91471301542E+01  0.90664673762E+01 -0.15216493480E+02  0.19935207419E+02  0.51100000000E-03 0.  1.
        -12    1    3    3    0    0 -0.14347244254E+01 -0.23953880020E+02  0.10563459467E+02  0.26218952650E+02  0.00000000000E+00 0.  1.
</event>
<event>
 7    1  0.3750159E-013  0.5930194E+02  0.7816164E-02  0.1266605E+00
        -11   -1    0    0    0    0  0.00000000000E+00  0.00000000000E+00  0.45593999997E+02  0.45594000000E+02  0.51100000000E-03 0.  1.
         11   -1    0    0    0    0 -0.00000000000E+00 -0.00000000000E+00 -0.45593999997E+02  0.45594000000E+02  0.51100000000E-03 0. -1.
    9900012    2    1    2    0    0 -0.18166251223E+02 -0.66011309089E+01 -0.25360065325E+02  0.59301944645E+02  0.50000001126E+02 0.  0.
        -12    1    1    2    0    0  0.18166251223E+02  0.66011309089E+01  0.25360065325E+02  0.31886055355E+02  0.00000000000E+00 0.  1.
         11    1    3    3    0    0 -0.60058688443E+00  0.97896880299E+01  0.36625667667E+01  0.10469627114E+02  0.51100000000E-03 0.  1.
        -11    1    3    3    0    0 -0.20204015856E+02  0.18956419070E+01 -0.11281661169E+02  0.23217915366E+02  0.51100000000E-03 0. -1.
         12    1    3    3    0    0  0.26383515171E+01 -0.18286460846E+02 -0.17740970923E+02  0.25614402165E+02  0.00000000000E+00 0. -1.
</event>
<event>
 7    1  0.3750159E-013  0.5930192E+02  0.7816164E-02  0.1266605E+00
        -11   -1    0    0    0    0  0.00000000000E+00  0.00000000000E+00  0.45593999997E+02  0.45594000000E+02  0.51100000000E-03 0. -1.
         11   -1    0    0    0    0 -0.00000000000E+00 -0.00000000000E+00 -0.45593999997E+02  0.45594000000E+02  0.51100000000E-03 0.  1.
    9900012    2    1    2    0    0  0.25194267547E+02  0.18799454496E+02  0.53433511400E+01  0.59301921408E+02  0.49999958747E+02 0.  0.
        -12    1    1    2    0    0 -0.25194267547E+02 -0.18799454496E+02 -0.53433511400E+01  0.31886078592E+02  0.00000000000E+00 0.  1.
         11    1    3    3    0    0  0.17017801752E+02  0.23242535353E+01  0.77261425161E+00  0.17193157477E+02  0.51100000000E-03 0. -1.
        -11    1    3    3    0    0  0.42856920960E+01  0.17925118418E+02 -0.13958744251E+02  0.23119765751E+02  0.51100000000E-03 0.  1.
         12    1    3    3    0    0  0.38907736985E+01 -0.14499174574E+01  0.18529481139E+02  0.18988998180E+02  0.00000000000E+00 0. -1.
</event>
<event>
 7    1  0.3750159E-013  0.5930194E+02  0.7816164E-02  0.1266605E+00
        -11   -1    0    0    0    0  0.00000000000E+00  0.00000000000E+00  0.45593999997E+02  0.45594000000E+02  0.51100000000E-03 0.  1.
         11   -1    0    0    0    0 -0.00000000000E+00 -0.00000000000E+00 -0.45593999997E+02  0.45594000000E+02  0.51100000000E-03 0. -1.
    9900012    2    1    2    0    0  0.30444954440E+02  0.71110953736E+01 -0.62656152032E+01  0.59301939375E+02  0.49999991515E+02 0.  0.
        -12    1    1    2    0    0 -0.30444954440E+02 -0.71110953736E+01  0.62656152032E+01  0.31886060625E+02  0.00000000000E+00 0.  1.
         11    1    3    3    0    0  0.96307465183E+01  0.13299258208E+02  0.69167212286E+00  0.16434718068E+02  0.51100000000E-03 0.  1.
        -11    1    3    3    0    0  0.23415318664E+02 -0.16657576811E+02  0.20564864833E+01  0.28809393438E+02  0.51100000000E-03 0. -1.
         12    1    3    3    0    0 -0.26011107423E+01  0.10469413977E+02 -0.90137738094E+01  0.14057827869E+02  0.00000000000E+00 0. -1.
</event>
<event>
 7    1  0.3750159E-013  0.5930192E+02  0.7816164E-02  0.1266605E+00
        -11   -1    0    0    0    0  0.00000000000E+00  0.00000000000E+00  0.45593999997E+02  0.45594000000E+02  0.51100000000E-03 0. -1.
         11   -1    0    0    0    0 -0.00000000000E+00 -0.00000000000E+00 -0.45593999997E+02  0.45594000000E+02  0.51100000000E-03 0.  1.
    9900012    2    1    2    0    0  0.40551756912E+01 -0.19657183905E+02  0.24776452885E+02  0.59301922372E+02  0.49999960505E+02 0.  0.
        -12    1    1    2    0    0 -0.40551756912E+01  0.19657183905E+02 -0.24776452885E+02  0.31886077628E+02  0.00000000000E+00 0.  1.
         11    1    3    3    0    0  0.76779106600E+01 -0.19554346492E+02  0.24757143029E+01  0.21153059835E+02  0.51100000000E-03 0. -1.
        -11    1    3    3    0    0 -0.58650014371E+01 -0.26713833716E+01 -0.64962515749E+01  0.91507276082E+01  0.51100000000E-03 0.  1.
        -12    1    3    3    0    0  0.22422664683E+01  0.25685459576E+01  0.28796990157E+02  0.28998134928E+02  0.00000000000E+00 0.  1.
</event>
<event>
 7    1  0.3750159E-013  0.5930196E+02  0.7816164E-02  0.1266605E+00
        -11   -1    0    0    0    0  0.00000000000E+00  0.00000000000E+00  0.45593999997E+02  0.45594000000E+02  0.51100000000E-03 0. -1.
         11   -1    0    0    0    0 -0.00000000000E+00 -0.00000000000E+00 -0.45593999997E+02  0.45594000000E+02  0.51100000000E-03 0.  1.
    9900012    2    1    2    0    0  0.43347178822E+01 -0.27137541438E+02  0.16170450174E+02  0.59301962409E+02  0.50000033523E+02 0.  0.
        -12    1    1    2    0    0 -0.43347178822E+01  0.27137541438E+02 -0.16170450174E+02  0.31886037591E+02  0.00000000000E+00 0.  1.
         11    1    3    3    0    0 -0.50134020968E+01 -0.87290445530E+01 -0.72739215842E+01  0.12419354044E+02  0.51100000000E-03 0. -1.
        -11    1    3    3    0    0 -0.12146770314E+02 -0.13578809606E+02  0.75730088908E+01  0.19730143519E+02  0.51100000000E-03 0.  1.
         12    1    3    3    0    0  0.21494890293E+02 -0.48296872790E+01  0.15871362868E+02  0.27152464846E+02  0.00000000000E+00 0. -1.
</event>
<event>
 7    1  0.3750159E-013  0.5930199E+02  0.7816164E-02  0.1266605E+00
        -11   -1    0    0    0    0  0.00000000000E+00  0.00000000000E+00  0.45593999997E+02  0.45594000000E+02  0.51100000000E-03 0. -1.
         11   -1    0    0    0    0 -0.00000000000E+00 -0.00000000000E+00 -0.45593999997E+02  0.45594000000E+02  0.51100000000E-03 0.  1.
    9900012    2    1    2    0    0  0.23757716089E+02 -0.11488101435E+02  0.17897257063E+02  0.59301994313E+02  0.50000091707E+02 0.  0.
        -12    1    1    2    0    0 -0.23757716089E+02  0.11488101435E+02 -0.17897257063E+02  0.31886005687E+02  0.00000000000E+00 0.  1.
         11    1    3    3    0    0  0.82203358955E+01 -0.51743775548E+01  0.20426110755E+01  0.99257425707E+01  0.51100000000E-03 0.  1.
        -11    1    3    3    0    0  0.22424836509E+02  0.65127912656E+01 -0.50599633777E+01  0.23893366698E+02  0.51100000000E-03 0. -1.
         12    1    3    3    0    0 -0.68874563155E+01 -0.12826515146E+02  0.20914609365E+02  0.25482885044E+02  0.00000000000E+00 0. -1.
</event>
<event>
 7    1  0.3750159E-013  0.5930194E+02  0.7816164E-02  0.1266605E+00
        -11   -1    0    0    0    0  0.00000000000E+00  0.00000000000E+00  0.45593999997E+02  0.45594000000E+02  0.51100000000E-03 0. -1.
         11   -1    0    0    0    0 -0.00000000000E+00 -0.00000000000E+00 -0.45593999997E+02  0.45594000000E+02  0.51100000000E-03 0.  1.
    9900012    2    1    2    0    0 -0.31019361902E+02  0.44728607327E+01  0.58748032544E+01  0.59301943342E+02  0.49999998749E+02 0.  0.
        -12    1    1    2    0    0  0.31019361902E+02 -0.44728607327E+01 -0.58748032544E+01  0.31886056658E+02  0.00000000000E+00 0.  1.
         11    1    3    3    0    0 -0.61979152036E+01 -0.45700546039E+01 -0.11477306890E+02  0.13821292474E+02  0.51100000000E-03 0. -1.
        -11    1    3    3    0    0 -0.22170549004E+01 -0.93003782795E+01 -0.29314232758E+01  0.10000280559E+02  0.51100000000E-03 0.  1.
         12    1    3    3    0    0 -0.22604391798E+02  0.18343293616E+02  0.20283533420E+02  0.35480370309E+02  0.00000000000E+00 0. -1.
</event>
<event>
 7    1  0.3750159E-013  0.5930195E+02  0.7816164E-02  0.1266605E+00
        -11   -1    0    0    0    0  0.00000000000E+00  0.00000000000E+00  0.45593999997E+02  0.45594000000E+02  0.51100000000E-03 0.  1.
         11   -1    0    0    0    0 -0.00000000000E+00 -0.00000000000E+00 -0.45593999997E+02  0.45594000000E+02  0.51100000000E-03 0. -1.
    9900012    2    1    2    0    0 -0.28392310370E+02 -0.94859698714E+01 -0.10982421089E+02  0.59301945281E+02  0.50000002286E+02 0.  0.
        -12    1    1    2    0    0  0.28392310370E+02  0.94859698714E+01  0.10982421089E+02  0.31886054719E+02  0.00000000000E+00 0.  1.
         11    1    3    3    0    0 -0.10449059955E+02  0.19620437417E+01 -0.31225130400E+01  0.11080729106E+02  0.51100000000E-03 0. -1.
        -11    1    3    3    0    0 -0.20470302853E+02  0.10993358077E+02  0.25105539699E+01  0.23370710349E+02  0.51100000000E-03 0.  1.
         12    1    3    3    0    0  0.25270524373E+01 -0.22441371690E+02 -0.10370462019E+02  0.24850505826E+02  0.00000000000E+00 0. -1.
</event>
<event>
 7    1  0.3750159E-013  0.5930195E+02  0.7816164E-02  0.1266605E+00
        -11   -1    0    0    0    0  0.00000000000E+00  0.00000000000E+00  0.45593999997E+02  0.45594000000E+02  0.51100000000E-03 0. -1.
         11   -1    0    0    0    0 -0.00000000000E+00 -0.00000000000E+00 -0.45593999997E+02  0.45594000000E+02  0.51100000000E-03 0.  1.
    9900012    2    1    2    0    0  0.13268122206E+02 -0.24546084479E+02  0.15432650375E+02  0.59301952460E+02  0.50000015378E+02 0.  0.
        -12    1    1    2    0    0 -0.13268122206E+02  0.24546084479E+02 -0.15432650375E+02  0.31886047540E+02  0.00000000000E+00 0.  1.
         11    1    3    3    0    0  0.11709064433E+02  0.15494144809E+01  0.19603564509E+02  0.22886734517E+02  0.51100000000E-03 0. -1.
        -11    1    3    3    0    0  0.10645594944E+02 -0.10082248910E+02  0.54488419193E+01  0.15641940842E+02  0.51100000000E-03 0.  1.
        -12    1    3    3    0    0 -0.90865371714E+01 -0.16013250051E+02 -0.96197560539E+01  0.20773277100E+02  0.00000000000E+00 0.  1.
</event>
<event>
 7    1  0.3750159E-013  0.5930195E+02  0.7816164E-02  0.1266605E+00
        -11   -1    0    0    0    0  0.00000000000E+00  0.00000000000E+00  0.45593999997E+02  0.45594000000E+02  0.51100000000E-03 0. -1.
         11   -1    0    0    0    0 -0.00000000000E+00 -0.00000000000E+00 -0.45593999997E+02  0.45594000000E+02  0.51100000000E-03 0.  1.
    9900012    2    1    2    0    0 -0.15427665679E+02 -0.24131824715E+02  0.14012936156E+02  0.59301949569E+02  0.50000010106E+02 0.  0.
        -12    1    1    2    0    0  0.15427665679E+02  0.24131824715E+02 -0.14012936156E+02  0.31886050431E+02  0.00000000000E+00 0.  1.
         11    1    3    3    0    0 -0.12332459950E+02 -0.57850665809E+01  0.36844302401E+01  0.14111399300E+02  0.51100000000E-03 0. -1.
        -11    1    3    3    0    0  0.14578763473E+02  0.19171603337E+01  0.10887326263E+02  0.18296166855E+02  0.51100000000E-03 0.  1.
         12    1    3    3    0    0 -0.17673969202E+02 -0.20263918468E+02 -0.55882034718E+00  0.26894383414E+02  0.00000000000E+00 0. -1.
</event>
<event>
 7    1  0.3750159E-013  0.5930193E+02  0.7816164E-02  0.1266605E+00
        -11   -1    0    0    0    0  0.00000000000E+00  0.00000000000E+00  0.45593999997E+02  0.45594000000E+02  0.51100000000E-03 0.  1.
         11   -1    0    0    0    0 -0.00000000000E+00 -0.00000000000E+00 -0.45593999997E+02  0.45594000000E+02  0.51100000000E-03 0. -1.
    9900012    2    1    2    0    0  0.25909109889E+02  0.13219309613E+02 -0.13064822849E+02  0.59301925956E+02  0.49999967041E+02 0.  0.
        -12    1    1    2    0    0 -0.25909109889E+02 -0.13219309613E+02  0.13064822849E+02  0.31886074044E+02  0.00000000000E+00 0.  1.
         11    1    3    3    0    0  0.12521993949E+01  0.15637107481E+02 -0.12483980279E+02  0.20048363963E+02  0.51100000000E-03 0. -1.
        -11    1    3    3    0    0 -0.48969678166E+01 -0.53577871404E+01  0.52867460923E+01  0.89797472873E+01  0.51100000000E-03 0.  1.
         12    1    3    3    0    0  0.29553878311E+02  0.29399892719E+01 -0.58675886616E+01  0.30273814706E+02  0.00000000000E+00 0. -1.
</event>
<event>
 7    1  0.3750159E-013  0.5930194E+02  0.7816164E-02  0.1266605E+00
        -11   -1    0    0    0    0  0.00000000000E+00  0.00000000000E+00  0.45593999997E+02  0.45594000000E+02  0.51100000000E-03 0.  1.
         11   -1    0    0    0    0 -0.00000000000E+00 -0.00000000000E+00 -0.45593999997E+02  0.45594000000E+02  0.51100000000E-03 0. -1.
    9900012    2    1    2    0    0  0.53505551011E+01 -0.25172549186E+01 -0.31332980043E+02  0.59301942693E+02  0.49999997566E+02 0.  0.
        -12    1    1    2    0    0 -0.53505551011E+01  0.25172549186E+01  0.31332980043E+02  0.31886057307E+02  0.00000000000E+00 0.  1.
         11    1    3    3    0    0  0.17008538402E+02 -0.21886520327E+01 -0.16170863977E+02  0.23570689814E+02  0.51100000000E-03 0. -1.
        -11    1    3    3    0    0 -0.36575686615E+01 -0.87632810913E+01  0.62490003760E+01  0.11367625520E+02  0.51100000000E-03 0.  1.
         12    1    3    3    0    0 -0.80004146390E+01  0.84346782053E+01 -0.21411116442E+02  0.24363627360E+02  0.00000000000E+00 0. -1.
</event>
<event>
 7    1  0.3750159E-013  0.5930193E+02  0.7816164E-02  0.1266605E+00
        -11   -1    0    0    0    0  0.00000000000E+00  0.00000000000E+00  0.45593999997E+02  0.45594000000E+02  0.51100000000E-03 0.  1.
         11   -1    0    0    0    0 -0.00000000000E+00 -0.00000000000E+00 -0.45593999997E+02  0.45594000000E+02  0.51100000000E-03 0. -1.
    9900012    2    1    2    0    0  0.14074136866E+02 -0.54147762766E+01 -0.28094842449E+02  0.59301932465E+02  0.49999978912E+02 0.  0.
        -12    1    1    2    0    0 -0.14074136866E+02  0.54147762766E+01  0.28094842449E+02  0.31886067535E+02  0.00000000000E+00 0.  1.
         11    1    3    3    0    0 -0.20130798891E+01  0.61158830444E+01  0.67812411218E+01  0.93510292196E+01  0.51100000000E-03 0. -1.
        -11    1    3    3    0    0  0.24517439279E+02 -0.60016006807E+01 -0.21216030366E+02  0.32973382967E+02  0.51100000000E-03 0.  1.
         12    1    3    3    0    0 -0.84302225240E+01 -0.55290586403E+01 -0.13660053205E+02  0.16977520278E+02  0.00000000000E+00 0. -1.
</event>
<event>
 7    1  0.3750159E-013  0.5930193E+02  0.7816164E-02  0.1266605E+00
        -11   -1    0    0    0    0  0.00000000000E+00  0.00000000000E+00  0.45593999997E+02  0.45594000000E+02  0.51100000000E-03 0. -1.
         11   -1    0    0    0    0 -0.00000000000E+00 -0.00000000000E+00 -0.45593999997E+02  0.45594000000E+02  0.51100000000E-03 0.  1.
    9900012    2    1    2    0    0  0.18511435667E+02  0.12536497863E+02  0.22735092422E+02  0.59301930055E+02  0.49999974517E+02 0.  0.
        -12    1    1    2    0    0 -0.18511435667E+02 -0.12536497863E+02 -0.22735092422E+02  0.31886069945E+02  0.00000000000E+00 0.  1.
         11    1    3    3    0    0  0.68704183798E+01  0.10091508965E+02  0.15007053279E+02  0.19345615790E+02  0.51100000000E-03 0. -1.
        -11    1    3    3    0    0 -0.68562295330E+01 -0.25473835220E+01  0.17121497577E+02  0.18618343797E+02  0.51100000000E-03 0.  1.
         12    1    3    3    0    0  0.18497246820E+02  0.49923724197E+01 -0.93934584345E+01  0.21337970467E+02  0.00000000000E+00 0. -1.
</event>
<event>
 7    1  0.3750159E-013  0.5930208E+02  0.7816164E-02  0.1266604E+00
        -11   -1    0    0    0    0  0.00000000000E+00  0.00000000000E+00  0.45593999997E+02  0.45594000000E+02  0.51100000000E-03 0.  1.
         11   -1    0    0    0    0 -0.00000000000E+00 -0.00000000000E+00 -0.45593999997E+02  0.45594000000E+02  0.51100000000E-03 0. -1.
    9900012    2    1    2    0    0 -0.46733362432E+01  0.28020058068E+02 -0.14482680354E+02  0.59302082168E+02  0.50000251934E+02 0.  0.
        -12    1    1    2    0    0  0.46733362432E+01 -0.28020058068E+02  0.14482680354E+02  0.31885917832E+02  0.00000000000E+00 0.  1.
         11    1    3    3    0    0  0.95755025562E+01  0.86502160901E+01 -0.27160599811E+01  0.13186867319E+02  0.51100000000E-03 0. -1.
        -11    1    3    3    0    0  0.49262358233E+01 -0.86938826473E+01  0.43595814393E+00  0.10002072517E+02  0.51100000000E-03 0.  1.
         12    1    3    3    0    0 -0.19175074623E+02  0.28063724625E+02 -0.12202578517E+02  0.36113142332E+02  0.00000000000E+00 0. -1.
</event>
<event>
 7    1  0.3750159E-013  0.5930195E+02  0.7816164E-02  0.1266605E+00
        -11   -1    0    0    0    0  0.00000000000E+00  0.00000000000E+00  0.45593999997E+02  0.45594000000E+02  0.51100000000E-03 0.  1.
         11   -1    0    0    0    0 -0.00000000000E+00 -0.00000000000E+00 -0.45593999997E+02  0.45594000000E+02  0.51100000000E-03 0. -1.
    9900012    2    1    2    0    0 -0.69641941057E+00  0.69748944605E+01 -0.31106049697E+02  0.59301945360E+02  0.50000002430E+02 0.  0.
        -12    1    1    2    0    0  0.69641941057E+00 -0.69748944605E+01  0.31106049697E+02  0.31886054640E+02  0.00000000000E+00 0.  1.
         11    1    3    3    0    0  0.63264736848E+01  0.20251297539E+01 -0.24293527815E+01  0.70729891137E+01  0.51100000000E-03 0. -1.
        -11    1    3    3    0    0  0.10465434367E+02  0.15482710424E+01  0.67677162639E+01  0.12558839254E+02  0.51100000000E-03 0.  1.
         12    1    3    3    0    0 -0.17488327463E+02  0.34014936642E+01 -0.35444413179E+02  0.39670116993E+02  0.00000000000E+00 0. -1.
</event>
<event>
 7    1  0.3750159E-013  0.5930195E+02  0.7816164E-02  0.1266605E+00
        -11   -1    0    0    0    0  0.00000000000E+00  0.00000000000E+00  0.45593999997E+02  0.45594000000E+02  0.51100000000E-03 0. -1.
         11   -1    0    0    0    0 -0.00000000000E+00 -0.00000000000E+00 -0.45593999997E+02  0.45594000000E+02  0.51100000000E-03 0.  1.
    9900012    2    1    2    0    0 -0.95758362493E+00 -0.10859647279E+02  0.29964501722E+02  0.59301948679E+02  0.50000008482E+02 0.  0.
        -12    1    1    2    0    0  0.95758362493E+00  0.10859647279E+02 -0.29964501722E+02  0.31886051321E+02  0.00000000000E+00 0.  1.
         11    1    3    3    0    0 -0.26313062716E+01  0.35293990615E+01 -0.71754284428E+01  0.84182660940E+01  0.51100000000E-03 0. -1.
        -11    1    3    3    0    0 -0.39250457857E+01 -0.33683886387E+00 -0.48522668104E+01  0.62501150630E+01  0.51100000000E-03 0.  1.
         12    1    3    3    0    0  0.55987684323E+01 -0.14052207476E+02  0.41992196975E+02  0.44633567522E+02  0.00000000000E+00 0. -1.
</event>
<event>
 7    1  0.3750159E-013  0.5930194E+02  0.7816164E-02  0.1266605E+00
        -11   -1    0    0    0    0  0.00000000000E+00  0.00000000000E+00  0.45593999997E+02  0.45594000000E+02  0.51100000000E-03 0.  1.
         11   -1    0    0    0    0 -0.00000000000E+00 -0.00000000000E+00 -0.45593999997E+02  0.45594000000E+02  0.51100000000E-03 0. -1.
    9900012    2    1    2    0    0 -0.73968591828E+01 -0.30510397425E+01 -0.30865818415E+02  0.59301935399E+02  0.49999984264E+02 0.  0.
        -12    1    1    2    0    0  0.73968591828E+01  0.30510397425E+01  0.30865818415E+02  0.31886064601E+02  0.00000000000E+00 0.  1.
         11    1    3    3    0    0  0.39453471118E+01 -0.15971942246E+01 -0.79353077782E+01  0.90047711254E+01  0.51100000000E-03 0. -1.
        -11    1    3    3    0    0  0.84630363233E+01  0.46634889761E+01 -0.27433237110E+02  0.29085281704E+02  0.51100000000E-03 0.  1.
        -12    1    3    3    0    0 -0.19805242618E+02 -0.61173344940E+01  0.45027264727E+01  0.21211882570E+02  0.00000000000E+00 0.  1.
</event>
<event>
 7    1  0.3750159E-013  0.5930186E+02  0.7816164E-02  0.1266605E+00
        -11   -1    0    0    0    0  0.00000000000E+00  0.00000000000E+00  0.45593999997E+02  0.45594000000E+02  0.51100000000E-03 0. -1.
         11   -1    0    0    0    0 -0.00000000000E+00 -0.00000000000E+00 -0.45593999997E+02  0.45594000000E+02  0.51100000000E-03 0.  1.
    9900012    2    1    2    0    0  0.30978803494E+01  0.22039133322E+02  0.22834312338E+02  0.59301857553E+02  0.49999842290E+02 0.  0.
        -12    1    1    2    0    0 -0.30978803494E+01 -0.22039133322E+02 -0.22834312338E+02  0.31886142447E+02  0.00000000000E+00 0.  1.
         11    1    3    3    0    0  0.18647739408E+02  0.21369195013E+02  0.22164972026E+02  0.35995370060E+02  0.51100000000E-03 0. -1.
        -11    1    3    3    0    0  0.17128276196E+01 -0.34601040127E+01  0.36441809258E+01  0.53090632991E+01  0.51100000000E-03 0.  1.
        -12    1    3    3    0    0 -0.17262686679E+02  0.41300423215E+01 -0.29748406144E+01  0.17997424194E+02  0.00000000000E+00 0.  1.
</event>
<event>
 7    1  0.3750159E-013  0.5930200E+02  0.7816164E-02  0.1266605E+00
        -11   -1    0    0    0    0  0.00000000000E+00  0.00000000000E+00  0.45593999997E+02  0.45594000000E+02  0.51100000000E-03 0.  1.
         11   -1    0    0    0    0 -0.00000000000E+00 -0.00000000000E+00 -0.45593999997E+02  0.45594000000E+02  0.51100000000E-03 0. -1.
    9900012    2    1    2    0    0 -0.17984275894E+02  0.23827219453E+02 -0.11204736844E+02  0.59302004735E+02  0.50000110715E+02 0.  0.
        -12    1    1    2    0    0  0.17984275894E+02 -0.23827219453E+02  0.11204736844E+02  0.31885995265E+02  0.00000000000E+00 0.  1.
         11    1    3    3    0    0 -0.15357187335E+02  0.24187396668E+02 -0.15641223687E+02  0.32642322820E+02  0.51100000000E-03 0. -1.
        -11    1    3    3    0    0 -0.13091220475E+02 -0.55935118000E+01  0.26548314900E+00  0.14238606299E+02  0.51100000000E-03 0.  1.
        -12    1    3    3    0    0  0.10464131916E+02  0.52333345851E+01  0.41710036941E+01  0.12421075616E+02  0.00000000000E+00 0.  1.
</event>
<event>
 7    1  0.3750159E-013  0.5930196E+02  0.7816164E-02  0.1266605E+00
        -11   -1    0    0    0    0  0.00000000000E+00  0.00000000000E+00  0.45593999997E+02  0.45594000000E+02  0.51100000000E-03 0.  1.
         11   -1    0    0    0    0 -0.00000000000E+00 -0.00000000000E+00 -0.45593999997E+02  0.45594000000E+02  0.51100000000E-03 0. -1.
    9900012    2    1    2    0    0  0.26473868990E+02 -0.17376750892E+02 -0.37286040634E+01  0.59301957612E+02  0.50000024775E+02 0.  0.
        -12    1    1    2    0    0 -0.26473868990E+02  0.17376750892E+02  0.37286040634E+01  0.31886042388E+02  0.00000000000E+00 0.  1.
         11    1    3    3    0    0  0.93807875375E+00 -0.19280962177E+02 -0.13462036109E+02  0.23534270983E+02  0.51100000000E-03 0. -1.
        -11    1    3    3    0    0  0.61113577761E+01 -0.36461668703E+00 -0.75139013473E+01  0.96922831631E+01  0.51100000000E-03 0.  1.
        -12    1    3    3    0    0  0.19424432460E+02  0.22688279720E+01  0.17247333393E+02  0.26075403467E+02  0.00000000000E+00 0.  1.
</event>
<event>
 7    1  0.3750159E-013  0.5930195E+02  0.7816164E-02  0.1266605E+00
        -11   -1    0    0    0    0  0.00000000000E+00  0.00000000000E+00  0.45593999997E+02  0.45594000000E+02  0.51100000000E-03 0. -1.
         11   -1    0    0    0    0 -0.00000000000E+00 -0.00000000000E+00 -0.45593999997E+02  0.45594000000E+02  0.51100000000E-03 0.  1.
    9900012    2    1    2    0    0 -0.18482173205E+02 -0.11434388740E+02  0.23332049090E+02  0.59301945258E+02  0.50000002245E+02 0.  0.
        -12    1    1    2    0    0  0.18482173205E+02  0.11434388740E+02 -0.23332049090E+02  0.31886054742E+02  0.00000000000E+00 0.  1.
         11    1    3    3    0    0  0.77544279008E+00 -0.15145234376E+02 -0.83940994853E+01  0.17333215000E+02  0.51100000000E-03 0.  1.
        -11    1    3    3    0    0 -0.10363868792E+02 -0.53103327715E+00  0.18907514825E+01  0.10548303849E+02  0.51100000000E-03 0. -1.
        -12    1    3    3    0    0 -0.88937472039E+01  0.42418789126E+01  0.29835397092E+02  0.31420426409E+02  0.00000000000E+00 0.  1.
</event>
<event>
 7    1  0.3750159E-013  0.5930192E+02  0.7816164E-02  0.1266605E+00
        -11   -1    0    0    0    0  0.00000000000E+00  0.00000000000E+00  0.45593999997E+02  0.45594000000E+02  0.51100000000E-03 0.  1.
         11   -1    0    0    0    0 -0.00000000000E+00 -0.00000000000E+00 -0.45593999997E+02  0.45594000000E+02  0.51100000000E-03 0. -1.
    9900012    2    1    2    0    0  0.28814384424E+02  0.12983862801E+02  0.42275809258E+01  0.59301923360E+02  0.49999962307E+02 0.  0.
        -12    1    1    2    0    0 -0.28814384424E+02 -0.12983862801E+02 -0.42275809258E+01  0.31886076640E+02  0.00000000000E+00 0.  1.
         11    1    3    3    0    0 -0.30733371991E-01 -0.42691925963E+01 -0.10021290343E+02  0.10892805441E+02  0.51100000000E-03 0. -1.
        -11    1    3    3    0    0  0.15427202136E+02 -0.69927792705E+01 -0.64273820077E+00  0.16950240126E+02  0.51100000000E-03 0.  1.
         12    1    3    3    0    0  0.13417915661E+02  0.24245834668E+02  0.14891609470E+02  0.31458877794E+02  0.00000000000E+00 0. -1.
</event>
<event>
 7    1  0.3750159E-013  0.5930183E+02  0.7816164E-02  0.1266605E+00
        -11   -1    0    0    0    0  0.00000000000E+00  0.00000000000E+00  0.45593999997E+02  0.45594000000E+02  0.51100000000E-03 0. -1.
         11   -1    0    0    0    0 -0.00000000000E+00 -0.00000000000E+00 -0.45593999997E+02  0.45594000000E+02  0.51100000000E-03 0.  1.
    9900012    2    1    2    0    0  0.25840016288E+02  0.18071614766E+02  0.47368870087E+01  0.59301830576E+02  0.49999793092E+02 0.  0.
        -12    1    1    2    0    0 -0.25840016288E+02 -0.18071614766E+02 -0.47368870087E+01  0.31886169424E+02  0.00000000000E+00 0.  1.
         11    1    3    3    0    0 -0.18328220772E+01 -0.20639940433E+01 -0.88264638819E+00  0.28979946662E+01  0.51100000000E-03 0. -1.
        -11    1    3    3    0    0 -0.90935409650E+01  0.21725966058E+01  0.11762302395E+02  0.15025459100E+02  0.51100000000E-03 0.  1.
         12    1    3    3    0    0  0.36766379330E+02  0.17963012203E+02 -0.61427689978E+01  0.41378376810E+02  0.00000000000E+00 0. -1.
</event>
<event>
 7    1  0.3750159E-013  0.5930194E+02  0.7816164E-02  0.1266605E+00
        -11   -1    0    0    0    0  0.00000000000E+00  0.00000000000E+00  0.45593999997E+02  0.45594000000E+02  0.51100000000E-03 0. -1.
         11   -1    0    0    0    0 -0.00000000000E+00 -0.00000000000E+00 -0.45593999997E+02  0.45594000000E+02  0.51100000000E-03 0.  1.
    9900012    2    1    2    0    0 -0.45338844339E+01  0.13111665164E+02  0.28709738853E+02  0.59301937584E+02  0.49999988247E+02 0.  0.
        -12    1    1    2    0    0  0.45338844339E+01 -0.13111665164E+02 -0.28709738853E+02  0.31886062416E+02  0.00000000000E+00 0.  1.
         11    1    3    3    0    0 -0.20670811312E+02  0.77150625256E+01  0.30389303106E+02  0.37554152548E+02  0.51100000000E-03 0. -1.
        -11    1    3    3    0    0 -0.16742505310E+01 -0.16811828056E+01 -0.98579755997E+00  0.25692970939E+01  0.51100000000E-03 0.  1.
        -12    1    3    3    0    0  0.17811177409E+02  0.70777854441E+01 -0.69376669387E+00  0.19178487941E+02  0.00000000000E+00 0.  1.
</event>
<event>
 7    1  0.3750159E-013  0.5930179E+02  0.7816164E-02  0.1266605E+00
        -11   -1    0    0    0    0  0.00000000000E+00  0.00000000000E+00  0.45593999997E+02  0.45594000000E+02  0.51100000000E-03 0.  1.
         11   -1    0    0    0    0 -0.00000000000E+00 -0.00000000000E+00 -0.45593999997E+02  0.45594000000E+02  0.51100000000E-03 0. -1.
    9900012    2    1    2    0    0  0.23608060446E+02  0.20116614917E+02 -0.73967553454E+01  0.59301785057E+02  0.49999710075E+02 0.  0.
        -12    1    1    2    0    0 -0.23608060446E+02 -0.20116614917E+02  0.73967553454E+01  0.31886214943E+02  0.00000000000E+00 0.  1.
         11    1    3    3    0    0  0.89746576209E+01  0.22135303073E+02 -0.10206204894E+02  0.25974655728E+02  0.51100000000E-03 0. -1.
        -11    1    3    3    0    0  0.23888856156E+02 -0.14860560217E+01  0.18342810500E+01  0.24005216062E+02  0.51100000000E-03 0.  1.
         12    1    3    3    0    0 -0.92554533314E+01 -0.53263213438E+00  0.97516849868E+00  0.93219132672E+01  0.00000000000E+00 0. -1.
</event>
<event>
 7    1  0.3750159E-013  0.5930193E+02  0.7816164E-02  0.1266605E+00
        -11   -1    0    0    0    0  0.00000000000E+00  0.00000000000E+00  0.45593999997E+02  0.45594000000E+02  0.51100000000E-03 0.  1.
         11   -1    0    0    0    0 -0.00000000000E+00 -0.00000000000E+00 -0.45593999997E+02  0.45594000000E+02  0.51100000000E-03 0. -1.
    9900012    2    1    2    0    0 -0.15129539898E+02 -0.21999590884E+02 -0.17430907758E+02  0.59301929031E+02  0.49999972649E+02 0.  0.
        -12    1    1    2    0    0  0.15129539898E+02  0.21999590884E+02  0.17430907758E+02  0.31886070969E+02  0.00000000000E+00 0.  1.
         11    1    3    3    0    0 -0.10972628661E+02 -0.36487871556E+01  0.87566321956E+01  0.14504855570E+02  0.51100000000E-03 0. -1.
        -11    1    3    3    0    0 -0.70673327041E+01 -0.21428287883E+02 -0.48965702225E+01  0.23088852577E+02  0.51100000000E-03 0.  1.
         12    1    3    3    0    0  0.29104214669E+01  0.30774841543E+01 -0.21290969731E+02  0.21708220883E+02  0.00000000000E+00 0. -1.
</event>
<event>
 7    1  0.3750159E-013  0.5930195E+02  0.7816164E-02  0.1266605E+00
        -11   -1    0    0    0    0  0.00000000000E+00  0.00000000000E+00  0.45593999997E+02  0.45594000000E+02  0.51100000000E-03 0. -1.
         11   -1    0    0    0    0 -0.00000000000E+00 -0.00000000000E+00 -0.45593999997E+02  0.45594000000E+02  0.51100000000E-03 0.  1.
    9900012    2    1    2    0    0 -0.24718493240E+00  0.61693184849E+01  0.31282564320E+02  0.59301946287E+02  0.50000004121E+02 0.  0.
        -12    1    1    2    0    0  0.24718493240E+00 -0.61693184849E+01 -0.31282564320E+02  0.31886053713E+02  0.00000000000E+00 0.  1.
         11    1    3    3    0    0  0.68096622395E+01 -0.17300095888E+01 -0.78205196387E+01  0.10513085212E+02  0.51100000000E-03 0. -1.
        -11    1    3    3    0    0  0.81416902459E+01 -0.37971626810E+01  0.18934908762E+02  0.20957965898E+02  0.51100000000E-03 0.  1.
         12    1    3    3    0    0 -0.15198537418E+02  0.11696490755E+02  0.20168175196E+02  0.27830895177E+02  0.00000000000E+00 0. -1.
</event>
<event>
 7    1  0.3750159E-013  0.5930195E+02  0.7816164E-02  0.1266605E+00
        -11   -1    0    0    0    0  0.00000000000E+00  0.00000000000E+00  0.45593999997E+02  0.45594000000E+02  0.51100000000E-03 0.  1.
         11   -1    0    0    0    0 -0.00000000000E+00 -0.00000000000E+00 -0.45593999997E+02  0.45594000000E+02  0.51100000000E-03 0. -1.
    9900012    2    1    2    0    0  0.22002486957E+02 -0.18924320303E+02 -0.13209129061E+02  0.59301946281E+02  0.50000004109E+02 0.  0.
        -12    1    1    2    0    0 -0.22002486957E+02  0.18924320303E+02  0.13209129061E+02  0.31886053719E+02  0.00000000000E+00 0.  1.
         11    1    3    3    0    0  0.18651928747E+01 -0.76113384012E+01  0.34044951590E+01  0.85441210353E+01  0.51100000000E-03 0. -1.
        -11    1    3    3    0    0  0.13191523974E+02 -0.12739753555E+02  0.11578112725E+02  0.21688022499E+02  0.51100000000E-03 0.  1.
         12    1    3    3    0    0  0.69457701080E+01  0.14267716524E+01 -0.28191736945E+02  0.29069802746E+02  0.00000000000E+00 0. -1.
</event>
<event>
 7    1  0.3750159E-013  0.5930198E+02  0.7816164E-02  0.1266605E+00
        -11   -1    0    0    0    0  0.00000000000E+00  0.00000000000E+00  0.45593999997E+02  0.45594000000E+02  0.51100000000E-03 0.  1.
         11   -1    0    0    0    0 -0.00000000000E+00 -0.00000000000E+00 -0.45593999997E+02  0.45594000000E+02  0.51100000000E-03 0. -1.
    9900012    2    1    2    0    0  0.84847960679E+01  0.28970206133E+02 -0.10269061202E+02  0.59301980718E+02  0.50000066914E+02 0.  0.
        -12    1    1    2    0    0 -0.84847960679E+01 -0.28970206133E+02  0.10269061202E+02  0.31886019282E+02  0.00000000000E+00 0.  1.
         11    1    3    3    0    0  0.20577231409E+02  0.21793171981E+02 -0.12722727761E+02  0.32561213113E+02  0.51100000000E-03 0. -1.
        -11    1    3    3    0    0 -0.15757855887E+01  0.12719638394E+02 -0.37195099209E+01  0.13345675532E+02  0.51100000000E-03 0.  1.
        -12    1    3    3    0    0 -0.10516649752E+02 -0.55426042418E+01  0.61731764802E+01  0.13395092073E+02  0.00000000000E+00 0.  1.
</event>
<event>
 7    1  0.3750159E-013  0.5930194E+02  0.7816164E-02  0.1266605E+00
        -11   -1    0    0    0    0  0.00000000000E+00  0.00000000000E+00  0.45593999997E+02  0.45594000000E+02  0.51100000000E-03 0. -1.
         11   -1    0    0    0    0 -0.00000000000E+00 -0.00000000000E+00 -0.45593999997E+02  0.45594000000E+02  0.51100000000E-03 0.  1.
    9900012    2    1    2    0    0 -0.29529748032E+02  0.86278373960E+00  0.11998775099E+02  0.59301936924E+02  0.49999987045E+02 0.  0.
        -12    1    1    2    0    0  0.29529748032E+02 -0.86278373960E+00 -0.11998775099E+02  0.31886063076E+02  0.00000000000E+00 0.  1.
         11    1    3    3    0    0 -0.16767159506E+02  0.14942105019E+02  0.76443384290E+01  0.23724250264E+02  0.51100000000E-03 0. -1.
        -11    1    3    3    0    0 -0.22263476732E+02 -0.97775290617E+01  0.10583694280E+00  0.24316119601E+02  0.51100000000E-03 0.  1.
        -12    1    3    3    0    0  0.95008882059E+01 -0.43017922180E+01  0.42485997270E+01  0.11261567059E+02  0.00000000000E+00 0.  1.
</event>
<event>
 7    1  0.3750159E-013  0.5930196E+02  0.7816164E-02  0.1266605E+00
        -11   -1    0    0    0    0  0.00000000000E+00  0.00000000000E+00  0.45593999997E+02  0.45594000000E+02  0.51100000000E-03 0. -1.
         11   -1    0    0    0    0 -0.00000000000E+00 -0.00000000000E+00 -0.45593999997E+02  0.45594000000E+02  0.51100000000E-03 0.  1.
    9900012    2    1    2    0    0 -0.17553439379E+02 -0.13455409892E+02  0.22968423702E+02  0.59301956395E+02  0.50000022556E+02 0.  0.
        -12    1    1    2    0    0  0.17553439379E+02  0.13455409892E+02 -0.22968423702E+02  0.31886043605E+02  0.00000000000E+00 0.  1.
         11    1    3    3    0    0 -0.12925497468E+02 -0.10709872549E+02  0.12411906617E+02  0.20876428836E+02  0.51100000000E-03 0. -1.
        -11    1    3    3    0    0 -0.15545262310E+02  0.10280941657E+02  0.10576143108E+02  0.21429133089E+02  0.51100000000E-03 0.  1.
         12    1    3    3    0    0  0.10917320398E+02 -0.13026479000E+02 -0.19626023567E-01  0.16996394471E+02  0.00000000000E+00 0. -1.
</event>
<event>
 7    1  0.3750159E-013  0.5930195E+02  0.7816164E-02  0.1266605E+00
        -11   -1    0    0    0    0  0.00000000000E+00  0.00000000000E+00  0.45593999997E+02  0.45594000000E+02  0.51100000000E-03 0. -1.
         11   -1    0    0    0    0 -0.00000000000E+00 -0.00000000000E+00 -0.45593999997E+02  0.45594000000E+02  0.51100000000E-03 0.  1.
    9900012    2    1    2    0    0 -0.26454080621E+02  0.67199082346E+01  0.16484683315E+02  0.59301947686E+02  0.50000006671E+02 0.  0.
        -12    1    1    2    0    0  0.26454080621E+02 -0.67199082346E+01 -0.16484683315E+02  0.31886052314E+02  0.00000000000E+00 0.  1.
         11    1    3    3    0    0 -0.19752217727E+01 -0.37277956164E+01  0.85293085969E+01  0.95156222398E+01  0.51100000000E-03 0. -1.
        -11    1    3    3    0    0 -0.23722775119E+02  0.62019630734E+01 -0.13439143622E+02  0.27961491142E+02  0.51100000000E-03 0.  1.
         12    1    3    3    0    0 -0.75608372916E+00  0.42457407776E+01  0.21394518341E+02  0.21824834304E+02  0.00000000000E+00 0. -1.
</event>
<event>
 7    1  0.3750159E-013  0.5930193E+02  0.7816164E-02  0.1266605E+00
        -11   -1    0    0    0    0  0.00000000000E+00  0.00000000000E+00  0.45593999997E+02  0.45594000000E+02  0.51100000000E-03 0. -1.
         11   -1    0    0    0    0 -0.00000000000E+00 -0.00000000000E+00 -0.45593999997E+02  0.45594000000E+02  0.51100000000E-03 0.  1.
    9900012    2    1    2    0    0  0.31052941866E+02 -0.72050461335E+01 -0.72346268722E+00  0.59301932721E+02  0.49999979378E+02 0.  0.
        -12    1    1    2    0    0 -0.31052941866E+02  0.72050461335E+01  0.72346268722E+00  0.31886067279E+02  0.00000000000E+00 0.  1.
         11    1    3    3    0    0 -0.49933692966E+01 -0.11224687959E+02  0.23263317634E+01  0.12503566549E+02  0.51100000000E-03 0. -1.
        -11    1    3    3    0    0 -0.19050154690E+00  0.11377413423E+01  0.85606224528E+01  0.86379976408E+01  0.51100000000E-03 0.  1.
        -12    1    3    3    0    0  0.36236812709E+02  0.28819004835E+01 -0.11610416903E+02  0.38160368530E+02  0.00000000000E+00 0.  1.
</event>
<event>
 7    1  0.3750159E-013  0.5930194E+02  0.7816164E-02  0.1266605E+00
        -11   -1    0    0    0    0  0.00000000000E+00  0.00000000000E+00  0.45593999997E+02  0.45594000000E+02  0.51100000000E-03 0.  1.
         11   -1    0    0    0    0 -0.00000000000E+00 -0.00000000000E+00 -0.45593999997E+02  0.45594000000E+02  0.51100000000E-03 0. -1.
    9900012    2    1    2    0    0 -0.23909477392E+02  0.20856235415E+02 -0.31740926032E+01  0.59301944604E+02  0.50000001052E+02 0.  0.
        -12    1    1    2    0    0  0.23909477392E+02 -0.20856235415E+02  0.31740926032E+01  0.31886055396E+02  0.00000000000E+00 0.  1.
         11    1    3    3    0    0 -0.94102535682E+01  0.75514973837E+01 -0.34443106018E+01  0.12547559951E+02  0.51100000000E-03 0. -1.
        -11    1    3    3    0    0 -0.29149669535E+02  0.12075925300E+02 -0.29962785312E+01  0.31693988249E+02  0.51100000000E-03 0.  1.
        -12    1    3    3    0    0  0.14650445711E+02  0.12288127312E+01  0.32664965298E+01  0.15060396404E+02  0.00000000000E+00 0.  1.
</event>
<event>
 7    1  0.3750159E-013  0.5930195E+02  0.7816164E-02  0.1266605E+00
        -11   -1    0    0    0    0  0.00000000000E+00  0.00000000000E+00  0.45593999997E+02  0.45594000000E+02  0.51100000000E-03 0.  1.
         11   -1    0    0    0    0 -0.00000000000E+00 -0.00000000000E+00 -0.45593999997E+02  0.45594000000E+02  0.51100000000E-03 0. -1.
    9900012    2    1    2    0    0  0.11910059242E+01 -0.31723663723E+02 -0.29851242301E+01  0.59301948163E+02  0.50000007542E+02 0.  0.
        -12    1    1    2    0    0 -0.11910059242E+01  0.31723663723E+02  0.29851242301E+01  0.31886051837E+02  0.00000000000E+00 0.  1.
         11    1    3    3    0    0 -0.13223252767E+02  0.33073337027E+01 -0.13140014301E+02  0.18932850975E+02  0.51100000000E-03 0. -1.
        -11    1    3    3    0    0  0.19099896790E+01 -0.10680627392E+02  0.67660219786E+01  0.12786825867E+02  0.51100000000E-03 0.  1.
        -12    1    3    3    0    0  0.12504269013E+02 -0.24350370033E+02  0.33888680919E+01  0.27582271321E+02  0.00000000000E+00 0.  1.
</event>
<event>
 7    1  0.3750159E-013  0.5930191E+02  0.7816164E-02  0.1266605E+00
        -11   -1    0    0    0    0  0.00000000000E+00  0.00000000000E+00  0.45593999997E+02  0.45594000000E+02  0.51100000000E-03 0.  1.
         11   -1    0    0    0    0 -0.00000000000E+00 -0.00000000000E+00 -0.45593999997E+02  0.45594000000E+02  0.51100000000E-03 0. -1.
    9900012    2    1    2    0    0  0.19722506418E+02 -0.53044836925E+01 -0.24486894641E+02  0.59301908741E+02  0.49999935645E+02 0.  0.
        -12    1    1    2    0    0 -0.19722506418E+02  0.53044836925E+01  0.24486894641E+02  0.31886091259E+02  0.00000000000E+00 0.  1.
         11    1    3    3    0    0 -0.49021758126E+01 -0.74944827995E+01 -0.20673949663E+02  0.22530219597E+02  0.51100000000E-03 0. -1.
        -11    1    3    3    0    0 -0.22153423173E+01  0.78507467997E+00 -0.90838173274E+01  0.93829537639E+01  0.51100000000E-03 0.  1.
        -12    1    3    3    0    0  0.26840024548E+02  0.14049244270E+01  0.52708723499E+01  0.27388735380E+02  0.00000000000E+00 0.  1.
</event>
<event>
 7    1  0.3750159E-013  0.5930197E+02  0.7816164E-02  0.1266605E+00
        -11   -1    0    0    0    0  0.00000000000E+00  0.00000000000E+00  0.45593999997E+02  0.45594000000E+02  0.51100000000E-03 0.  1.
         11   -1    0    0    0    0 -0.00000000000E+00 -0.00000000000E+00 -0.45593999997E+02  0.45594000000E+02  0.51100000000E-03 0. -1.
    9900012    2    1    2    0    0 -0.65415189249E+00  0.27969908790E+02 -0.15296251204E+02  0.59301968366E+02  0.50000044388E+02 0.  0.
        -12    1    1    2    0    0  0.65415189249E+00 -0.27969908790E+02  0.15296251204E+02  0.31886031634E+02  0.00000000000E+00 0.  1.
         11    1    3    3    0    0  0.82923595221E+01  0.15931103494E+02 -0.69790621361E+01  0.19268383262E+02  0.51100000000E-03 0. -1.
        -11    1    3    3    0    0 -0.84861801130E+01  0.23328599943E+02  0.17695895830E+01  0.24887150816E+02  0.51100000000E-03 0.  1.
         12    1    3    3    0    0 -0.46033130159E+00 -0.11289794647E+02 -0.10086778651E+02  0.15146434288E+02  0.00000000000E+00 0. -1.
</event>
<event>
 7    1  0.3750159E-013  0.5930196E+02  0.7816164E-02  0.1266605E+00
        -11   -1    0    0    0    0  0.00000000000E+00  0.00000000000E+00  0.45593999997E+02  0.45594000000E+02  0.51100000000E-03 0. -1.
         11   -1    0    0    0    0 -0.00000000000E+00 -0.00000000000E+00 -0.45593999997E+02  0.45594000000E+02  0.51100000000E-03 0.  1.
    9900012    2    1    2    0    0 -0.29618061150E+02 -0.86823114831E+01 -0.80067201764E+01  0.59301958430E+02  0.50000026267E+02 0.  0.
        -12    1    1    2    0    0  0.29618061150E+02  0.86823114831E+01  0.80067201764E+01  0.31886041570E+02  0.00000000000E+00 0.  1.
         11    1    3    3    0    0 -0.26981129103E+02 -0.47416578762E+01 -0.13642864334E+02  0.30603797061E+02  0.51100000000E-03 0. -1.
        -11    1    3    3    0    0 -0.13636614591E+02 -0.42789646482E+01 -0.31272243591E+01  0.14630322225E+02  0.51100000000E-03 0.  1.
         12    1    3    3    0    0  0.10999682543E+02  0.33831104126E+00  0.87633685165E+01  0.14067839144E+02  0.00000000000E+00 0. -1.
</event>
<event>
 7    1  0.3750159E-013  0.5930195E+02  0.7816164E-02  0.1266605E+00
        -11   -1    0    0    0    0  0.00000000000E+00  0.00000000000E+00  0.45593999997E+02  0.45594000000E+02  0.51100000000E-03 0. -1.
         11   -1    0    0    0    0 -0.00000000000E+00 -0.00000000000E+00 -0.45593999997E+02  0.45594000000E+02  0.51100000000E-03 0.  1.
    9900012    2    1    2    0    0 -0.14020194958E+02  0.28466670911E+02 -0.31309458323E+01  0.59301952248E+02  0.50000014992E+02 0.  0.
        -12    1    1    2    0    0  0.14020194958E+02 -0.28466670911E+02  0.31309458323E+01  0.31886047752E+02  0.00000000000E+00 0.  1.
         11    1    3    3    0    0 -0.13957079239E+02  0.20555570595E+02  0.14503625980E+02  0.28769544838E+02  0.51100000000E-03 0. -1.
        -11    1    3    3    0    0 -0.96863743975E+01 -0.50212690086E+00 -0.12926028790E+01  0.97851317241E+01  0.51100000000E-03 0.  1.
        -12    1    3    3    0    0  0.96232586781E+01  0.84132272176E+01 -0.16341968933E+02  0.20747275686E+02  0.00000000000E+00 0.  1.
</event>
<event>
 7    1  0.3750159E-013  0.5930196E+02  0.7816164E-02  0.1266605E+00
        -11   -1    0    0    0    0  0.00000000000E+00  0.00000000000E+00  0.45593999997E+02  0.45594000000E+02  0.51100000000E-03 0.  1.
         11   -1    0    0    0    0 -0.00000000000E+00 -0.00000000000E+00 -0.45593999997E+02  0.45594000000E+02  0.51100000000E-03 0. -1.
    9900012    2    1    2    0    0  0.33791468179E+01 -0.18365674942E+02 -0.25845756382E+02  0.59301956466E+02  0.50000022684E+02 0.  0.
        -12    1    1    2    0    0 -0.33791468179E+01  0.18365674942E+02  0.25845756382E+02  0.31886043534E+02  0.00000000000E+00 0.  1.
         11    1    3    3    0    0  0.72973027894E+01 -0.40317248896E+00 -0.33920013199E+01  0.80572234219E+01  0.51100000000E-03 0. -1.
        -11    1    3    3    0    0  0.19076995728E+02 -0.11033998711E+02 -0.11254283931E+02  0.24745500614E+02  0.51100000000E-03 0.  1.
        -12    1    3    3    0    0 -0.22995151699E+02 -0.69285037416E+01 -0.11199471131E+02  0.26499232430E+02  0.00000000000E+00 0.  1.
</event>
<event>
 7    1  0.3750159E-013  0.5930164E+02  0.7816164E-02  0.1266606E+00
        -11   -1    0    0    0    0  0.00000000000E+00  0.00000000000E+00  0.45593999997E+02  0.45594000000E+02  0.51100000000E-03 0.  1.
         11   -1    0    0    0    0 -0.00000000000E+00 -0.00000000000E+00 -0.45593999997E+02  0.45594000000E+02  0.51100000000E-03 0. -1.
    9900012    2    1    2    0    0 -0.17381042985E+02  0.16706172911E+02 -0.20869662283E+02  0.59301644417E+02  0.49999453578E+02 0.  0.
        -12    1    1    2    0    0  0.17381042985E+02 -0.16706172911E+02  0.20869662283E+02  0.31886355583E+02  0.00000000000E+00 0.  1.
         11    1    3    3    0    0 -0.59591457559E+01 -0.18326339124E+01  0.10169425884E+02  0.11928419353E+02  0.51100000000E-03 0. -1.
        -11    1    3    3    0    0 -0.93883950809E+01  0.11686088886E+02  0.53535428748E+00  0.14999774669E+02  0.51100000000E-03 0.  1.
         12    1    3    3    0    0 -0.20335021483E+01  0.68527179375E+01 -0.31574442454E+02  0.32373450394E+02  0.00000000000E+00 0. -1.
</event>
<event>
 7    1  0.3750159E-013  0.5930182E+02  0.7816164E-02  0.1266605E+00
        -11   -1    0    0    0    0  0.00000000000E+00  0.00000000000E+00  0.45593999997E+02  0.45594000000E+02  0.51100000000E-03 0. -1.
         11   -1    0    0    0    0 -0.00000000000E+00 -0.00000000000E+00 -0.45593999997E+02  0.45594000000E+02  0.51100000000E-03 0.  1.
    9900012    2    1    2    0    0  0.25124923034E+02 -0.61636981498E+01  0.18640695223E+02  0.59301820380E+02  0.49999774496E+02 0.  0.
        -12    1    1    2    0    0 -0.25124923034E+02  0.61636981498E+01 -0.18640695223E+02  0.31886179620E+02  0.00000000000E+00 0.  1.
         11    1    3    3    0    0  0.16300346644E+02  0.72507621849E+01  0.17681130611E+02  0.25117667745E+02  0.51100000000E-03 0. -1.
        -11    1    3    3    0    0 -0.89557677884E+00  0.86059817350E+01 -0.41206193073E+01  0.95835527403E+01  0.51100000000E-03 0.  1.
        -12    1    3    3    0    0  0.97201531691E+01 -0.22020442070E+02  0.50801839187E+01  0.24600599896E+02  0.00000000000E+00 0.  1.
</event>
<event>
 7    1  0.3750159E-013  0.5930192E+02  0.7816164E-02  0.1266605E+00
        -11   -1    0    0    0    0  0.00000000000E+00  0.00000000000E+00  0.45593999997E+02  0.45594000000E+02  0.51100000000E-03 0. -1.
         11   -1    0    0    0    0 -0.00000000000E+00 -0.00000000000E+00 -0.45593999997E+02  0.45594000000E+02  0.51100000000E-03 0.  1.
    9900012    2    1    2    0    0  0.39520339493E+01 -0.25097775900E+02 -0.19266684220E+02  0.59301920776E+02  0.49999957594E+02 0.  0.
        -12    1    1    2    0    0 -0.39520339493E+01  0.25097775900E+02  0.19266684220E+02  0.31886079224E+02  0.00000000000E+00 0.  1.
         11    1    3    3    0    0 -0.42669682884E+01  0.80011765481E+01  0.50389037013E+01  0.10373832238E+02  0.51100000000E-03 0. -1.
        -11    1    3    3    0    0 -0.47099028387E+01 -0.98874721210E+01  0.24487063343E+01  0.11222363952E+02  0.51100000000E-03 0.  1.
        -12    1    3    3    0    0  0.12928905076E+02 -0.23211480327E+02 -0.26754294255E+02  0.37705724586E+02  0.00000000000E+00 0.  1.
</event>
<event>
 7    1  0.3750159E-013  0.5930195E+02  0.7816164E-02  0.1266605E+00
        -11   -1    0    0    0    0  0.00000000000E+00  0.00000000000E+00  0.45593999997E+02  0.45594000000E+02  0.51100000000E-03 0.  1.
         11   -1    0    0    0    0 -0.00000000000E+00 -0.00000000000E+00 -0.45593999997E+02  0.45594000000E+02  0.51100000000E-03 0. -1.
    9900012    2    1    2    0    0  0.48689031329E+01  0.17229031112E+01 -0.31464985911E+02  0.59301953659E+02  0.50000017566E+02 0.  0.
        -12    1    1    2    0    0 -0.48689031329E+01 -0.17229031112E+01  0.31464985911E+02  0.31886046341E+02  0.00000000000E+00 0.  1.
         11    1    3    3    0    0  0.12655415332E+02  0.86313082403E+00 -0.26000119767E+02  0.28929409953E+02  0.51100000000E-03 0. -1.
        -11    1    3    3    0    0  0.35564030128E+01 -0.36456264532E+01 -0.14381991660E+02  0.15257138624E+02  0.51100000000E-03 0.  1.
        -12    1    3    3    0    0 -0.11342915212E+02  0.45053987404E+01  0.89171255165E+01  0.15115405082E+02  0.00000000000E+00 0.  1.
</event>
<event>
 7    1  0.3750159E-013  0.5930195E+02  0.7816164E-02  0.1266605E+00
        -11   -1    0    0    0    0  0.00000000000E+00  0.00000000000E+00  0.45593999997E+02  0.45594000000E+02  0.51100000000E-03 0.  1.
         11   -1    0    0    0    0 -0.00000000000E+00 -0.00000000000E+00 -0.45593999997E+02  0.45594000000E+02  0.51100000000E-03 0. -1.
    9900012    2    1    2    0    0  0.12885395002E+02 -0.24644215044E+02 -0.15599666065E+02  0.59301947864E+02  0.50000006996E+02 0.  0.
        -12    1    1    2    0    0 -0.12885395002E+02  0.24644215044E+02  0.15599666065E+02  0.31886052136E+02  0.00000000000E+00 0.  1.
         11    1    3    3    0    0  0.58172878550E+01 -0.11086912775E+01  0.45453079826E+01  0.74652434157E+01  0.51100000000E-03 0. -1.
        -11    1    3    3    0    0  0.11872400471E+02 -0.95843510212E+01  0.10021498868E+02  0.18254975137E+02  0.51100000000E-03 0.  1.
         12    1    3    3    0    0 -0.48042933241E+01 -0.13951172745E+02 -0.30166472916E+02  0.33581729311E+02  0.00000000000E+00 0. -1.
</event>
<event>
 7    1  0.3750159E-013  0.5930194E+02  0.7816164E-02  0.1266605E+00
        -11   -1    0    0    0    0  0.00000000000E+00  0.00000000000E+00  0.45593999997E+02  0.45594000000E+02  0.51100000000E-03 0. -1.
         11   -1    0    0    0    0 -0.00000000000E+00 -0.00000000000E+00 -0.45593999997E+02  0.45594000000E+02  0.51100000000E-03 0.  1.
    9900012    2    1    2    0    0 -0.13953515606E+02 -0.11554323166E+02  0.26239629031E+02  0.59301935437E+02  0.49999984333E+02 0.  0.
        -12    1    1    2    0    0  0.13953515606E+02  0.11554323166E+02 -0.26239629031E+02  0.31886064563E+02  0.00000000000E+00 0.  1.
         11    1    3    3    0    0 -0.17144058719E+02 -0.15015355595E+01  0.28285746134E+02  0.33109768845E+02  0.51100000000E-03 0. -1.
        -11    1    3    3    0    0  0.78231130561E+00 -0.14667105810E+02  0.65980858374E+01  0.16101886250E+02  0.51100000000E-03 0.  1.
        -12    1    3    3    0    0  0.24082318070E+01  0.46143182034E+01 -0.86442029398E+01  0.10090280342E+02  0.00000000000E+00 0.  1.
</event>
<event>
 7    1  0.3750159E-013  0.5930196E+02  0.7816164E-02  0.1266605E+00
        -11   -1    0    0    0    0  0.00000000000E+00  0.00000000000E+00  0.45593999997E+02  0.45594000000E+02  0.51100000000E-03 0.  1.
         11   -1    0    0    0    0 -0.00000000000E+00 -0.00000000000E+00 -0.45593999997E+02  0.45594000000E+02  0.51100000000E-03 0. -1.
    9900012    2    1    2    0    0  0.14807314754E+01 -0.15565522297E+00 -0.31851255216E+02  0.59301964607E+02  0.50000037532E+02 0.  0.
        -12    1    1    2    0    0 -0.14807314754E+01  0.15565522297E+00  0.31851255216E+02  0.31886035393E+02  0.00000000000E+00 0.  1.
         11    1    3    3    0    0 -0.12384674666E+02  0.44408320041E+01 -0.12820209109E+02  0.18370054908E+02  0.51100000000E-03 0. -1.
        -11    1    3    3    0    0 -0.10666108788E+02  0.19501999655E+01 -0.60283701162E+01  0.12406063159E+02  0.51100000000E-03 0.  1.
         12    1    3    3    0    0  0.24531514929E+02 -0.65466871926E+01 -0.13002675991E+02  0.28525846540E+02  0.00000000000E+00 0. -1.
</event>
<event>
 7    1  0.3750159E-013  0.5930197E+02  0.7816164E-02  0.1266605E+00
        -11   -1    0    0    0    0  0.00000000000E+00  0.00000000000E+00  0.45593999997E+02  0.45594000000E+02  0.51100000000E-03 0.  1.
         11   -1    0    0    0    0 -0.00000000000E+00 -0.00000000000E+00 -0.45593999997E+02  0.45594000000E+02  0.51100000000E-03 0. -1.
    9900012    2    1    2    0    0 -0.18849121853E+02 -0.18640653088E+01 -0.25650628831E+02  0.59301970246E+02  0.50000047815E+02 0.  0.
        -12    1    1    2    0    0  0.18849121853E+02  0.18640653088E+01  0.25650628831E+02  0.31886029754E+02  0.00000000000E+00 0.  1.
         11    1    3    3    0    0 -0.12032640114E+02 -0.11968433267E+02 -0.68337339040E+01  0.18295566193E+02  0.51100000000E-03 0. -1.
        -11    1    3    3    0    0  0.24575774751E+01 -0.43001999067E+01  0.78670096762E+01  0.92963029098E+01  0.51100000000E-03 0.  1.
         12    1    3    3    0    0 -0.92740592136E+01  0.14404567864E+02 -0.26683904603E+02  0.31710101143E+02  0.00000000000E+00 0. -1.
</event>
<event>
 7    1  0.3750159E-013  0.5930209E+02  0.7816164E-02  0.1266604E+00
        -11   -1    0    0    0    0  0.00000000000E+00  0.00000000000E+00  0.45593999997E+02  0.45594000000E+02  0.51100000000E-03 0.  1.
         11   -1    0    0    0    0 -0.00000000000E+00 -0.00000000000E+00 -0.45593999997E+02  0.45594000000E+02  0.51100000000E-03 0. -1.
    9900012    2    1    2    0    0  0.16908046708E+02 -0.26352671328E+02 -0.60304328628E+01  0.59302086964E+02  0.50000260682E+02 0.  0.
        -12    1    1    2    0    0 -0.16908046708E+02  0.26352671328E+02  0.60304328628E+01  0.31885913036E+02  0.00000000000E+00 0.  1.
         11    1    3    3    0    0  0.46113959557E+01 -0.53059395484E+01 -0.21525696400E+01  0.73519741204E+01  0.51100000000E-03 0. -1.
        -11    1    3    3    0    0  0.10348056318E+02  0.90517799333E+01  0.11655133168E+02  0.18023848616E+02  0.51100000000E-03 0.  1.
         12    1    3    3    0    0  0.19485944345E+01 -0.30098511713E+02 -0.15532996391E+02  0.33926264228E+02  0.00000000000E+00 0. -1.
</event>
<event>
 7    1  0.3750159E-013  0.5930191E+02  0.7816164E-02  0.1266605E+00
        -11   -1    0    0    0    0  0.00000000000E+00  0.00000000000E+00  0.45593999997E+02  0.45594000000E+02  0.51100000000E-03 0.  1.
         11   -1    0    0    0    0 -0.00000000000E+00 -0.00000000000E+00 -0.45593999997E+02  0.45594000000E+02  0.51100000000E-03 0. -1.
    9900012    2    1    2    0    0  0.10181266922E+02 -0.44329157562E+01 -0.29890023431E+02  0.59301914650E+02  0.49999946422E+02 0.  0.
        -12    1    1    2    0    0 -0.10181266922E+02  0.44329157562E+01  0.29890023431E+02  0.31886085350E+02  0.00000000000E+00 0.  1.
         11    1    3    3    0    0  0.70062235424E+01  0.82897051217E+01 -0.20862183928E+02  0.23516740800E+02  0.51100000000E-03 0. -1.
        -11    1    3    3    0    0 -0.79731043585E+01  0.46216814391E+01 -0.11810011535E+02  0.14980210451E+02  0.51100000000E-03 0.  1.
        -12    1    3    3    0    0  0.11148147738E+02 -0.17344302317E+02  0.27821720317E+01  0.20804963400E+02  0.00000000000E+00 0.  1.
</event>
<event>
 7    1  0.3750159E-013  0.5930194E+02  0.7816164E-02  0.1266605E+00
        -11   -1    0    0    0    0  0.00000000000E+00  0.00000000000E+00  0.45593999997E+02  0.45594000000E+02  0.51100000000E-03 0. -1.
         11   -1    0    0    0    0 -0.00000000000E+00 -0.00000000000E+00 -0.45593999997E+02  0.45594000000E+02  0.51100000000E-03 0.  1.
    9900012    2    1    2    0    0  0.76853436944E+01  0.30425073981E+02 -0.56543052190E+01  0.59301940319E+02  0.49999993236E+02 0.  0.
        -12    1    1    2    0    0 -0.76853436944E+01 -0.30425073981E+02  0.56543052190E+01  0.31886059681E+02  0.00000000000E+00 0.  1.
         11    1    3    3    0    0 -0.27677353137E+01  0.39020649747E+01  0.14317937241E+02  0.15096019241E+02  0.51100000000E-03 0. -1.
        -11    1    3    3    0    0  0.14443988904E+02  0.44896050668E+01 -0.15408236804E+01  0.15203930642E+02  0.51100000000E-03 0.  1.
        -12    1    3    3    0    0 -0.39909098956E+01  0.22033403940E+02 -0.18431418780E+02  0.29001990435E+02  0.00000000000E+00 0.  1.
</event>
<event>
 7    1  0.3750159E-013  0.5930197E+02  0.7816164E-02  0.1266605E+00
        -11   -1    0    0    0    0  0.00000000000E+00  0.00000000000E+00  0.45593999997E+02  0.45594000000E+02  0.51100000000E-03 0.  1.
         11   -1    0    0    0    0 -0.00000000000E+00 -0.00000000000E+00 -0.45593999997E+02  0.45594000000E+02  0.51100000000E-03 0. -1.
    9900012    2    1    2    0    0  0.24810831989E+01 -0.12848134295E+02 -0.29077283011E+02  0.59301973029E+02  0.50000052891E+02 0.  0.
        -12    1    1    2    0    0 -0.24810831989E+01  0.12848134295E+02  0.29077283011E+02  0.31886026971E+02  0.00000000000E+00 0.  1.
         11    1    3    3    0    0  0.16929249101E+02  0.96336157809E+01 -0.20239913573E+02  0.28090214130E+02  0.51100000000E-03 0. -1.
        -11    1    3    3    0    0  0.45901349147E+00 -0.11263113287E+02 -0.30498098547E+01  0.11677746132E+02  0.51100000000E-03 0.  1.
        -12    1    3    3    0    0 -0.14907179394E+02 -0.11218636789E+02 -0.57875595827E+01  0.19534012767E+02  0.00000000000E+00 0.  1.
</event>
<event>
 7    1  0.3750159E-013  0.5930201E+02  0.7816164E-02  0.1266605E+00
        -11   -1    0    0    0    0  0.00000000000E+00  0.00000000000E+00  0.45593999997E+02  0.45594000000E+02  0.51100000000E-03 0.  1.
         11   -1    0    0    0    0 -0.00000000000E+00 -0.00000000000E+00 -0.45593999997E+02  0.45594000000E+02  0.51100000000E-03 0. -1.
    9900012    2    1    2    0    0  0.20510593459E+01 -0.14147442801E+02 -0.28501919766E+02  0.59302009148E+02  0.50000118764E+02 0.  0.
        -12    1    1    2    0    0 -0.20510593459E+01  0.14147442801E+02  0.28501919766E+02  0.31885990852E+02  0.00000000000E+00 0.  1.
         11    1    3    3    0    0 -0.16928547968E+01  0.21993903471E+01  0.13195903029E+01  0.30731732933E+01  0.51100000000E-03 0. -1.
        -11    1    3    3    0    0  0.88467764760E+01  0.49804330334E+01  0.77183640633E+01  0.12753168676E+02  0.51100000000E-03 0.  1.
         12    1    3    3    0    0 -0.51028623334E+01 -0.21327266182E+02 -0.37539874132E+02  0.43475667179E+02  0.00000000000E+00 0. -1.
</event>
<event>
 7    1  0.3750159E-013  0.5930194E+02  0.7816164E-02  0.1266605E+00
        -11   -1    0    0    0    0  0.00000000000E+00  0.00000000000E+00  0.45593999997E+02  0.45594000000E+02  0.51100000000E-03 0.  1.
         11   -1    0    0    0    0 -0.00000000000E+00 -0.00000000000E+00 -0.45593999997E+02  0.45594000000E+02  0.51100000000E-03 0. -1.
    9900012    2    1    2    0    0  0.28150123360E+02 -0.14857606915E+02 -0.18822119450E+01  0.59301942698E+02  0.49999997576E+02 0.  0.
        -12    1    1    2    0    0 -0.28150123360E+02  0.14857606915E+02  0.18822119450E+01  0.31886057302E+02  0.00000000000E+00 0.  1.
         11    1    3    3    0    0  0.12969019095E+02 -0.10235044559E+02  0.10645165256E+01  0.16555506308E+02  0.51100000000E-03 0. -1.
        -11    1    3    3    0    0  0.23312015174E+01 -0.21259750354E+02 -0.37302091523E+01  0.21710042520E+02  0.51100000000E-03 0.  1.
         12    1    3    3    0    0  0.12849902747E+02  0.16637187998E+02  0.78348068167E+00  0.21036393871E+02  0.00000000000E+00 0. -1.
</event>
<event>
 7    1  0.3750159E-013  0.5930195E+02  0.7816164E-02  0.1266605E+00
        -11   -1    0    0    0    0  0.00000000000E+00  0.00000000000E+00  0.45593999997E+02  0.45594000000E+02  0.51100000000E-03 0.  1.
         11   -1    0    0    0    0 -0.00000000000E+00 -0.00000000000E+00 -0.45593999997E+02  0.45594000000E+02  0.51100000000E-03 0. -1.
    9900012    2    1    2    0    0  0.21723419491E+02  0.14271693015E+02 -0.18469763432E+02  0.59301947608E+02  0.50000006530E+02 0.  0.
        -12    1    1    2    0    0 -0.21723419491E+02 -0.14271693015E+02  0.18469763432E+02  0.31886052392E+02  0.00000000000E+00 0.  1.
         11    1    3    3    0    0 -0.68567934091E+01 -0.21811668297E+01 -0.53185568794E+01  0.89476338847E+01  0.51100000000E-03 0. -1.
        -11    1    3    3    0    0 -0.22371151888E+01 -0.84432159037E+01 -0.44079673164E+01  0.97838006566E+01  0.51100000000E-03 0.  1.
        -12    1    3    3    0    0  0.30817328089E+02  0.24896075748E+02 -0.87432392365E+01  0.40570513067E+02  0.00000000000E+00 0.  1.
</event>
<event>
 7    1  0.3750159E-013  0.5930193E+02  0.7816164E-02  0.1266605E+00
        -11   -1    0    0    0    0  0.00000000000E+00  0.00000000000E+00  0.45593999997E+02  0.45594000000E+02  0.51100000000E-03 0.  1.
         11   -1    0    0    0    0 -0.00000000000E+00 -0.00000000000E+00 -0.45593999997E+02  0.45594000000E+02  0.51100000000E-03 0. -1.
    9900012    2    1    2    0    0  0.31012595915E+02 -0.21595354126E-01 -0.74121266116E+01  0.59301934193E+02  0.49999982063E+02 0.  0.
        -12    1    1    2    0    0 -0.31012595915E+02  0.21595354126E-01  0.74121266116E+01  0.31886065807E+02  0.00000000000E+00 0.  1.
         11    1    3    3    0    0  0.10535449401E+02 -0.92417234056E+01  0.35722953904E+01  0.14462587604E+02  0.51100000000E-03 0. -1.
        -11    1    3    3    0    0 -0.25824116418E+01 -0.45783133485E+01  0.96295865868E+01  0.10970813147E+02  0.51100000000E-03 0.  1.
         12    1    3    3    0    0  0.23059558155E+02  0.13798441400E+02 -0.20614008589E+02  0.33868533442E+02  0.00000000000E+00 0. -1.
</event>
<event>
 7    1  0.3750159E-013  0.5930195E+02  0.7816164E-02  0.1266605E+00
        -11   -1    0    0    0    0  0.00000000000E+00  0.00000000000E+00  0.45593999997E+02  0.45594000000E+02  0.51100000000E-03 0.  1.
         11   -1    0    0    0    0 -0.00000000000E+00 -0.00000000000E+00 -0.45593999997E+02  0.45594000000E+02  0.51100000000E-03 0. -1.
    9900012    2    1    2    0    0 -0.30573282006E+02 -0.85758890613E+01 -0.29066901029E+01  0.59301948298E+02  0.50000007788E+02 0.  0.
        -12    1    1    2    0    0  0.30573282006E+02  0.85758890613E+01  0.29066901029E+01  0.31886051702E+02  0.00000000000E+00 0.  1.
         11    1    3    3    0    0 -0.81288190698E+01 -0.10937912029E+02  0.80947359622E+01  0.15850563699E+02  0.51100000000E-03 0. -1.
        -11    1    3    3    0    0 -0.10436128540E+02  0.12512641995E+02  0.85186994322E+01  0.18386060722E+02  0.51100000000E-03 0.  1.
         12    1    3    3    0    0 -0.12008334396E+02 -0.10150619027E+02 -0.19520125497E+02  0.25065323876E+02  0.00000000000E+00 0. -1.
</event>
<event>
 7    1  0.3750159E-013  0.5930171E+02  0.7816164E-02  0.1266606E+00
        -11   -1    0    0    0    0  0.00000000000E+00  0.00000000000E+00  0.45593999997E+02  0.45594000000E+02  0.51100000000E-03 0.  1.
         11   -1    0    0    0    0 -0.00000000000E+00 -0.00000000000E+00 -0.45593999997E+02  0.45594000000E+02  0.51100000000E-03 0. -1.
    9900012    2    1    2    0    0 -0.44481068263E+01  0.12751813936E+02 -0.28884964562E+02  0.59301708420E+02  0.49999570307E+02 0.  0.
        -12    1    1    2    0    0  0.44481068263E+01 -0.12751813936E+02  0.28884964562E+02  0.31886291580E+02  0.00000000000E+00 0.  1.
         11    1    3    3    0    0 -0.41653759173E+01 -0.67385229807E+01 -0.20771367887E+02  0.22230784346E+02  0.51100000000E-03 0. -1.
        -11    1    3    3    0    0 -0.12885793701E+01  0.12474658654E+02 -0.19779872131E+02  0.23420522776E+02  0.51100000000E-03 0.  1.
        -12    1    3    3    0    0  0.10058484611E+01  0.70156782623E+01  0.11666275455E+02  0.13650401299E+02  0.00000000000E+00 0.  1.
</event>
<event>
 7    1  0.3750159E-013  0.5930194E+02  0.7816164E-02  0.1266605E+00
        -11   -1    0    0    0    0  0.00000000000E+00  0.00000000000E+00  0.45593999997E+02  0.45594000000E+02  0.51100000000E-03 0. -1.
         11   -1    0    0    0    0 -0.00000000000E+00 -0.00000000000E+00 -0.45593999997E+02  0.45594000000E+02  0.51100000000E-03 0.  1.
    9900012    2    1    2    0    0  0.17004425008E+02  0.21542564549E+02 -0.16232328673E+02  0.59301936409E+02  0.49999986105E+02 0.  0.
        -12    1    1    2    0    0 -0.17004425008E+02 -0.21542564549E+02  0.16232328673E+02  0.31886063591E+02  0.00000000000E+00 0.  1.
         11    1    3    3    0    0  0.17911168413E+02  0.87153457847E+00  0.65573708238E+01  0.19093680599E+02  0.51100000000E-03 0. -1.
        -11    1    3    3    0    0  0.11877319439E+01 -0.20677201047E+01  0.42152281979E+01  0.48429663042E+01  0.51100000000E-03 0.  1.
         12    1    3    3    0    0 -0.20944753488E+01  0.22738750075E+02 -0.27004927695E+02  0.35365289505E+02  0.00000000000E+00 0. -1.
</event>
<event>
 7    1  0.3750159E-013  0.5930193E+02  0.7816164E-02  0.1266605E+00
        -11   -1    0    0    0    0  0.00000000000E+00  0.00000000000E+00  0.45593999997E+02  0.45594000000E+02  0.51100000000E-03 0.  1.
         11   -1    0    0    0    0 -0.00000000000E+00 -0.00000000000E+00 -0.45593999997E+02  0.45594000000E+02  0.51100000000E-03 0. -1.
    9900012    2    1    2    0    0  0.25259683567E+02  0.19274551766E+02  0.26761496804E+01  0.59301925661E+02  0.49999966503E+02 0.  0.
        -12    1    1    2    0    0 -0.25259683567E+02 -0.19274551766E+02 -0.26761496804E+01  0.31886074339E+02  0.00000000000E+00 0.  1.
         11    1    3    3    0    0  0.70928109851E+01 -0.51367167027E+01 -0.53161096508E+01  0.10244747348E+02  0.51100000000E-03 0. -1.
        -11    1    3    3    0    0  0.22481759490E+02  0.66514150465E+01  0.16727256214E+02  0.28800554380E+02  0.51100000000E-03 0.  1.
         12    1    3    3    0    0 -0.43148869079E+01  0.17759853422E+02 -0.87349968828E+01  0.20256623932E+02  0.00000000000E+00 0. -1.
</event>
<event>
 7    1  0.3750159E-013  0.5930187E+02  0.7816164E-02  0.1266605E+00
        -11   -1    0    0    0    0  0.00000000000E+00  0.00000000000E+00  0.45593999997E+02  0.45594000000E+02  0.51100000000E-03 0.  1.
         11   -1    0    0    0    0 -0.00000000000E+00 -0.00000000000E+00 -0.45593999997E+02  0.45594000000E+02  0.51100000000E-03 0. -1.
    9900012    2    1    2    0    0  0.23240830077E+02 -0.51019412111E+01 -0.21226375551E+02  0.59301874399E+02  0.49999873014E+02 0.  0.
        -12    1    1    2    0    0 -0.23240830077E+02  0.51019412111E+01  0.21226375551E+02  0.31886125601E+02  0.00000000000E+00 0.  1.
         11    1    3    3    0    0  0.10049623483E+02 -0.62340603143E+01 -0.11228073078E+02  0.16307300986E+02  0.51100000000E-03 0.  1.
        -11    1    3    3    0    0  0.32368032015E+01  0.12281849039E+02 -0.20926144309E+02  0.24479056900E+02  0.51100000000E-03 0. -1.
        -12    1    3    3    0    0  0.99544033925E+01 -0.11149729936E+02  0.10927841836E+02  0.18515516513E+02  0.00000000000E+00 0.  1.
</event>
<event>
 7    1  0.3750159E-013  0.5930193E+02  0.7816164E-02  0.1266605E+00
        -11   -1    0    0    0    0  0.00000000000E+00  0.00000000000E+00  0.45593999997E+02  0.45594000000E+02  0.51100000000E-03 0. -1.
         11   -1    0    0    0    0 -0.00000000000E+00 -0.00000000000E+00 -0.45593999997E+02  0.45594000000E+02  0.51100000000E-03 0.  1.
    9900012    2    1    2    0    0 -0.25523068482E+02  0.11706452936E+02  0.15108050514E+02  0.59301933209E+02  0.49999980269E+02 0.  0.
        -12    1    1    2    0    0  0.25523068482E+02 -0.11706452936E+02 -0.15108050514E+02  0.31886066791E+02  0.00000000000E+00 0.  1.
         11    1    3    3    0    0  0.42874173546E+01  0.35845468044E+01  0.11376512412E+02  0.12675013147E+02  0.51100000000E-03 0. -1.
        -11    1    3    3    0    0 -0.42418415247E+01 -0.33634091955E+01 -0.12931054801E+02  0.14018484920E+02  0.51100000000E-03 0.  1.
         12    1    3    3    0    0 -0.25568644312E+02  0.11485315327E+02  0.16662592904E+02  0.32608435141E+02  0.00000000000E+00 0. -1.
</event>
<event>
 7    1  0.3750159E-013  0.5930195E+02  0.7816164E-02  0.1266605E+00
        -11   -1    0    0    0    0  0.00000000000E+00  0.00000000000E+00  0.45593999997E+02  0.45594000000E+02  0.51100000000E-03 0.  1.
         11   -1    0    0    0    0 -0.00000000000E+00 -0.00000000000E+00 -0.45593999997E+02  0.45594000000E+02  0.51100000000E-03 0. -1.
    9900012    2    1    2    0    0  0.26165826962E+01 -0.85086191000E+01 -0.30618244585E+02  0.59301952809E+02  0.50000016016E+02 0.  0.
        -12    1    1    2    0    0 -0.26165826962E+01  0.85086191000E+01  0.30618244585E+02  0.31886047191E+02  0.00000000000E+00 0.  1.
         11    1    3    3    0    0  0.11411384332E+01  0.22300758830E+01 -0.14347374179E+00  0.25091871877E+01  0.51100000000E-03 0. -1.
        -11    1    3    3    0    0 -0.16000106067E+02  0.80119862659E+01 -0.12754360921E+01  0.17939399532E+02  0.51100000000E-03 0.  1.
         12    1    3    3    0    0  0.17475550330E+02 -0.18750681249E+02 -0.29199334751E+02  0.38853366090E+02  0.00000000000E+00 0. -1.
</event>
<event>
 7    1  0.3750159E-013  0.5930194E+02  0.7816164E-02  0.1266605E+00
        -11   -1    0    0    0    0  0.00000000000E+00  0.00000000000E+00  0.45593999997E+02  0.45594000000E+02  0.51100000000E-03 0.  1.
         11   -1    0    0    0    0 -0.00000000000E+00 -0.00000000000E+00 -0.45593999997E+02  0.45594000000E+02  0.51100000000E-03 0. -1.
    9900012    2    1    2    0    0 -0.22601876213E+02  0.17326663209E+02 -0.14340954131E+02  0.59301936717E+02  0.49999986667E+02 0.  0.
        -12    1    1    2    0    0  0.22601876213E+02 -0.17326663209E+02  0.14340954131E+02  0.31886063283E+02  0.00000000000E+00 0.  1.
         11    1    3    3    0    0 -0.14167205412E+02 -0.50031677212E+01  0.84603915384E+01  0.17242958611E+02  0.51100000000E-03 0. -1.
        -11    1    3    3    0    0  0.76168094990E+01  0.30499850381E+01 -0.12471548767E+02  0.14928420030E+02  0.51100000000E-03 0.  1.
        -12    1    3    3    0    0 -0.16051480300E+02  0.19279845892E+02 -0.10329796903E+02  0.27130558076E+02  0.00000000000E+00 0.  1.
</event>
<event>
 7    1  0.3750159E-013  0.5930196E+02  0.7816164E-02  0.1266605E+00
        -11   -1    0    0    0    0  0.00000000000E+00  0.00000000000E+00  0.45593999997E+02  0.45594000000E+02  0.51100000000E-03 0.  1.
         11   -1    0    0    0    0 -0.00000000000E+00 -0.00000000000E+00 -0.45593999997E+02  0.45594000000E+02  0.51100000000E-03 0. -1.
    9900012    2    1    2    0    0 -0.18758646346E+02  0.25333784745E+02 -0.47992039277E+01  0.59301955708E+02  0.50000021302E+02 0.  0.
        -12    1    1    2    0    0  0.18758646346E+02 -0.25333784745E+02  0.47992039277E+01  0.31886044292E+02  0.00000000000E+00 0.  1.
         11    1    3    3    0    0  0.23863957247E+01  0.13278496433E+02  0.11118201582E+01  0.13536967769E+02  0.51100000000E-03 0. -1.
        -11    1    3    3    0    0  0.10116245859E+02  0.91639870414E+01  0.75392525844E+00  0.13670606875E+02  0.51100000000E-03 0.  1.
        -12    1    3    3    0    0 -0.31261287930E+02  0.28913012712E+01 -0.66649493443E+01  0.32094381064E+02  0.00000000000E+00 0.  1.
</event>
<event>
 7    1  0.3750159E-013  0.5930188E+02  0.7816164E-02  0.1266605E+00
        -11   -1    0    0    0    0  0.00000000000E+00  0.00000000000E+00  0.45593999997E+02  0.45594000000E+02  0.51100000000E-03 0.  1.
         11   -1    0    0    0    0 -0.00000000000E+00 -0.00000000000E+00 -0.45593999997E+02  0.45594000000E+02  0.51100000000E-03 0. -1.
    9900012    2    1    2    0    0  0.15636650827E+02 -0.23640986021E+02  0.14605599176E+02  0.59301880819E+02  0.49999884722E+02 0.  0.
        -12    1    1    2    0    0 -0.15636650827E+02  0.23640986021E+02 -0.14605599176E+02  0.31886119181E+02  0.00000000000E+00 0.  1.
         11    1    3    3    0    0 -0.36023354719E+01 -0.14970462503E+01  0.13357678689E+02  0.13915658395E+02  0.51100000000E-03 0.  1.
        -11    1    3    3    0    0  0.83934924921E+01 -0.30270414096E+02  0.36458813506E+01  0.31623427026E+02  0.51100000000E-03 0. -1.
         12    1    3    3    0    0  0.10845493807E+02  0.81264743251E+01 -0.23979608637E+01  0.13762795398E+02  0.00000000000E+00 0. -1.
</event>
<event>
 7    1  0.3750159E-013  0.5930193E+02  0.7816164E-02  0.1266605E+00
        -11   -1    0    0    0    0  0.00000000000E+00  0.00000000000E+00  0.45593999997E+02  0.45594000000E+02  0.51100000000E-03 0.  1.
         11   -1    0    0    0    0 -0.00000000000E+00 -0.00000000000E+00 -0.45593999997E+02  0.45594000000E+02  0.51100000000E-03 0. -1.
    9900012    2    1    2    0    0 -0.35816024750E+01 -0.30789395432E+02 -0.74770830974E+01  0.59301929075E+02  0.49999972730E+02 0.  0.
        -12    1    1    2    0    0  0.35816024750E+01  0.30789395432E+02  0.74770830974E+01  0.31886070925E+02  0.00000000000E+00 0.  1.
         11    1    3    3    0    0  0.11586104798E+02 -0.14010924075E+02 -0.11650395368E+02  0.21593414050E+02  0.51100000000E-03 0. -1.
        -11    1    3    3    0    0 -0.15765826615E+02 -0.17548482014E+02 -0.84420629939E+01  0.25055517111E+02  0.51100000000E-03 0.  1.
        -12    1    3    3    0    0  0.59811934175E+00  0.77001065665E+00  0.12615375265E+02  0.12652997914E+02  0.00000000000E+00 0.  1.
</event>
<event>
 7    1  0.3750159E-013  0.5930189E+02  0.7816164E-02  0.1266605E+00
        -11   -1    0    0    0    0  0.00000000000E+00  0.00000000000E+00  0.45593999997E+02  0.45594000000E+02  0.51100000000E-03 0.  1.
         11   -1    0    0    0    0 -0.00000000000E+00 -0.00000000000E+00 -0.45593999997E+02  0.45594000000E+02  0.51100000000E-03 0. -1.
    9900012    2    1    2    0    0  0.17116672531E+02  0.20628255049E+02 -0.17269005547E+02  0.59301891152E+02  0.49999903567E+02 0.  0.
        -12    1    1    2    0    0 -0.17116672531E+02 -0.20628255049E+02  0.17269005547E+02  0.31886108848E+02  0.00000000000E+00 0.  1.
         11    1    3    3    0    0 -0.97816653862E-02  0.30720404215E+01 -0.46629746489E+01  0.55839825277E+01  0.51100000000E-03 0. -1.
        -11    1    3    3    0    0  0.18698574859E+02  0.60701837710E+01 -0.28144810329E+02  0.34330950781E+02  0.51100000000E-03 0.  1.
        -12    1    3    3    0    0 -0.15721206630E+01  0.11486030856E+02  0.15538779431E+02  0.19386957843E+02  0.00000000000E+00 0.  1.
</event>
<event>
 7    1  0.3750159E-013  0.5930197E+02  0.7816164E-02  0.1266605E+00
        -11   -1    0    0    0    0  0.00000000000E+00  0.00000000000E+00  0.45593999997E+02  0.45594000000E+02  0.51100000000E-03 0. -1.
         11   -1    0    0    0    0 -0.00000000000E+00 -0.00000000000E+00 -0.45593999997E+02  0.45594000000E+02  0.51100000000E-03 0.  1.
    9900012    2    1    2    0    0  0.83448694782E+01 -0.26092086778E+02  0.16318248454E+02  0.59301967452E+02  0.50000042721E+02 0.  0.
        -12    1    1    2    0    0 -0.83448694782E+01  0.26092086778E+02 -0.16318248454E+02  0.31886032548E+02  0.00000000000E+00 0.  1.
         11    1    3    3    0    0  0.15038764369E+02 -0.23068860475E+01 -0.10511287535E+02  0.18492520729E+02  0.51100000000E-03 0. -1.
        -11    1    3    3    0    0 -0.33917540069E+01 -0.77201285355E+01 -0.10154783442E+01  0.84932665316E+01  0.51100000000E-03 0.  1.
        -12    1    3    3    0    0 -0.33021408844E+01 -0.16065072195E+02  0.27845014333E+02  0.32316180192E+02  0.00000000000E+00 0.  1.
</event>
<event>
 7    1  0.3750159E-013  0.5930198E+02  0.7816164E-02  0.1266605E+00
        -11   -1    0    0    0    0  0.00000000000E+00  0.00000000000E+00  0.45593999997E+02  0.45594000000E+02  0.51100000000E-03 0.  1.
         11   -1    0    0    0    0 -0.00000000000E+00 -0.00000000000E+00 -0.45593999997E+02  0.45594000000E+02  0.51100000000E-03 0. -1.
    9900012    2    1    2    0    0 -0.14336706634E+02 -0.24515495482E+02 -0.14497159074E+02  0.59301979598E+02  0.50000064872E+02 0.  0.
        -12    1    1    2    0    0  0.14336706634E+02  0.24515495482E+02  0.14497159074E+02  0.31886020402E+02  0.00000000000E+00 0.  1.
         11    1    3    3    0    0  0.26505795960E+01  0.50968059592E+01  0.87265334747E+00  0.58107251963E+01  0.51100000000E-03 0. -1.
        -11    1    3    3    0    0  0.51150156379E+01 -0.24738599009E+02  0.14332215122E+01  0.25302485847E+02  0.51100000000E-03 0.  1.
         12    1    3    3    0    0 -0.22102301868E+02 -0.48737024326E+01 -0.16803033933E+02  0.28188768555E+02  0.00000000000E+00 0. -1.
</event>
<event>
 7    1  0.3750159E-013  0.5930195E+02  0.7816164E-02  0.1266605E+00
        -11   -1    0    0    0    0  0.00000000000E+00  0.00000000000E+00  0.45593999997E+02  0.45594000000E+02  0.51100000000E-03 0.  1.
         11   -1    0    0    0    0 -0.00000000000E+00 -0.00000000000E+00 -0.45593999997E+02  0.45594000000E+02  0.51100000000E-03 0. -1.
    9900012    2    1    2    0    0  0.25245435702E+01 -0.31766973986E+02 -0.10982656498E+01  0.59301950638E+02  0.50000012056E+02 0.  0.
        -12    1    1    2    0    0 -0.25245435702E+01  0.31766973986E+02  0.10982656498E+01  0.31886049362E+02  0.00000000000E+00 0.  1.
         11    1    3    3    0    0 -0.17701388749E+01  0.17503337695E+01  0.22984673903E+00  0.24999779451E+01  0.51100000000E-03 0. -1.
        -11    1    3    3    0    0 -0.20012211613E+01  0.96298286970E+01 -0.80155410596E+01  0.12688080454E+02  0.51100000000E-03 0.  1.
         12    1    3    3    0    0  0.62959036064E+01 -0.43147136452E+02  0.66874286709E+01  0.44113892239E+02  0.00000000000E+00 0. -1.
</event>
<event>
 7    1  0.3750159E-013  0.5930194E+02  0.7816164E-02  0.1266605E+00
        -11   -1    0    0    0    0  0.00000000000E+00  0.00000000000E+00  0.45593999997E+02  0.45594000000E+02  0.51100000000E-03 0.  1.
         11   -1    0    0    0    0 -0.00000000000E+00 -0.00000000000E+00 -0.45593999997E+02  0.45594000000E+02  0.51100000000E-03 0. -1.
    9900012    2    1    2    0    0  0.21667968323E+02 -0.19317737722E+02 -0.13192610915E+02  0.59301939963E+02  0.49999992587E+02 0.  0.
        -12    1    1    2    0    0 -0.21667968323E+02  0.19317737722E+02  0.13192610915E+02  0.31886060037E+02  0.00000000000E+00 0.  1.
         11    1    3    3    0    0  0.30211544568E+01 -0.93771901219E+01 -0.21408981441E+02  0.23567001409E+02  0.51100000000E-03 0. -1.
        -11    1    3    3    0    0  0.96528047461E+01 -0.57686916756E+01 -0.99655606319E+01  0.15025539660E+02  0.51100000000E-03 0.  1.
        -12    1    3    3    0    0  0.89940091202E+01 -0.41718559241E+01  0.18181931157E+02  0.20709398893E+02  0.00000000000E+00 0.  1.
</event>
<event>
 7    1  0.3750159E-013  0.5930193E+02  0.7816164E-02  0.1266605E+00
        -11   -1    0    0    0    0  0.00000000000E+00  0.00000000000E+00  0.45593999997E+02  0.45594000000E+02  0.51100000000E-03 0. -1.
         11   -1    0    0    0    0 -0.00000000000E+00 -0.00000000000E+00 -0.45593999997E+02  0.45594000000E+02  0.51100000000E-03 0.  1.
    9900012    2    1    2    0    0 -0.13252700716E+02 -0.28255981930E+02 -0.65335050684E+01  0.59301932830E+02  0.49999979578E+02 0.  0.
        -12    1    1    2    0    0  0.13252700716E+02  0.28255981930E+02  0.65335050684E+01  0.31886067170E+02  0.00000000000E+00 0.  1.
         11    1    3    3    0    0 -0.37532550829E+01 -0.41284027709E+00  0.19775232461E+00  0.37810669201E+01  0.51100000000E-03 0. -1.
        -11    1    3    3    0    0 -0.11790376183E+02 -0.69942638471E+01  0.18298993416E+02  0.22864510876E+02  0.51100000000E-03 0.  1.
        -12    1    3    3    0    0  0.22909305503E+01 -0.20848877806E+02 -0.25030250809E+02  0.32656355034E+02  0.00000000000E+00 0.  1.
</event>
<event>
 7    1  0.3750159E-013  0.5930193E+02  0.7816164E-02  0.1266605E+00
        -11   -1    0    0    0    0  0.00000000000E+00  0.00000000000E+00  0.45593999997E+02  0.45594000000E+02  0.51100000000E-03 0. -1.
         11   -1    0    0    0    0 -0.00000000000E+00 -0.00000000000E+00 -0.45593999997E+02  0.45594000000E+02  0.51100000000E-03 0.  1.
    9900012    2    1    2    0    0  0.11382799607E+02 -0.22082834207E+02  0.19987538817E+02  0.59301930918E+02  0.49999976092E+02 0.  0.
        -12    1    1    2    0    0 -0.11382799607E+02  0.22082834207E+02 -0.19987538817E+02  0.31886069082E+02  0.00000000000E+00 0.  1.
         11    1    3    3    0    0 -0.62574093840E+01 -0.16659518923E+02  0.25088213874E+02  0.30758953470E+02  0.51100000000E-03 0. -1.
        -11    1    3    3    0    0 -0.25335860060E+01 -0.63637740161E+01  0.19996215185E+01  0.71354862663E+01  0.51100000000E-03 0.  1.
        -12    1    3    3    0    0  0.20173794997E+02  0.94045873159E+00 -0.71002965762E+01  0.21407491182E+02  0.00000000000E+00 0.  1.
</event>
<event>
 7    1  0.3750159E-013  0.5930198E+02  0.7816164E-02  0.1266605E+00
        -11   -1    0    0    0    0  0.00000000000E+00  0.00000000000E+00  0.45593999997E+02  0.45594000000E+02  0.51100000000E-03 0. -1.
         11   -1    0    0    0    0 -0.00000000000E+00 -0.00000000000E+00 -0.45593999997E+02  0.45594000000E+02  0.51100000000E-03 0.  1.
    9900012    2    1    2    0    0  0.12048066841E+02  0.27931683605E+02  0.95594755719E+01  0.59301977407E+02  0.50000060875E+02 0.  0.
        -12    1    1    2    0    0 -0.12048066841E+02 -0.27931683605E+02 -0.95594755719E+01  0.31886022593E+02  0.00000000000E+00 0.  1.
         11    1    3    3    0    0 -0.79830485799E+01  0.10257589761E+02 -0.96577707071E+01  0.16193200660E+02  0.51100000000E-03 0. -1.
        -11    1    3    3    0    0  0.17118605248E+02  0.68698613836E+01 -0.25623486219E+01  0.18622762195E+02  0.51100000000E-03 0.  1.
         12    1    3    3    0    0  0.29125101734E+01  0.10804232460E+02  0.21779594901E+02  0.24486014551E+02  0.00000000000E+00 0. -1.
</event>
<event>
 7    1  0.3750159E-013  0.5930159E+02  0.7816164E-02  0.1266606E+00
        -11   -1    0    0    0    0  0.00000000000E+00  0.00000000000E+00  0.45593999997E+02  0.45594000000E+02  0.51100000000E-03 0. -1.
         11   -1    0    0    0    0 -0.00000000000E+00 -0.00000000000E+00 -0.45593999997E+02  0.45594000000E+02  0.51100000000E-03 0.  1.
    9900012    2    1    2    0    0  0.12332164682E+01 -0.29954382105E+02  0.10860828392E+02  0.59301585597E+02  0.49999346304E+02 0.  0.
        -12    1    1    2    0    0 -0.12332164682E+01  0.29954382105E+02 -0.10860828392E+02  0.31886414403E+02  0.00000000000E+00 0.  1.
         11    1    3    3    0    0  0.82758622784E+01 -0.56105068296E+01  0.15997126251E+01  0.10125550063E+02  0.51100000000E-03 0. -1.
        -11    1    3    3    0    0  0.13801410188E+02 -0.15838033219E+02 -0.61550981045E+01  0.21890807485E+02  0.51100000000E-03 0.  1.
         12    1    3    3    0    0 -0.20844055998E+02 -0.85058420558E+01  0.15416213871E+02  0.27285228048E+02  0.00000000000E+00 0. -1.
</event>
<event>
 7    1  0.3750159E-013  0.5930189E+02  0.7816164E-02  0.1266605E+00
        -11   -1    0    0    0    0  0.00000000000E+00  0.00000000000E+00  0.45593999997E+02  0.45594000000E+02  0.51100000000E-03 0. -1.
         11   -1    0    0    0    0 -0.00000000000E+00 -0.00000000000E+00 -0.45593999997E+02  0.45594000000E+02  0.51100000000E-03 0.  1.
    9900012    2    1    2    0    0 -0.15079909492E+02  0.14890223188E+02  0.23824385027E+02  0.59301894267E+02  0.49999909249E+02 0.  0.
        -12    1    1    2    0    0  0.15079909492E+02 -0.14890223188E+02 -0.23824385027E+02  0.31886105733E+02  0.00000000000E+00 0.  1.
         11    1    3    3    0    0 -0.77820095569E+01  0.13100841074E+02  0.26950688758E+02  0.30960157209E+02  0.51100000000E-03 0. -1.
        -11    1    3    3    0    0 -0.11043751067E+02  0.94422329828E+01  0.61218134462E+01  0.15766952827E+02  0.51100000000E-03 0.  1.
         12    1    3    3    0    0  0.37458511311E+01 -0.76528508693E+01 -0.92481171778E+01  0.12574784231E+02  0.00000000000E+00 0. -1.
</event>
<event>
 7    1  0.3750159E-013  0.5930193E+02  0.7816164E-02  0.1266605E+00
        -11   -1    0    0    0    0  0.00000000000E+00  0.00000000000E+00  0.45593999997E+02  0.45594000000E+02  0.51100000000E-03 0. -1.
         11   -1    0    0    0    0 -0.00000000000E+00 -0.00000000000E+00 -0.45593999997E+02  0.45594000000E+02  0.51100000000E-03 0.  1.
    9900012    2    1    2    0    0 -0.12781110710E+01  0.19624008984E+02  0.25099530002E+02  0.59301926193E+02  0.49999967473E+02 0.  0.
        -12    1    1    2    0    0  0.12781110710E+01 -0.19624008984E+02 -0.25099530002E+02  0.31886073807E+02  0.00000000000E+00 0.  1.
         11    1    3    3    0    0  0.35978555916E+01  0.27203446200E+00  0.13866802752E+02  0.14328530505E+02  0.51100000000E-03 0.  1.
        -11    1    3    3    0    0 -0.15415649431E+02  0.44472459229E+01 -0.84458987743E+01  0.18131559504E+02  0.51100000000E-03 0. -1.
         12    1    3    3    0    0  0.10539682769E+02  0.14904728599E+02  0.19678626024E+02  0.26841836183E+02  0.00000000000E+00 0. -1.
</event>
<event>
 7    1  0.3750159E-013  0.5930199E+02  0.7816164E-02  0.1266605E+00
        -11   -1    0    0    0    0  0.00000000000E+00  0.00000000000E+00  0.45593999997E+02  0.45594000000E+02  0.51100000000E-03 0.  1.
         11   -1    0    0    0    0 -0.00000000000E+00 -0.00000000000E+00 -0.45593999997E+02  0.45594000000E+02  0.51100000000E-03 0. -1.
    9900012    2    1    2    0    0  0.23553997475E+02  0.23468260269E+01 -0.21363973154E+02  0.59301988359E+02  0.50000080849E+02 0.  0.
        -12    1    1    2    0    0 -0.23553997475E+02 -0.23468260269E+01  0.21363973154E+02  0.31886011641E+02  0.00000000000E+00 0.  1.
         11    1    3    3    0    0 -0.20269411606E+01  0.36757418631E+01 -0.79577513357E+01  0.89969647823E+01  0.51100000000E-03 0. -1.
        -11    1    3    3    0    0 -0.30110631335E+01  0.29293823435E+01  0.11440150728E+02  0.12187076395E+02  0.51100000000E-03 0.  1.
        -12    1    3    3    0    0  0.28592001769E+02 -0.42582981797E+01 -0.24846372547E+02  0.38117947181E+02  0.00000000000E+00 0.  1.
</event>
<event>
 7    1  0.3750159E-013  0.5930198E+02  0.7816164E-02  0.1266605E+00
        -11   -1    0    0    0    0  0.00000000000E+00  0.00000000000E+00  0.45593999997E+02  0.45594000000E+02  0.51100000000E-03 0. -1.
         11   -1    0    0    0    0 -0.00000000000E+00 -0.00000000000E+00 -0.45593999997E+02  0.45594000000E+02  0.51100000000E-03 0.  1.
    9900012    2    1    2    0    0 -0.98167593153E+01  0.29188002879E+02 -0.82710462455E+01  0.59301976706E+02  0.50000059597E+02 0.  0.
        -12    1    1    2    0    0  0.98167593153E+01 -0.29188002879E+02  0.82710462455E+01  0.31886023294E+02  0.00000000000E+00 0.  1.
         11    1    3    3    0    0 -0.20318716756E+02  0.17313211992E+02 -0.21938114067E+02  0.34552545625E+02  0.51100000000E-03 0. -1.
        -11    1    3    3    0    0  0.38357021709E+00 -0.79103991313E+00 -0.20124601631E+01  0.21961025533E+01  0.51100000000E-03 0.  1.
         12    1    3    3    0    0  0.10118387223E+02  0.12665830800E+02  0.15679527984E+02  0.22553328528E+02  0.00000000000E+00 0. -1.
</event>
<event>
 7    1  0.3750159E-013  0.5930192E+02  0.7816164E-02  0.1266605E+00
        -11   -1    0    0    0    0  0.00000000000E+00  0.00000000000E+00  0.45593999997E+02  0.45594000000E+02  0.51100000000E-03 0.  1.
         11   -1    0    0    0    0 -0.00000000000E+00 -0.00000000000E+00 -0.45593999997E+02  0.45594000000E+02  0.51100000000E-03 0. -1.
    9900012    2    1    2    0    0 -0.29489327107E+02  0.84012631365E+01 -0.87476139998E+01  0.59301915477E+02  0.49999947930E+02 0.  0.
        -12    1    1    2    0    0  0.29489327107E+02 -0.84012631365E+01  0.87476139998E+01  0.31886084523E+02  0.00000000000E+00 0.  1.
         11    1    3    3    0    0 -0.26446264012E+01 -0.12604731297E+02  0.41374814027E+01  0.13527455507E+02  0.51100000000E-03 0. -1.
        -11    1    3    3    0    0  0.48226969652E+00  0.57362506218E+01 -0.13273763371E+02  0.14468239338E+02  0.51100000000E-03 0.  1.
        -12    1    3    3    0    0 -0.27326970402E+02  0.15269743812E+02  0.38866796882E+00  0.31306220632E+02  0.00000000000E+00 0.  1.
</event>
<event>
 7    1  0.3750159E-013  0.5930197E+02  0.7816164E-02  0.1266605E+00
        -11   -1    0    0    0    0  0.00000000000E+00  0.00000000000E+00  0.45593999997E+02  0.45594000000E+02  0.51100000000E-03 0.  1.
         11   -1    0    0    0    0 -0.00000000000E+00 -0.00000000000E+00 -0.45593999997E+02  0.45594000000E+02  0.51100000000E-03 0. -1.
    9900012    2    1    2    0    0 -0.92717009895E+01 -0.25942232218E+02 -0.16054757217E+02  0.59301967306E+02  0.50000042454E+02 0.  0.
        -12    1    1    2    0    0  0.92717009895E+01  0.25942232218E+02  0.16054757217E+02  0.31886032694E+02  0.00000000000E+00 0.  1.
         11    1    3    3    0    0 -0.50272457191E+01 -0.74488864332E+01 -0.24487524386E+01  0.93142631153E+01  0.51100000000E-03 0. -1.
        -11    1    3    3    0    0 -0.44743622508E+00 -0.32820340550E+02 -0.12506700165E+02  0.35125382593E+02  0.51100000000E-03 0.  1.
         12    1    3    3    0    0 -0.37970190454E+01  0.14326994766E+02 -0.10993046130E+01  0.14862321598E+02  0.00000000000E+00 0. -1.
</event>
<event>
 7    1  0.3750159E-013  0.5930195E+02  0.7816164E-02  0.1266605E+00
        -11   -1    0    0    0    0  0.00000000000E+00  0.00000000000E+00  0.45593999997E+02  0.45594000000E+02  0.51100000000E-03 0.  1.
         11   -1    0    0    0    0 -0.00000000000E+00 -0.00000000000E+00 -0.45593999997E+02  0.45594000000E+02  0.51100000000E-03 0. -1.
    9900012    2    1    2    0    0 -0.13284389810E+02  0.27406657157E+02 -0.94403681552E+01  0.59301946308E+02  0.50000004159E+02 0.  0.
        -12    1    1    2    0    0  0.13284389810E+02 -0.27406657157E+02  0.94403681552E+01  0.31886053692E+02  0.00000000000E+00 0.  1.
         11    1    3    3    0    0 -0.75441513918E+01 -0.56670024928E+01 -0.65365583269E+01  0.11478489992E+02  0.51100000000E-03 0. -1.
        -11    1    3    3    0    0 -0.83354017072E+01  0.37171595214E+01 -0.13679202553E+02  0.16444354024E+02  0.51100000000E-03 0.  1.
        -12    1    3    3    0    0  0.25951632888E+01  0.29356500128E+02  0.10775392725E+02  0.31379102292E+02  0.00000000000E+00 0.  1.
</event>
<event>
 7    1  0.3750159E-013  0.5930196E+02  0.7816164E-02  0.1266605E+00
        -11   -1    0    0    0    0  0.00000000000E+00  0.00000000000E+00  0.45593999997E+02  0.45594000000E+02  0.51100000000E-03 0. -1.
         11   -1    0    0    0    0 -0.00000000000E+00 -0.00000000000E+00 -0.45593999997E+02  0.45594000000E+02  0.51100000000E-03 0.  1.
    9900012    2    1    2    0    0 -0.15861457770E+02 -0.43643737678E+01  0.27314568963E+02  0.59301964207E+02  0.50000036802E+02 0.  0.
        -12    1    1    2    0    0  0.15861457770E+02  0.43643737678E+01 -0.27314568963E+02  0.31886035793E+02  0.00000000000E+00 0.  1.
         11    1    3    3    0    0 -0.96879687179E+01 -0.14861284411E+02 -0.15857657790E+01  0.17810928263E+02  0.51100000000E-03 0. -1.
        -11    1    3    3    0    0  0.90209317185E+00 -0.80666968602E+01  0.25847167637E+01  0.85185756635E+01  0.51100000000E-03 0.  1.
        -12    1    3    3    0    0 -0.70755822239E+01  0.18563607503E+02  0.26315617978E+02  0.32972460280E+02  0.00000000000E+00 0.  1.
</event>
<event>
 7    1  0.3750159E-013  0.5930196E+02  0.7816164E-02  0.1266605E+00
        -11   -1    0    0    0    0  0.00000000000E+00  0.00000000000E+00  0.45593999997E+02  0.45594000000E+02  0.51100000000E-03 0. -1.
         11   -1    0    0    0    0 -0.00000000000E+00 -0.00000000000E+00 -0.45593999997E+02  0.45594000000E+02  0.51100000000E-03 0.  1.
    9900012    2    1    2    0    0 -0.13367109962E+02  0.27367525522E+02  0.94370725280E+01  0.59301961992E+02  0.50000032763E+02 0.  0.
        -12    1    1    2    0    0  0.13367109962E+02 -0.27367525522E+02 -0.94370725280E+01  0.31886038008E+02  0.00000000000E+00 0.  1.
         11    1    3    3    0    0 -0.18473633661E+02  0.32771748813E+01  0.13560704950E+01  0.18811005908E+02  0.51100000000E-03 0. -1.
        -11    1    3    3    0    0 -0.13870884066E+00  0.14092094356E+02 -0.11298235420E+02  0.18062571448E+02  0.51100000000E-03 0.  1.
        -12    1    3    3    0    0  0.52452325393E+01  0.99982562851E+01  0.19379237453E+02  0.22428384636E+02  0.00000000000E+00 0.  1.
</event>
<event>
 7    1  0.3750159E-013  0.5930195E+02  0.7816164E-02  0.1266605E+00
        -11   -1    0    0    0    0  0.00000000000E+00  0.00000000000E+00  0.45593999997E+02  0.45594000000E+02  0.51100000000E-03 0. -1.
         11   -1    0    0    0    0 -0.00000000000E+00 -0.00000000000E+00 -0.45593999997E+02  0.45594000000E+02  0.51100000000E-03 0.  1.
    9900012    2    1    2    0    0 -0.25904426682E+02 -0.47861981207E+01 -0.17965889515E+02  0.59301949755E+02  0.50000010445E+02 0.  0.
        -12    1    1    2    0    0  0.25904426682E+02  0.47861981207E+01  0.17965889515E+02  0.31886050245E+02  0.00000000000E+00 0.  1.
         11    1    3    3    0    0 -0.16011651677E+02 -0.12922227607E+02 -0.10559928722E+01  0.20602720135E+02  0.51100000000E-03 0. -1.
        -11    1    3    3    0    0  0.11727380206E+02  0.30019611404E+01 -0.29602766189E+01  0.12462201054E+02  0.51100000000E-03 0.  1.
        -12    1    3    3    0    0 -0.21620155212E+02  0.51340683459E+01 -0.13949620024E+02  0.26237028566E+02  0.00000000000E+00 0.  1.
</event>
<event>
 7    1  0.3750159E-013  0.5930224E+02  0.7816164E-02  0.1266604E+00
        -11   -1    0    0    0    0  0.00000000000E+00  0.00000000000E+00  0.45593999997E+02  0.45594000000E+02  0.51100000000E-03 0. -1.
         11   -1    0    0    0    0 -0.00000000000E+00 -0.00000000000E+00 -0.45593999997E+02  0.45594000000E+02  0.51100000000E-03 0.  1.
    9900012    2    1    2    0    0 -0.61882040656E+01 -0.11593891930E+01  0.31258021356E+02  0.59302235904E+02  0.50000532310E+02 0.  0.
        -12    1    1    2    0    0  0.61882040656E+01  0.11593891930E+01 -0.31258021356E+02  0.31885764096E+02  0.00000000000E+00 0.  1.
         11    1    3    3    0    0 -0.34132812903E+01  0.10960814263E+02  0.39133524828E+02  0.40782627480E+02  0.51100000000E-03 0. -1.
        -11    1    3    3    0    0 -0.36685189337E+00 -0.16757548855E+01  0.28691627162E+01  0.33428774583E+01  0.51100000000E-03 0.  1.
        -12    1    3    3    0    0 -0.24080708820E+01 -0.10444448571E+02 -0.10744666188E+02  0.15176730966E+02  0.00000000000E+00 0.  1.
</event>
<event>
 7    1  0.3750159E-013  0.5930191E+02  0.7816164E-02  0.1266605E+00
        -11   -1    0    0    0    0  0.00000000000E+00  0.00000000000E+00  0.45593999997E+02  0.45594000000E+02  0.51100000000E-03 0. -1.
         11   -1    0    0    0    0 -0.00000000000E+00 -0.00000000000E+00 -0.45593999997E+02  0.45594000000E+02  0.51100000000E-03 0.  1.
    9900012    2    1    2    0    0  0.55576884990E+01  0.30075469773E+02  0.90167024098E+01  0.59301910465E+02  0.49999938789E+02 0.  0.
        -12    1    1    2    0    0 -0.55576884990E+01 -0.30075469773E+02 -0.90167024098E+01  0.31886089535E+02  0.00000000000E+00 0.  1.
         11    1    3    3    0    0 -0.10047957031E+02  0.16013813049E+02  0.62761896261E+01  0.19919693907E+02  0.51100000000E-03 0. -1.
        -11    1    3    3    0    0 -0.87898632342E+00  0.38756840484E+01  0.15618062790E+02  0.16115750972E+02  0.51100000000E-03 0.  1.
        -12    1    3    3    0    0  0.16484631853E+02  0.10185972676E+02 -0.12877550007E+02  0.23266465586E+02  0.00000000000E+00 0.  1.
</event>
<event>
 7    1  0.3750159E-013  0.5930196E+02  0.7816164E-02  0.1266605E+00
        -11   -1    0    0    0    0  0.00000000000E+00  0.00000000000E+00  0.45593999997E+02  0.45594000000E+02  0.51100000000E-03 0.  1.
         11   -1    0    0    0    0 -0.00000000000E+00 -0.00000000000E+00 -0.45593999997E+02  0.45594000000E+02  0.51100000000E-03 0. -1.
    9900012    2    1    2    0    0  0.11412636026E+02  0.16747026173E+02 -0.24617236368E+02  0.59301961157E+02  0.50000031241E+02 0.  0.
        -12    1    1    2    0    0 -0.11412636026E+02 -0.16747026173E+02  0.24617236368E+02  0.31886038843E+02  0.00000000000E+00 0.  1.
         11    1    3    3    0    0  0.48597549759E+01  0.14295492658E+02 -0.32907752473E+02  0.36206332344E+02  0.51100000000E-03 0. -1.
        -11    1    3    3    0    0  0.81606217730E+01  0.52240120990E+01 -0.39342441735E+01  0.10457740081E+02  0.51100000000E-03 0.  1.
        -12    1    3    3    0    0 -0.16077407231E+01 -0.27724785843E+01  0.12224760278E+02  0.12637888732E+02  0.00000000000E+00 0.  1.
</event>
<event>
 7    1  0.3750159E-013  0.5930194E+02  0.7816164E-02  0.1266605E+00
        -11   -1    0    0    0    0  0.00000000000E+00  0.00000000000E+00  0.45593999997E+02  0.45594000000E+02  0.51100000000E-03 0.  1.
         11   -1    0    0    0    0 -0.00000000000E+00 -0.00000000000E+00 -0.45593999997E+02  0.45594000000E+02  0.51100000000E-03 0. -1.
    9900012    2    1    2    0    0  0.27864402957E+02  0.35833481206E+01 -0.15081619304E+02  0.59301943851E+02  0.49999999678E+02 0.  0.
        -12    1    1    2    0    0 -0.27864402957E+02 -0.35833481206E+01  0.15081619304E+02  0.31886056149E+02  0.00000000000E+00 0.  1.
         11    1    3    3    0    0 -0.71103176244E+01  0.16278968649E+01 -0.48374619686E+01  0.87525826749E+01  0.51100000000E-03 0. -1.
        -11    1    3    3    0    0  0.15536782376E+02 -0.13295133911E+02  0.55964808479E+01  0.21200773345E+02  0.51100000000E-03 0.  1.
        -12    1    3    3    0    0  0.19437938205E+02  0.15250585167E+02 -0.15840638183E+02  0.29348587831E+02  0.00000000000E+00 0.  1.
</event>
<event>
 7    1  0.3750159E-013  0.5930194E+02  0.7816164E-02  0.1266605E+00
        -11   -1    0    0    0    0  0.00000000000E+00  0.00000000000E+00  0.45593999997E+02  0.45594000000E+02  0.51100000000E-03 0.  1.
         11   -1    0    0    0    0 -0.00000000000E+00 -0.00000000000E+00 -0.45593999997E+02  0.45594000000E+02  0.51100000000E-03 0. -1.
    9900012    2    1    2    0    0 -0.16494715515E+02  0.23403336856E+02 -0.14033134597E+02  0.59301942192E+02  0.49999996652E+02 0.  0.
        -12    1    1    2    0    0  0.16494715515E+02 -0.23403336856E+02  0.14033134597E+02  0.31886057808E+02  0.00000000000E+00 0.  1.
         11    1    3    3    0    0 -0.25155764892E+02  0.12280215662E+02 -0.54956621688E+01  0.28527504394E+02  0.51100000000E-03 0. -1.
        -11    1    3    3    0    0 -0.87693466191E+01  0.20370305068E+01  0.75058930644E+00  0.90340643112E+01  0.51100000000E-03 0.  1.
         12    1    3    3    0    0  0.17430395996E+02  0.90860906870E+01 -0.92880617344E+01  0.21740373486E+02  0.00000000000E+00 0. -1.
</event>
<event>
 7    1  0.3750159E-013  0.5930175E+02  0.7816164E-02  0.1266605E+00
        -11   -1    0    0    0    0  0.00000000000E+00  0.00000000000E+00  0.45593999997E+02  0.45594000000E+02  0.51100000000E-03 0. -1.
         11   -1    0    0    0    0 -0.00000000000E+00 -0.00000000000E+00 -0.45593999997E+02  0.45594000000E+02  0.51100000000E-03 0.  1.
    9900012    2    1    2    0    0 -0.15755636038E+02 -0.26560957044E+02 -0.79377742763E+01  0.59301752706E+02  0.49999651073E+02 0.  0.
        -12    1    1    2    0    0  0.15755636038E+02  0.26560957044E+02  0.79377742763E+01  0.31886247294E+02  0.00000000000E+00 0.  1.
         11    1    3    3    0    0 -0.15237417326E+02 -0.26459598131E+02 -0.86460898401E+01  0.31733957991E+02  0.51100000000E-03 0. -1.
        -11    1    3    3    0    0  0.88908068904E+01 -0.98112266071E+01  0.36426390550E+01  0.13732277096E+02  0.51100000000E-03 0.  1.
        -12    1    3    3    0    0 -0.94090256022E+01  0.97098676939E+01 -0.29343234912E+01  0.13835517618E+02  0.00000000000E+00 0.  1.
</event>
<event>
 7    1  0.3750159E-013  0.5930193E+02  0.7816164E-02  0.1266605E+00
        -11   -1    0    0    0    0  0.00000000000E+00  0.00000000000E+00  0.45593999997E+02  0.45594000000E+02  0.51100000000E-03 0.  1.
         11   -1    0    0    0    0 -0.00000000000E+00 -0.00000000000E+00 -0.45593999997E+02  0.45594000000E+02  0.51100000000E-03 0. -1.
    9900012    2    1    2    0    0  0.80531105943E+01  0.10168801793E+02 -0.29128416464E+02  0.59301925204E+02  0.49999965671E+02 0.  0.
        -12    1    1    2    0    0 -0.80531105943E+01 -0.10168801793E+02  0.29128416464E+02  0.31886074796E+02  0.00000000000E+00 0.  1.
         11    1    3    3    0    0  0.85159690983E+01 -0.10441369783E+02 -0.76116667270E+01  0.15475186695E+02  0.51100000000E-03 0. -1.
        -11    1    3    3    0    0  0.91684912224E+01 -0.48966565230E+01 -0.28287513594E+01  0.10772200839E+02  0.51100000000E-03 0.  1.
         12    1    3    3    0    0 -0.96313497264E+01  0.25506828099E+02 -0.18687998378E+02  0.33054537670E+02  0.00000000000E+00 0. -1.
</event>
<event>
 7    1  0.3750159E-013  0.5930194E+02  0.7816164E-02  0.1266605E+00
        -11   -1    0    0    0    0  0.00000000000E+00  0.00000000000E+00  0.45593999997E+02  0.45594000000E+02  0.51100000000E-03 0.  1.
         11   -1    0    0    0    0 -0.00000000000E+00 -0.00000000000E+00 -0.45593999997E+02  0.45594000000E+02  0.51100000000E-03 0. -1.
    9900012    2    1    2    0    0  0.17129124156E+02 -0.15733562728E+02 -0.21812123296E+02  0.59301943280E+02  0.49999998636E+02 0.  0.
        -12    1    1    2    0    0 -0.17129124156E+02  0.15733562728E+02  0.21812123296E+02  0.31886056720E+02  0.00000000000E+00 0.  1.
         11    1    3    3    0    0  0.58145862943E+01 -0.17600811357E+02 -0.27962922108E+02  0.33548814991E+02  0.51100000000E-03 0. -1.
        -11    1    3    3    0    0  0.11581827544E+02 -0.73684342583E+01 -0.14303994513E+01  0.13801398318E+02  0.51100000000E-03 0.  1.
        -12    1    3    3    0    0 -0.26728968221E+00  0.92356828877E+01  0.75811982637E+01  0.11951729971E+02  0.00000000000E+00 0.  1.
</event>
<event>
 7    1  0.3750159E-013  0.5930194E+02  0.7816164E-02  0.1266605E+00
        -11   -1    0    0    0    0  0.00000000000E+00  0.00000000000E+00  0.45593999997E+02  0.45594000000E+02  0.51100000000E-03 0. -1.
         11   -1    0    0    0    0 -0.00000000000E+00 -0.00000000000E+00 -0.45593999997E+02  0.45594000000E+02  0.51100000000E-03 0.  1.
    9900012    2    1    2    0    0 -0.28923497472E-01  0.12086557036E+01  0.31863133443E+02  0.59301937873E+02  0.49999988775E+02 0.  0.
        -12    1    1    2    0    0  0.28923497472E-01 -0.12086557036E+01 -0.31863133443E+02  0.31886062127E+02  0.00000000000E+00 0.  1.
         11    1    3    3    0    0  0.10694320313E+01 -0.11393996808E+02  0.19455826880E+02  0.22572019138E+02  0.51100000000E-03 0. -1.
        -11    1    3    3    0    0 -0.15884638538E+02  0.38647273323E+01  0.15740177435E+01  0.16423622955E+02  0.51100000000E-03 0.  1.
        -12    1    3    3    0    0  0.14786283009E+02  0.87379251790E+01  0.10833288819E+02  0.20306295780E+02  0.00000000000E+00 0.  1.
</event>
<event>
 7    1  0.3750159E-013  0.5930195E+02  0.7816164E-02  0.1266605E+00
        -11   -1    0    0    0    0  0.00000000000E+00  0.00000000000E+00  0.45593999997E+02  0.45594000000E+02  0.51100000000E-03 0.  1.
         11   -1    0    0    0    0 -0.00000000000E+00 -0.00000000000E+00 -0.45593999997E+02  0.45594000000E+02  0.51100000000E-03 0. -1.
    9900012    2    1    2    0    0 -0.19046209696E+02 -0.25515939370E+02 -0.17025647780E+01  0.59301953012E+02  0.50000016386E+02 0.  0.
        -12    1    1    2    0    0  0.19046209696E+02  0.25515939370E+02  0.17025647780E+01  0.31886046988E+02  0.00000000000E+00 0.  1.
         11    1    3    3    0    0  0.22232433881E+01 -0.88084148452E+01  0.51868793514E+01  0.10461104192E+02  0.51100000000E-03 0. -1.
        -11    1    3    3    0    0  0.76229462226E+01 -0.26779822986E+01  0.97543842760E+01  0.12666053496E+02  0.51100000000E-03 0.  1.
         12    1    3    3    0    0 -0.28892399306E+02 -0.14029542226E+02 -0.16643828405E+02  0.36174795324E+02  0.00000000000E+00 0. -1.
</event>
<event>
 7    1  0.3750159E-013  0.5930195E+02  0.7816164E-02  0.1266605E+00
        -11   -1    0    0    0    0  0.00000000000E+00  0.00000000000E+00  0.45593999997E+02  0.45594000000E+02  0.51100000000E-03 0.  1.
         11   -1    0    0    0    0 -0.00000000000E+00 -0.00000000000E+00 -0.45593999997E+02  0.45594000000E+02  0.51100000000E-03 0. -1.
    9900012    2    1    2    0    0 -0.12049606403E+02  0.13375300033E+02 -0.26317838667E+02  0.59301948229E+02  0.50000007663E+02 0.  0.
        -12    1    1    2    0    0  0.12049606403E+02 -0.13375300033E+02  0.26317838667E+02  0.31886051771E+02  0.00000000000E+00 0.  1.
         11    1    3    3    0    0  0.30896768514E+01  0.17010144390E+02 -0.11888698475E+02  0.20981712678E+02  0.51100000000E-03 0. -1.
        -11    1    3    3    0    0 -0.13858133033E+02  0.16782868128E+01 -0.23730604862E+02  0.27531910671E+02  0.51100000000E-03 0.  1.
        -12    1    3    3    0    0 -0.12811502209E+01 -0.53131311699E+01  0.93014646704E+01  0.10788324881E+02  0.00000000000E+00 0.  1.
</event>
<event>
 7    1  0.3750159E-013  0.5930190E+02  0.7816164E-02  0.1266605E+00
        -11   -1    0    0    0    0  0.00000000000E+00  0.00000000000E+00  0.45593999997E+02  0.45594000000E+02  0.51100000000E-03 0. -1.
         11   -1    0    0    0    0 -0.00000000000E+00 -0.00000000000E+00 -0.45593999997E+02  0.45594000000E+02  0.51100000000E-03 0.  1.
    9900012    2    1    2    0    0 -0.85440359974E+01 -0.26447750509E+00  0.30718928604E+02  0.59301904691E+02  0.49999928259E+02 0.  0.
        -12    1    1    2    0    0  0.85440359974E+01  0.26447750509E+00 -0.30718928604E+02  0.31886095309E+02  0.00000000000E+00 0.  1.
         11    1    3    3    0    0 -0.22611914490E+01 -0.36724281944E+01  0.12917990049E+02  0.13618890659E+02  0.51100000000E-03 0. -1.
        -11    1    3    3    0    0 -0.15451573386E+02  0.15317896305E+02  0.21085088608E+02  0.30298020219E+02  0.51100000000E-03 0.  1.
        -12    1    3    3    0    0  0.91687288374E+01 -0.11909945616E+02 -0.32841500528E+01  0.15384993813E+02  0.00000000000E+00 0.  1.
</event>
<event>
 7    1  0.3750159E-013  0.5930193E+02  0.7816164E-02  0.1266605E+00
        -11   -1    0    0    0    0  0.00000000000E+00  0.00000000000E+00  0.45593999997E+02  0.45594000000E+02  0.51100000000E-03 0. -1.
         11   -1    0    0    0    0 -0.00000000000E+00 -0.00000000000E+00 -0.45593999997E+02  0.45594000000E+02  0.51100000000E-03 0.  1.
    9900012    2    1    2    0    0 -0.17496768466E+01 -0.24103626996E+02  0.20800841774E+02  0.59301933734E+02  0.49999981226E+02 0.  0.
        -12    1    1    2    0    0  0.17496768466E+01  0.24103626996E+02 -0.20800841774E+02  0.31886066266E+02  0.00000000000E+00 0.  1.
         11    1    3    3    0    0 -0.13307303959E+02 -0.24118698260E+02  0.53635691536E+01  0.28063567462E+02  0.51100000000E-03 0. -1.
        -11    1    3    3    0    0  0.72929123773E+01 -0.39354118326E+01 -0.52097711729E+01  0.97885521488E+01  0.51100000000E-03 0.  1.
         12    1    3    3    0    0  0.42647147351E+01  0.39504830966E+01  0.20647043794E+02  0.21449814122E+02  0.00000000000E+00 0. -1.
</event>
<event>
 7    1  0.3750159E-013  0.5930193E+02  0.7816164E-02  0.1266605E+00
        -11   -1    0    0    0    0  0.00000000000E+00  0.00000000000E+00  0.45593999997E+02  0.45594000000E+02  0.51100000000E-03 0. -1.
         11   -1    0    0    0    0 -0.00000000000E+00 -0.00000000000E+00 -0.45593999997E+02  0.45594000000E+02  0.51100000000E-03 0.  1.
    9900012    2    1    2    0    0  0.10777303336E+02 -0.77034858271E+01  0.29003919830E+02  0.59301932093E+02  0.49999978234E+02 0.  0.
        -12    1    1    2    0    0 -0.10777303336E+02  0.77034858271E+01 -0.29003919830E+02  0.31886067907E+02  0.00000000000E+00 0.  1.
         11    1    3    3    0    0  0.14006096887E+02  0.68428793924E-01  0.20070768934E+02  0.24474705277E+02  0.51100000000E-03 0. -1.
        -11    1    3    3    0    0 -0.21724530316E+01  0.12455684515E+02  0.70710210671E+01  0.14486647925E+02  0.51100000000E-03 0.  1.
        -12    1    3    3    0    0 -0.10563405197E+01 -0.20227599136E+02  0.18621298288E+01  0.20340578891E+02  0.00000000000E+00 0.  1.
</event>
<event>
 7    1  0.3750159E-013  0.5930198E+02  0.7816164E-02  0.1266605E+00
        -11   -1    0    0    0    0  0.00000000000E+00  0.00000000000E+00  0.45593999997E+02  0.45594000000E+02  0.51100000000E-03 0.  1.
         11   -1    0    0    0    0 -0.00000000000E+00 -0.00000000000E+00 -0.45593999997E+02  0.45594000000E+02  0.51100000000E-03 0. -1.
    9900012    2    1    2    0    0  0.13464373729E+02 -0.27999934004E+02  0.71716735755E+01  0.59301975381E+02  0.50000057181E+02 0.  0.
        -12    1    1    2    0    0 -0.13464373729E+02  0.27999934004E+02 -0.71716735755E+01  0.31886024619E+02  0.00000000000E+00 0.  1.
         11    1    3    3    0    0 -0.41681573245E+01 -0.15949887403E+02 -0.16935043961E+01  0.16572278088E+02  0.51100000000E-03 0. -1.
        -11    1    3    3    0    0 -0.80483796235E+01 -0.32506960081E+01  0.12628052572E+02  0.15323548908E+02  0.51100000000E-03 0.  1.
         12    1    3    3    0    0  0.25680910677E+02 -0.87993505935E+01 -0.37628746004E+01  0.27406148385E+02  0.00000000000E+00 0. -1.
</event>
<event>
 7    1  0.3750159E-013  0.5930192E+02  0.7816164E-02  0.1266605E+00
        -11   -1    0    0    0    0  0.00000000000E+00  0.00000000000E+00  0.45593999997E+02  0.45594000000E+02  0.51100000000E-03 0.  1.
         11   -1    0    0    0    0 -0.00000000000E+00 -0.00000000000E+00 -0.45593999997E+02  0.45594000000E+02  0.51100000000E-03 0. -1.
    9900012    2    1    2    0    0  0.14806215026E+02  0.19990542279E+02 -0.19946831820E+02  0.59301923358E+02  0.49999962303E+02 0.  0.
        -12    1    1    2    0    0 -0.14806215026E+02 -0.19990542279E+02  0.19946831820E+02  0.31886076642E+02  0.00000000000E+00 0.  1.
         11    1    3    3    0    0  0.69516023660E+01  0.11997048190E+02 -0.14802459550E+02  0.20282178130E+02  0.51100000000E-03 0. -1.
        -11    1    3    3    0    0  0.14505089010E+02 -0.79401735202E+01 -0.12011660548E+02  0.20438296213E+02  0.51100000000E-03 0.  1.
         12    1    3    3    0    0 -0.66504763494E+01  0.15933667609E+02  0.68672882787E+01  0.18581449014E+02  0.00000000000E+00 0. -1.
</event>
<event>
 7    1  0.3750159E-013  0.5930193E+02  0.7816164E-02  0.1266605E+00
        -11   -1    0    0    0    0  0.00000000000E+00  0.00000000000E+00  0.45593999997E+02  0.45594000000E+02  0.51100000000E-03 0. -1.
         11   -1    0    0    0    0 -0.00000000000E+00 -0.00000000000E+00 -0.45593999997E+02  0.45594000000E+02  0.51100000000E-03 0.  1.
    9900012    2    1    2    0    0 -0.16638485818E+02 -0.65579882670E+01  0.26398387635E+02  0.59301932664E+02  0.49999979275E+02 0.  0.
        -12    1    1    2    0    0  0.16638485818E+02  0.65579882670E+01 -0.26398387635E+02  0.31886067336E+02  0.00000000000E+00 0.  1.
         11    1    3    3    0    0 -0.96131508013E+01 -0.13953922594E+02  0.13672948709E-01  0.16944757635E+02  0.51100000000E-03 0. -1.
        -11    1    3    3    0    0 -0.75950257885E+01 -0.50839629613E+01 -0.36395150117E+01  0.98375386099E+01  0.51100000000E-03 0.  1.
         12    1    3    3    0    0  0.56969077140E+00  0.12479897288E+02  0.30024229698E+02  0.32519636419E+02  0.00000000000E+00 0. -1.
</event>
<event>
 7    1  0.3750159E-013  0.5930195E+02  0.7816164E-02  0.1266605E+00
        -11   -1    0    0    0    0  0.00000000000E+00  0.00000000000E+00  0.45593999997E+02  0.45594000000E+02  0.51100000000E-03 0. -1.
         11   -1    0    0    0    0 -0.00000000000E+00 -0.00000000000E+00 -0.45593999997E+02  0.45594000000E+02  0.51100000000E-03 0.  1.
    9900012    2    1    2    0    0  0.25706643913E+02 -0.52522370506E+01  0.18119128970E+02  0.59301947094E+02  0.50000005591E+02 0.  0.
        -12    1    1    2    0    0 -0.25706643913E+02  0.52522370506E+01 -0.18119128970E+02  0.31886052906E+02  0.00000000000E+00 0.  1.
         11    1    3    3    0    0 -0.13354633739E+00  0.89525058711E+01 -0.38200773910E+01  0.97343817231E+01  0.51100000000E-03 0. -1.
        -11    1    3    3    0    0  0.71267807535E+01 -0.17004324964E+02 -0.25576522477E+01  0.18613964024E+02  0.51100000000E-03 0.  1.
         12    1    3    3    0    0  0.18713409497E+02  0.27995820424E+01  0.24496858609E+02  0.30953601347E+02  0.00000000000E+00 0. -1.
</event>
<event>
 7    1  0.3750159E-013  0.5930194E+02  0.7816164E-02  0.1266605E+00
        -11   -1    0    0    0    0  0.00000000000E+00  0.00000000000E+00  0.45593999997E+02  0.45594000000E+02  0.51100000000E-03 0.  1.
         11   -1    0    0    0    0 -0.00000000000E+00 -0.00000000000E+00 -0.45593999997E+02  0.45594000000E+02  0.51100000000E-03 0. -1.
    9900012    2    1    2    0    0 -0.15128188519E+02  0.16819835044E+02 -0.22471130372E+02  0.59301942874E+02  0.49999997897E+02 0.  0.
        -12    1    1    2    0    0  0.15128188519E+02 -0.16819835044E+02  0.22471130372E+02  0.31886057126E+02  0.00000000000E+00 0.  1.
         11    1    3    3    0    0 -0.11072893660E+02  0.28106466732E+02 -0.18018520931E+02  0.35174558178E+02  0.51100000000E-03 0. -1.
        -11    1    3    3    0    0 -0.10536413445E+02 -0.19927220777E+01  0.22585011723E+01  0.10958456888E+02  0.51100000000E-03 0.  1.
        -12    1    3    3    0    0  0.64811185857E+01 -0.92939096103E+01 -0.67111106139E+01  0.13168927809E+02  0.00000000000E+00 0.  1.
</event>
<event>
 7    1  0.3750159E-013  0.5930189E+02  0.7816164E-02  0.1266605E+00
        -11   -1    0    0    0    0  0.00000000000E+00  0.00000000000E+00  0.45593999997E+02  0.45594000000E+02  0.51100000000E-03 0. -1.
         11   -1    0    0    0    0 -0.00000000000E+00 -0.00000000000E+00 -0.45593999997E+02  0.45594000000E+02  0.51100000000E-03 0.  1.
    9900012    2    1    2    0    0  0.22445359724E+02  0.22647625456E+02  0.12144636595E+00  0.59301892349E+02  0.49999905749E+02 0.  0.
        -12    1    1    2    0    0 -0.22445359724E+02 -0.22647625456E+02 -0.12144636595E+00  0.31886107651E+02  0.00000000000E+00 0.  1.
         11    1    3    3    0    0  0.11479815177E+02  0.51126723594E+01 -0.15650021985E+02  0.20071092734E+02  0.51100000000E-03 0. -1.
        -11    1    3    3    0    0 -0.41687203888E+01  0.47924817973E+01 -0.67397920629E+01  0.92612584873E+01  0.51100000000E-03 0.  1.
         12    1    3    3    0    0  0.15134264936E+02  0.12742471300E+02  0.22511260414E+02  0.29969541127E+02  0.00000000000E+00 0. -1.
</event>
<event>
 7    1  0.3750159E-013  0.5930195E+02  0.7816164E-02  0.1266605E+00
        -11   -1    0    0    0    0  0.00000000000E+00  0.00000000000E+00  0.45593999997E+02  0.45594000000E+02  0.51100000000E-03 0.  1.
         11   -1    0    0    0    0 -0.00000000000E+00 -0.00000000000E+00 -0.45593999997E+02  0.45594000000E+02  0.51100000000E-03 0. -1.
    9900012    2    1    2    0    0 -0.14067770993E+02  0.19435800991E+01 -0.28548915008E+02  0.59301949250E+02  0.50000009523E+02 0.  0.
        -12    1    1    2    0    0  0.14067770993E+02 -0.19435800991E+01  0.28548915008E+02  0.31886050750E+02  0.00000000000E+00 0.  1.
         11    1    3    3    0    0  0.99706139470E+01  0.10168496716E+02  0.21961733401E+01  0.14409533148E+02  0.51100000000E-03 0. -1.
        -11    1    3    3    0    0 -0.76177266738E+01 -0.55976043522E+01  0.53322081444E+00  0.94682236380E+01  0.51100000000E-03 0.  1.
         12    1    3    3    0    0 -0.16420658266E+02 -0.26273122644E+01 -0.31278309163E+02  0.35424192464E+02  0.00000000000E+00 0. -1.
</event>
<event>
 7    1  0.3750159E-013  0.5930194E+02  0.7816164E-02  0.1266605E+00
        -11   -1    0    0    0    0  0.00000000000E+00  0.00000000000E+00  0.45593999997E+02  0.45594000000E+02  0.51100000000E-03 0.  1.
         11   -1    0    0    0    0 -0.00000000000E+00 -0.00000000000E+00 -0.45593999997E+02  0.45594000000E+02  0.51100000000E-03 0. -1.
    9900012    2    1    2    0    0 -0.22808973262E+02 -0.90548723691E+01 -0.20358801173E+02  0.59301940976E+02  0.49999994434E+02 0.  0.
        -12    1    1    2    0    0  0.22808973262E+02  0.90548723691E+01  0.20358801173E+02  0.31886059024E+02  0.00000000000E+00 0.  1.
         11    1    3    3    0    0 -0.50108844757E+01 -0.35046399617E+01 -0.14358054972E+02  0.15605935003E+02  0.51100000000E-03 0. -1.
        -11    1    3    3    0    0  0.42470377762E+00 -0.19700066338E+02 -0.60906101456E+01  0.20624464095E+02  0.51100000000E-03 0.  1.
        -12    1    3    3    0    0 -0.18222792564E+02  0.14149833930E+02  0.89863944307E-01  0.23071541878E+02  0.00000000000E+00 0.  1.
</event>
<event>
 7    1  0.3750159E-013  0.5930190E+02  0.7816164E-02  0.1266605E+00
        -11   -1    0    0    0    0  0.00000000000E+00  0.00000000000E+00  0.45593999997E+02  0.45594000000E+02  0.51100000000E-03 0.  1.
         11   -1    0    0    0    0 -0.00000000000E+00 -0.00000000000E+00 -0.45593999997E+02  0.45594000000E+02  0.51100000000E-03 0. -1.
    9900012    2    1    2    0    0  0.22134354551E+01 -0.21457629552E+02 -0.23481781509E+02  0.59301902318E+02  0.49999923932E+02 0.  0.
        -12    1    1    2    0    0 -0.22134354551E+01  0.21457629552E+02  0.23481781509E+02  0.31886097682E+02  0.00000000000E+00 0.  1.
         11    1    3    3    0    0 -0.48542650541E+01 -0.47859732225E+01 -0.14705008261E+02  0.16208229303E+02  0.51100000000E-03 0. -1.
        -11    1    3    3    0    0 -0.10038324266E+02 -0.16169177192E+02  0.65427734814E+01  0.20125062241E+02  0.51100000000E-03 0.  1.
        -12    1    3    3    0    0  0.17106024775E+02 -0.50247913791E+00 -0.15319546729E+02  0.22968610774E+02  0.00000000000E+00 0.  1.
</event>
<event>
 7    1  0.3750159E-013  0.5930194E+02  0.7816164E-02  0.1266605E+00
        -11   -1    0    0    0    0  0.00000000000E+00  0.00000000000E+00  0.45593999997E+02  0.45594000000E+02  0.51100000000E-03 0.  1.
         11   -1    0    0    0    0 -0.00000000000E+00 -0.00000000000E+00 -0.45593999997E+02  0.45594000000E+02  0.51100000000E-03 0. -1.
    9900012    2    1    2    0    0  0.10088488391E+02 -0.19264140475E+02 -0.23320293868E+02  0.59301940156E+02  0.49999992940E+02 0.  0.
        -12    1    1    2    0    0 -0.10088488391E+02  0.19264140475E+02  0.23320293868E+02  0.31886059844E+02  0.00000000000E+00 0.  1.
         11    1    3    3    0    0  0.68730054000E+01  0.11293672796E+02 -0.19203179257E+02  0.23314101790E+02  0.51100000000E-03 0. -1.
        -11    1    3    3    0    0 -0.57744548394E+01 -0.73768733241E+01  0.34741961807E+01  0.99916279002E+01  0.51100000000E-03 0.  1.
        -12    1    3    3    0    0  0.89899378304E+01 -0.23180939948E+02 -0.75913107914E+01  0.25996210466E+02  0.00000000000E+00 0.  1.
</event>
<event>
 7    1  0.3750159E-013  0.5930204E+02  0.7816164E-02  0.1266604E+00
        -11   -1    0    0    0    0  0.00000000000E+00  0.00000000000E+00  0.45593999997E+02  0.45594000000E+02  0.51100000000E-03 0.  1.
         11   -1    0    0    0    0 -0.00000000000E+00 -0.00000000000E+00 -0.45593999997E+02  0.45594000000E+02  0.51100000000E-03 0. -1.
    9900012    2    1    2    0    0  0.26671449257E+02  0.17169634438E+02 -0.32483784928E+01  0.59302038904E+02  0.50000173031E+02 0.  0.
        -12    1    1    2    0    0 -0.26671449257E+02 -0.17169634438E+02  0.32483784928E+01  0.31885961096E+02  0.00000000000E+00 0.  1.
         11    1    3    3    0    0  0.17436010869E+02  0.44614072752E+01 -0.19685711650E+01  0.18105079469E+02  0.51100000000E-03 0. -1.
        -11    1    3    3    0    0  0.14365571241E+02 -0.10237354467E+02  0.16015184799E+00  0.17640825163E+02  0.51100000000E-03 0.  1.
         12    1    3    3    0    0 -0.51301328525E+01  0.22945581630E+02 -0.14399591758E+01  0.23556134272E+02  0.00000000000E+00 0. -1.
</event>
<event>
 7    1  0.3750159E-013  0.5930192E+02  0.7816164E-02  0.1266605E+00
        -11   -1    0    0    0    0  0.00000000000E+00  0.00000000000E+00  0.45593999997E+02  0.45594000000E+02  0.51100000000E-03 0.  1.
         11   -1    0    0    0    0 -0.00000000000E+00 -0.00000000000E+00 -0.45593999997E+02  0.45594000000E+02  0.51100000000E-03 0. -1.
    9900012    2    1    2    0    0  0.22613333160E+01 -0.18616036736E+02 -0.25788590748E+02  0.59301923652E+02  0.49999962839E+02 0.  0.
        -12    1    1    2    0    0 -0.22613333160E+01  0.18616036736E+02  0.25788590748E+02  0.31886076348E+02  0.00000000000E+00 0.  1.
         11    1    3    3    0    0 -0.14642368911E+02  0.28803247106E+01 -0.44919062306E+00  0.14929735773E+02  0.51100000000E-03 0. -1.
        -11    1    3    3    0    0 -0.53989637720E+01 -0.37703373775E+00 -0.59772516372E+01  0.80634050901E+01  0.51100000000E-03 0.  1.
         12    1    3    3    0    0  0.22302665999E+02 -0.21119327709E+02 -0.19362148488E+02  0.36308782789E+02  0.00000000000E+00 0. -1.
</event>
<event>
 7    1  0.3750159E-013  0.5930191E+02  0.7816164E-02  0.1266605E+00
        -11   -1    0    0    0    0  0.00000000000E+00  0.00000000000E+00  0.45593999997E+02  0.45594000000E+02  0.51100000000E-03 0. -1.
         11   -1    0    0    0    0 -0.00000000000E+00 -0.00000000000E+00 -0.45593999997E+02  0.45594000000E+02  0.51100000000E-03 0.  1.
    9900012    2    1    2    0    0 -0.12396127999E+02  0.27019650558E+02  0.11532451831E+02  0.59301906623E+02  0.49999931782E+02 0.  0.
        -12    1    1    2    0    0  0.12396127999E+02 -0.27019650558E+02 -0.11532451831E+02  0.31886093377E+02  0.00000000000E+00 0.  1.
         11    1    3    3    0    0 -0.18153958763E+02  0.11532239334E+02  0.14053368753E+02  0.25691553795E+02  0.51100000000E-03 0. -1.
        -11    1    3    3    0    0  0.67836064126E+01  0.22356359497E+02  0.44358159253E+01  0.23780256288E+02  0.51100000000E-03 0.  1.
        -12    1    3    3    0    0 -0.10257756490E+01 -0.68689482741E+01 -0.69567328475E+01  0.98300965400E+01  0.00000000000E+00 0.  1.
</event>
<event>
 7    1  0.3750159E-013  0.5930195E+02  0.7816164E-02  0.1266605E+00
        -11   -1    0    0    0    0  0.00000000000E+00  0.00000000000E+00  0.45593999997E+02  0.45594000000E+02  0.51100000000E-03 0.  1.
         11   -1    0    0    0    0 -0.00000000000E+00 -0.00000000000E+00 -0.45593999997E+02  0.45594000000E+02  0.51100000000E-03 0. -1.
    9900012    2    1    2    0    0  0.18280591534E+02 -0.68069781735E+01 -0.25223108927E+02  0.59301949718E+02  0.50000010377E+02 0.  0.
        -12    1    1    2    0    0 -0.18280591534E+02  0.68069781735E+01  0.25223108927E+02  0.31886050282E+02  0.00000000000E+00 0.  1.
         11    1    3    3    0    0  0.43409213305E+01 -0.38590791123E+00 -0.10126844204E+02  0.11024767422E+02  0.51100000000E-03 0. -1.
        -11    1    3    3    0    0  0.21908103926E+02  0.11185750195E+02 -0.14932622913E+01  0.24643779288E+02  0.51100000000E-03 0.  1.
         12    1    3    3    0    0 -0.79684337229E+01 -0.17606820457E+02 -0.13603002431E+02  0.23633403008E+02  0.00000000000E+00 0. -1.
</event>
<event>
 7    1  0.3750159E-013  0.5930192E+02  0.7816164E-02  0.1266605E+00
        -11   -1    0    0    0    0  0.00000000000E+00  0.00000000000E+00  0.45593999997E+02  0.45594000000E+02  0.51100000000E-03 0. -1.
         11   -1    0    0    0    0 -0.00000000000E+00 -0.00000000000E+00 -0.45593999997E+02  0.45594000000E+02  0.51100000000E-03 0.  1.
    9900012    2    1    2    0    0 -0.30924810325E+02 -0.74567494480E+01 -0.21852343319E+01  0.59301917533E+02  0.49999951680E+02 0.  0.
        -12    1    1    2    0    0  0.30924810325E+02  0.74567494480E+01  0.21852343319E+01  0.31886082467E+02  0.00000000000E+00 0.  1.
         11    1    3    3    0    0 -0.81153764501E+00 -0.14531572597E+02 -0.66724454098E+01  0.16010831443E+02  0.51100000000E-03 0. -1.
        -11    1    3    3    0    0  0.42807241847E+01  0.41080734041E+01  0.63865539570E+01  0.87171634346E+01  0.51100000000E-03 0.  1.
         12    1    3    3    0    0 -0.34393996865E+02  0.29667497450E+01 -0.18993428791E+01  0.34573922655E+02  0.00000000000E+00 0. -1.
</event>
<event>
 7    1  0.3750159E-013  0.5930159E+02  0.7816164E-02  0.1266606E+00
        -11   -1    0    0    0    0  0.00000000000E+00  0.00000000000E+00  0.45593999997E+02  0.45594000000E+02  0.51100000000E-03 0.  1.
         11   -1    0    0    0    0 -0.00000000000E+00 -0.00000000000E+00 -0.45593999997E+02  0.45594000000E+02  0.51100000000E-03 0. -1.
    9900012    2    1    2    0    0 -0.20226009098E+02  0.13765093547E+02 -0.20449297421E+02  0.59301592090E+02  0.49999358146E+02 0.  0.
        -12    1    1    2    0    0  0.20226009098E+02 -0.13765093547E+02  0.20449297421E+02  0.31886407910E+02  0.00000000000E+00 0.  1.
         11    1    3    3    0    0 -0.27185949804E+02  0.15783402514E+02 -0.11117016712E+02  0.33343360996E+02  0.51100000000E-03 0. -1.
        -11    1    3    3    0    0 -0.46235288743E+01 -0.44770873543E+01 -0.12182893715E+02  0.13778397221E+02  0.51100000000E-03 0.  1.
         12    1    3    3    0    0  0.11583469580E+02  0.24587783874E+01  0.28506130064E+01  0.12179833874E+02  0.00000000000E+00 0. -1.
</event>
<event>
 7    1  0.3750159E-013  0.5930194E+02  0.7816164E-02  0.1266605E+00
        -11   -1    0    0    0    0  0.00000000000E+00  0.00000000000E+00  0.45593999997E+02  0.45594000000E+02  0.51100000000E-03 0.  1.
         11   -1    0    0    0    0 -0.00000000000E+00 -0.00000000000E+00 -0.45593999997E+02  0.45594000000E+02  0.51100000000E-03 0. -1.
    9900012    2    1    2    0    0 -0.15127331817E+02 -0.27174319018E+02  0.70314298024E+01  0.59301940553E+02  0.49999993662E+02 0.  0.
        -12    1    1    2    0    0  0.15127331817E+02  0.27174319018E+02 -0.70314298024E+01  0.31886059447E+02  0.00000000000E+00 0.  1.
         11    1    3    3    0    0 -0.26279678202E-02 -0.36592620561E+01  0.15790815757E+02  0.16209258719E+02  0.51100000000E-03 0. -1.
        -11    1    3    3    0    0  0.12609675909E+01  0.39303095175E+01  0.64785767920E+01  0.76817530342E+01  0.51100000000E-03 0.  1.
         12    1    3    3    0    0 -0.16385671440E+02 -0.27445366480E+02 -0.15237962746E+02  0.35410928799E+02  0.00000000000E+00 0. -1.
</event>
<event>
 7    1  0.3750159E-013  0.5930210E+02  0.7816164E-02  0.1266604E+00
        -11   -1    0    0    0    0  0.00000000000E+00  0.00000000000E+00  0.45593999997E+02  0.45594000000E+02  0.51100000000E-03 0.  1.
         11   -1    0    0    0    0 -0.00000000000E+00 -0.00000000000E+00 -0.45593999997E+02  0.45594000000E+02  0.51100000000E-03 0. -1.
    9900012    2    1    2    0    0 -0.31217670907E+02 -0.22401952171E+01 -0.60950297988E+01  0.59302096536E+02  0.50000278138E+02 0.  0.
        -12    1    1    2    0    0  0.31217670907E+02  0.22401952171E+01  0.60950297988E+01  0.31885903464E+02  0.00000000000E+00 0.  1.
         11    1    3    3    0    0 -0.42231918321E+01  0.65759562702E+01 -0.12584396724E+02  0.14813696071E+02  0.51100000000E-03 0. -1.
        -11    1    3    3    0    0 -0.33602931375E+01  0.85944318194E+01  0.11462372757E+02  0.14715359926E+02  0.51100000000E-03 0.  1.
         12    1    3    3    0    0 -0.23634185937E+02 -0.17410583307E+02 -0.49730058317E+01  0.29773040540E+02  0.00000000000E+00 0. -1.
</event>
<event>
 7    1  0.3750159E-013  0.5930194E+02  0.7816164E-02  0.1266605E+00
        -11   -1    0    0    0    0  0.00000000000E+00  0.00000000000E+00  0.45593999997E+02  0.45594000000E+02  0.51100000000E-03 0.  1.
         11   -1    0    0    0    0 -0.00000000000E+00 -0.00000000000E+00 -0.45593999997E+02  0.45594000000E+02  0.51100000000E-03 0. -1.
    9900012    2    1    2    0    0 -0.26784603533E+02  0.14302967786E+02  0.97329775697E+01  0.59301941506E+02  0.49999995401E+02 0.  0.
        -12    1    1    2    0    0  0.26784603533E+02 -0.14302967786E+02 -0.97329775697E+01  0.31886058494E+02  0.00000000000E+00 0.  1.
         11    1    3    3    0    0 -0.34767742892E+02  0.53904266579E+01 -0.28568421030E+01  0.35298926222E+02  0.51100000000E-03 0. -1.
        -11    1    3    3    0    0 -0.33392674214E+01 -0.53158691958E+00  0.77984195327E+01  0.84999199428E+01  0.51100000000E-03 0.  1.
        -12    1    3    3    0    0  0.11322406780E+02  0.94441280472E+01  0.47914001400E+01  0.15503095341E+02  0.00000000000E+00 0.  1.
</event>
<event>
 7    1  0.3750159E-013  0.5930194E+02  0.7816164E-02  0.1266605E+00
        -11   -1    0    0    0    0  0.00000000000E+00  0.00000000000E+00  0.45593999997E+02  0.45594000000E+02  0.51100000000E-03 0.  1.
         11   -1    0    0    0    0 -0.00000000000E+00 -0.00000000000E+00 -0.45593999997E+02  0.45594000000E+02  0.51100000000E-03 0. -1.
    9900012    2    1    2    0    0 -0.31538955026E+02 -0.18255972213E+01 -0.43222862227E+01  0.59301942741E+02  0.49999997653E+02 0.  0.
        -12    1    1    2    0    0  0.31538955026E+02  0.18255972213E+01  0.43222862227E+01  0.31886057259E+02  0.00000000000E+00 0.  1.
         11    1    3    3    0    0 -0.16531801309E+02  0.14561578152E+02 -0.16134693751E+02  0.27306928708E+02  0.51100000000E-03 0. -1.
        -11    1    3    3    0    0  0.36385876880E-01 -0.33280049374E+01 -0.49466253935E+01  0.59620503051E+01  0.51100000000E-03 0.  1.
        -12    1    3    3    0    0 -0.15043539594E+02 -0.13059170436E+02  0.16759032921E+02  0.26032963727E+02  0.00000000000E+00 0.  1.
</event>
<event>
 7    1  0.3750159E-013  0.5930195E+02  0.7816164E-02  0.1266605E+00
        -11   -1    0    0    0    0  0.00000000000E+00  0.00000000000E+00  0.45593999997E+02  0.45594000000E+02  0.51100000000E-03 0. -1.
         11   -1    0    0    0    0 -0.00000000000E+00 -0.00000000000E+00 -0.45593999997E+02  0.45594000000E+02  0.51100000000E-03 0.  1.
    9900012    2    1    2    0    0 -0.20847372389E+02  0.28032385280E+01 -0.23963493895E+02  0.59301950991E+02  0.50000012699E+02 0.  0.
        -12    1    1    2    0    0  0.20847372389E+02 -0.28032385280E+01  0.23963493895E+02  0.31886049009E+02  0.00000000000E+00 0.  1.
         11    1    3    3    0    0 -0.20673812671E+02 -0.10674467582E+02 -0.16714456884E+02  0.28648278442E+02  0.51100000000E-03 0. -1.
        -11    1    3    3    0    0 -0.60927423630E+01 -0.62896223596E+01 -0.44736381031E+01  0.98333258395E+01  0.51100000000E-03 0.  1.
        -12    1    3    3    0    0  0.59191826443E+01  0.19767328470E+02 -0.27753989076E+01  0.20820346709E+02  0.00000000000E+00 0.  1.
</event>
<event>
 7    1  0.3750159E-013  0.5930193E+02  0.7816164E-02  0.1266605E+00
        -11   -1    0    0    0    0  0.00000000000E+00  0.00000000000E+00  0.45593999997E+02  0.45594000000E+02  0.51100000000E-03 0.  1.
         11   -1    0    0    0    0 -0.00000000000E+00 -0.00000000000E+00 -0.45593999997E+02  0.45594000000E+02  0.51100000000E-03 0. -1.
    9900012    2    1    2    0    0 -0.31434870283E+02  0.42220346490E+01  0.32778909314E+01  0.59301933839E+02  0.49999981418E+02 0.  0.
        -12    1    1    2    0    0  0.31434870283E+02 -0.42220346490E+01 -0.32778909314E+01  0.31886066161E+02  0.00000000000E+00 0.  1.
         11    1    3    3    0    0 -0.36417428715E+01 -0.78509208368E-01 -0.54375491480E+01  0.65448755401E+01  0.51100000000E-03 0. -1.
        -11    1    3    3    0    0 -0.33834130227E+02  0.13458381275E+02 -0.32088637710E+01  0.36553702982E+02  0.51100000000E-03 0.  1.
         12    1    3    3    0    0  0.60410028156E+01 -0.91578374177E+01  0.11924303850E+02  0.16203355316E+02  0.00000000000E+00 0. -1.
</event>
<event>
 7    1  0.3750159E-013  0.5930202E+02  0.7816164E-02  0.1266604E+00
        -11   -1    0    0    0    0  0.00000000000E+00  0.00000000000E+00  0.45593999997E+02  0.45594000000E+02  0.51100000000E-03 0.  1.
         11   -1    0    0    0    0 -0.00000000000E+00 -0.00000000000E+00 -0.45593999997E+02  0.45594000000E+02  0.51100000000E-03 0. -1.
    9900012    2    1    2    0    0 -0.29040006394E+01 -0.16862175608E+02 -0.26906307333E+02  0.59302022514E+02  0.50000143139E+02 0.  0.
        -12    1    1    2    0    0  0.29040006394E+01  0.16862175608E+02  0.26906307333E+02  0.31885977486E+02  0.00000000000E+00 0.  1.
         11    1    3    3    0    0  0.50576148697E+01  0.73907898908E+01 -0.10319539802E+02  0.13663679789E+02  0.51100000000E-03 0. -1.
        -11    1    3    3    0    0 -0.15590383331E+01  0.87346936499E+01 -0.26542355930E+01  0.92612332076E+01  0.51100000000E-03 0.  1.
         12    1    3    3    0    0 -0.64025771760E+01 -0.32987659149E+02 -0.13932531938E+02  0.36377109517E+02  0.00000000000E+00 0. -1.
</event>
<event>
 7    1  0.3750159E-013  0.5930199E+02  0.7816164E-02  0.1266605E+00
        -11   -1    0    0    0    0  0.00000000000E+00  0.00000000000E+00  0.45593999997E+02  0.45594000000E+02  0.51100000000E-03 0.  1.
         11   -1    0    0    0    0 -0.00000000000E+00 -0.00000000000E+00 -0.45593999997E+02  0.45594000000E+02  0.51100000000E-03 0. -1.
    9900012    2    1    2    0    0  0.14801738082E+02  0.78964816449E+01 -0.27115900580E+02  0.59301985246E+02  0.50000075173E+02 0.  0.
        -12    1    1    2    0    0 -0.14801738082E+02 -0.78964816449E+01  0.27115900580E+02  0.31886014754E+02  0.00000000000E+00 0.  1.
         11    1    3    3    0    0  0.14042165575E+02 -0.13515762601E+02 -0.88454849736E+01  0.21403290808E+02  0.51100000000E-03 0. -1.
        -11    1    3    3    0    0  0.87775418461E+01  0.34645426155E+01 -0.15360007070E+02  0.18027149354E+02  0.51100000000E-03 0.  1.
        -12    1    3    3    0    0 -0.80179693399E+01  0.17947701631E+02 -0.29104085365E+01  0.19871545084E+02  0.00000000000E+00 0.  1.
</event>
<event>
 7    1  0.3750159E-013  0.5930199E+02  0.7816164E-02  0.1266605E+00
        -11   -1    0    0    0    0  0.00000000000E+00  0.00000000000E+00  0.45593999997E+02  0.45594000000E+02  0.51100000000E-03 0. -1.
         11   -1    0    0    0    0 -0.00000000000E+00 -0.00000000000E+00 -0.45593999997E+02  0.45594000000E+02  0.51100000000E-03 0.  1.
    9900012    2    1    2    0    0  0.11957431732E+02 -0.10977720035E+02  0.27444979225E+02  0.59301993737E+02  0.50000090657E+02 0.  0.
        -12    1    1    2    0    0 -0.11957431732E+02  0.10977720035E+02 -0.27444979225E+02  0.31886006263E+02  0.00000000000E+00 0.  1.
         11    1    3    3    0    0  0.11422644725E+02 -0.19995383407E+02  0.25321185187E+01  0.23166868467E+02  0.51100000000E-03 0. -1.
        -11    1    3    3    0    0  0.19925205966E+01 -0.83011300005E+01  0.59103586590E+01  0.10383219026E+02  0.51100000000E-03 0.  1.
        -12    1    3    3    0    0 -0.14577335888E+01  0.17318793373E+02  0.19002502047E+02  0.25751906243E+02  0.00000000000E+00 0.  1.
</event>
<event>
 7    1  0.3750159E-013  0.5930192E+02  0.7816164E-02  0.1266605E+00
        -11   -1    0    0    0    0  0.00000000000E+00  0.00000000000E+00  0.45593999997E+02  0.45594000000E+02  0.51100000000E-03 0.  1.
         11   -1    0    0    0    0 -0.00000000000E+00 -0.00000000000E+00 -0.45593999997E+02  0.45594000000E+02  0.51100000000E-03 0. -1.
    9900012    2    1    2    0    0 -0.59768717521E+00  0.22598984861E+02 -0.22486682874E+02  0.59301917560E+02  0.49999951729E+02 0.  0.
        -12    1    1    2    0    0  0.59768717521E+00 -0.22598984861E+02  0.22486682874E+02  0.31886082440E+02  0.00000000000E+00 0.  1.
         11    1    3    3    0    0  0.47276085245E+01  0.23085424127E+01  0.80958166538E+01  0.96551487811E+01  0.51100000000E-03 0. -1.
        -11    1    3    3    0    0  0.31955572330E+01 -0.75018917164E+01 -0.10734027543E+01  0.82244853388E+01  0.51100000000E-03 0.  1.
         12    1    3    3    0    0 -0.85208529327E+01  0.27792334165E+02 -0.29509096773E+02  0.41422283440E+02  0.00000000000E+00 0. -1.
</event>
<event>
 7    1  0.3750159E-013  0.5930193E+02  0.7816164E-02  0.1266605E+00
        -11   -1    0    0    0    0  0.00000000000E+00  0.00000000000E+00  0.45593999997E+02  0.45594000000E+02  0.51100000000E-03 0. -1.
         11   -1    0    0    0    0 -0.00000000000E+00 -0.00000000000E+00 -0.45593999997E+02  0.45594000000E+02  0.51100000000E-03 0.  1.
    9900012    2    1    2    0    0  0.49397482170E+01  0.23218675461E+02  0.21288804320E+02  0.59301934203E+02  0.49999982083E+02 0.  0.
        -12    1    1    2    0    0 -0.49397482170E+01 -0.23218675461E+02 -0.21288804320E+02  0.31886065797E+02  0.00000000000E+00 0.  1.
         11    1    3    3    0    0  0.97248383819E+01  0.17311725417E+01  0.55728302435E+00  0.98934323950E+01  0.51100000000E-03 0. -1.
        -11    1    3    3    0    0 -0.56173127433E+01 -0.10857908058E+02  0.33324480671E+01  0.12670973926E+02  0.51100000000E-03 0.  1.
         12    1    3    3    0    0  0.83222257839E+00  0.32345410977E+02  0.17399073229E+02  0.36737527882E+02  0.00000000000E+00 0. -1.
</event>
<event>
 7    1  0.3750159E-013  0.5930194E+02  0.7816164E-02  0.1266605E+00
        -11   -1    0    0    0    0  0.00000000000E+00  0.00000000000E+00  0.45593999997E+02  0.45594000000E+02  0.51100000000E-03 0.  1.
         11   -1    0    0    0    0 -0.00000000000E+00 -0.00000000000E+00 -0.45593999997E+02  0.45594000000E+02  0.51100000000E-03 0. -1.
    9900012    2    1    2    0    0 -0.85872777217E+01  0.74060420901E+01 -0.29801505850E+02  0.59301944286E+02  0.50000000470E+02 0.  0.
        -12    1    1    2    0    0  0.85872777217E+01 -0.74060420901E+01  0.29801505850E+02  0.31886055714E+02  0.00000000000E+00 0.  1.
         11    1    3    3    0    0 -0.16957787848E+02  0.61576812774E+00 -0.21170195188E+02  0.27131584982E+02  0.51100000000E-03 0. -1.
        -11    1    3    3    0    0 -0.12430203043E+01  0.12286116981E+02  0.60740984014E+01  0.13761847318E+02  0.51100000000E-03 0.  1.
         12    1    3    3    0    0  0.96135304307E+01 -0.54958430184E+01 -0.14705409063E+02  0.18408511986E+02  0.00000000000E+00 0. -1.
</event>
<event>
 7    1  0.3750159E-013  0.5930194E+02  0.7816164E-02  0.1266605E+00
        -11   -1    0    0    0    0  0.00000000000E+00  0.00000000000E+00  0.45593999997E+02  0.45594000000E+02  0.51100000000E-03 0.  1.
         11   -1    0    0    0    0 -0.00000000000E+00 -0.00000000000E+00 -0.45593999997E+02  0.45594000000E+02  0.51100000000E-03 0. -1.
    9900012    2    1    2    0    0  0.22319693370E+02 -0.18941558617E+02 -0.12639992537E+02  0.59301940879E+02  0.49999994257E+02 0.  0.
        -12    1    1    2    0    0 -0.22319693370E+02  0.18941558617E+02  0.12639992537E+02  0.31886059121E+02  0.00000000000E+00 0.  1.
         11    1    3    3    0    0  0.12286798921E+02  0.34705816705E+01  0.34031562418E+01  0.13213320458E+02  0.51100000000E-03 0.  1.
        -11    1    3    3    0    0  0.10898394966E+02 -0.48031734342E+01 -0.23964308719E+02  0.26760672273E+02  0.51100000000E-03 0. -1.
        -12    1    3    3    0    0 -0.86550051749E+00 -0.17608966853E+02  0.79211599408E+01  0.19327948147E+02  0.00000000000E+00 0.  1.
</event>
<event>
 7    1  0.3750159E-013  0.5930201E+02  0.7816164E-02  0.1266605E+00
        -11   -1    0    0    0    0  0.00000000000E+00  0.00000000000E+00  0.45593999997E+02  0.45594000000E+02  0.51100000000E-03 0.  1.
         11   -1    0    0    0    0 -0.00000000000E+00 -0.00000000000E+00 -0.45593999997E+02  0.45594000000E+02  0.51100000000E-03 0. -1.
    9900012    2    1    2    0    0  0.55467736597E+01  0.84285495700E+01 -0.30247461579E+02  0.59302014397E+02  0.50000128337E+02 0.  0.
        -12    1    1    2    0    0 -0.55467736597E+01 -0.84285495700E+01  0.30247461579E+02  0.31885985603E+02  0.00000000000E+00 0.  1.
         11    1    3    3    0    0 -0.48733206064E+01  0.19019965414E+01 -0.22556656239E+02  0.23155336006E+02  0.51100000000E-03 0. -1.
        -11    1    3    3    0    0 -0.59824909315E+01  0.86161488185E+01  0.81229225507E+01  0.13266879408E+02  0.51100000000E-03 0.  1.
         12    1    3    3    0    0  0.16402585198E+02 -0.20895957899E+01 -0.15813727890E+02  0.22879798983E+02  0.00000000000E+00 0. -1.
</event>
<event>
 7    1  0.3750159E-013  0.5930196E+02  0.7816164E-02  0.1266605E+00
        -11   -1    0    0    0    0  0.00000000000E+00  0.00000000000E+00  0.45593999997E+02  0.45594000000E+02  0.51100000000E-03 0.  1.
         11   -1    0    0    0    0 -0.00000000000E+00 -0.00000000000E+00 -0.45593999997E+02  0.45594000000E+02  0.51100000000E-03 0. -1.
    9900012    2    1    2    0    0  0.30265788241E+02  0.99666458849E+01 -0.11695700194E+01  0.59301955058E+02  0.50000020116E+02 0.  0.
        -12    1    1    2    0    0 -0.30265788241E+02 -0.99666458849E+01  0.11695700194E+01  0.31886044942E+02  0.00000000000E+00 0.  1.
         11    1    3    3    0    0 -0.47536734238E+01  0.10135656156E+02 -0.90333912624E+01  0.14385099745E+02  0.51100000000E-03 0. -1.
        -11    1    3    3    0    0  0.22967536999E+02  0.10372245935E+02  0.12660315744E+02  0.28202390617E+02  0.51100000000E-03 0.  1.
         12    1    3    3    0    0  0.12051924666E+02 -0.10541256206E+02 -0.47964945007E+01  0.16714464695E+02  0.00000000000E+00 0. -1.
</event>
<event>
 7    1  0.3750159E-013  0.5930195E+02  0.7816164E-02  0.1266605E+00
        -11   -1    0    0    0    0  0.00000000000E+00  0.00000000000E+00  0.45593999997E+02  0.45594000000E+02  0.51100000000E-03 0.  1.
         11   -1    0    0    0    0 -0.00000000000E+00 -0.00000000000E+00 -0.45593999997E+02  0.45594000000E+02  0.51100000000E-03 0. -1.
    9900012    2    1    2    0    0  0.31140770997E+02  0.24056091348E+01 -0.64176251296E+01  0.59301945275E+02  0.50000002275E+02 0.  0.
        -12    1    1    2    0    0 -0.31140770997E+02 -0.24056091348E+01  0.64176251296E+01  0.31886054725E+02  0.00000000000E+00 0.  1.
         11    1    3    3    0    0  0.23883983921E+02 -0.54575004718E+01  0.59683311144E+01  0.25216065829E+02  0.51100000000E-03 0. -1.
        -11    1    3    3    0    0 -0.36052027654E+01 -0.87946555365E+01  0.17797168588E+01  0.96701005860E+01  0.51100000000E-03 0.  1.
        -12    1    3    3    0    0  0.10861989842E+02  0.16657765143E+02 -0.14165673103E+02  0.24415778860E+02  0.00000000000E+00 0.  1.
</event>
<event>
 7    1  0.3750159E-013  0.5930194E+02  0.7816164E-02  0.1266605E+00
        -11   -1    0    0    0    0  0.00000000000E+00  0.00000000000E+00  0.45593999997E+02  0.45594000000E+02  0.51100000000E-03 0. -1.
         11   -1    0    0    0    0 -0.00000000000E+00 -0.00000000000E+00 -0.45593999997E+02  0.45594000000E+02  0.51100000000E-03 0.  1.
    9900012    2    1    2    0    0 -0.26877600546E+01 -0.14619033872E+02  0.28209587958E+02  0.59301936301E+02  0.49999985908E+02 0.  0.
        -12    1    1    2    0    0  0.26877600546E+01  0.14619033872E+02 -0.28209587958E+02  0.31886063699E+02  0.00000000000E+00 0.  1.
         11    1    3    3    0    0 -0.19906770746E+01 -0.45714793482E+01  0.12069139299E+02  0.13058535229E+02  0.51100000000E-03 0. -1.
        -11    1    3    3    0    0  0.52261807834E+01 -0.19125734023E+02  0.25236139537E+02  0.32093136439E+02  0.51100000000E-03 0.  1.
        -12    1    3    3    0    0 -0.59232637634E+01  0.90781794992E+01 -0.90956908783E+01  0.14150264633E+02  0.00000000000E+00 0.  1.
</event>
<event>
 7    1  0.3750159E-013  0.5930191E+02  0.7816164E-02  0.1266605E+00
        -11   -1    0    0    0    0  0.00000000000E+00  0.00000000000E+00  0.45593999997E+02  0.45594000000E+02  0.51100000000E-03 0.  1.
         11   -1    0    0    0    0 -0.00000000000E+00 -0.00000000000E+00 -0.45593999997E+02  0.45594000000E+02  0.51100000000E-03 0. -1.
    9900012    2    1    2    0    0  0.20007552884E+02 -0.14198792443E+02 -0.20367004570E+02  0.59301909703E+02  0.49999937400E+02 0.  0.
        -12    1    1    2    0    0 -0.20007552884E+02  0.14198792443E+02  0.20367004570E+02  0.31886090297E+02  0.00000000000E+00 0.  1.
         11    1    3    3    0    0  0.19872331979E+02  0.12659470272E+02 -0.25125514163E+00  0.23563422826E+02  0.51100000000E-03 0. -1.
        -11    1    3    3    0    0  0.16784447174E+01  0.53344258982E+00 -0.27615584839E+01  0.32753539026E+01  0.51100000000E-03 0.  1.
         12    1    3    3    0    0 -0.15432238124E+01 -0.27391705304E+02 -0.17354190945E+02  0.32463132975E+02  0.00000000000E+00 0. -1.
</event>
<event>
 7    1  0.3750159E-013  0.5930189E+02  0.7816164E-02  0.1266605E+00
        -11   -1    0    0    0    0  0.00000000000E+00  0.00000000000E+00  0.45593999997E+02  0.45594000000E+02  0.51100000000E-03 0. -1.
         11   -1    0    0    0    0 -0.00000000000E+00 -0.00000000000E+00 -0.45593999997E+02  0.45594000000E+02  0.51100000000E-03 0.  1.
    9900012    2    1    2    0    0  0.18593584555E+02  0.10471732086E+02 -0.23692729395E+02  0.59301890396E+02  0.49999902189E+02 0.  0.
        -12    1    1    2    0    0 -0.18593584555E+02 -0.10471732086E+02  0.23692729395E+02  0.31886109604E+02  0.00000000000E+00 0.  1.
         11    1    3    3    0    0 -0.13891287131E+01  0.72196657299E+01 -0.45493149824E+00  0.73661533220E+01  0.51100000000E-03 0.  1.
        -11    1    3    3    0    0  0.17861127402E+02 -0.16107710958E+02 -0.36739639195E+01  0.24330561759E+02  0.51100000000E-03 0. -1.
         12    1    3    3    0    0  0.21215858662E+01  0.19359777315E+02 -0.19563833977E+02  0.27605175315E+02  0.00000000000E+00 0. -1.
</event>
<event>
 7    1  0.3750159E-013  0.5930221E+02  0.7816164E-02  0.1266604E+00
        -11   -1    0    0    0    0  0.00000000000E+00  0.00000000000E+00  0.45593999997E+02  0.45594000000E+02  0.51100000000E-03 0.  1.
         11   -1    0    0    0    0 -0.00000000000E+00 -0.00000000000E+00 -0.45593999997E+02  0.45594000000E+02  0.51100000000E-03 0. -1.
    9900012    2    1    2    0    0  0.68306100168E+01  0.50244070260E+01 -0.30737624297E+02  0.59302212467E+02  0.50000489567E+02 0.  0.
        -12    1    1    2    0    0 -0.68306100168E+01 -0.50244070260E+01  0.30737624297E+02  0.31885787533E+02  0.00000000000E+00 0.  1.
         11    1    3    3    0    0 -0.94316336107E+01  0.29395560576E+01  0.65412684789E+00  0.99007365673E+01  0.51100000000E-03 0. -1.
        -11    1    3    3    0    0 -0.46604794797E+01  0.13451245996E+02 -0.13485422357E+02  0.19608995493E+02  0.51100000000E-03 0.  1.
         12    1    3    3    0    0  0.20922723107E+02 -0.11366395028E+02 -0.17906328788E+02  0.29792480407E+02  0.00000000000E+00 0. -1.
</event>
<event>
 7    1  0.3750159E-013  0.5930194E+02  0.7816164E-02  0.1266605E+00
        -11   -1    0    0    0    0  0.00000000000E+00  0.00000000000E+00  0.45593999997E+02  0.45594000000E+02  0.51100000000E-03 0.  1.
         11   -1    0    0    0    0 -0.00000000000E+00 -0.00000000000E+00 -0.45593999997E+02  0.45594000000E+02  0.51100000000E-03 0. -1.
    9900012    2    1    2    0    0  0.20999968857E+01  0.29474293596E+02  0.11982343091E+02  0.59301944806E+02  0.50000001420E+02 0.  0.
        -12    1    1    2    0    0 -0.20999968857E+01 -0.29474293596E+02 -0.11982343091E+02  0.31886055194E+02  0.00000000000E+00 0.  1.
         11    1    3    3    0    0 -0.71957575140E+01 -0.79175709193E+01 -0.37866231880E+01  0.11349245389E+02  0.51100000000E-03 0. -1.
        -11    1    3    3    0    0  0.60766404994E+01 -0.35653928067E+00  0.65901633765E+01  0.89712280992E+01  0.51100000000E-03 0.  1.
         12    1    3    3    0    0  0.32191139002E+01  0.37748403796E+02  0.91788029021E+01  0.38981471318E+02  0.00000000000E+00 0. -1.
</event>
<event>
 7    1  0.3750159E-013  0.5930227E+02  0.7816164E-02  0.1266604E+00
        -11   -1    0    0    0    0  0.00000000000E+00  0.00000000000E+00  0.45593999997E+02  0.45594000000E+02  0.51100000000E-03 0. -1.
         11   -1    0    0    0    0 -0.00000000000E+00 -0.00000000000E+00 -0.45593999997E+02  0.45594000000E+02  0.51100000000E-03 0.  1.
    9900012    2    1    2    0    0 -0.29767376934E+02  0.10681483129E+02 -0.40631008026E+01  0.59302272794E+02  0.50000599586E+02 0.  0.
        -12    1    1    2    0    0  0.29767376934E+02 -0.10681483129E+02  0.40631008026E+01  0.31885727206E+02  0.00000000000E+00 0.  1.
         11    1    3    3    0    0 -0.18700213524E+02  0.11685959612E+02 -0.19243667383E+02  0.29267360190E+02  0.51100000000E-03 0. -1.
        -11    1    3    3    0    0 -0.87341060417E+01 -0.80922107946E+01 -0.12669826197E+01  0.11973876946E+02  0.51100000000E-03 0.  1.
        -12    1    3    3    0    0 -0.23330573678E+01  0.70877343118E+01  0.16447549200E+02  0.18061035658E+02  0.00000000000E+00 0.  1.
</event>
<event>
 7    1  0.3750159E-013  0.5930196E+02  0.7816164E-02  0.1266605E+00
        -11   -1    0    0    0    0  0.00000000000E+00  0.00000000000E+00  0.45593999997E+02  0.45594000000E+02  0.51100000000E-03 0.  1.
         11   -1    0    0    0    0 -0.00000000000E+00 -0.00000000000E+00 -0.45593999997E+02  0.45594000000E+02  0.51100000000E-03 0. -1.
    9900012    2    1    2    0    0 -0.24242678350E+02  0.15805163146E+02 -0.13386896930E+02  0.59301958461E+02  0.50000026322E+02 0.  0.
        -12    1    1    2    0    0  0.24242678350E+02 -0.15805163146E+02  0.13386896930E+02  0.31886041539E+02  0.00000000000E+00 0.  1.
         11    1    3    3    0    0 -0.62250846146E+01  0.10229038041E+02  0.20454310387E+01  0.12147785234E+02  0.51100000000E-03 0. -1.
        -11    1    3    3    0    0 -0.59020003742E+01  0.22096805147E+02 -0.26933893281E+01  0.23029475731E+02  0.51100000000E-03 0.  1.
         12    1    3    3    0    0 -0.12115593361E+02 -0.16520680042E+02 -0.12738938641E+02  0.24124697495E+02  0.00000000000E+00 0. -1.
</event>
<event>
 7    1  0.3750159E-013  0.5930192E+02  0.7816164E-02  0.1266605E+00
        -11   -1    0    0    0    0  0.00000000000E+00  0.00000000000E+00  0.45593999997E+02  0.45594000000E+02  0.51100000000E-03 0.  1.
         11   -1    0    0    0    0 -0.00000000000E+00 -0.00000000000E+00 -0.45593999997E+02  0.45594000000E+02  0.51100000000E-03 0. -1.
    9900012    2    1    2    0    0  0.39271003091E+01  0.30098653041E+02 -0.97658271276E+01  0.59301915085E+02  0.49999947215E+02 0.  0.
        -12    1    1    2    0    0 -0.39271003091E+01 -0.30098653041E+02  0.97658271276E+01  0.31886084915E+02  0.00000000000E+00 0.  1.
         11    1    3    3    0    0  0.15584368049E+02  0.21874797569E+02 -0.77214321928E+01  0.27946373853E+02  0.51100000000E-03 0. -1.
        -11    1    3    3    0    0  0.68164188287E+01  0.99349553325E+01 -0.40115156860E+01  0.12698785827E+02  0.51100000000E-03 0.  1.
        -12    1    3    3    0    0 -0.18473686569E+02 -0.17110998601E+01  0.19671207512E+01  0.18656755405E+02  0.00000000000E+00 0.  1.
</event>
<event>
 7    1  0.3750159E-013  0.5930195E+02  0.7816164E-02  0.1266605E+00
        -11   -1    0    0    0    0  0.00000000000E+00  0.00000000000E+00  0.45593999997E+02  0.45594000000E+02  0.51100000000E-03 0.  1.
         11   -1    0    0    0    0 -0.00000000000E+00 -0.00000000000E+00 -0.45593999997E+02  0.45594000000E+02  0.51100000000E-03 0. -1.
    9900012    2    1    2    0    0  0.38924710149E+01  0.59365896639E+01 -0.31085780732E+02  0.59301949897E+02  0.50000010704E+02 0.  0.
        -12    1    1    2    0    0 -0.38924710149E+01 -0.59365896639E+01  0.31085780732E+02  0.31886050103E+02  0.00000000000E+00 0.  1.
         11    1    3    3    0    0 -0.12033593158E+02  0.77546635644E+01 -0.27297753433E+01  0.14573738195E+02  0.51100000000E-03 0. -1.
        -11    1    3    3    0    0 -0.46025719896E+01 -0.10993314241E+02 -0.76557987853E+01  0.14165023199E+02  0.51100000000E-03 0.  1.
        -12    1    3    3    0    0  0.20528636163E+02  0.91752403409E+01 -0.20700206603E+02  0.30563188503E+02  0.00000000000E+00 0.  1.
</event>
<event>
 7    1  0.3750159E-013  0.5930233E+02  0.7816164E-02  0.1266603E+00
        -11   -1    0    0    0    0  0.00000000000E+00  0.00000000000E+00  0.45593999997E+02  0.45594000000E+02  0.51100000000E-03 0.  1.
         11   -1    0    0    0    0 -0.00000000000E+00 -0.00000000000E+00 -0.45593999997E+02  0.45594000000E+02  0.51100000000E-03 0. -1.
    9900012    2    1    2    0    0  0.23447270248E+02 -0.18978365708E+02  0.10331657784E+02  0.59302329243E+02  0.50000702536E+02 0.  0.
        -12    1    1    2    0    0 -0.23447270248E+02  0.18978365708E+02 -0.10331657784E+02  0.31885670757E+02  0.00000000000E+00 0.  1.
         11    1    3    3    0    0 -0.30386891281E+01 -0.11531167218E+00 -0.19442388604E+01  0.36092926463E+01  0.51100000000E-03 0. -1.
        -11    1    3    3    0    0 -0.27972640988E+00 -0.10562694531E+02 -0.13822870586E+02  0.17398865311E+02  0.51100000000E-03 0.  1.
         12    1    3    3    0    0  0.26765685786E+02 -0.83003595052E+01  0.26098767230E+02  0.38294171286E+02  0.00000000000E+00 0. -1.
</event>
<event>
 7    1  0.3750159E-013  0.5930195E+02  0.7816164E-02  0.1266605E+00
        -11   -1    0    0    0    0  0.00000000000E+00  0.00000000000E+00  0.45593999997E+02  0.45594000000E+02  0.51100000000E-03 0.  1.
         11   -1    0    0    0    0 -0.00000000000E+00 -0.00000000000E+00 -0.45593999997E+02  0.45594000000E+02  0.51100000000E-03 0. -1.
    9900012    2    1    2    0    0  0.29538061477E+02  0.18866133966E+01 -0.11860176689E+02  0.59301950119E+02  0.50000011109E+02 0.  0.
        -12    1    1    2    0    0 -0.29538061477E+02 -0.18866133966E+01  0.11860176689E+02  0.31886049881E+02  0.00000000000E+00 0.  1.
         11    1    3    3    0    0  0.23179490287E+02  0.81719507437E+01 -0.79399830264E+01  0.25828528407E+02  0.51100000000E-03 0. -1.
        -11    1    3    3    0    0  0.27099681963E+01  0.84024266207E+01  0.96976300464E+01  0.13114447359E+02  0.51100000000E-03 0.  1.
        -12    1    3    3    0    0  0.36486029938E+01 -0.14687763968E+02 -0.13617823709E+02  0.20358974354E+02  0.00000000000E+00 0.  1.
</event>
<event>
 7    1  0.3750159E-013  0.5930198E+02  0.7816164E-02  0.1266605E+00
        -11   -1    0    0    0    0  0.00000000000E+00  0.00000000000E+00  0.45593999997E+02  0.45594000000E+02  0.51100000000E-03 0.  1.
         11   -1    0    0    0    0 -0.00000000000E+00 -0.00000000000E+00 -0.45593999997E+02  0.45594000000E+02  0.51100000000E-03 0. -1.
    9900012    2    1    2    0    0  0.10318367412E+02  0.18659653945E+02 -0.23707954067E+02  0.59301976770E+02  0.50000059713E+02 0.  0.
        -12    1    1    2    0    0 -0.10318367412E+02 -0.18659653945E+02  0.23707954067E+02  0.31886023230E+02  0.00000000000E+00 0.  1.
         11    1    3    3    0    0 -0.44454030490E+01 -0.84683316976E+00  0.50280480604E+01  0.67646139760E+01  0.51100000000E-03 0. -1.
        -11    1    3    3    0    0  0.38496449542E+01 -0.44068000722E+01  0.63902798761E+01  0.86646021435E+01  0.51100000000E-03 0.  1.
         12    1    3    3    0    0  0.10914125507E+02  0.23913287187E+02 -0.35126282003E+02  0.43872760650E+02  0.00000000000E+00 0. -1.
</event>
<event>
 7    1  0.3750159E-013  0.5930196E+02  0.7816164E-02  0.1266605E+00
        -11   -1    0    0    0    0  0.00000000000E+00  0.00000000000E+00  0.45593999997E+02  0.45594000000E+02  0.51100000000E-03 0.  1.
         11   -1    0    0    0    0 -0.00000000000E+00 -0.00000000000E+00 -0.45593999997E+02  0.45594000000E+02  0.51100000000E-03 0. -1.
    9900012    2    1    2    0    0  0.24392977534E+02  0.10898953809E+02 -0.17404459629E+02  0.59301956626E+02  0.50000022976E+02 0.  0.
        -12    1    1    2    0    0 -0.24392977534E+02 -0.10898953809E+02  0.17404459629E+02  0.31886043374E+02  0.00000000000E+00 0.  1.
         11    1    3    3    0    0 -0.10387549473E+02  0.12724398369E+00 -0.13205960788E+02  0.16802225320E+02  0.51100000000E-03 0. -1.
        -11    1    3    3    0    0  0.14761307273E+02 -0.41740295131E+01 -0.78822960638E+01  0.17246718710E+02  0.51100000000E-03 0.  1.
        -12    1    3    3    0    0  0.20019219735E+02  0.14945739339E+02  0.36837972234E+01  0.25253012596E+02  0.00000000000E+00 0.  1.
</event>
<event>
 7    1  0.3750159E-013  0.5930192E+02  0.7816164E-02  0.1266605E+00
        -11   -1    0    0    0    0  0.00000000000E+00  0.00000000000E+00  0.45593999997E+02  0.45594000000E+02  0.51100000000E-03 0.  1.
         11   -1    0    0    0    0 -0.00000000000E+00 -0.00000000000E+00 -0.45593999997E+02  0.45594000000E+02  0.51100000000E-03 0. -1.
    9900012    2    1    2    0    0  0.26195749456E+02  0.15942939237E+02 -0.87365762307E+01  0.59301915805E+02  0.49999948528E+02 0.  0.
        -12    1    1    2    0    0 -0.26195749456E+02 -0.15942939237E+02  0.87365762307E+01  0.31886084195E+02  0.00000000000E+00 0.  1.
         11    1    3    3    0    0 -0.79345073722E+01 -0.20364868586E+01  0.38307958415E+01  0.90431566947E+01  0.51100000000E-03 0. -1.
        -11    1    3    3    0    0 -0.51831827337E+01 -0.52784591356E+00 -0.13976723508E+01  0.53942091932E+01  0.51100000000E-03 0.  1.
         12    1    3    3    0    0  0.39313439562E+02  0.18507272009E+02 -0.11169699721E+02  0.44864549917E+02  0.00000000000E+00 0. -1.
</event>
<event>
 7    1  0.3750159E-013  0.5930195E+02  0.7816164E-02  0.1266605E+00
        -11   -1    0    0    0    0  0.00000000000E+00  0.00000000000E+00  0.45593999997E+02  0.45594000000E+02  0.51100000000E-03 0.  1.
         11   -1    0    0    0    0 -0.00000000000E+00 -0.00000000000E+00 -0.45593999997E+02  0.45594000000E+02  0.51100000000E-03 0. -1.
    9900012    2    1    2    0    0  0.15744294277E+02  0.11001657576E+02 -0.25451934151E+02  0.59301949387E+02  0.50000009773E+02 0.  0.
        -12    1    1    2    0    0 -0.15744294277E+02 -0.11001657576E+02  0.25451934151E+02  0.31886050613E+02  0.00000000000E+00 0.  1.
         11    1    3    3    0    0  0.15126318355E+02 -0.75083424707E+01 -0.10591006270E+02  0.19933643112E+02  0.51100000000E-03 0. -1.
        -11    1    3    3    0    0 -0.88892233244E+01  0.21300462003E+02 -0.20484746656E+01  0.23171625355E+02  0.51100000000E-03 0.  1.
         12    1    3    3    0    0  0.95071992470E+01 -0.27904619568E+01 -0.12812453215E+02  0.16196680920E+02  0.00000000000E+00 0. -1.
</event>
<event>
 7    1  0.3750159E-013  0.5930194E+02  0.7816164E-02  0.1266605E+00
        -11   -1    0    0    0    0  0.00000000000E+00  0.00000000000E+00  0.45593999997E+02  0.45594000000E+02  0.51100000000E-03 0.  1.
         11   -1    0    0    0    0 -0.00000000000E+00 -0.00000000000E+00 -0.45593999997E+02  0.45594000000E+02  0.51100000000E-03 0. -1.
    9900012    2    1    2    0    0 -0.86998375915E+01 -0.18186887286E+02 -0.24703655796E+02  0.59301942656E+02  0.49999997498E+02 0.  0.
        -12    1    1    2    0    0  0.86998375915E+01  0.18186887286E+02  0.24703655796E+02  0.31886057344E+02  0.00000000000E+00 0.  1.
         11    1    3    3    0    0  0.12589961083E+02 -0.26799472459E+01 -0.15185221421E+02  0.19906787465E+02  0.51100000000E-03 0. -1.
        -11    1    3    3    0    0  0.13903428859E+01 -0.11883754807E+02 -0.11169596811E+02  0.16368157344E+02  0.51100000000E-03 0.  1.
        -12    1    3    3    0    0 -0.22680141560E+02 -0.36231852327E+01  0.16511624368E+01  0.23026997847E+02  0.00000000000E+00 0.  1.
</event>
<event>
 7    1  0.3750159E-013  0.5930195E+02  0.7816164E-02  0.1266605E+00
        -11   -1    0    0    0    0  0.00000000000E+00  0.00000000000E+00  0.45593999997E+02  0.45594000000E+02  0.51100000000E-03 0. -1.
         11   -1    0    0    0    0 -0.00000000000E+00 -0.00000000000E+00 -0.45593999997E+02  0.45594000000E+02  0.51100000000E-03 0.  1.
    9900012    2    1    2    0    0 -0.12137914540E+02  0.17124499413E+02  0.24002971095E+02  0.59301951783E+02  0.50000014143E+02 0.  0.
        -12    1    1    2    0    0  0.12137914540E+02 -0.17124499413E+02 -0.24002971095E+02  0.31886048217E+02  0.00000000000E+00 0.  1.
         11    1    3    3    0    0 -0.13179404120E+02 -0.28589239103E+01 -0.56978599902E+01  0.14640209958E+02  0.51100000000E-03 0. -1.
        -11    1    3    3    0    0 -0.37247339944E+01  0.52103649858E+00 -0.39770246692E+01  0.54737416675E+01  0.51100000000E-03 0.  1.
        -12    1    3    3    0    0  0.47662235748E+01  0.19462386825E+02  0.33677855755E+02  0.39188000157E+02  0.00000000000E+00 0.  1.
</event>
<event>
 7    1  0.3750159E-013  0.5930194E+02  0.7816164E-02  0.1266605E+00
        -11   -1    0    0    0    0  0.00000000000E+00  0.00000000000E+00  0.45593999997E+02  0.45594000000E+02  0.51100000000E-03 0.  1.
         11   -1    0    0    0    0 -0.00000000000E+00 -0.00000000000E+00 -0.45593999997E+02  0.45594000000E+02  0.51100000000E-03 0. -1.
    9900012    2    1    2    0    0  0.17279034195E+02 -0.25870578867E+02 -0.69906278095E+01  0.59301941122E+02  0.49999994701E+02 0.  0.
        -12    1    1    2    0    0 -0.17279034195E+02  0.25870578867E+02  0.69906278095E+01  0.31886058878E+02  0.00000000000E+00 0.  1.
         11    1    3    3    0    0  0.38609707133E+01 -0.20741525967E+02  0.26166653364E+01  0.21259466880E+02  0.51100000000E-03 0. -1.
        -11    1    3    3    0    0  0.52462311692E+01 -0.19511508879E+02 -0.41740565318E+01  0.20631157709E+02  0.51100000000E-03 0.  1.
         12    1    3    3    0    0  0.81718323123E+01  0.14382455979E+02 -0.54332366141E+01  0.17411316533E+02  0.00000000000E+00 0. -1.
</event>
<event>
 7    1  0.3750159E-013  0.5930195E+02  0.7816164E-02  0.1266605E+00
        -11   -1    0    0    0    0  0.00000000000E+00  0.00000000000E+00  0.45593999997E+02  0.45594000000E+02  0.51100000000E-03 0.  1.
         11   -1    0    0    0    0 -0.00000000000E+00 -0.00000000000E+00 -0.45593999997E+02  0.45594000000E+02  0.51100000000E-03 0. -1.
    9900012    2    1    2    0    0 -0.26487103502E+01  0.16587226702E+02 -0.27102928288E+02  0.59301945400E+02  0.50000002503E+02 0.  0.
        -12    1    1    2    0    0  0.26487103502E+01 -0.16587226702E+02  0.27102928288E+02  0.31886054600E+02  0.00000000000E+00 0.  1.
         11    1    3    3    0    0 -0.85687760709E+01 -0.12735527496E+02 -0.14657029363E+02  0.21223715367E+02  0.51100000000E-03 0. -1.
        -11    1    3    3    0    0 -0.54486628516E+01  0.10648722904E+02 -0.10863529969E+02  0.16158573885E+02  0.51100000000E-03 0.  1.
        -12    1    3    3    0    0  0.11368728572E+02  0.18674031294E+02 -0.15823689553E+01  0.21919656148E+02  0.00000000000E+00 0.  1.
</event>
<event>
 7    1  0.3750159E-013  0.5930192E+02  0.7816164E-02  0.1266605E+00
        -11   -1    0    0    0    0  0.00000000000E+00  0.00000000000E+00  0.45593999997E+02  0.45594000000E+02  0.51100000000E-03 0.  1.
         11   -1    0    0    0    0 -0.00000000000E+00 -0.00000000000E+00 -0.45593999997E+02  0.45594000000E+02  0.51100000000E-03 0. -1.
    9900012    2    1    2    0    0 -0.17710892886E+02  0.18686124456E+02 -0.18811576837E+02  0.59301915306E+02  0.49999947619E+02 0.  0.
        -12    1    1    2    0    0  0.17710892886E+02 -0.18686124456E+02  0.18811576837E+02  0.31886084694E+02  0.00000000000E+00 0.  1.
         11    1    3    3    0    0 -0.10748501674E+02  0.21347270150E+02 -0.18148531160E+02  0.30010088547E+02  0.51100000000E-03 0. -1.
        -11    1    3    3    0    0  0.99802885554E+01  0.36359787615E+01  0.25734546449E+01  0.10929280410E+02  0.51100000000E-03 0.  1.
         12    1    3    3    0    0 -0.16942679767E+02 -0.62971244549E+01 -0.32365003218E+01  0.18362546349E+02  0.00000000000E+00 0. -1.
</event>
<event>
 7    1  0.3750159E-013  0.5930196E+02  0.7816164E-02  0.1266605E+00
        -11   -1    0    0    0    0  0.00000000000E+00  0.00000000000E+00  0.45593999997E+02  0.45594000000E+02  0.51100000000E-03 0.  1.
         11   -1    0    0    0    0 -0.00000000000E+00 -0.00000000000E+00 -0.45593999997E+02  0.45594000000E+02  0.51100000000E-03 0. -1.
    9900012    2    1    2    0    0  0.27909381066E+02 -0.14034711991E+02  0.63885169404E+01  0.59301955390E+02  0.50000020722E+02 0.  0.
        -12    1    1    2    0    0 -0.27909381066E+02  0.14034711991E+02 -0.63885169404E+01  0.31886044610E+02  0.00000000000E+00 0.  1.
         11    1    3    3    0    0  0.64910829456E+01 -0.32821723222E+01 -0.89791676317E+01  0.11555616149E+02  0.51100000000E-03 0. -1.
        -11    1    3    3    0    0  0.21958488827E+02 -0.21387947455E+02  0.20880848671E+01  0.30724251441E+02  0.51100000000E-03 0.  1.
         12    1    3    3    0    0 -0.54019070678E+00  0.10635407786E+02  0.13279599705E+02  0.17022087801E+02  0.00000000000E+00 0. -1.
</event>
<event>
 7    1  0.3750159E-013  0.5930196E+02  0.7816164E-02  0.1266605E+00
        -11   -1    0    0    0    0  0.00000000000E+00  0.00000000000E+00  0.45593999997E+02  0.45594000000E+02  0.51100000000E-03 0. -1.
         11   -1    0    0    0    0 -0.00000000000E+00 -0.00000000000E+00 -0.45593999997E+02  0.45594000000E+02  0.51100000000E-03 0.  1.
    9900012    2    1    2    0    0  0.17173819250E+02 -0.18177967062E+01  0.26804381051E+02  0.59301963933E+02  0.50000036303E+02 0.  0.
        -12    1    1    2    0    0 -0.17173819250E+02  0.18177967062E+01 -0.26804381051E+02  0.31886036067E+02  0.00000000000E+00 0.  1.
         11    1    3    3    0    0  0.14594004113E+02 -0.11085772916E+02  0.32544754187E+02  0.37350238856E+02  0.51100000000E-03 0. -1.
        -11    1    3    3    0    0  0.74129487941E+01 -0.29721319667E+01 -0.15046002981E+01  0.81270659263E+01  0.51100000000E-03 0.  1.
        -12    1    3    3    0    0 -0.48331336572E+01  0.12240108177E+02 -0.42357728379E+01  0.13824659152E+02  0.00000000000E+00 0.  1.
</event>
<event>
 7    1  0.3750159E-013  0.5930194E+02  0.7816164E-02  0.1266605E+00
        -11   -1    0    0    0    0  0.00000000000E+00  0.00000000000E+00  0.45593999997E+02  0.45594000000E+02  0.51100000000E-03 0. -1.
         11   -1    0    0    0    0 -0.00000000000E+00 -0.00000000000E+00 -0.45593999997E+02  0.45594000000E+02  0.51100000000E-03 0.  1.
    9900012    2    1    2    0    0  0.16256008215E+02  0.13180153849E+02  0.24057155520E+02  0.59301937366E+02  0.49999987851E+02 0.  0.
        -12    1    1    2    0    0 -0.16256008215E+02 -0.13180153849E+02 -0.24057155520E+02  0.31886062634E+02  0.00000000000E+00 0.  1.
         11    1    3    3    0    0 -0.56933980596E+01  0.56228394898E+01 -0.73089781267E+01  0.10837539708E+02  0.51100000000E-03 0. -1.
        -11    1    3    3    0    0  0.20645210040E+02  0.12626414784E+02  0.95289673936E+01  0.26008696002E+02  0.51100000000E-03 0.  1.
         12    1    3    3    0    0  0.13041962352E+01 -0.50691004246E+01  0.21837166253E+02  0.22455701657E+02  0.00000000000E+00 0. -1.
</event>
<event>
 7    1  0.3750159E-013  0.5930196E+02  0.7816164E-02  0.1266605E+00
        -11   -1    0    0    0    0  0.00000000000E+00  0.00000000000E+00  0.45593999997E+02  0.45594000000E+02  0.51100000000E-03 0. -1.
         11   -1    0    0    0    0 -0.00000000000E+00 -0.00000000000E+00 -0.45593999997E+02  0.45594000000E+02  0.51100000000E-03 0.  1.
    9900012    2    1    2    0    0  0.26847020217E+02  0.38856140136E+01  0.16758852552E+02  0.59301958702E+02  0.50000026762E+02 0.  0.
        -12    1    1    2    0    0 -0.26847020217E+02 -0.38856140136E+01 -0.16758852552E+02  0.31886041298E+02  0.00000000000E+00 0.  1.
         11    1    3    3    0    0  0.11227863817E+02  0.16961249248E+02  0.10619168729E+02  0.22945928761E+02  0.51100000000E-03 0. -1.
        -11    1    3    3    0    0  0.12062927260E+02  0.54694660328E+01  0.10587179599E+02  0.16956345269E+02  0.51100000000E-03 0.  1.
        -12    1    3    3    0    0  0.35562291406E+01 -0.18545101267E+02 -0.44474957754E+01  0.19399684672E+02  0.00000000000E+00 0.  1.
</event>
<event>
 7    1  0.3750159E-013  0.5930195E+02  0.7816164E-02  0.1266605E+00
        -11   -1    0    0    0    0  0.00000000000E+00  0.00000000000E+00  0.45593999997E+02  0.45594000000E+02  0.51100000000E-03 0.  1.
         11   -1    0    0    0    0 -0.00000000000E+00 -0.00000000000E+00 -0.45593999997E+02  0.45594000000E+02  0.51100000000E-03 0. -1.
    9900012    2    1    2    0    0  0.23624723668E+02  0.21409804381E+02 -0.46125133059E+00  0.59301952192E+02  0.50000014890E+02 0.  0.
        -12    1    1    2    0    0 -0.23624723668E+02 -0.21409804381E+02  0.46125133059E+00  0.31886047808E+02  0.00000000000E+00 0.  1.
         11    1    3    3    0    0  0.83602696186E+00  0.43280687122E+01 -0.68195461743E+01  0.81201804255E+01  0.51100000000E-03 0. -1.
        -11    1    3    3    0    0 -0.41281535028E+00 -0.91911820063E+01 -0.90391638148E+01  0.12897857416E+02  0.51100000000E-03 0.  1.
        -12    1    3    3    0    0  0.23201512057E+02  0.26272917675E+02  0.15397458659E+02  0.38283914351E+02  0.00000000000E+00 0.  1.
</event>
<event>
 7    1  0.3750159E-013  0.5930195E+02  0.7816164E-02  0.1266605E+00
        -11   -1    0    0    0    0  0.00000000000E+00  0.00000000000E+00  0.45593999997E+02  0.45594000000E+02  0.51100000000E-03 0.  1.
         11   -1    0    0    0    0 -0.00000000000E+00 -0.00000000000E+00 -0.45593999997E+02  0.45594000000E+02  0.51100000000E-03 0. -1.
    9900012    2    1    2    0    0  0.38933076389E+01 -0.28587735814E+02 -0.13575847442E+02  0.59301951059E+02  0.50000012823E+02 0.  0.
        -12    1    1    2    0    0 -0.38933076389E+01  0.28587735814E+02  0.13575847442E+02  0.31886048941E+02  0.00000000000E+00 0.  1.
         11    1    3    3    0    0 -0.57911345057E+01 -0.64310288059E+01 -0.17204447447E+02  0.19258462623E+02  0.51100000000E-03 0. -1.
        -11    1    3    3    0    0  0.62370104164E+00 -0.13636284010E+02 -0.13285691521E+02  0.19048539157E+02  0.51100000000E-03 0.  1.
        -12    1    3    3    0    0  0.90607411030E+01 -0.85204229981E+01  0.16914291526E+02  0.20994949279E+02  0.00000000000E+00 0.  1.
</event>
<event>
 7    1  0.3750159E-013  0.5930197E+02  0.7816164E-02  0.1266605E+00
        -11   -1    0    0    0    0  0.00000000000E+00  0.00000000000E+00  0.45593999997E+02  0.45594000000E+02  0.51100000000E-03 0.  1.
         11   -1    0    0    0    0 -0.00000000000E+00 -0.00000000000E+00 -0.45593999997E+02  0.45594000000E+02  0.51100000000E-03 0. -1.
    9900012    2    1    2    0    0 -0.23579336116E+02  0.11934145978E+02 -0.17841249526E+02  0.59301966748E+02  0.50000041436E+02 0.  0.
        -12    1    1    2    0    0  0.23579336116E+02 -0.11934145978E+02  0.17841249526E+02  0.31886033252E+02  0.00000000000E+00 0.  1.
         11    1    3    3    0    0  0.86641921629E+00 -0.10230476307E+02  0.58352721314E+01  0.11809476230E+02  0.51100000000E-03 0.  1.
        -11    1    3    3    0    0 -0.21780049617E+02  0.63173090489E+01 -0.57056027382E+01  0.23384457612E+02  0.51100000000E-03 0. -1.
        -12    1    3    3    0    0 -0.26657057153E+01  0.15847313236E+02 -0.17970918920E+02  0.24108032906E+02  0.00000000000E+00 0.  1.
</event>
<event>
 7    1  0.3750159E-013  0.5930191E+02  0.7816164E-02  0.1266605E+00
        -11   -1    0    0    0    0  0.00000000000E+00  0.00000000000E+00  0.45593999997E+02  0.45594000000E+02  0.51100000000E-03 0.  1.
         11   -1    0    0    0    0 -0.00000000000E+00 -0.00000000000E+00 -0.45593999997E+02  0.45594000000E+02  0.51100000000E-03 0. -1.
    9900012    2    1    2    0    0 -0.20737386265E+02  0.40585548009E+01 -0.23879100268E+02  0.59301913915E+02  0.49999945082E+02 0.  0.
        -12    1    1    2    0    0  0.20737386265E+02 -0.40585548009E+01  0.23879100268E+02  0.31886086085E+02  0.00000000000E+00 0.  1.
         11    1    3    3    0    0 -0.15845886716E+02  0.97570070944E+00 -0.19437618776E+02  0.25097114209E+02  0.51100000000E-03 0. -1.
        -11    1    3    3    0    0 -0.54337816553E+01  0.16860658736E+01 -0.18864704898E+02  0.19703956261E+02  0.51100000000E-03 0.  1.
        -12    1    3    3    0    0  0.54228210589E+00  0.13967882179E+01  0.14423223406E+02  0.14500843445E+02  0.00000000000E+00 0.  1.
</event>
<event>
 7    1  0.3750159E-013  0.5930192E+02  0.7816164E-02  0.1266605E+00
        -11   -1    0    0    0    0  0.00000000000E+00  0.00000000000E+00  0.45593999997E+02  0.45594000000E+02  0.51100000000E-03 0. -1.
         11   -1    0    0    0    0 -0.00000000000E+00 -0.00000000000E+00 -0.45593999997E+02  0.45594000000E+02  0.51100000000E-03 0.  1.
    9900012    2    1    2    0    0 -0.31088681870E+02  0.19131791980E+01 -0.68231887228E+01  0.59301916838E+02  0.49999950413E+02 0.  0.
        -12    1    1    2    0    0  0.31088681870E+02 -0.19131791980E+01  0.68231887228E+01  0.31886083162E+02  0.00000000000E+00 0.  1.
         11    1    3    3    0    0 -0.20527078187E+02  0.16169709444E+00  0.16184493337E+02  0.26140484113E+02  0.51100000000E-03 0. -1.
        -11    1    3    3    0    0 -0.56357372139E+01  0.11244140919E+02 -0.86772899271E+01  0.15280301034E+02  0.51100000000E-03 0.  1.
        -12    1    3    3    0    0 -0.49258664689E+01 -0.94926588156E+01 -0.14330392133E+02  0.17881131691E+02  0.00000000000E+00 0.  1.
</event>
<event>
 7    1  0.3750159E-013  0.5930178E+02  0.7816164E-02  0.1266605E+00
        -11   -1    0    0    0    0  0.00000000000E+00  0.00000000000E+00  0.45593999997E+02  0.45594000000E+02  0.51100000000E-03 0. -1.
         11   -1    0    0    0    0 -0.00000000000E+00 -0.00000000000E+00 -0.45593999997E+02  0.45594000000E+02  0.51100000000E-03 0.  1.
    9900012    2    1    2    0    0 -0.15400820634E+02  0.19166627249E+02 -0.20302363842E+02  0.59301782697E+02  0.49999705771E+02 0.  0.
        -12    1    1    2    0    0  0.15400820634E+02 -0.19166627249E+02  0.20302363842E+02  0.31886217303E+02  0.00000000000E+00 0.  1.
         11    1    3    3    0    0 -0.91438291965E+01  0.45314363513E+01  0.76026899322E+01  0.12725738574E+02  0.51100000000E-03 0. -1.
        -11    1    3    3    0    0 -0.93152289329E+01 -0.90554344832E+01 -0.13225265529E+02  0.18538663175E+02  0.51100000000E-03 0.  1.
         12    1    3    3    0    0  0.30582374956E+01  0.23690625381E+02 -0.14679788245E+02  0.28037380949E+02  0.00000000000E+00 0. -1.
</event>
<event>
 7    1  0.3750159E-013  0.5930195E+02  0.7816164E-02  0.1266605E+00
        -11   -1    0    0    0    0  0.00000000000E+00  0.00000000000E+00  0.45593999997E+02  0.45594000000E+02  0.51100000000E-03 0. -1.
         11   -1    0    0    0    0 -0.00000000000E+00 -0.00000000000E+00 -0.45593999997E+02  0.45594000000E+02  0.51100000000E-03 0.  1.
    9900012    2    1    2    0    0 -0.12941064732E+01  0.18879488775E+02  0.25663407183E+02  0.59301948564E+02  0.50000008273E+02 0.  0.
        -12    1    1    2    0    0  0.12941064732E+01 -0.18879488775E+02 -0.25663407183E+02  0.31886051436E+02  0.00000000000E+00 0.  1.
         11    1    3    3    0    0 -0.47892468170E+01  0.19982250424E+02  0.21850998977E+02  0.29994889125E+02  0.51100000000E-03 0.  1.
        -11    1    3    3    0    0  0.85181802609E+01  0.72353417886E+01 -0.81882483210E+01  0.13854853900E+02  0.51100000000E-03 0. -1.
        -12    1    3    3    0    0 -0.50230399170E+01 -0.83381034379E+01  0.12000656527E+02  0.15452205539E+02  0.00000000000E+00 0.  1.
</event>
<event>
 7    1  0.3750159E-013  0.5930194E+02  0.7816164E-02  0.1266605E+00
        -11   -1    0    0    0    0  0.00000000000E+00  0.00000000000E+00  0.45593999997E+02  0.45594000000E+02  0.51100000000E-03 0.  1.
         11   -1    0    0    0    0 -0.00000000000E+00 -0.00000000000E+00 -0.45593999997E+02  0.45594000000E+02  0.51100000000E-03 0. -1.
    9900012    2    1    2    0    0  0.97936656889E+01  0.27912286518E+02  0.11904179961E+02  0.59301935225E+02  0.49999983945E+02 0.  0.
        -12    1    1    2    0    0 -0.97936656889E+01 -0.27912286518E+02 -0.11904179961E+02  0.31886064775E+02  0.00000000000E+00 0.  1.
         11    1    3    3    0    0  0.81582569939E+01  0.28882477426E+02 -0.44305285285E+01  0.30337835169E+02  0.51100000000E-03 0. -1.
        -11    1    3    3    0    0 -0.40993641568E+00  0.88200662296E+00 -0.61925542497E+01  0.62684696652E+01  0.51100000000E-03 0.  1.
        -12    1    3    3    0    0  0.20453451107E+01 -0.18521975305E+01  0.22527262739E+02  0.22695630390E+02  0.00000000000E+00 0.  1.
</event>
<event>
 7    1  0.3750159E-013  0.5930194E+02  0.7816164E-02  0.1266605E+00
        -11   -1    0    0    0    0  0.00000000000E+00  0.00000000000E+00  0.45593999997E+02  0.45594000000E+02  0.51100000000E-03 0. -1.
         11   -1    0    0    0    0 -0.00000000000E+00 -0.00000000000E+00 -0.45593999997E+02  0.45594000000E+02  0.51100000000E-03 0.  1.
    9900012    2    1    2    0    0  0.20086154480E+02 -0.24762635049E+02  0.28139962706E+00  0.59301939062E+02  0.49999990944E+02 0.  0.
        -12    1    1    2    0    0 -0.20086154480E+02  0.24762635049E+02 -0.28139962706E+00  0.31886060938E+02  0.00000000000E+00 0.  1.
         11    1    3    3    0    0  0.19776469942E+02 -0.11399175849E+02  0.10582156667E+02  0.25160127452E+02  0.51100000000E-03 0. -1.
        -11    1    3    3    0    0  0.13949751197E+02 -0.93916193200E+01 -0.39230227180E+00  0.16821176333E+02  0.51100000000E-03 0.  1.
         12    1    3    3    0    0 -0.13640066659E+02 -0.39718398800E+01 -0.99084547684E+01  0.17320635277E+02  0.00000000000E+00 0. -1.
</event>
<event>
 7    1  0.3750159E-013  0.5930192E+02  0.7816164E-02  0.1266605E+00
        -11   -1    0    0    0    0  0.00000000000E+00  0.00000000000E+00  0.45593999997E+02  0.45594000000E+02  0.51100000000E-03 0. -1.
         11   -1    0    0    0    0 -0.00000000000E+00 -0.00000000000E+00 -0.45593999997E+02  0.45594000000E+02  0.51100000000E-03 0.  1.
    9900012    2    1    2    0    0 -0.12495270475E+02 -0.27089166112E+02  0.11259107714E+02  0.59301918218E+02  0.49999952930E+02 0.  0.
        -12    1    1    2    0    0  0.12495270475E+02  0.27089166112E+02 -0.11259107714E+02  0.31886081782E+02  0.00000000000E+00 0.  1.
         11    1    3    3    0    0 -0.35351275139E+01 -0.92351544354E+01  0.34227824074E+01  0.10464255523E+02  0.51100000000E-03 0. -1.
        -11    1    3    3    0    0 -0.10553761876E+02 -0.28214915022E+02  0.17280011593E+02  0.34728405094E+02  0.51100000000E-03 0.  1.
        -12    1    3    3    0    0  0.15936189141E+01  0.10360903346E+02 -0.94436862868E+01  0.14109257602E+02  0.00000000000E+00 0.  1.
</event>
<event>
 7    1  0.3750159E-013  0.5930198E+02  0.7816164E-02  0.1266605E+00
        -11   -1    0    0    0    0  0.00000000000E+00  0.00000000000E+00  0.45593999997E+02  0.45594000000E+02  0.51100000000E-03 0. -1.
         11   -1    0    0    0    0 -0.00000000000E+00 -0.00000000000E+00 -0.45593999997E+02  0.45594000000E+02  0.51100000000E-03 0.  1.
    9900012    2    1    2    0    0  0.26771680815E+02 -0.91202949944E+01  0.14724668120E+02  0.59301976013E+02  0.50000058333E+02 0.  0.
        -12    1    1    2    0    0 -0.26771680815E+02  0.91202949944E+01 -0.14724668120E+02  0.31886023987E+02  0.00000000000E+00 0.  1.
         11    1    3    3    0    0  0.14825257365E+02  0.81245157963E+01  0.39335164915E+01  0.17357089765E+02  0.51100000000E-03 0. -1.
        -11    1    3    3    0    0  0.66033942679E+01 -0.83030835212E+01 -0.12521229684E+02  0.16411191453E+02  0.51100000000E-03 0.  1.
         12    1    3    3    0    0  0.53430291826E+01 -0.89417272694E+01  0.23312381313E+02  0.25533694795E+02  0.00000000000E+00 0. -1.
</event>
<event>
 7    1  0.3750159E-013  0.5930192E+02  0.7816164E-02  0.1266605E+00
        -11   -1    0    0    0    0  0.00000000000E+00  0.00000000000E+00  0.45593999997E+02  0.45594000000E+02  0.51100000000E-03 0. -1.
         11   -1    0    0    0    0 -0.00000000000E+00 -0.00000000000E+00 -0.45593999997E+02  0.45594000000E+02  0.51100000000E-03 0.  1.
    9900012    2    1    2    0    0 -0.14193485973E+02 -0.28533263982E+02  0.10581105455E+01  0.59301924741E+02  0.49999964825E+02 0.  0.
        -12    1    1    2    0    0  0.14193485973E+02  0.28533263982E+02 -0.10581105455E+01  0.31886075259E+02  0.00000000000E+00 0.  1.
         11    1    3    3    0    0 -0.32303991617E+01 -0.41965303636E+01  0.90927895776E+01  0.10522602739E+02  0.51100000000E-03 0. -1.
        -11    1    3    3    0    0  0.50852704154E+00 -0.32672106393E+02 -0.10634081232E+02  0.34362898885E+02  0.51100000000E-03 0.  1.
         12    1    3    3    0    0 -0.11471613853E+02  0.83353727744E+01  0.25994022003E+01  0.14416423116E+02  0.00000000000E+00 0. -1.
</event>
<event>
 7    1  0.3750159E-013  0.5930194E+02  0.7816164E-02  0.1266605E+00
        -11   -1    0    0    0    0  0.00000000000E+00  0.00000000000E+00  0.45593999997E+02  0.45594000000E+02  0.51100000000E-03 0.  1.
         11   -1    0    0    0    0 -0.00000000000E+00 -0.00000000000E+00 -0.45593999997E+02  0.45594000000E+02  0.51100000000E-03 0. -1.
    9900012    2    1    2    0    0 -0.20772263927E+02  0.90043608970E+01 -0.22453407672E+02  0.59301937529E+02  0.49999988147E+02 0.  0.
        -12    1    1    2    0    0  0.20772263927E+02 -0.90043608970E+01  0.22453407672E+02  0.31886062471E+02  0.00000000000E+00 0.  1.
         11    1    3    3    0    0 -0.35401697799E+01 -0.39693310161E+01 -0.19609400120E+02  0.20317897630E+02  0.51100000000E-03 0. -1.
        -11    1    3    3    0    0 -0.58814746077E+01 -0.59597290613E+01  0.10314020534E+02  0.13284921298E+02  0.51100000000E-03 0.  1.
         12    1    3    3    0    0 -0.11350619539E+02  0.18933420974E+02 -0.13158028086E+02  0.25699118601E+02  0.00000000000E+00 0. -1.
</event>
<event>
 7    1  0.3750159E-013  0.5930193E+02  0.7816164E-02  0.1266605E+00
        -11   -1    0    0    0    0  0.00000000000E+00  0.00000000000E+00  0.45593999997E+02  0.45594000000E+02  0.51100000000E-03 0.  1.
         11   -1    0    0    0    0 -0.00000000000E+00 -0.00000000000E+00 -0.45593999997E+02  0.45594000000E+02  0.51100000000E-03 0. -1.
    9900012    2    1    2    0    0 -0.26748776851E+02  0.17219744108E+02  0.21690429914E+01  0.59301930978E+02  0.49999976201E+02 0.  0.
        -12    1    1    2    0    0  0.26748776851E+02 -0.17219744108E+02 -0.21690429914E+01  0.31886069022E+02  0.00000000000E+00 0.  1.
         11    1    3    3    0    0  0.12949752333E+01  0.19222602433E+02  0.15784328335E+02  0.24906433433E+02  0.51100000000E-03 0.  1.
        -11    1    3    3    0    0 -0.15679627407E+02 -0.79714193005E-01  0.29872385769E+00  0.15682675352E+02  0.51100000000E-03 0. -1.
        -12    1    3    3    0    0 -0.12364124677E+02 -0.19231441321E+01 -0.13914009201E+02  0.18712822193E+02  0.00000000000E+00 0.  1.
</event>
<event>
 7    1  0.3750159E-013  0.5930188E+02  0.7816164E-02  0.1266605E+00
        -11   -1    0    0    0    0  0.00000000000E+00  0.00000000000E+00  0.45593999997E+02  0.45594000000E+02  0.51100000000E-03 0.  1.
         11   -1    0    0    0    0 -0.00000000000E+00 -0.00000000000E+00 -0.45593999997E+02  0.45594000000E+02  0.51100000000E-03 0. -1.
    9900012    2    1    2    0    0  0.10614588877E+02  0.45739776985E+01 -0.29717569216E+02  0.59301879365E+02  0.49999882071E+02 0.  0.
        -12    1    1    2    0    0 -0.10614588877E+02 -0.45739776985E+01  0.29717569216E+02  0.31886120635E+02  0.00000000000E+00 0.  1.
         11    1    3    3    0    0  0.13521595579E+02  0.87982816375E+00  0.47820769077E+00  0.13558625574E+02  0.51100000000E-03 0. -1.
        -11    1    3    3    0    0 -0.12958145549E+02 -0.65375047795E+01 -0.27447110195E+01  0.14771118565E+02  0.51100000000E-03 0.  1.
         12    1    3    3    0    0  0.10051138848E+02  0.10231654314E+02 -0.27451065888E+02  0.30972135227E+02  0.00000000000E+00 0. -1.
</event>
<event>
 7    1  0.3750159E-013  0.5930199E+02  0.7816164E-02  0.1266605E+00
        -11   -1    0    0    0    0  0.00000000000E+00  0.00000000000E+00  0.45593999997E+02  0.45594000000E+02  0.51100000000E-03 0.  1.
         11   -1    0    0    0    0 -0.00000000000E+00 -0.00000000000E+00 -0.45593999997E+02  0.45594000000E+02  0.51100000000E-03 0. -1.
    9900012    2    1    2    0    0 -0.20067208639E+02 -0.22308675011E+02 -0.10786467020E+02  0.59301988740E+02  0.50000081544E+02 0.  0.
        -12    1    1    2    0    0  0.20067208639E+02  0.22308675011E+02  0.10786467020E+02  0.31886011260E+02  0.00000000000E+00 0.  1.
         11    1    3    3    0    0  0.13094317700E+01 -0.24668429255E+02  0.69844255549E+00  0.24713029676E+02  0.51100000000E-03 0. -1.
        -11    1    3    3    0    0 -0.36859536580E+01 -0.77451991126E+01  0.35351148016E+01  0.92774673583E+01  0.51100000000E-03 0.  1.
         12    1    3    3    0    0 -0.17690686751E+02  0.10104953357E+02 -0.15020024377E+02  0.25311491706E+02  0.00000000000E+00 0. -1.
</event>
<event>
 7    1  0.3750159E-013  0.5930193E+02  0.7816164E-02  0.1266605E+00
        -11   -1    0    0    0    0  0.00000000000E+00  0.00000000000E+00  0.45593999997E+02  0.45594000000E+02  0.51100000000E-03 0. -1.
         11   -1    0    0    0    0 -0.00000000000E+00 -0.00000000000E+00 -0.45593999997E+02  0.45594000000E+02  0.51100000000E-03 0.  1.
    9900012    2    1    2    0    0  0.17262368852E+01  0.10220900146E+02  0.30154186246E+02  0.59301927151E+02  0.49999969221E+02 0.  0.
        -12    1    1    2    0    0 -0.17262368852E+01 -0.10220900146E+02 -0.30154186246E+02  0.31886072849E+02  0.00000000000E+00 0.  1.
         11    1    3    3    0    0  0.89740939150E+01  0.50612319207E+00  0.15547677395E+02  0.17958863965E+02  0.51100000000E-03 0. -1.
        -11    1    3    3    0    0 -0.82739322835E+01  0.20518602354E+02  0.19450786141E+02  0.29458514555E+02  0.51100000000E-03 0.  1.
        -12    1    3    3    0    0  0.10260752537E+01 -0.10803825401E+02 -0.48442772894E+01  0.11884548631E+02  0.00000000000E+00 0.  1.
</event>
<event>
 7    1  0.3750159E-013  0.5930192E+02  0.7816164E-02  0.1266605E+00
        -11   -1    0    0    0    0  0.00000000000E+00  0.00000000000E+00  0.45593999997E+02  0.45594000000E+02  0.51100000000E-03 0.  1.
         11   -1    0    0    0    0 -0.00000000000E+00 -0.00000000000E+00 -0.45593999997E+02  0.45594000000E+02  0.51100000000E-03 0. -1.
    9900012    2    1    2    0    0  0.26683883881E+02  0.59998016780E+01 -0.16391916103E+02  0.59301918512E+02  0.49999953465E+02 0.  0.
        -12    1    1    2    0    0 -0.26683883881E+02 -0.59998016780E+01  0.16391916103E+02  0.31886081488E+02  0.00000000000E+00 0.  1.
         11    1    3    3    0    0 -0.34742236168E+01 -0.13083121786E+01 -0.22615487979E+02  0.22918163261E+02  0.51100000000E-03 0. -1.
        -11    1    3    3    0    0 -0.13199471914E+01  0.36423667184E+01  0.21541313932E+01  0.44327619178E+01  0.51100000000E-03 0.  1.
         12    1    3    3    0    0  0.31478054689E+02  0.36657471382E+01  0.40694404822E+01  0.31950993332E+02  0.00000000000E+00 0. -1.
</event>
<event>
 7    1  0.3750159E-013  0.5930191E+02  0.7816164E-02  0.1266605E+00
        -11   -1    0    0    0    0  0.00000000000E+00  0.00000000000E+00  0.45593999997E+02  0.45594000000E+02  0.51100000000E-03 0. -1.
         11   -1    0    0    0    0 -0.00000000000E+00 -0.00000000000E+00 -0.45593999997E+02  0.45594000000E+02  0.51100000000E-03 0.  1.
    9900012    2    1    2    0    0  0.11084029058E+02 -0.10574169574E+02  0.27965223888E+02  0.59301913545E+02  0.49999944406E+02 0.  0.
        -12    1    1    2    0    0 -0.11084029058E+02  0.10574169574E+02 -0.27965223888E+02  0.31886086455E+02  0.00000000000E+00 0.  1.
         11    1    3    3    0    0 -0.49611584241E+00 -0.89894365618E+01  0.87405396315E+01  0.12548033071E+02  0.51100000000E-03 0. -1.
        -11    1    3    3    0    0 -0.14012188641E+02  0.13406067249E+01 -0.84181432232E+00  0.14101322935E+02  0.51100000000E-03 0.  1.
        -12    1    3    3    0    0  0.25592333541E+02 -0.29253397371E+01  0.20066498579E+02  0.32652557539E+02  0.00000000000E+00 0.  1.
</event>
<event>
 7    1  0.3750159E-013  0.5930166E+02  0.7816164E-02  0.1266606E+00
        -11   -1    0    0    0    0  0.00000000000E+00  0.00000000000E+00  0.45593999997E+02  0.45594000000E+02  0.51100000000E-03 0. -1.
         11   -1    0    0    0    0 -0.00000000000E+00 -0.00000000000E+00 -0.45593999997E+02  0.45594000000E+02  0.51100000000E-03 0.  1.
    9900012    2    1    2    0    0 -0.14872224901E+02 -0.20952279417E+02  0.18882733658E+02  0.59301659403E+02  0.49999480910E+02 0.  0.
        -12    1    1    2    0    0  0.14872224901E+02  0.20952279417E+02 -0.18882733658E+02  0.31886340597E+02  0.00000000000E+00 0.  1.
         11    1    3    3    0    0 -0.16850661314E+01  0.55368898327E+01  0.16061352416E+02  0.17072306188E+02  0.51100000000E-03 0. -1.
        -11    1    3    3    0    0 -0.86909170006E+01 -0.98019578328E+01  0.15866999590E+02  0.20576007677E+02  0.51100000000E-03 0.  1.
        -12    1    3    3    0    0 -0.44962417686E+01 -0.16687211417E+02 -0.13045618348E+02  0.21653345538E+02  0.00000000000E+00 0.  1.
</event>
<event>
 7    1  0.3750159E-013  0.5930195E+02  0.7816164E-02  0.1266605E+00
        -11   -1    0    0    0    0  0.00000000000E+00  0.00000000000E+00  0.45593999997E+02  0.45594000000E+02  0.51100000000E-03 0. -1.
         11   -1    0    0    0    0 -0.00000000000E+00 -0.00000000000E+00 -0.45593999997E+02  0.45594000000E+02  0.51100000000E-03 0.  1.
    9900012    2    1    2    0    0 -0.15969781108E+02 -0.27569110997E+02  0.12768672839E+01  0.59301950075E+02  0.50000011028E+02 0.  0.
        -12    1    1    2    0    0  0.15969781108E+02  0.27569110997E+02 -0.12768672839E+01  0.31886049925E+02  0.00000000000E+00 0.  1.
         11    1    3    3    0    0  0.18042976421E+01 -0.10977919531E+02 -0.15765926820E+02  0.19295975123E+02  0.51100000000E-03 0. -1.
        -11    1    3    3    0    0 -0.16175797379E+02 -0.11583141336E+02 -0.22384958023E+01  0.20020900274E+02  0.51100000000E-03 0.  1.
        -12    1    3    3    0    0 -0.15982813710E+01 -0.50080501297E+01  0.19281289906E+02  0.19985074678E+02  0.00000000000E+00 0.  1.
</event>
<event>
 7    1  0.3750159E-013  0.5930211E+02  0.7816164E-02  0.1266604E+00
        -11   -1    0    0    0    0  0.00000000000E+00  0.00000000000E+00  0.45593999997E+02  0.45594000000E+02  0.51100000000E-03 0. -1.
         11   -1    0    0    0    0 -0.00000000000E+00 -0.00000000000E+00 -0.45593999997E+02  0.45594000000E+02  0.51100000000E-03 0.  1.
    9900012    2    1    2    0    0  0.56942928571E+01  0.26661018208E+02  0.16537080589E+02  0.59302111312E+02  0.50000305085E+02 0.  0.
        -12    1    1    2    0    0 -0.56942928571E+01 -0.26661018208E+02 -0.16537080589E+02  0.31885888688E+02  0.00000000000E+00 0.  1.
         11    1    3    3    0    0  0.84392690241E+01 -0.25158298710E+00  0.43322689966E+01  0.94896317411E+01  0.51100000000E-03 0. -1.
        -11    1    3    3    0    0  0.15740246314E+02  0.11725633756E+00  0.38682404744E+01  0.16209021799E+02  0.51100000000E-03 0.  1.
         12    1    3    3    0    0 -0.18485222481E+02  0.26795344857E+02  0.83365711183E+01  0.33603457771E+02  0.00000000000E+00 0. -1.
</event>
<event>
 7    1  0.3750159E-013  0.5930194E+02  0.7816164E-02  0.1266605E+00
        -11   -1    0    0    0    0  0.00000000000E+00  0.00000000000E+00  0.45593999997E+02  0.45594000000E+02  0.51100000000E-03 0.  1.
         11   -1    0    0    0    0 -0.00000000000E+00 -0.00000000000E+00 -0.45593999997E+02  0.45594000000E+02  0.51100000000E-03 0. -1.
    9900012    2    1    2    0    0 -0.29538724082E+02 -0.59490819931E+01  0.10430385353E+02  0.59301941361E+02  0.49999995136E+02 0.  0.
        -12    1    1    2    0    0  0.29538724082E+02  0.59490819931E+01 -0.10430385353E+02  0.31886058639E+02  0.00000000000E+00 0.  1.
         11    1    3    3    0    0 -0.18707892828E+02 -0.16428802680E+02  0.87235282218E+01  0.26381636728E+02  0.51100000000E-03 0. -1.
        -11    1    3    3    0    0 -0.58808109048E+01 -0.31825987086E+01  0.12931834799E+02  0.14558338606E+02  0.51100000000E-03 0.  1.
         12    1    3    3    0    0 -0.49500203489E+01  0.13662319395E+02 -0.11224977668E+02  0.18361966026E+02  0.00000000000E+00 0. -1.
</event>
<event>
 7    1  0.3750159E-013  0.5930197E+02  0.7816164E-02  0.1266605E+00
        -11   -1    0    0    0    0  0.00000000000E+00  0.00000000000E+00  0.45593999997E+02  0.45594000000E+02  0.51100000000E-03 0. -1.
         11   -1    0    0    0    0 -0.00000000000E+00 -0.00000000000E+00 -0.45593999997E+02  0.45594000000E+02  0.51100000000E-03 0.  1.
    9900012    2    1    2    0    0 -0.18825507001E+02 -0.78873839454E+01  0.24497113615E+02  0.59301966775E+02  0.50000041486E+02 0.  0.
        -12    1    1    2    0    0  0.18825507001E+02  0.78873839454E+01 -0.24497113615E+02  0.31886033225E+02  0.00000000000E+00 0.  1.
         11    1    3    3    0    0 -0.54586334751E+01  0.85716206723E+01  0.82968094172E+01  0.13118933155E+02  0.51100000000E-03 0. -1.
        -11    1    3    3    0    0 -0.11980385192E+02  0.62243379661E+01  0.18975826249E+02  0.23288494897E+02  0.51100000000E-03 0.  1.
        -12    1    3    3    0    0 -0.13864883341E+01 -0.22683342584E+02 -0.27755220515E+01  0.22894538723E+02  0.00000000000E+00 0.  1.
</event>
<event>
 7    1  0.3750159E-013  0.5930206E+02  0.7816164E-02  0.1266604E+00
        -11   -1    0    0    0    0  0.00000000000E+00  0.00000000000E+00  0.45593999997E+02  0.45594000000E+02  0.51100000000E-03 0.  1.
         11   -1    0    0    0    0 -0.00000000000E+00 -0.00000000000E+00 -0.45593999997E+02  0.45594000000E+02  0.51100000000E-03 0. -1.
    9900012    2    1    2    0    0  0.31855816835E+02 -0.12793176842E+00 -0.13798255571E+01  0.59302057151E+02  0.50000206310E+02 0.  0.
        -12    1    1    2    0    0 -0.31855816835E+02  0.12793176842E+00  0.13798255571E+01  0.31885942849E+02  0.00000000000E+00 0.  1.
         11    1    3    3    0    0  0.16307949530E+02 -0.39081178212E+01  0.21946753526E+02  0.27620329349E+02  0.51100000000E-03 0. -1.
        -11    1    3    3    0    0  0.17054771607E+00 -0.17265092839E+01  0.12740559359E+01  0.21524729080E+01  0.51100000000E-03 0.  1.
         12    1    3    3    0    0  0.15377319589E+02  0.55066953367E+01 -0.24600635019E+02  0.29529254894E+02  0.00000000000E+00 0. -1.
</event>
<event>
 7    1  0.3750159E-013  0.5930194E+02  0.7816164E-02  0.1266605E+00
        -11   -1    0    0    0    0  0.00000000000E+00  0.00000000000E+00  0.45593999997E+02  0.45594000000E+02  0.51100000000E-03 0. -1.
         11   -1    0    0    0    0 -0.00000000000E+00 -0.00000000000E+00 -0.45593999997E+02  0.45594000000E+02  0.51100000000E-03 0.  1.
    9900012    2    1    2    0    0  0.44022803546E+01 -0.31294158384E+02 -0.42446066332E+01  0.59301935540E+02  0.49999984520E+02 0.  0.
        -12    1    1    2    0    0 -0.44022803546E+01  0.31294158384E+02  0.42446066332E+01  0.31886064460E+02  0.00000000000E+00 0.  1.
         11    1    3    3    0    0 -0.11663441277E+02 -0.15911823965E+02 -0.18846021002E+02  0.27283594195E+02  0.51100000000E-03 0. -1.
        -11    1    3    3    0    0  0.61014097512E+01  0.82989500621E+00 -0.22937481237E+01  0.65709365687E+01  0.51100000000E-03 0.  1.
         12    1    3    3    0    0  0.99643118807E+01 -0.16212229426E+02  0.16895162492E+02  0.25447404776E+02  0.00000000000E+00 0. -1.
</event>
<event>
 7    1  0.3750159E-013  0.5930192E+02  0.7816164E-02  0.1266605E+00
        -11   -1    0    0    0    0  0.00000000000E+00  0.00000000000E+00  0.45593999997E+02  0.45594000000E+02  0.51100000000E-03 0.  1.
         11   -1    0    0    0    0 -0.00000000000E+00 -0.00000000000E+00 -0.45593999997E+02  0.45594000000E+02  0.51100000000E-03 0. -1.
    9900012    2    1    2    0    0 -0.28801744247E+00  0.19753685674E+02 -0.25028610428E+02  0.59301915391E+02  0.49999947773E+02 0.  0.
        -12    1    1    2    0    0  0.28801744247E+00 -0.19753685674E+02  0.25028610428E+02  0.31886084609E+02  0.00000000000E+00 0.  1.
         11    1    3    3    0    0 -0.12764570753E+02  0.16563775182E+01 -0.13610092593E+02  0.18732657944E+02  0.51100000000E-03 0. -1.
        -11    1    3    3    0    0  0.11598405154E+02  0.86703652731E+01 -0.22020428850E+02  0.26355218138E+02  0.51100000000E-03 0.  1.
        -12    1    3    3    0    0  0.87814815687E+00  0.94269428826E+01  0.10601911015E+02  0.14214039309E+02  0.00000000000E+00 0.  1.
</event>
<event>
 7    1  0.3750159E-013  0.5930195E+02  0.7816164E-02  0.1266605E+00
        -11   -1    0    0    0    0  0.00000000000E+00  0.00000000000E+00  0.45593999997E+02  0.45594000000E+02  0.51100000000E-03 0.  1.
         11   -1    0    0    0    0 -0.00000000000E+00 -0.00000000000E+00 -0.45593999997E+02  0.45594000000E+02  0.51100000000E-03 0. -1.
    9900012    2    1    2    0    0  0.13909978420E+02 -0.26830215034E+02 -0.10167217530E+02  0.59301948963E+02  0.50000009001E+02 0.  0.
        -12    1    1    2    0    0 -0.13909978420E+02  0.26830215034E+02  0.10167217530E+02  0.31886051037E+02  0.00000000000E+00 0.  1.
         11    1    3    3    0    0 -0.80811352252E+01 -0.11163650841E+02  0.33961042363E+01  0.14193849756E+02  0.51100000000E-03 0. -1.
        -11    1    3    3    0    0  0.19771767184E+01  0.82673761233E+01 -0.10861058194E+02  0.13792074576E+02  0.51100000000E-03 0.  1.
         12    1    3    3    0    0  0.20013936927E+02 -0.23933940316E+02 -0.27022635722E+01  0.31316024632E+02  0.00000000000E+00 0. -1.
</event>
<event>
 7    1  0.3750159E-013  0.5930197E+02  0.7816164E-02  0.1266605E+00
        -11   -1    0    0    0    0  0.00000000000E+00  0.00000000000E+00  0.45593999997E+02  0.45594000000E+02  0.51100000000E-03 0.  1.
         11   -1    0    0    0    0 -0.00000000000E+00 -0.00000000000E+00 -0.45593999997E+02  0.45594000000E+02  0.51100000000E-03 0. -1.
    9900012    2    1    2    0    0 -0.18663918544E+02 -0.25754978163E+02 -0.22490005860E+01  0.59301972351E+02  0.50000051656E+02 0.  0.
        -12    1    1    2    0    0  0.18663918544E+02  0.25754978163E+02  0.22490005860E+01  0.31886027649E+02  0.00000000000E+00 0.  1.
         11    1    3    3    0    0 -0.14137646073E+02 -0.11115303112E+02 -0.12869970261E+02  0.22114681425E+02  0.51100000000E-03 0. -1.
        -11    1    3    3    0    0 -0.69094364931E+01 -0.18382422180E+02 -0.55591974772E+01  0.20409763221E+02  0.51100000000E-03 0.  1.
        -12    1    3    3    0    0  0.23831640227E+01  0.37427471299E+01  0.16180167152E+02  0.16777527705E+02  0.00000000000E+00 0.  1.
</event>
<event>
 7    1  0.3750159E-013  0.5930191E+02  0.7816164E-02  0.1266605E+00
        -11   -1    0    0    0    0  0.00000000000E+00  0.00000000000E+00  0.45593999997E+02  0.45594000000E+02  0.51100000000E-03 0. -1.
         11   -1    0    0    0    0 -0.00000000000E+00 -0.00000000000E+00 -0.45593999997E+02  0.45594000000E+02  0.51100000000E-03 0.  1.
    9900012    2    1    2    0    0  0.21476191465E+02  0.18462406340E+02  0.14650439002E+02  0.59301911958E+02  0.49999941512E+02 0.  0.
        -12    1    1    2    0    0 -0.21476191465E+02 -0.18462406340E+02 -0.14650439002E+02  0.31886088042E+02  0.00000000000E+00 0.  1.
         11    1    3    3    0    0  0.98699506420E+01  0.15164157729E+02  0.94083731846E+01  0.20393260934E+02  0.51100000000E-03 0. -1.
        -11    1    3    3    0    0  0.20808305182E+02  0.10470928628E+02 -0.44805618859E+01  0.23721326817E+02  0.51100000000E-03 0.  1.
        -12    1    3    3    0    0 -0.92020643591E+01 -0.71726800174E+01  0.97226277032E+01  0.15187324207E+02  0.00000000000E+00 0.  1.
</event>
<event>
 7    1  0.4482176E-013  0.5930194E+02  0.7816164E-02  0.1266605E+00
        -11   -1    0    0    0    0  0.00000000000E+00  0.00000000000E+00  0.45593999997E+02  0.45594000000E+02  0.51100000000E-03 0. -1.
         11   -1    0    0    0    0 -0.00000000000E+00 -0.00000000000E+00 -0.45593999997E+02  0.45594000000E+02  0.51100000000E-03 0.  1.
    9900012    2    1    2    0    0  0.12603820964E+02 -0.57777051550E+01  0.28713803910E+02  0.59301941687E+02  0.49999995730E+02 0.  0.
        -12    1    1    2    0    0 -0.12603820964E+02  0.57777051550E+01 -0.28713803910E+02  0.31886058313E+02  0.00000000000E+00 0.  1.
         11    1    3    3    0    0 -0.71884974996E+01  0.79973445353E+01  0.94174364908E+01  0.14294059124E+02  0.51100000000E-03 0. -1.
        -11    1    3    3    0    0 -0.59035245297E+01  0.41189054260E+01 -0.15857913998E+01  0.73710052507E+01  0.51100000000E-03 0.  1.
         12    1    3    3    0    0  0.25695842993E+02 -0.17893955116E+02  0.20882158819E+02  0.37636877312E+02  0.00000000000E+00 0. -1.
</event>
<event>
 7    1  0.3750159E-013  0.5930211E+02  0.7816164E-02  0.1266604E+00
        -11   -1    0    0    0    0  0.00000000000E+00  0.00000000000E+00  0.45593999997E+02  0.45594000000E+02  0.51100000000E-03 0.  1.
         11   -1    0    0    0    0 -0.00000000000E+00 -0.00000000000E+00 -0.45593999997E+02  0.45594000000E+02  0.51100000000E-03 0. -1.
    9900012    2    1    2    0    0  0.19859339268E+02  0.14917747338E+02 -0.19994433541E+02  0.59302111045E+02  0.50000304599E+02 0.  0.
        -12    1    1    2    0    0 -0.19859339268E+02 -0.14917747338E+02  0.19994433541E+02  0.31885888955E+02  0.00000000000E+00 0.  1.
         11    1    3    3    0    0  0.20855486274E+02  0.14632415737E+02  0.83187862567E+01  0.26800393711E+02  0.51100000000E-03 0. -1.
        -11    1    3    3    0    0 -0.38038124004E+01 -0.28844951654E+00  0.22368488385E+00  0.38212860518E+01  0.51100000000E-03 0.  1.
        -12    1    3    3    0    0  0.28076653944E+01  0.57378111739E+00 -0.28536904682E+02  0.28680431283E+02  0.00000000000E+00 0.  1.
</event>
<event>
 7    1  0.3750159E-013  0.5930195E+02  0.7816164E-02  0.1266605E+00
        -11   -1    0    0    0    0  0.00000000000E+00  0.00000000000E+00  0.45593999997E+02  0.45594000000E+02  0.51100000000E-03 0. -1.
         11   -1    0    0    0    0 -0.00000000000E+00 -0.00000000000E+00 -0.45593999997E+02  0.45594000000E+02  0.51100000000E-03 0.  1.
    9900012    2    1    2    0    0  0.17917868233E+02  0.49665346973E+01  0.25903739448E+02  0.59301949973E+02  0.50000010843E+02 0.  0.
        -12    1    1    2    0    0 -0.17917868233E+02 -0.49665346973E+01 -0.25903739448E+02  0.31886050027E+02  0.00000000000E+00 0.  1.
         11    1    3    3    0    0  0.58990467532E+00  0.15656420467E+01  0.15652676046E+02  0.15741838845E+02  0.51100000000E-03 0. -1.
        -11    1    3    3    0    0 -0.23174231077E+01 -0.15138675908E+02  0.41542771072E+01  0.15868458547E+02  0.51100000000E-03 0.  1.
         12    1    3    3    0    0  0.19645386665E+02  0.18539568559E+02  0.60967862947E+01  0.27691652581E+02  0.00000000000E+00 0. -1.
</event>
<event>
 7    1  0.3750159E-013  0.5930196E+02  0.7816164E-02  0.1266605E+00
        -11   -1    0    0    0    0  0.00000000000E+00  0.00000000000E+00  0.45593999997E+02  0.45594000000E+02  0.51100000000E-03 0. -1.
         11   -1    0    0    0    0 -0.00000000000E+00 -0.00000000000E+00 -0.45593999997E+02  0.45594000000E+02  0.51100000000E-03 0.  1.
    9900012    2    1    2    0    0 -0.23992966367E+02 -0.20974589515E+02 -0.10601985025E+01  0.59301955070E+02  0.50000020138E+02 0.  0.
        -12    1    1    2    0    0  0.23992966367E+02  0.20974589515E+02  0.10601985025E+01  0.31886044930E+02  0.00000000000E+00 0.  1.
         11    1    3    3    0    0 -0.21770957287E+02 -0.12164092858E+02 -0.17687058722E+01  0.25001361103E+02  0.51100000000E-03 0. -1.
        -11    1    3    3    0    0  0.19204833036E+01 -0.82522715747E+01 -0.15444283379E+02  0.17615735341E+02  0.51100000000E-03 0.  1.
         12    1    3    3    0    0 -0.41424923837E+01 -0.55822508178E+00  0.16152790749E+02  0.16684858626E+02  0.00000000000E+00 0. -1.
</event>
<event>
 7    1  0.3750159E-013  0.5930193E+02  0.7816164E-02  0.1266605E+00
        -11   -1    0    0    0    0  0.00000000000E+00  0.00000000000E+00  0.45593999997E+02  0.45594000000E+02  0.51100000000E-03 0.  1.
         11   -1    0    0    0    0 -0.00000000000E+00 -0.00000000000E+00 -0.45593999997E+02  0.45594000000E+02  0.51100000000E-03 0. -1.
    9900012    2    1    2    0    0  0.24001096507E+02  0.12822260719E+02 -0.16621021318E+02  0.59301931677E+02  0.49999977475E+02 0.  0.
        -12    1    1    2    0    0 -0.24001096507E+02 -0.12822260719E+02  0.16621021318E+02  0.31886068323E+02  0.00000000000E+00 0.  1.
         11    1    3    3    0    0  0.81169955891E+01  0.86924285662E+01 -0.50107658157E+01  0.12905491315E+02  0.51100000000E-03 0. -1.
        -11    1    3    3    0    0 -0.37406727992E+01  0.15302492283E+02  0.68993910366E+01  0.17197688799E+02  0.51100000000E-03 0.  1.
        -12    1    3    3    0    0  0.19624773717E+02 -0.11172660131E+02 -0.18509646539E+02  0.29198751563E+02  0.00000000000E+00 0.  1.
</event>
<event>
 7    1  0.3750159E-013  0.5930185E+02  0.7816164E-02  0.1266605E+00
        -11   -1    0    0    0    0  0.00000000000E+00  0.00000000000E+00  0.45593999997E+02  0.45594000000E+02  0.51100000000E-03 0.  1.
         11   -1    0    0    0    0 -0.00000000000E+00 -0.00000000000E+00 -0.45593999997E+02  0.45594000000E+02  0.51100000000E-03 0. -1.
    9900012    2    1    2    0    0  0.16467344694E+01  0.13171770746E+02 -0.28991711204E+02  0.59301849440E+02  0.49999827494E+02 0.  0.
        -12    1    1    2    0    0 -0.16467344694E+01 -0.13171770746E+02  0.28991711204E+02  0.31886150560E+02  0.00000000000E+00 0.  1.
         11    1    3    3    0    0  0.75084055292E+01  0.56546513221E+01 -0.78243639682E+01  0.12229959400E+02  0.51100000000E-03 0. -1.
        -11    1    3    3    0    0  0.15708793252E+02  0.12249192715E+02 -0.90067179010E+01  0.21861607334E+02  0.51100000000E-03 0.  1.
        -12    1    3    3    0    0 -0.21570464312E+02 -0.47320732916E+01 -0.12160629335E+02  0.25210282706E+02  0.00000000000E+00 0.  1.
</event>
<event>
 7    1  0.3750159E-013  0.5930194E+02  0.7816164E-02  0.1266605E+00
        -11   -1    0    0    0    0  0.00000000000E+00  0.00000000000E+00  0.45593999997E+02  0.45594000000E+02  0.51100000000E-03 0.  1.
         11   -1    0    0    0    0 -0.00000000000E+00 -0.00000000000E+00 -0.45593999997E+02  0.45594000000E+02  0.51100000000E-03 0. -1.
    9900012    2    1    2    0    0  0.98688603079E+01  0.30314264348E+02  0.60983996106E+00  0.59301938288E+02  0.49999989533E+02 0.  0.
        -12    1    1    2    0    0 -0.98688603079E+01 -0.30314264348E+02 -0.60983996106E+00  0.31886061712E+02  0.00000000000E+00 0.  1.
         11    1    3    3    0    0 -0.78846829831E+01 -0.54512804632E+01 -0.37085390942E+01  0.10278032249E+02  0.51100000000E-03 0. -1.
        -11    1    3    3    0    0 -0.31092748182E+01  0.23746827809E+02  0.65906855929E+01  0.24839817989E+02  0.51100000000E-03 0.  1.
         12    1    3    3    0    0  0.20862818109E+02  0.12018717002E+02 -0.22723065377E+01  0.24184088050E+02  0.00000000000E+00 0. -1.
</event>
<event>
 7    1  0.3750159E-013  0.5930190E+02  0.7816164E-02  0.1266605E+00
        -11   -1    0    0    0    0  0.00000000000E+00  0.00000000000E+00  0.45593999997E+02  0.45594000000E+02  0.51100000000E-03 0.  1.
         11   -1    0    0    0    0 -0.00000000000E+00 -0.00000000000E+00 -0.45593999997E+02  0.45594000000E+02  0.51100000000E-03 0. -1.
    9900012    2    1    2    0    0  0.18162043256E+02 -0.25986282189E+02 -0.34024085396E+01  0.59301904894E+02  0.49999928630E+02 0.  0.
        -12    1    1    2    0    0 -0.18162043256E+02  0.25986282189E+02  0.34024085396E+01  0.31886095106E+02  0.00000000000E+00 0.  1.
         11    1    3    3    0    0  0.91325950176E+01 -0.14592551292E+02 -0.12688925300E+02  0.21385875490E+02  0.51100000000E-03 0. -1.
        -11    1    3    3    0    0 -0.15659922404E+01  0.11421151688E+02  0.17791005543E+01  0.11664486127E+02  0.51100000000E-03 0.  1.
         12    1    3    3    0    0  0.10595440479E+02 -0.22814882585E+02  0.75074162064E+01  0.26251543277E+02  0.00000000000E+00 0. -1.
</event>
<event>
 7    1  0.3750159E-013  0.5930201E+02  0.7816164E-02  0.1266605E+00
        -11   -1    0    0    0    0  0.00000000000E+00  0.00000000000E+00  0.45593999997E+02  0.45594000000E+02  0.51100000000E-03 0. -1.
         11   -1    0    0    0    0 -0.00000000000E+00 -0.00000000000E+00 -0.45593999997E+02  0.45594000000E+02  0.51100000000E-03 0.  1.
    9900012    2    1    2    0    0  0.21550405586E+02 -0.12217912684E+02  0.20075334329E+02  0.59302009037E+02  0.50000118561E+02 0.  0.
        -12    1    1    2    0    0 -0.21550405586E+02  0.12217912684E+02 -0.20075334329E+02  0.31885990963E+02  0.00000000000E+00 0.  1.
         11    1    3    3    0    0  0.29353911611E+01 -0.43263461129E+01 -0.10561628855E+01  0.53337859217E+01  0.51100000000E-03 0. -1.
        -11    1    3    3    0    0 -0.27304062462E+01  0.73664457090E+01 -0.10345120840E+02  0.12990041036E+02  0.51100000000E-03 0.  1.
         12    1    3    3    0    0  0.21345420671E+02 -0.15258012280E+02  0.31476618055E+02  0.40978182079E+02  0.00000000000E+00 0. -1.
</event>
<event>
 7    1  0.3750159E-013  0.5930191E+02  0.7816164E-02  0.1266605E+00
        -11   -1    0    0    0    0  0.00000000000E+00  0.00000000000E+00  0.45593999997E+02  0.45594000000E+02  0.51100000000E-03 0. -1.
         11   -1    0    0    0    0 -0.00000000000E+00 -0.00000000000E+00 -0.45593999997E+02  0.45594000000E+02  0.51100000000E-03 0.  1.
    9900012    2    1    2    0    0 -0.22571338989E+02 -0.11008787946E+02  0.19648504916E+02  0.59301913673E+02  0.49999944641E+02 0.  0.
        -12    1    1    2    0    0  0.22571338989E+02  0.11008787946E+02 -0.19648504916E+02  0.31886086327E+02  0.00000000000E+00 0.  1.
         11    1    3    3    0    0 -0.60234203701E+01  0.86188520133E+00 -0.90077232652E+01  0.10870304400E+02  0.51100000000E-03 0. -1.
        -11    1    3    3    0    0 -0.54008150630E+01 -0.14117178218E+02 -0.24498298140E+01  0.15312256220E+02  0.51100000000E-03 0.  1.
         12    1    3    3    0    0 -0.11147103556E+02  0.22465050703E+01  0.31106057995E+02  0.33119353054E+02  0.00000000000E+00 0. -1.
</event>
<event>
 7    1  0.3750159E-013  0.5930196E+02  0.7816164E-02  0.1266605E+00
        -11   -1    0    0    0    0  0.00000000000E+00  0.00000000000E+00  0.45593999997E+02  0.45594000000E+02  0.51100000000E-03 0. -1.
         11   -1    0    0    0    0 -0.00000000000E+00 -0.00000000000E+00 -0.45593999997E+02  0.45594000000E+02  0.51100000000E-03 0.  1.
    9900012    2    1    2    0    0  0.43302965806E+01 -0.18213443238E+02  0.25811597566E+02  0.59301959920E+02  0.50000028984E+02 0.  0.
        -12    1    1    2    0    0 -0.43302965806E+01  0.18213443238E+02 -0.25811597566E+02  0.31886040080E+02  0.00000000000E+00 0.  1.
         11    1    3    3    0    0  0.21159146588E+00 -0.27304292072E+01  0.23031966691E+02  0.23194212737E+02  0.51100000000E-03 0. -1.
        -11    1    3    3    0    0  0.57607158279E+01 -0.19501816735E+02  0.13590146368E+02  0.24458102571E+02  0.51100000000E-03 0.  1.
        -12    1    3    3    0    0 -0.16420107132E+01  0.40188027043E+01 -0.10810515493E+02  0.11649644612E+02  0.00000000000E+00 0.  1.
</event>
<event>
 7    1  0.3750159E-013  0.5930194E+02  0.7816164E-02  0.1266605E+00
        -11   -1    0    0    0    0  0.00000000000E+00  0.00000000000E+00  0.45593999997E+02  0.45594000000E+02  0.51100000000E-03 0.  1.
         11   -1    0    0    0    0 -0.00000000000E+00 -0.00000000000E+00 -0.45593999997E+02  0.45594000000E+02  0.51100000000E-03 0. -1.
    9900012    2    1    2    0    0 -0.20951534176E+02  0.19878521294E+02 -0.13512906050E+02  0.59301936852E+02  0.49999986913E+02 0.  0.
        -12    1    1    2    0    0  0.20951534176E+02 -0.19878521294E+02  0.13512906050E+02  0.31886063148E+02  0.00000000000E+00 0.  1.
         11    1    3    3    0    0 -0.62989288863E+01  0.12022467498E+02  0.11714948116E+02  0.17929200748E+02  0.51100000000E-03 0. -1.
        -11    1    3    3    0    0 -0.29612325596E+01 -0.96808859488E+01 -0.26057814752E+01  0.10453638045E+02  0.51100000000E-03 0.  1.
        -12    1    3    3    0    0 -0.11691372730E+02  0.17536939745E+02 -0.22622072690E+02  0.30919098058E+02  0.00000000000E+00 0.  1.
</event>
<event>
 7    1  0.3750159E-013  0.5930195E+02  0.7816164E-02  0.1266605E+00
        -11   -1    0    0    0    0  0.00000000000E+00  0.00000000000E+00  0.45593999997E+02  0.45594000000E+02  0.51100000000E-03 0.  1.
         11   -1    0    0    0    0 -0.00000000000E+00 -0.00000000000E+00 -0.45593999997E+02  0.45594000000E+02  0.51100000000E-03 0. -1.
    9900012    2    1    2    0    0  0.16497196512E+02  0.25588325206E+02 -0.94762976317E+01  0.59301951383E+02  0.50000013414E+02 0.  0.
        -12    1    1    2    0    0 -0.16497196512E+02 -0.25588325206E+02  0.94762976317E+01  0.31886048617E+02  0.00000000000E+00 0.  1.
         11    1    3    3    0    0  0.89424703545E+01  0.35224814857E+01 -0.35288899605E+01  0.10238589574E+02  0.51100000000E-03 0. -1.
        -11    1    3    3    0    0  0.79811673558E+01  0.70928257703E+01  0.17934671835E+02  0.20872461855E+02  0.51100000000E-03 0.  1.
         12    1    3    3    0    0 -0.42644119856E+00  0.14973017951E+02 -0.23882079507E+02  0.28190899954E+02  0.00000000000E+00 0. -1.
</event>
<event>
 7    1  0.3750159E-013  0.5930194E+02  0.7816164E-02  0.1266605E+00
        -11   -1    0    0    0    0  0.00000000000E+00  0.00000000000E+00  0.45593999997E+02  0.45594000000E+02  0.51100000000E-03 0. -1.
         11   -1    0    0    0    0 -0.00000000000E+00 -0.00000000000E+00 -0.45593999997E+02  0.45594000000E+02  0.51100000000E-03 0.  1.
    9900012    2    1    2    0    0 -0.61401203374E+01 -0.46448172975E+00  0.31285847763E+02  0.59301935783E+02  0.49999984963E+02 0.  0.
        -12    1    1    2    0    0  0.61401203374E+01  0.46448172975E+00 -0.31285847763E+02  0.31886064217E+02  0.00000000000E+00 0.  1.
         11    1    3    3    0    0 -0.24542570419E+01  0.16358461762E+01 -0.67894699383E+01  0.74024504486E+01  0.51100000000E-03 0.  1.
        -11    1    3    3    0    0 -0.17192546008E+01  0.11042188501E+02 -0.41174695743E+00  0.11182812664E+02  0.51100000000E-03 0. -1.
        -12    1    3    3    0    0 -0.19666086948E+01 -0.13142516407E+02  0.38487064658E+02  0.40716672670E+02  0.00000000000E+00 0.  1.
</event>
<event>
 7    1  0.3750159E-013  0.5930192E+02  0.7816164E-02  0.1266605E+00
        -11   -1    0    0    0    0  0.00000000000E+00  0.00000000000E+00  0.45593999997E+02  0.45594000000E+02  0.51100000000E-03 0.  1.
         11   -1    0    0    0    0 -0.00000000000E+00 -0.00000000000E+00 -0.45593999997E+02  0.45594000000E+02  0.51100000000E-03 0. -1.
    9900012    2    1    2    0    0  0.14234767403E+02 -0.25203222096E+02  0.13375019579E+02  0.59301919090E+02  0.49999954520E+02 0.  0.
        -12    1    1    2    0    0 -0.14234767403E+02  0.25203222096E+02 -0.13375019579E+02  0.31886080910E+02  0.00000000000E+00 0.  1.
         11    1    3    3    0    0  0.50677722407E+01 -0.20171817226E+02  0.22547105559E+01  0.20920522117E+02  0.51100000000E-03 0. -1.
        -11    1    3    3    0    0  0.19358525684E+02  0.13143338006E+01  0.16266248129E+02  0.25319376344E+02  0.51100000000E-03 0.  1.
         12    1    3    3    0    0 -0.10191530522E+02 -0.63457386704E+01 -0.51459391059E+01  0.13062020630E+02  0.00000000000E+00 0. -1.
</event>
<event>
 7    1  0.3750159E-013  0.5930200E+02  0.7816164E-02  0.1266605E+00
        -11   -1    0    0    0    0  0.00000000000E+00  0.00000000000E+00  0.45593999997E+02  0.45594000000E+02  0.51100000000E-03 0.  1.
         11   -1    0    0    0    0 -0.00000000000E+00 -0.00000000000E+00 -0.45593999997E+02  0.45594000000E+02  0.51100000000E-03 0. -1.
    9900012    2    1    2    0    0 -0.29398542506E+02 -0.10312894983E+02 -0.67887490884E+01  0.59301996510E+02  0.50000095715E+02 0.  0.
        -12    1    1    2    0    0  0.29398542506E+02  0.10312894983E+02  0.67887490884E+01  0.31886003490E+02  0.00000000000E+00 0.  1.
         11    1    3    3    0    0 -0.60768882828E+01 -0.15682580276E+01 -0.10042236683E+02  0.11842065795E+02  0.51100000000E-03 0. -1.
        -11    1    3    3    0    0 -0.12109912570E+02 -0.61641466807E+00 -0.18233357309E+02  0.21897152064E+02  0.51100000000E-03 0.  1.
        -12    1    3    3    0    0 -0.11211741653E+02 -0.81282222875E+01  0.21486844903E+02  0.25562778651E+02  0.00000000000E+00 0.  1.
</event>
<event>
 7    1  0.3750159E-013  0.5930194E+02  0.7816164E-02  0.1266605E+00
        -11   -1    0    0    0    0  0.00000000000E+00  0.00000000000E+00  0.45593999997E+02  0.45594000000E+02  0.51100000000E-03 0.  1.
         11   -1    0    0    0    0 -0.00000000000E+00 -0.00000000000E+00 -0.45593999997E+02  0.45594000000E+02  0.51100000000E-03 0. -1.
    9900012    2    1    2    0    0 -0.12829958581E+02 -0.15998668951E+02 -0.24416292365E+02  0.59301943827E+02  0.49999999634E+02 0.  0.
        -12    1    1    2    0    0  0.12829958581E+02  0.15998668951E+02  0.24416292365E+02  0.31886056173E+02  0.00000000000E+00 0.  1.
         11    1    3    3    0    0  0.35945375694E+01  0.33638518517E+01 -0.36417802910E+01  0.61236234018E+01  0.51100000000E-03 0. -1.
        -11    1    3    3    0    0 -0.63129620732E+01 -0.46379577931E+01 -0.31421836961E+02  0.32383575789E+02  0.51100000000E-03 0.  1.
        -12    1    3    3    0    0 -0.10111534078E+02 -0.14724563010E+02  0.10647324887E+02  0.20794744636E+02  0.00000000000E+00 0.  1.
</event>
<event>
 7    1  0.3750159E-013  0.5930196E+02  0.7816164E-02  0.1266605E+00
        -11   -1    0    0    0    0  0.00000000000E+00  0.00000000000E+00  0.45593999997E+02  0.45594000000E+02  0.51100000000E-03 0. -1.
         11   -1    0    0    0    0 -0.00000000000E+00 -0.00000000000E+00 -0.45593999997E+02  0.45594000000E+02  0.51100000000E-03 0.  1.
    9900012    2    1    2    0    0  0.72532606592E+00  0.30423162550E+02  0.95197021162E+01  0.59301958449E+02  0.50000026300E+02 0.  0.
        -12    1    1    2    0    0 -0.72532606592E+00 -0.30423162550E+02 -0.95197021162E+01  0.31886041551E+02  0.00000000000E+00 0.  1.
         11    1    3    3    0    0 -0.42056411310E+01  0.13521857699E+02  0.15830112660E+02  0.21239597926E+02  0.51100000000E-03 0. -1.
        -11    1    3    3    0    0  0.14631433613E+01  0.26365420393E+02 -0.46398100790E+00  0.26410063605E+02  0.51100000000E-03 0.  1.
        -12    1    3    3    0    0  0.34678238356E+01 -0.94641155416E+01 -0.58464295361E+01  0.11652296918E+02  0.00000000000E+00 0.  1.
</event>
<event>
 7    1  0.3750159E-013  0.5930193E+02  0.7816164E-02  0.1266605E+00
        -11   -1    0    0    0    0  0.00000000000E+00  0.00000000000E+00  0.45593999997E+02  0.45594000000E+02  0.51100000000E-03 0. -1.
         11   -1    0    0    0    0 -0.00000000000E+00 -0.00000000000E+00 -0.45593999997E+02  0.45594000000E+02  0.51100000000E-03 0.  1.
    9900012    2    1    2    0    0 -0.30355982866E+02 -0.92422127219E+01 -0.31332097828E+01  0.59301934151E+02  0.49999981987E+02 0.  0.
        -12    1    1    2    0    0  0.30355982866E+02  0.92422127219E+01  0.31332097828E+01  0.31886065849E+02  0.00000000000E+00 0.  1.
         11    1    3    3    0    0  0.51126766415E+01 -0.42953856573E-01  0.24344632896E+01  0.56628543371E+01  0.51100000000E-03 0. -1.
        -11    1    3    3    0    0  0.45574555639E+01  0.67002356855E+01 -0.67621495557E+01  0.10554156827E+02  0.51100000000E-03 0.  1.
        -12    1    3    3    0    0 -0.40026115072E+02 -0.15899494551E+02  0.11944764833E+01  0.43084922987E+02  0.00000000000E+00 0.  1.
</event>
<event>
 7    1  0.3750159E-013  0.5930195E+02  0.7816164E-02  0.1266605E+00
        -11   -1    0    0    0    0  0.00000000000E+00  0.00000000000E+00  0.45593999997E+02  0.45594000000E+02  0.51100000000E-03 0.  1.
         11   -1    0    0    0    0 -0.00000000000E+00 -0.00000000000E+00 -0.45593999997E+02  0.45594000000E+02  0.51100000000E-03 0. -1.
    9900012    2    1    2    0    0  0.15918672374E+02  0.27443265994E+01 -0.27491542060E+02  0.59301947509E+02  0.50000006349E+02 0.  0.
        -12    1    1    2    0    0 -0.15918672374E+02 -0.27443265994E+01  0.27491542060E+02  0.31886052491E+02  0.00000000000E+00 0.  1.
         11    1    3    3    0    0  0.14839455020E+02 -0.46479582784E+01 -0.66786260598E+01  0.16923858537E+02  0.51100000000E-03 0. -1.
        -11    1    3    3    0    0  0.15639166173E+02  0.27809190612E+01  0.81022434554E+00  0.15905140464E+02  0.51100000000E-03 0.  1.
         12    1    3    3    0    0 -0.14559948820E+02  0.46113658166E+01 -0.21623140346E+02  0.26472948509E+02  0.00000000000E+00 0. -1.
</event>
<event>
 7    1  0.3750159E-013  0.5930198E+02  0.7816164E-02  0.1266605E+00
        -11   -1    0    0    0    0  0.00000000000E+00  0.00000000000E+00  0.45593999997E+02  0.45594000000E+02  0.51100000000E-03 0.  1.
         11   -1    0    0    0    0 -0.00000000000E+00 -0.00000000000E+00 -0.45593999997E+02  0.45594000000E+02  0.51100000000E-03 0. -1.
    9900012    2    1    2    0    0  0.26026946512E+02 -0.50166661564E+01 -0.17724266364E+02  0.59301976381E+02  0.50000059005E+02 0.  0.
        -12    1    1    2    0    0 -0.26026946512E+02  0.50166661564E+01  0.17724266364E+02  0.31886023619E+02  0.00000000000E+00 0.  1.
         11    1    3    3    0    0  0.82356803639E+01 -0.22983722968E+02 -0.16539346969E+02  0.29489454911E+02  0.51100000000E-03 0.  1.
        -11    1    3    3    0    0  0.72204682167E+01  0.34277388959E+01 -0.73002344801E+01  0.10824877779E+02  0.51100000000E-03 0. -1.
        -12    1    3    3    0    0  0.10570797931E+02  0.14539317916E+02  0.61153150850E+01  0.18987643691E+02  0.00000000000E+00 0.  1.
</event>
<event>
 7    1  0.3750159E-013  0.5930196E+02  0.7816164E-02  0.1266605E+00
        -11   -1    0    0    0    0  0.00000000000E+00  0.00000000000E+00  0.45593999997E+02  0.45594000000E+02  0.51100000000E-03 0. -1.
         11   -1    0    0    0    0 -0.00000000000E+00 -0.00000000000E+00 -0.45593999997E+02  0.45594000000E+02  0.51100000000E-03 0.  1.
    9900012    2    1    2    0    0  0.31549466509E+02  0.68138287753E+00  0.45701486276E+01  0.59301962646E+02  0.50000033956E+02 0.  0.
        -12    1    1    2    0    0 -0.31549466509E+02 -0.68138287753E+00 -0.45701486276E+01  0.31886037354E+02  0.00000000000E+00 0.  1.
         11    1    3    3    0    0  0.32849831543E+02  0.13413575199E+02  0.34509269840E+01  0.35650306160E+02  0.51100000000E-03 0. -1.
        -11    1    3    3    0    0  0.92029488991E+01 -0.75127214324E+01  0.12235739566E+00  0.11880665947E+02  0.51100000000E-03 0.  1.
        -12    1    3    3    0    0 -0.10503313933E+02 -0.52194708889E+01  0.99686424793E+00  0.11770990539E+02  0.00000000000E+00 0.  1.
</event>
<event>
 7    1  0.3750159E-013  0.5930198E+02  0.7816164E-02  0.1266605E+00
        -11   -1    0    0    0    0  0.00000000000E+00  0.00000000000E+00  0.45593999997E+02  0.45594000000E+02  0.51100000000E-03 0.  1.
         11   -1    0    0    0    0 -0.00000000000E+00 -0.00000000000E+00 -0.45593999997E+02  0.45594000000E+02  0.51100000000E-03 0. -1.
    9900012    2    1    2    0    0 -0.50107773357E+01 -0.29403587881E+02  0.11271188220E+02  0.59301975574E+02  0.50000057534E+02 0.  0.
        -12    1    1    2    0    0  0.50107773357E+01  0.29403587881E+02 -0.11271188220E+02  0.31886024426E+02  0.00000000000E+00 0.  1.
         11    1    3    3    0    0 -0.60791619276E+01 -0.86823795913E+01  0.16956094734E+02  0.19996226494E+02  0.51100000000E-03 0. -1.
        -11    1    3    3    0    0 -0.44095437723E+01 -0.10091311224E+02  0.13052433235E+02  0.17077606744E+02  0.51100000000E-03 0.  1.
         12    1    3    3    0    0  0.54779283642E+01 -0.10629897066E+02 -0.18737339750E+02  0.22228142336E+02  0.00000000000E+00 0. -1.
</event>
<event>
 7    1  0.3750159E-013  0.5930186E+02  0.7816164E-02  0.1266605E+00
        -11   -1    0    0    0    0  0.00000000000E+00  0.00000000000E+00  0.45593999997E+02  0.45594000000E+02  0.51100000000E-03 0.  1.
         11   -1    0    0    0    0 -0.00000000000E+00 -0.00000000000E+00 -0.45593999997E+02  0.45594000000E+02  0.51100000000E-03 0. -1.
    9900012    2    1    2    0    0 -0.22423878407E+02  0.18210508653E+02 -0.13500861080E+02  0.59301855703E+02  0.49999838917E+02 0.  0.
        -12    1    1    2    0    0  0.22423878407E+02 -0.18210508653E+02  0.13500861080E+02  0.31886144297E+02  0.00000000000E+00 0.  1.
         11    1    3    3    0    0 -0.44942030198E+01  0.53068328854E+01 -0.87647989550E+01  0.11188477870E+02  0.51100000000E-03 0. -1.
        -11    1    3    3    0    0 -0.15078004042E+02 -0.13807911477E+01 -0.21250488388E+02  0.26092835167E+02  0.51100000000E-03 0.  1.
         12    1    3    3    0    0 -0.28516713454E+01  0.14284466915E+02  0.16514426263E+02  0.22020542667E+02  0.00000000000E+00 0. -1.
</event>
<event>
 7    1  0.3750159E-013  0.5930219E+02  0.7816164E-02  0.1266604E+00
        -11   -1    0    0    0    0  0.00000000000E+00  0.00000000000E+00  0.45593999997E+02  0.45594000000E+02  0.51100000000E-03 0.  1.
         11   -1    0    0    0    0 -0.00000000000E+00 -0.00000000000E+00 -0.45593999997E+02  0.45594000000E+02  0.51100000000E-03 0. -1.
    9900012    2    1    2    0    0 -0.27103601082E+02 -0.13586493249E+02 -0.98745589057E+01  0.59302189613E+02  0.50000447887E+02 0.  0.
        -12    1    1    2    0    0  0.27103601082E+02  0.13586493249E+02  0.98745589057E+01  0.31885810387E+02  0.00000000000E+00 0.  1.
         11    1    3    3    0    0 -0.75528888323E+01  0.44731459101E+01 -0.24211111882E+01  0.91058741312E+01  0.51100000000E-03 0. -1.
        -11    1    3    3    0    0 -0.82348483024E+01  0.72879326559E+01  0.12017588268E+02  0.16289540110E+02  0.51100000000E-03 0.  1.
         12    1    3    3    0    0 -0.11315863947E+02 -0.25347571815E+02 -0.19471035985E+02  0.33906775372E+02  0.00000000000E+00 0. -1.
</event>
<event>
 7    1  0.3750159E-013  0.5930189E+02  0.7816164E-02  0.1266605E+00
        -11   -1    0    0    0    0  0.00000000000E+00  0.00000000000E+00  0.45593999997E+02  0.45594000000E+02  0.51100000000E-03 0.  1.
         11   -1    0    0    0    0 -0.00000000000E+00 -0.00000000000E+00 -0.45593999997E+02  0.45594000000E+02  0.51100000000E-03 0. -1.
    9900012    2    1    2    0    0 -0.12652012468E+01  0.88205209814E+01 -0.30615708959E+02  0.59301890804E+02  0.49999902933E+02 0.  0.
        -12    1    1    2    0    0  0.12652012468E+01 -0.88205209814E+01  0.30615708959E+02  0.31886109196E+02  0.00000000000E+00 0.  1.
         11    1    3    3    0    0  0.25255627586E+01  0.15809475632E+02 -0.20351515932E+01  0.16138767898E+02  0.51100000000E-03 0. -1.
        -11    1    3    3    0    0 -0.26692679460E+01  0.26321571309E+00  0.66530714211E+01  0.71733976241E+01  0.51100000000E-03 0.  1.
         12    1    3    3    0    0 -0.11214960594E+01 -0.72521703632E+01 -0.35233628787E+02  0.35989725282E+02  0.00000000000E+00 0. -1.
</event>
<event>
 7    1  0.3750159E-013  0.5930195E+02  0.7816164E-02  0.1266605E+00
        -11   -1    0    0    0    0  0.00000000000E+00  0.00000000000E+00  0.45593999997E+02  0.45594000000E+02  0.51100000000E-03 0.  1.
         11   -1    0    0    0    0 -0.00000000000E+00 -0.00000000000E+00 -0.45593999997E+02  0.45594000000E+02  0.51100000000E-03 0. -1.
    9900012    2    1    2    0    0  0.26543058159E+02  0.13851437993E+02 -0.10969227421E+02  0.59301949428E+02  0.50000009848E+02 0.  0.
        -12    1    1    2    0    0 -0.26543058159E+02 -0.13851437993E+02  0.10969227421E+02  0.31886050572E+02  0.00000000000E+00 0.  1.
         11    1    3    3    0    0 -0.51497588539E+01  0.76149948893E+01  0.56080323217E+01  0.10768388468E+02  0.51100000000E-03 0. -1.
        -11    1    3    3    0    0 -0.31996653587E+01  0.83625862415E+01  0.16580033411E+01  0.91060245110E+01  0.51100000000E-03 0.  1.
         12    1    3    3    0    0  0.34892482371E+02 -0.21261431375E+01 -0.18235263084E+02  0.39427536449E+02  0.00000000000E+00 0. -1.
</event>
<event>
 7    1  0.3750159E-013  0.5930198E+02  0.7816164E-02  0.1266605E+00
        -11   -1    0    0    0    0  0.00000000000E+00  0.00000000000E+00  0.45593999997E+02  0.45594000000E+02  0.51100000000E-03 0. -1.
         11   -1    0    0    0    0 -0.00000000000E+00 -0.00000000000E+00 -0.45593999997E+02  0.45594000000E+02  0.51100000000E-03 0.  1.
    9900012    2    1    2    0    0 -0.20541948471E+02 -0.15197944493E+02  0.19072727277E+02  0.59301982852E+02  0.50000070806E+02 0.  0.
        -12    1    1    2    0    0  0.20541948471E+02  0.15197944493E+02 -0.19072727277E+02  0.31886017148E+02  0.00000000000E+00 0.  1.
         11    1    3    3    0    0  0.30964599618E+01 -0.32919786747E+01  0.20335386543E+02  0.20831541805E+02  0.51100000000E-03 0. -1.
        -11    1    3    3    0    0  0.63277834770E+01 -0.38977241746E+01 -0.25258127775E+00  0.74361882060E+01  0.51100000000E-03 0.  1.
        -12    1    3    3    0    0 -0.29966191910E+02 -0.80082416439E+01 -0.10100779882E+01  0.31034252840E+02  0.00000000000E+00 0.  1.
</event>
<event>
 7    1  0.3750159E-013  0.5930194E+02  0.7816164E-02  0.1266605E+00
        -11   -1    0    0    0    0  0.00000000000E+00  0.00000000000E+00  0.45593999997E+02  0.45594000000E+02  0.51100000000E-03 0. -1.
         11   -1    0    0    0    0 -0.00000000000E+00 -0.00000000000E+00 -0.45593999997E+02  0.45594000000E+02  0.51100000000E-03 0.  1.
    9900012    2    1    2    0    0  0.17018606187E+02  0.25064634783E+02  0.99424266634E+01  0.59301941584E+02  0.49999995543E+02 0.  0.
        -12    1    1    2    0    0 -0.17018606187E+02 -0.25064634783E+02 -0.99424266634E+01  0.31886058416E+02  0.00000000000E+00 0.  1.
         11    1    3    3    0    0  0.78558934332E+01  0.14952270272E+02  0.12223393784E+02  0.20849383774E+02  0.51100000000E-03 0. -1.
        -11    1    3    3    0    0  0.32771365078E+01 -0.57305917945E+01  0.13690522867E+02  0.15199004002E+02  0.51100000000E-03 0.  1.
         12    1    3    3    0    0  0.58855762458E+01  0.15842956306E+02 -0.15971489988E+02  0.23253553808E+02  0.00000000000E+00 0. -1.
</event>
<event>
 7    1  0.3750159E-013  0.5930196E+02  0.7816164E-02  0.1266605E+00
        -11   -1    0    0    0    0  0.00000000000E+00  0.00000000000E+00  0.45593999997E+02  0.45594000000E+02  0.51100000000E-03 0.  1.
         11   -1    0    0    0    0 -0.00000000000E+00 -0.00000000000E+00 -0.45593999997E+02  0.45594000000E+02  0.51100000000E-03 0. -1.
    9900012    2    1    2    0    0 -0.90130561621E+01 -0.19810562981E+02 -0.23302913406E+02  0.59301962927E+02  0.50000034468E+02 0.  0.
        -12    1    1    2    0    0  0.90130561621E+01  0.19810562981E+02  0.23302913406E+02  0.31886037073E+02  0.00000000000E+00 0.  1.
         11    1    3    3    0    0  0.52050621625E+01 -0.51322119808E+01  0.57106131656E+01  0.92759568196E+01  0.51100000000E-03 0. -1.
        -11    1    3    3    0    0  0.21633390578E+01 -0.12174043004E+02  0.40755385762E+01  0.13019115711E+02  0.51100000000E-03 0.  1.
         12    1    3    3    0    0 -0.16381457382E+02 -0.25043079961E+01 -0.33089065148E+02  0.37006890397E+02  0.00000000000E+00 0. -1.
</event>
<event>
 7    1  0.3750159E-013  0.5930198E+02  0.7816164E-02  0.1266605E+00
        -11   -1    0    0    0    0  0.00000000000E+00  0.00000000000E+00  0.45593999997E+02  0.45594000000E+02  0.51100000000E-03 0.  1.
         11   -1    0    0    0    0 -0.00000000000E+00 -0.00000000000E+00 -0.45593999997E+02  0.45594000000E+02  0.51100000000E-03 0. -1.
    9900012    2    1    2    0    0 -0.29620114374E+02  0.72672733917E+01  0.93034402015E+01  0.59301977394E+02  0.50000060851E+02 0.  0.
        -12    1    1    2    0    0  0.29620114374E+02 -0.72672733917E+01 -0.93034402015E+01  0.31886022606E+02  0.00000000000E+00 0.  1.
         11    1    3    3    0    0 -0.32108802979E+01  0.23937830082E+01 -0.66731297043E+01  0.77827122323E+01  0.51100000000E-03 0. -1.
        -11    1    3    3    0    0  0.84833118034E+01 -0.33894420555E+01  0.12515664155E+02  0.15495055537E+02  0.51100000000E-03 0.  1.
         12    1    3    3    0    0 -0.34892545879E+02  0.82629324390E+01  0.34609057509E+01  0.36024209624E+02  0.00000000000E+00 0. -1.
</event>
<event>
 7    1  0.3750159E-013  0.5930194E+02  0.7816164E-02  0.1266605E+00
        -11   -1    0    0    0    0  0.00000000000E+00  0.00000000000E+00  0.45593999997E+02  0.45594000000E+02  0.51100000000E-03 0. -1.
         11   -1    0    0    0    0 -0.00000000000E+00 -0.00000000000E+00 -0.45593999997E+02  0.45594000000E+02  0.51100000000E-03 0.  1.
    9900012    2    1    2    0    0 -0.16624011161E+02 -0.27190359082E+02  0.10233870888E+01  0.59301941993E+02  0.49999996290E+02 0.  0.
        -12    1    1    2    0    0  0.16624011161E+02  0.27190359082E+02 -0.10233870888E+01  0.31886058007E+02  0.00000000000E+00 0.  1.
         11    1    3    3    0    0  0.48493838917E+01 -0.23195462544E+02  0.78329769218E+01  0.24957995401E+02  0.51100000000E-03 0. -1.
        -11    1    3    3    0    0 -0.75096079061E+01 -0.77531624603E+01  0.81595097374E+01  0.13530829186E+02  0.51100000000E-03 0.  1.
        -12    1    3    3    0    0 -0.13963787146E+02  0.37582659224E+01 -0.14969099570E+02  0.20813117406E+02  0.00000000000E+00 0.  1.
</event>
<event>
 7    1  0.3750159E-013  0.5930197E+02  0.7816164E-02  0.1266605E+00
        -11   -1    0    0    0    0  0.00000000000E+00  0.00000000000E+00  0.45593999997E+02  0.45594000000E+02  0.51100000000E-03 0.  1.
         11   -1    0    0    0    0 -0.00000000000E+00 -0.00000000000E+00 -0.45593999997E+02  0.45594000000E+02  0.51100000000E-03 0. -1.
    9900012    2    1    2    0    0 -0.52578029284E+01  0.14213620796E+02 -0.28054359827E+02  0.59301974643E+02  0.50000055834E+02 0.  0.
        -12    1    1    2    0    0  0.52578029284E+01 -0.14213620796E+02  0.28054359827E+02  0.31886025357E+02  0.00000000000E+00 0.  1.
         11    1    3    3    0    0 -0.17449109529E+02  0.56552043772E+01 -0.49306785991E+01  0.18993797715E+02  0.51100000000E-03 0. -1.
        -11    1    3    3    0    0 -0.95557122431E+01  0.62128194739E+00 -0.92786163701E+01  0.13333804773E+02  0.51100000000E-03 0.  1.
         12    1    3    3    0    0  0.21747018844E+02  0.79371344713E+01 -0.13845064858E+02  0.26974372155E+02  0.00000000000E+00 0. -1.
</event>
<event>
 7    1  0.3750159E-013  0.5930194E+02  0.7816164E-02  0.1266605E+00
        -11   -1    0    0    0    0  0.00000000000E+00  0.00000000000E+00  0.45593999997E+02  0.45594000000E+02  0.51100000000E-03 0. -1.
         11   -1    0    0    0    0 -0.00000000000E+00 -0.00000000000E+00 -0.45593999997E+02  0.45594000000E+02  0.51100000000E-03 0.  1.
    9900012    2    1    2    0    0 -0.14725885359E+02  0.17737054432E+02  0.22028760787E+02  0.59301935625E+02  0.49999984675E+02 0.  0.
        -12    1    1    2    0    0  0.14725885359E+02 -0.17737054432E+02 -0.22028760787E+02  0.31886064375E+02  0.00000000000E+00 0.  1.
         11    1    3    3    0    0 -0.69810532824E+00 -0.14365271622E+01  0.10846719241E+02  0.10963680034E+02  0.51100000000E-03 0. -1.
        -11    1    3    3    0    0  0.23530901962E+01 -0.10988839803E+02  0.81478262963E+01  0.13880875596E+02  0.51100000000E-03 0.  1.
        -12    1    3    3    0    0 -0.16380870227E+02  0.30162421397E+02  0.30342152500E+01  0.34457379995E+02  0.00000000000E+00 0.  1.
</event>
<event>
 7    1  0.3750159E-013  0.5930195E+02  0.7816164E-02  0.1266605E+00
        -11   -1    0    0    0    0  0.00000000000E+00  0.00000000000E+00  0.45593999997E+02  0.45594000000E+02  0.51100000000E-03 0.  1.
         11   -1    0    0    0    0 -0.00000000000E+00 -0.00000000000E+00 -0.45593999997E+02  0.45594000000E+02  0.51100000000E-03 0. -1.
    9900012    2    1    2    0    0  0.27619463159E+02 -0.15884630749E+02  0.12506226453E+01  0.59301948249E+02  0.50000007699E+02 0.  0.
        -12    1    1    2    0    0 -0.27619463159E+02  0.15884630749E+02 -0.12506226453E+01  0.31886051751E+02  0.00000000000E+00 0.  1.
         11    1    3    3    0    0  0.10078097043E+02 -0.46333949077E+01 -0.33438088391E+01  0.11585225340E+02  0.51100000000E-03 0. -1.
        -11    1    3    3    0    0  0.88813208773E+01 -0.49113294542E+01  0.23711938353E+02  0.25792538422E+02  0.51100000000E-03 0.  1.
         12    1    3    3    0    0  0.86600452393E+01 -0.63399063874E+01 -0.19117506868E+02  0.21924184487E+02  0.00000000000E+00 0. -1.
</event>
<event>
 7    1  0.3750159E-013  0.5930195E+02  0.7816164E-02  0.1266605E+00
        -11   -1    0    0    0    0  0.00000000000E+00  0.00000000000E+00  0.45593999997E+02  0.45594000000E+02  0.51100000000E-03 0. -1.
         11   -1    0    0    0    0 -0.00000000000E+00 -0.00000000000E+00 -0.45593999997E+02  0.45594000000E+02  0.51100000000E-03 0.  1.
    9900012    2    1    2    0    0 -0.18512524149E+02  0.23005359510E+02 -0.12031616054E+02  0.59301954441E+02  0.50000018991E+02 0.  0.
        -12    1    1    2    0    0  0.18512524149E+02 -0.23005359510E+02  0.12031616054E+02  0.31886045559E+02  0.00000000000E+00 0.  1.
         11    1    3    3    0    0 -0.10705815600E+02  0.39269717865E+01  0.54500106964E+01  0.12638758322E+02  0.51100000000E-03 0. -1.
        -11    1    3    3    0    0 -0.12717806027E+02  0.29040622255E+02 -0.98917690560E+01  0.33210652303E+02  0.51100000000E-03 0.  1.
        -12    1    3    3    0    0  0.49110974775E+01 -0.99622345313E+01 -0.75898576950E+01  0.13452543816E+02  0.00000000000E+00 0.  1.
</event>
<event>
 7    1  0.3750159E-013  0.5930193E+02  0.7816164E-02  0.1266605E+00
        -11   -1    0    0    0    0  0.00000000000E+00  0.00000000000E+00  0.45593999997E+02  0.45594000000E+02  0.51100000000E-03 0.  1.
         11   -1    0    0    0    0 -0.00000000000E+00 -0.00000000000E+00 -0.45593999997E+02  0.45594000000E+02  0.51100000000E-03 0. -1.
    9900012    2    1    2    0    0 -0.18528841674E+02  0.24518981936E+02 -0.84984256706E+01  0.59301926428E+02  0.49999967903E+02 0.  0.
        -12    1    1    2    0    0  0.18528841674E+02 -0.24518981936E+02  0.84984256706E+01  0.31886073572E+02  0.00000000000E+00 0.  1.
         11    1    3    3    0    0 -0.26184099332E+01 -0.45196805651E+01 -0.45828809151E+01  0.69488402437E+01  0.51100000000E-03 0. -1.
        -11    1    3    3    0    0  0.58361543001E+01 -0.53842645241E+01 -0.81964186191E+01  0.11411935853E+02  0.51100000000E-03 0.  1.
         12    1    3    3    0    0 -0.21746586041E+02  0.34422927025E+02  0.42808738636E+01  0.40941150331E+02  0.00000000000E+00 0. -1.
</event>
<event>
 7    1  0.3750159E-013  0.5930198E+02  0.7816164E-02  0.1266605E+00
        -11   -1    0    0    0    0  0.00000000000E+00  0.00000000000E+00  0.45593999997E+02  0.45594000000E+02  0.51100000000E-03 0.  1.
         11   -1    0    0    0    0 -0.00000000000E+00 -0.00000000000E+00 -0.45593999997E+02  0.45594000000E+02  0.51100000000E-03 0. -1.
    9900012    2    1    2    0    0  0.25600304047E+02 -0.17718819416E+02  0.68837403503E+01  0.59301984099E+02  0.50000073081E+02 0.  0.
        -12    1    1    2    0    0 -0.25600304047E+02  0.17718819416E+02 -0.68837403503E+01  0.31886015901E+02  0.00000000000E+00 0.  1.
         11    1    3    3    0    0  0.13262280393E+01 -0.13979168809E+02  0.19481340252E+02  0.24014550999E+02  0.51100000000E-03 0. -1.
        -11    1    3    3    0    0 -0.39829887598E+01 -0.22971145689E+01 -0.25813072209E+01  0.52729576172E+01  0.51100000000E-03 0.  1.
        -12    1    3    3    0    0  0.28257064767E+02 -0.14425360382E+01 -0.10016292680E+02  0.30014475483E+02  0.00000000000E+00 0.  1.
</event>
<event>
 7    1  0.3750159E-013  0.5930194E+02  0.7816164E-02  0.1266605E+00
        -11   -1    0    0    0    0  0.00000000000E+00  0.00000000000E+00  0.45593999997E+02  0.45594000000E+02  0.51100000000E-03 0.  1.
         11   -1    0    0    0    0 -0.00000000000E+00 -0.00000000000E+00 -0.45593999997E+02  0.45594000000E+02  0.51100000000E-03 0. -1.
    9900012    2    1    2    0    0 -0.20486307709E+02 -0.14272044922E+02 -0.19832816711E+02  0.59301942099E+02  0.49999996482E+02 0.  0.
        -12    1    1    2    0    0  0.20486307709E+02  0.14272044922E+02  0.19832816711E+02  0.31886057901E+02  0.00000000000E+00 0.  1.
         11    1    3    3    0    0 -0.22309656688E+02  0.29337152053E+00 -0.65106043313E+01  0.23242091502E+02  0.51100000000E-03 0. -1.
        -11    1    3    3    0    0  0.22976802838E+01  0.49854322809E+01  0.63000948370E+01  0.83561393556E+01  0.51100000000E-03 0.  1.
        -12    1    3    3    0    0 -0.47433130496E+00 -0.19550848724E+02 -0.19622307216E+02  0.27703711241E+02  0.00000000000E+00 0.  1.
</event>
<event>
 7    1  0.3750159E-013  0.5930198E+02  0.7816164E-02  0.1266605E+00
        -11   -1    0    0    0    0  0.00000000000E+00  0.00000000000E+00  0.45593999997E+02  0.45594000000E+02  0.51100000000E-03 0.  1.
         11   -1    0    0    0    0 -0.00000000000E+00 -0.00000000000E+00 -0.45593999997E+02  0.45594000000E+02  0.51100000000E-03 0. -1.
    9900012    2    1    2    0    0 -0.22539183658E+02  0.36136291330E+01 -0.22263090684E+02  0.59301979203E+02  0.50000064151E+02 0.  0.
        -12    1    1    2    0    0  0.22539183658E+02 -0.36136291330E+01  0.22263090684E+02  0.31886020797E+02  0.00000000000E+00 0.  1.
         11    1    3    3    0    0 -0.35346625475E+01 -0.45344792371E+01  0.49719036410E+01  0.76009977867E+01  0.51100000000E-03 0. -1.
        -11    1    3    3    0    0 -0.20458954219E+01  0.12043205524E+01  0.99588060716E+01  0.10237865730E+02  0.51100000000E-03 0.  1.
         12    1    3    3    0    0 -0.16958625688E+02  0.69437878177E+01 -0.37193800397E+02  0.41463115686E+02  0.00000000000E+00 0. -1.
</event>
<event>
 7    1  0.3750159E-013  0.5930197E+02  0.7816164E-02  0.1266605E+00
        -11   -1    0    0    0    0  0.00000000000E+00  0.00000000000E+00  0.45593999997E+02  0.45594000000E+02  0.51100000000E-03 0.  1.
         11   -1    0    0    0    0 -0.00000000000E+00 -0.00000000000E+00 -0.45593999997E+02  0.45594000000E+02  0.51100000000E-03 0. -1.
    9900012    2    1    2    0    0  0.51161545679E+01 -0.30464621081E+02 -0.79025839336E+01  0.59301968450E+02  0.50000044541E+02 0.  0.
        -12    1    1    2    0    0 -0.51161545679E+01  0.30464621081E+02  0.79025839336E+01  0.31886031550E+02  0.00000000000E+00 0.  1.
         11    1    3    3    0    0 -0.27568204651E+01 -0.72402074714E+01 -0.38964728539E+01  0.86719757996E+01  0.51100000000E-03 0. -1.
        -11    1    3    3    0    0  0.57648054745E+01 -0.31343412780E+01  0.18948630591E+02  0.20052622745E+02  0.51100000000E-03 0.  1.
         12    1    3    3    0    0  0.21081695585E+01 -0.20090072331E+02 -0.22954741671E+02  0.30577369906E+02  0.00000000000E+00 0. -1.
</event>
<event>
 7    1  0.3750159E-013  0.5930194E+02  0.7816164E-02  0.1266605E+00
        -11   -1    0    0    0    0  0.00000000000E+00  0.00000000000E+00  0.45593999997E+02  0.45594000000E+02  0.51100000000E-03 0.  1.
         11   -1    0    0    0    0 -0.00000000000E+00 -0.00000000000E+00 -0.45593999997E+02  0.45594000000E+02  0.51100000000E-03 0. -1.
    9900012    2    1    2    0    0  0.59107138307E+01 -0.17535165821E+01 -0.31284327619E+02  0.59301944851E+02  0.50000001502E+02 0.  0.
        -12    1    1    2    0    0 -0.59107138307E+01  0.17535165821E+01  0.31284327619E+02  0.31886055149E+02  0.00000000000E+00 0.  1.
         11    1    3    3    0    0 -0.27965620652E+01 -0.98709258756E+01 -0.16306808284E+02  0.19265719133E+02  0.51100000000E-03 0. -1.
        -11    1    3    3    0    0 -0.89739297321E+01  0.61725305285E+01 -0.18906686862E+02  0.21819586530E+02  0.51100000000E-03 0.  1.
        -12    1    3    3    0    0  0.17681205628E+02  0.19448787650E+01  0.39291675275E+01  0.18216639189E+02  0.00000000000E+00 0.  1.
</event>
<event>
 7    1  0.3750159E-013  0.5930196E+02  0.7816164E-02  0.1266605E+00
        -11   -1    0    0    0    0  0.00000000000E+00  0.00000000000E+00  0.45593999997E+02  0.45594000000E+02  0.51100000000E-03 0.  1.
         11   -1    0    0    0    0 -0.00000000000E+00 -0.00000000000E+00 -0.45593999997E+02  0.45594000000E+02  0.51100000000E-03 0. -1.
    9900012    2    1    2    0    0 -0.16118407772E+02 -0.23791712771E+02 -0.13815602092E+02  0.59301960314E+02  0.50000029703E+02 0.  0.
        -12    1    1    2    0    0  0.16118407772E+02  0.23791712771E+02  0.13815602092E+02  0.31886039686E+02  0.00000000000E+00 0.  1.
         11    1    3    3    0    0  0.46659839234E+01 -0.14267146213E+02 -0.19040039628E+02  0.24245535184E+02  0.51100000000E-03 0. -1.
        -11    1    3    3    0    0 -0.20080999756E+02 -0.15188636686E+02 -0.26650541299E+01  0.25318841786E+02  0.51100000000E-03 0.  1.
        -12    1    3    3    0    0 -0.70339193945E+00  0.56640701281E+01  0.78894916667E+01  0.97375833447E+01  0.00000000000E+00 0.  1.
</event>
<event>
 7    1  0.3750159E-013  0.5930195E+02  0.7816164E-02  0.1266605E+00
        -11   -1    0    0    0    0  0.00000000000E+00  0.00000000000E+00  0.45593999997E+02  0.45594000000E+02  0.51100000000E-03 0.  1.
         11   -1    0    0    0    0 -0.00000000000E+00 -0.00000000000E+00 -0.45593999997E+02  0.45594000000E+02  0.51100000000E-03 0. -1.
    9900012    2    1    2    0    0  0.13891456591E+01  0.31559285407E+02 -0.43361417771E+01  0.59301947460E+02  0.50000006260E+02 0.  0.
        -12    1    1    2    0    0 -0.13891456591E+01 -0.31559285407E+02  0.43361417771E+01  0.31886052540E+02  0.00000000000E+00 0.  1.
         11    1    3    3    0    0  0.57761069035E+01  0.53691162431E+01  0.11654917113E+02  0.14072239103E+02  0.51100000000E-03 0. -1.
        -11    1    3    3    0    0 -0.40917823256E+00 -0.64856345760E+00 -0.18006711480E+02  0.18023033041E+02  0.51100000000E-03 0.  1.
         12    1    3    3    0    0 -0.39777830119E+01  0.26838732621E+02  0.20156525897E+01  0.27206675317E+02  0.00000000000E+00 0. -1.
</event>
<event>
 7    1  0.3750159E-013  0.5930198E+02  0.7816164E-02  0.1266605E+00
        -11   -1    0    0    0    0  0.00000000000E+00  0.00000000000E+00  0.45593999997E+02  0.45594000000E+02  0.51100000000E-03 0.  1.
         11   -1    0    0    0    0 -0.00000000000E+00 -0.00000000000E+00 -0.45593999997E+02  0.45594000000E+02  0.51100000000E-03 0. -1.
    9900012    2    1    2    0    0 -0.11060324265E+02 -0.21915185967E+02 -0.20349738460E+02  0.59301984190E+02  0.50000073247E+02 0.  0.
        -12    1    1    2    0    0  0.11060324265E+02  0.21915185967E+02  0.20349738460E+02  0.31886015810E+02  0.00000000000E+00 0.  1.
         11    1    3    3    0    0 -0.10311260117E+02 -0.16813075189E+02 -0.10177475536E+01  0.19749364366E+02  0.51100000000E-03 0. -1.
        -11    1    3    3    0    0 -0.92124690357E+01 -0.12262433463E+02  0.20438778173E+01  0.15473018354E+02  0.51100000000E-03 0.  1.
        -12    1    3    3    0    0  0.84634048882E+01  0.71603226854E+01 -0.21375868724E+02  0.24079601470E+02  0.00000000000E+00 0.  1.
</event>
<event>
 7    1  0.3750159E-013  0.5930200E+02  0.7816164E-02  0.1266605E+00
        -11   -1    0    0    0    0  0.00000000000E+00  0.00000000000E+00  0.45593999997E+02  0.45594000000E+02  0.51100000000E-03 0.  1.
         11   -1    0    0    0    0 -0.00000000000E+00 -0.00000000000E+00 -0.45593999997E+02  0.45594000000E+02  0.51100000000E-03 0. -1.
    9900012    2    1    2    0    0 -0.13242681250E+02  0.11023213694E+02 -0.26829781607E+02  0.59301999500E+02  0.50000101167E+02 0.  0.
        -12    1    1    2    0    0  0.13242681250E+02 -0.11023213694E+02  0.26829781607E+02  0.31886000500E+02  0.00000000000E+00 0.  1.
         11    1    3    3    0    0  0.93243976320E+01 -0.28338342347E+00 -0.87086575920E+01  0.12761873478E+02  0.51100000000E-03 0. -1.
        -11    1    3    3    0    0  0.79547142896E+01 -0.52936651776E+00 -0.10041480558E+02  0.12821428953E+02  0.51100000000E-03 0.  1.
        -12    1    3    3    0    0 -0.30521793171E+02  0.11835963635E+02 -0.80796434572E+01  0.33718697068E+02  0.00000000000E+00 0.  1.
</event>
<event>
 7    1  0.3750159E-013  0.5930195E+02  0.7816164E-02  0.1266605E+00
        -11   -1    0    0    0    0  0.00000000000E+00  0.00000000000E+00  0.45593999997E+02  0.45594000000E+02  0.51100000000E-03 0.  1.
         11   -1    0    0    0    0 -0.00000000000E+00 -0.00000000000E+00 -0.45593999997E+02  0.45594000000E+02  0.51100000000E-03 0. -1.
    9900012    2    1    2    0    0  0.73751703706E+01 -0.29661673644E+02 -0.90836350042E+01  0.59301945898E+02  0.50000003410E+02 0.  0.
        -12    1    1    2    0    0 -0.73751703706E+01  0.29661673644E+02  0.90836350042E+01  0.31886054102E+02  0.00000000000E+00 0.  1.
         11    1    3    3    0    0 -0.92599511765E+01 -0.10353593576E+02 -0.21919622729E+01  0.14062300473E+02  0.51100000000E-03 0. -1.
        -11    1    3    3    0    0 -0.93425205997E+01 -0.90670762095E+01  0.61761809509E+01  0.14409711085E+02  0.51100000000E-03 0.  1.
        -12    1    3    3    0    0  0.25977642147E+02 -0.10241003858E+02 -0.13067853682E+02  0.30829934340E+02  0.00000000000E+00 0.  1.
</event>
<event>
 7    1  0.3750159E-013  0.5930191E+02  0.7816164E-02  0.1266605E+00
        -11   -1    0    0    0    0  0.00000000000E+00  0.00000000000E+00  0.45593999997E+02  0.45594000000E+02  0.51100000000E-03 0.  1.
         11   -1    0    0    0    0 -0.00000000000E+00 -0.00000000000E+00 -0.45593999997E+02  0.45594000000E+02  0.51100000000E-03 0. -1.
    9900012    2    1    2    0    0 -0.88369482633E+01 -0.20947778869E+02 -0.22356684314E+02  0.59301914827E+02  0.49999946744E+02 0.  0.
        -12    1    1    2    0    0  0.88369482633E+01  0.20947778869E+02  0.22356684314E+02  0.31886085173E+02  0.00000000000E+00 0.  1.
         11    1    3    3    0    0 -0.90797541304E-01 -0.63199131122E+01 -0.14310360785E+02  0.15644039504E+02  0.51100000000E-03 0. -1.
        -11    1    3    3    0    0  0.76882635094E+01 -0.16204980757E+02  0.88790742750E+01  0.20013714232E+02  0.51100000000E-03 0.  1.
         12    1    3    3    0    0 -0.16434414231E+02  0.15771149999E+01 -0.16925397805E+02  0.23644161091E+02  0.00000000000E+00 0. -1.
</event>
<event>
 7    1  0.3750159E-013  0.5930193E+02  0.7816164E-02  0.1266605E+00
        -11   -1    0    0    0    0  0.00000000000E+00  0.00000000000E+00  0.45593999997E+02  0.45594000000E+02  0.51100000000E-03 0. -1.
         11   -1    0    0    0    0 -0.00000000000E+00 -0.00000000000E+00 -0.45593999997E+02  0.45594000000E+02  0.51100000000E-03 0.  1.
    9900012    2    1    2    0    0 -0.25191264848E+02  0.91869188388E+01 -0.17254622932E+02  0.59301932276E+02  0.49999978568E+02 0.  0.
        -12    1    1    2    0    0  0.25191264848E+02 -0.91869188388E+01  0.17254622932E+02  0.31886067724E+02  0.00000000000E+00 0.  1.
         11    1    3    3    0    0 -0.17380122663E+02  0.61504533599E+01 -0.60054919851E+01  0.19389756949E+02  0.51100000000E-03 0. -1.
        -11    1    3    3    0    0 -0.52952859586E+01 -0.15889378767E+02 -0.12317124022E+02  0.20789996523E+02  0.51100000000E-03 0.  1.
         12    1    3    3    0    0 -0.25158562264E+01  0.18925844246E+02  0.10679930758E+01  0.19122178804E+02  0.00000000000E+00 0. -1.
</event>
<event>
 7    1  0.3750159E-013  0.5930195E+02  0.7816164E-02  0.1266605E+00
        -11   -1    0    0    0    0  0.00000000000E+00  0.00000000000E+00  0.45593999997E+02  0.45594000000E+02  0.51100000000E-03 0. -1.
         11   -1    0    0    0    0 -0.00000000000E+00 -0.00000000000E+00 -0.45593999997E+02  0.45594000000E+02  0.51100000000E-03 0.  1.
    9900012    2    1    2    0    0  0.21656095605E+01  0.29581251663E+02  0.11703841408E+02  0.59301949470E+02  0.50000009925E+02 0.  0.
        -12    1    1    2    0    0 -0.21656095605E+01 -0.29581251663E+02 -0.11703841408E+02  0.31886050530E+02  0.00000000000E+00 0.  1.
         11    1    3    3    0    0 -0.83315181693E+01  0.91391098510E+01 -0.61478734881E+01  0.13810643452E+02  0.51100000000E-03 0. -1.
        -11    1    3    3    0    0  0.15757688193E+02  0.12822083566E+02 -0.49255435960E+01  0.20903864336E+02  0.51100000000E-03 0.  1.
         12    1    3    3    0    0 -0.52605604636E+01  0.76200582461E+01  0.22777258492E+02  0.24587441682E+02  0.00000000000E+00 0. -1.
</event>
<event>
 7    1  0.3750159E-013  0.5930200E+02  0.7816164E-02  0.1266605E+00
        -11   -1    0    0    0    0  0.00000000000E+00  0.00000000000E+00  0.45593999997E+02  0.45594000000E+02  0.51100000000E-03 0. -1.
         11   -1    0    0    0    0 -0.00000000000E+00 -0.00000000000E+00 -0.45593999997E+02  0.45594000000E+02  0.51100000000E-03 0.  1.
    9900012    2    1    2    0    0 -0.24009658855E+01  0.17708530398E+02  0.26407580760E+02  0.59301999817E+02  0.50000101747E+02 0.  0.
        -12    1    1    2    0    0  0.24009658855E+01 -0.17708530398E+02 -0.26407580760E+02  0.31886000183E+02  0.00000000000E+00 0.  1.
         11    1    3    3    0    0  0.92902812388E+01  0.25823212416E+02  0.10955541541E+02  0.29549475726E+02  0.51100000000E-03 0. -1.
        -11    1    3    3    0    0 -0.63503838120E-01  0.61588410410E+01  0.77484189872E+00  0.62077158387E+01  0.51100000000E-03 0.  1.
        -12    1    3    3    0    0 -0.11627743286E+02 -0.14273523059E+02  0.14677197321E+02  0.23544808253E+02  0.00000000000E+00 0.  1.
</event>
<event>
 7    1  0.3750159E-013  0.5930197E+02  0.7816164E-02  0.1266605E+00
        -11   -1    0    0    0    0  0.00000000000E+00  0.00000000000E+00  0.45593999997E+02  0.45594000000E+02  0.51100000000E-03 0.  1.
         11   -1    0    0    0    0 -0.00000000000E+00 -0.00000000000E+00 -0.45593999997E+02  0.45594000000E+02  0.51100000000E-03 0. -1.
    9900012    2    1    2    0    0 -0.31803734677E+02  0.81363541311E+00  0.21399515986E+01  0.59301969597E+02  0.50000046632E+02 0.  0.
        -12    1    1    2    0    0  0.31803734677E+02 -0.81363541311E+00 -0.21399515986E+01  0.31886030403E+02  0.00000000000E+00 0.  1.
         11    1    3    3    0    0 -0.44398701424E+01  0.83469252848E+01 -0.10168953642E+01  0.95088214325E+01  0.51100000000E-03 0. -1.
        -11    1    3    3    0    0 -0.85359423826E+01 -0.19002380845E+02 -0.11035283996E+02  0.23573932283E+02  0.51100000000E-03 0.  1.
         12    1    3    3    0    0 -0.18827922152E+02  0.11469090973E+02  0.14192130958E+02  0.26219215882E+02  0.00000000000E+00 0. -1.
</event>
<event>
 7    1  0.3750159E-013  0.5930199E+02  0.7816164E-02  0.1266605E+00
        -11   -1    0    0    0    0  0.00000000000E+00  0.00000000000E+00  0.45593999997E+02  0.45594000000E+02  0.51100000000E-03 0.  1.
         11   -1    0    0    0    0 -0.00000000000E+00 -0.00000000000E+00 -0.45593999997E+02  0.45594000000E+02  0.51100000000E-03 0. -1.
    9900012    2    1    2    0    0 -0.61693400735E+01  0.12901437897E+02 -0.28499291072E+02  0.59301992907E+02  0.50000089143E+02 0.  0.
        -12    1    1    2    0    0  0.61693400735E+01 -0.12901437897E+02  0.28499291072E+02  0.31886007093E+02  0.00000000000E+00 0.  1.
         11    1    3    3    0    0 -0.82043815271E+01  0.16472019606E+02 -0.45008782683E+01  0.18944582645E+02  0.51100000000E-03 0. -1.
        -11    1    3    3    0    0  0.90925162841E+01  0.69866098230E+01  0.17959592905E+01  0.11606551565E+02  0.51100000000E-03 0.  1.
        -12    1    3    3    0    0 -0.70574748305E+01 -0.10557191532E+02 -0.25794372095E+02  0.28750858697E+02  0.00000000000E+00 0.  1.
</event>
<event>
 7    1  0.3750159E-013  0.5930195E+02  0.7816164E-02  0.1266605E+00
        -11   -1    0    0    0    0  0.00000000000E+00  0.00000000000E+00  0.45593999997E+02  0.45594000000E+02  0.51100000000E-03 0. -1.
         11   -1    0    0    0    0 -0.00000000000E+00 -0.00000000000E+00 -0.45593999997E+02  0.45594000000E+02  0.51100000000E-03 0.  1.
    9900012    2    1    2    0    0 -0.24596447097E+02  0.65906566323E+01  0.19191099825E+02  0.59301948549E+02  0.50000008246E+02 0.  0.
        -12    1    1    2    0    0  0.24596447097E+02 -0.65906566323E+01 -0.19191099825E+02  0.31886051451E+02  0.00000000000E+00 0.  1.
         11    1    3    3    0    0 -0.34047687902E+01  0.66738679603E+01  0.22321891743E+02  0.23545696322E+02  0.51100000000E-03 0. -1.
        -11    1    3    3    0    0 -0.24414623702E+02  0.23849095153E+01  0.64383496843E+01  0.25361663803E+02  0.51100000000E-03 0.  1.
        -12    1    3    3    0    0  0.32229453958E+01 -0.24681208433E+01 -0.95691416016E+01  0.10394588424E+02  0.00000000000E+00 0.  1.
</event>
<event>
 7    1  0.3750159E-013  0.5930195E+02  0.7816164E-02  0.1266605E+00
        -11   -1    0    0    0    0  0.00000000000E+00  0.00000000000E+00  0.45593999997E+02  0.45594000000E+02  0.51100000000E-03 0.  1.
         11   -1    0    0    0    0 -0.00000000000E+00 -0.00000000000E+00 -0.45593999997E+02  0.45594000000E+02  0.51100000000E-03 0. -1.
    9900012    2    1    2    0    0  0.20935574876E+02 -0.17817700500E+02 -0.16153985932E+02  0.59301952770E+02  0.50000015943E+02 0.  0.
        -12    1    1    2    0    0 -0.20935574876E+02  0.17817700500E+02  0.16153985932E+02  0.31886047230E+02  0.00000000000E+00 0.  1.
         11    1    3    3    0    0 -0.36604373210E+01 -0.89400809022E+01 -0.97682753426E+01  0.13738378774E+02  0.51100000000E-03 0. -1.
        -11    1    3    3    0    0 -0.38502656980E+01 -0.37554111487E+01 -0.14563729002E+02  0.15525136442E+02  0.51100000000E-03 0.  1.
        -12    1    3    3    0    0  0.28446277895E+02 -0.51222084489E+01  0.81780184125E+01  0.30038437553E+02  0.00000000000E+00 0.  1.
</event>
<event>
 7    1  0.3750159E-013  0.5930193E+02  0.7816164E-02  0.1266605E+00
        -11   -1    0    0    0    0  0.00000000000E+00  0.00000000000E+00  0.45593999997E+02  0.45594000000E+02  0.51100000000E-03 0.  1.
         11   -1    0    0    0    0 -0.00000000000E+00 -0.00000000000E+00 -0.45593999997E+02  0.45594000000E+02  0.51100000000E-03 0. -1.
    9900012    2    1    2    0    0 -0.15507598922E+02 -0.24306649953E+02 -0.13616987797E+02  0.59301933875E+02  0.49999981483E+02 0.  0.
        -12    1    1    2    0    0  0.15507598922E+02  0.24306649953E+02  0.13616987797E+02  0.31886066125E+02  0.00000000000E+00 0.  1.
         11    1    3    3    0    0  0.86616825893E+01 -0.20569521627E+02  0.32901950577E+01  0.22560038764E+02  0.51100000000E-03 0.  1.
        -11    1    3    3    0    0 -0.11910714023E+02 -0.12422528878E+02 -0.11829057245E+02  0.20883269089E+02  0.51100000000E-03 0. -1.
         12    1    3    3    0    0 -0.12258567488E+02  0.86854005518E+01 -0.50781256096E+01  0.15858626022E+02  0.00000000000E+00 0. -1.
</event>
<event>
 7    1  0.3750159E-013  0.5930195E+02  0.7816164E-02  0.1266605E+00
        -11   -1    0    0    0    0  0.00000000000E+00  0.00000000000E+00  0.45593999997E+02  0.45594000000E+02  0.51100000000E-03 0. -1.
         11   -1    0    0    0    0 -0.00000000000E+00 -0.00000000000E+00 -0.45593999997E+02  0.45594000000E+02  0.51100000000E-03 0.  1.
    9900012    2    1    2    0    0  0.10965144578E+02  0.74676028065E+01  0.28995184081E+02  0.59301949960E+02  0.50000010818E+02 0.  0.
        -12    1    1    2    0    0 -0.10965144578E+02 -0.74676028065E+01 -0.28995184081E+02  0.31886050040E+02  0.00000000000E+00 0.  1.
         11    1    3    3    0    0 -0.78671319924E+01  0.29891560940E+01 -0.47218310365E+01  0.96500004424E+01  0.51100000000E-03 0. -1.
        -11    1    3    3    0    0  0.78497998289E+01  0.13890522673E+01 -0.49186332568E+01  0.93670580724E+01  0.51100000000E-03 0.  1.
         12    1    3    3    0    0  0.10982476742E+02  0.30893944451E+01  0.38635648374E+02  0.40284891445E+02  0.00000000000E+00 0. -1.
</event>
<event>
 7    1  0.3750159E-013  0.5930196E+02  0.7816164E-02  0.1266605E+00
        -11   -1    0    0    0    0  0.00000000000E+00  0.00000000000E+00  0.45593999997E+02  0.45594000000E+02  0.51100000000E-03 0.  1.
         11   -1    0    0    0    0 -0.00000000000E+00 -0.00000000000E+00 -0.45593999997E+02  0.45594000000E+02  0.51100000000E-03 0. -1.
    9900012    2    1    2    0    0  0.17720571208E+02 -0.23181587553E+02 -0.12857486028E+02  0.59301959286E+02  0.50000027828E+02 0.  0.
        -12    1    1    2    0    0 -0.17720571208E+02  0.23181587553E+02  0.12857486028E+02  0.31886040714E+02  0.00000000000E+00 0.  1.
         11    1    3    3    0    0  0.64498740821E+01 -0.26211825955E+02 -0.16683450272E+02  0.31733235082E+02  0.51100000000E-03 0. -1.
        -11    1    3    3    0    0 -0.60327317885E+01 -0.51648594647E+01  0.27060934641E+01  0.83900279034E+01  0.51100000000E-03 0.  1.
        -12    1    3    3    0    0  0.17303428914E+02  0.81950978661E+01  0.11198707794E+01  0.19178696301E+02  0.00000000000E+00 0.  1.
</event>
<event>
 7    1  0.3750159E-013  0.5930193E+02  0.7816164E-02  0.1266605E+00
        -11   -1    0    0    0    0  0.00000000000E+00  0.00000000000E+00  0.45593999997E+02  0.45594000000E+02  0.51100000000E-03 0. -1.
         11   -1    0    0    0    0 -0.00000000000E+00 -0.00000000000E+00 -0.45593999997E+02  0.45594000000E+02  0.51100000000E-03 0.  1.
    9900012    2    1    2    0    0  0.18699748143E+02 -0.40725070527E+00  0.25823917494E+02  0.59301934885E+02  0.49999983326E+02 0.  0.
        -12    1    1    2    0    0 -0.18699748143E+02  0.40725070527E+00 -0.25823917494E+02  0.31886065115E+02  0.00000000000E+00 0.  1.
         11    1    3    3    0    0  0.16494191385E+02  0.16490169459E+00 -0.43989596800E+01  0.17071508092E+02  0.51100000000E-03 0. -1.
        -11    1    3    3    0    0 -0.56976658629E+01 -0.37281349875E+01 -0.33551750705E+01  0.75907566675E+01  0.51100000000E-03 0.  1.
         12    1    3    3    0    0  0.79032226214E+01  0.31559825876E+01  0.33578052244E+02  0.34639670126E+02  0.00000000000E+00 0. -1.
</event>
<event>
 7    1  0.3750159E-013  0.5930195E+02  0.7816164E-02  0.1266605E+00
        -11   -1    0    0    0    0  0.00000000000E+00  0.00000000000E+00  0.45593999997E+02  0.45594000000E+02  0.51100000000E-03 0.  1.
         11   -1    0    0    0    0 -0.00000000000E+00 -0.00000000000E+00 -0.45593999997E+02  0.45594000000E+02  0.51100000000E-03 0. -1.
    9900012    2    1    2    0    0 -0.25161750437E+01 -0.19843594834E+02 -0.24831855364E+02  0.59301946096E+02  0.50000003772E+02 0.  0.
        -12    1    1    2    0    0  0.25161750437E+01  0.19843594834E+02  0.24831855364E+02  0.31886053904E+02  0.00000000000E+00 0.  1.
         11    1    3    3    0    0  0.11052680644E+00 -0.23972598601E+01 -0.15577455583E+02  0.15761224372E+02  0.51100000000E-03 0. -1.
        -11    1    3    3    0    0  0.63785664562E+01 -0.53232789439E+01 -0.22166009078E+02  0.23671826449E+02  0.51100000000E-03 0.  1.
        -12    1    3    3    0    0 -0.90052683064E+01 -0.12123056030E+02  0.12911609297E+02  0.19868895274E+02  0.00000000000E+00 0.  1.
</event>
<event>
 7    1  0.3750159E-013  0.5930195E+02  0.7816164E-02  0.1266605E+00
        -11   -1    0    0    0    0  0.00000000000E+00  0.00000000000E+00  0.45593999997E+02  0.45594000000E+02  0.51100000000E-03 0.  1.
         11   -1    0    0    0    0 -0.00000000000E+00 -0.00000000000E+00 -0.45593999997E+02  0.45594000000E+02  0.51100000000E-03 0. -1.
    9900012    2    1    2    0    0  0.26363471772E+02  0.10070948876E+02 -0.14841282401E+02  0.59301947901E+02  0.50000007064E+02 0.  0.
        -12    1    1    2    0    0 -0.26363471772E+02 -0.10070948876E+02  0.14841282401E+02  0.31886052099E+02  0.00000000000E+00 0.  1.
         11    1    3    3    0    0 -0.41205142499E+01 -0.10650358013E+02  0.37729442721E+01  0.12026798088E+02  0.51100000000E-03 0. -1.
        -11    1    3    3    0    0  0.23542219751E+01 -0.31060549697E+01  0.26537805891E+01  0.47151341719E+01  0.51100000000E-03 0.  1.
         12    1    3    3    0    0  0.28129764047E+02  0.23827361859E+02 -0.21268007262E+02  0.42560015642E+02  0.00000000000E+00 0. -1.
</event>
<event>
 7    1  0.3750159E-013  0.5930195E+02  0.7816164E-02  0.1266605E+00
        -11   -1    0    0    0    0  0.00000000000E+00  0.00000000000E+00  0.45593999997E+02  0.45594000000E+02  0.51100000000E-03 0. -1.
         11   -1    0    0    0    0 -0.00000000000E+00 -0.00000000000E+00 -0.45593999997E+02  0.45594000000E+02  0.51100000000E-03 0.  1.
    9900012    2    1    2    0    0 -0.26768699228E+02  0.16948375854E+02  0.35930030284E+01  0.59301947043E+02  0.50000005499E+02 0.  0.
        -12    1    1    2    0    0  0.26768699228E+02 -0.16948375854E+02 -0.35930030284E+01  0.31886052957E+02  0.00000000000E+00 0.  1.
         11    1    3    3    0    0 -0.22107140394E+02  0.13379084776E+02  0.25914911464E+01  0.25970009481E+02  0.51100000000E-03 0. -1.
        -11    1    3    3    0    0 -0.10776235534E+02 -0.79727672021E+01  0.10627330067E+02  0.17106502090E+02  0.51100000000E-03 0.  1.
        -12    1    3    3    0    0  0.61146767006E+01  0.11542058280E+02 -0.96258181849E+01  0.16225435471E+02  0.00000000000E+00 0.  1.
</event>
<event>
 7    1  0.3750159E-013  0.5930196E+02  0.7816164E-02  0.1266605E+00
        -11   -1    0    0    0    0  0.00000000000E+00  0.00000000000E+00  0.45593999997E+02  0.45594000000E+02  0.51100000000E-03 0.  1.
         11   -1    0    0    0    0 -0.00000000000E+00 -0.00000000000E+00 -0.45593999997E+02  0.45594000000E+02  0.51100000000E-03 0. -1.
    9900012    2    1    2    0    0 -0.27262322024E+02  0.36522679941E+01 -0.16129046211E+02  0.59301962377E+02  0.50000033464E+02 0.  0.
        -12    1    1    2    0    0  0.27262322024E+02 -0.36522679941E+01  0.16129046211E+02  0.31886037623E+02  0.00000000000E+00 0.  1.
         11    1    3    3    0    0 -0.65545094714E+01  0.33056174418E+01 -0.24012402614E+02  0.25109444053E+02  0.51100000000E-03 0. -1.
        -11    1    3    3    0    0 -0.16606290027E+02  0.12979586220E+00 -0.75351427875E+01  0.18236339888E+02  0.51100000000E-03 0.  1.
        -12    1    3    3    0    0 -0.41015225256E+01  0.21685469012E+00  0.15418499191E+02  0.15956178436E+02  0.00000000000E+00 0.  1.
</event>
<event>
 7    1  0.3750159E-013  0.5930196E+02  0.7816164E-02  0.1266605E+00
        -11   -1    0    0    0    0  0.00000000000E+00  0.00000000000E+00  0.45593999997E+02  0.45594000000E+02  0.51100000000E-03 0.  1.
         11   -1    0    0    0    0 -0.00000000000E+00 -0.00000000000E+00 -0.45593999997E+02  0.45594000000E+02  0.51100000000E-03 0. -1.
    9900012    2    1    2    0    0  0.20533876938E+02  0.19249658936E+02 -0.14984320413E+02  0.59301963409E+02  0.50000035347E+02 0.  0.
        -12    1    1    2    0    0 -0.20533876938E+02 -0.19249658936E+02  0.14984320413E+02  0.31886036591E+02  0.00000000000E+00 0.  1.
         11    1    3    3    0    0  0.21307123051E+02 -0.11721972495E+02 -0.51478538820E+01  0.24857564879E+02  0.51100000000E-03 0.  1.
        -11    1    3    3    0    0 -0.16961993741E+01  0.10276085703E+02 -0.89120795868E+01  0.13707669113E+02  0.51100000000E-03 0. -1.
        -12    1    3    3    0    0  0.92295326139E+00  0.20695545728E+02 -0.92438694379E+00  0.20736729417E+02  0.00000000000E+00 0.  1.
</event>
<event>
 7    1  0.3750159E-013  0.5930196E+02  0.7816164E-02  0.1266605E+00
        -11   -1    0    0    0    0  0.00000000000E+00  0.00000000000E+00  0.45593999997E+02  0.45594000000E+02  0.51100000000E-03 0.  1.
         11   -1    0    0    0    0 -0.00000000000E+00 -0.00000000000E+00 -0.45593999997E+02  0.45594000000E+02  0.51100000000E-03 0. -1.
    9900012    2    1    2    0    0 -0.18306540829E+02 -0.21576271158E+02 -0.14698799091E+02  0.59301959027E+02  0.50000027356E+02 0.  0.
        -12    1    1    2    0    0  0.18306540829E+02  0.21576271158E+02  0.14698799091E+02  0.31886040973E+02  0.00000000000E+00 0.  1.
         11    1    3    3    0    0 -0.18105090801E+02 -0.15114972746E+02 -0.17739870073E+02  0.29512026439E+02  0.51100000000E-03 0. -1.
        -11    1    3    3    0    0 -0.56764348194E+01  0.61295645090E+01 -0.84525359276E+01  0.11884394692E+02  0.51100000000E-03 0.  1.
        -12    1    3    3    0    0  0.54749847917E+01 -0.12590862921E+02  0.11493606910E+02  0.17905537896E+02  0.00000000000E+00 0.  1.
</event>
<event>
 7    1  0.3750159E-013  0.5930194E+02  0.7816164E-02  0.1266605E+00
        -11   -1    0    0    0    0  0.00000000000E+00  0.00000000000E+00  0.45593999997E+02  0.45594000000E+02  0.51100000000E-03 0.  1.
         11   -1    0    0    0    0 -0.00000000000E+00 -0.00000000000E+00 -0.45593999997E+02  0.45594000000E+02  0.51100000000E-03 0. -1.
    9900012    2    1    2    0    0 -0.24519139737E+02  0.15594312405E+02 -0.13128222457E+02  0.59301936937E+02  0.49999987067E+02 0.  0.
        -12    1    1    2    0    0  0.24519139737E+02 -0.15594312405E+02  0.13128222457E+02  0.31886063063E+02  0.00000000000E+00 0.  1.
         11    1    3    3    0    0 -0.21462587432E+02 -0.72537034506E+01 -0.16769949687E+02  0.28186700512E+02  0.51100000000E-03 0. -1.
        -11    1    3    3    0    0 -0.14048237098E+01 -0.29875448961E+01  0.40482694764E+01  0.52237381421E+01  0.51100000000E-03 0.  1.
         12    1    3    3    0    0 -0.16517285951E+01  0.25835560751E+02 -0.40654224676E+00  0.25891498282E+02  0.00000000000E+00 0. -1.
</event>
<event>
 7    1  0.3750159E-013  0.5930195E+02  0.7816164E-02  0.1266605E+00
        -11   -1    0    0    0    0  0.00000000000E+00  0.00000000000E+00  0.45593999997E+02  0.45594000000E+02  0.51100000000E-03 0.  1.
         11   -1    0    0    0    0 -0.00000000000E+00 -0.00000000000E+00 -0.45593999997E+02  0.45594000000E+02  0.51100000000E-03 0. -1.
    9900012    2    1    2    0    0  0.12946259672E+02  0.29069925848E+02 -0.20134272582E+01  0.59301951051E+02  0.50000012808E+02 0.  0.
        -12    1    1    2    0    0 -0.12946259672E+02 -0.29069925848E+02  0.20134272582E+01  0.31886048949E+02  0.00000000000E+00 0.  1.
         11    1    3    3    0    0 -0.60972916816E+01  0.22608565122E+02  0.55637293339E+01  0.24068221103E+02  0.51100000000E-03 0. -1.
        -11    1    3    3    0    0  0.57209330443E+01  0.16668084409E+02 -0.36198784487E+01  0.17990487292E+02  0.51100000000E-03 0.  1.
        -12    1    3    3    0    0  0.13322618309E+02 -0.10206723683E+02 -0.39572781434E+01  0.17243242655E+02  0.00000000000E+00 0.  1.
</event>
<event>
 7    1  0.3750159E-013  0.5930195E+02  0.7816164E-02  0.1266605E+00
        -11   -1    0    0    0    0  0.00000000000E+00  0.00000000000E+00  0.45593999997E+02  0.45594000000E+02  0.51100000000E-03 0.  1.
         11   -1    0    0    0    0 -0.00000000000E+00 -0.00000000000E+00 -0.45593999997E+02  0.45594000000E+02  0.51100000000E-03 0. -1.
    9900012    2    1    2    0    0 -0.22016501278E+02 -0.18341815410E+02 -0.13984685079E+02  0.59301953870E+02  0.50000017949E+02 0.  0.
        -12    1    1    2    0    0  0.22016501278E+02  0.18341815410E+02  0.13984685079E+02  0.31886046130E+02  0.00000000000E+00 0.  1.
         11    1    3    3    0    0 -0.54056683067E+01  0.51460213591E+01  0.70890227527E+01  0.10293543098E+02  0.51100000000E-03 0. -1.
        -11    1    3    3    0    0 -0.21690550839E+02 -0.23669860125E+01 -0.62064258834E+01  0.22684848269E+02  0.51100000000E-03 0.  1.
         12    1    3    3    0    0  0.50797178673E+01 -0.21120850756E+02 -0.14867281949E+02  0.26323562502E+02  0.00000000000E+00 0. -1.
</event>
<event>
 7    1  0.3750159E-013  0.5930194E+02  0.7816164E-02  0.1266605E+00
        -11   -1    0    0    0    0  0.00000000000E+00  0.00000000000E+00  0.45593999997E+02  0.45594000000E+02  0.51100000000E-03 0. -1.
         11   -1    0    0    0    0 -0.00000000000E+00 -0.00000000000E+00 -0.45593999997E+02  0.45594000000E+02  0.51100000000E-03 0.  1.
    9900012    2    1    2    0    0  0.17408883132E+02 -0.26446069272E+02  0.37758460989E+01  0.59301940262E+02  0.49999993132E+02 0.  0.
        -12    1    1    2    0    0 -0.17408883132E+02  0.26446069272E+02 -0.37758460989E+01  0.31886059738E+02  0.00000000000E+00 0.  1.
         11    1    3    3    0    0  0.11011333441E+01  0.33673165466E+01 -0.10237689638E+02  0.10833356116E+02  0.51100000000E-03 0.  1.
        -11    1    3    3    0    0  0.13395086227E+02 -0.14969803575E+02  0.23264827283E+02  0.30737201285E+02  0.51100000000E-03 0. -1.
         12    1    3    3    0    0  0.29126635613E+01 -0.14843582244E+02 -0.92512915467E+01  0.17731382860E+02  0.00000000000E+00 0. -1.
</event>
<event>
 7    1  0.3750159E-013  0.5930196E+02  0.7816164E-02  0.1266605E+00
        -11   -1    0    0    0    0  0.00000000000E+00  0.00000000000E+00  0.45593999997E+02  0.45594000000E+02  0.51100000000E-03 0. -1.
         11   -1    0    0    0    0 -0.00000000000E+00 -0.00000000000E+00 -0.45593999997E+02  0.45594000000E+02  0.51100000000E-03 0.  1.
    9900012    2    1    2    0    0  0.95427354145E+00  0.31819747511E+02  0.18199813814E+01  0.59301963842E+02  0.50000036136E+02 0.  0.
        -12    1    1    2    0    0 -0.95427354145E+00 -0.31819747511E+02 -0.18199813814E+01  0.31886036158E+02  0.00000000000E+00 0.  1.
         11    1    3    3    0    0 -0.32790772140E+01 -0.15686595397E+01 -0.34728999719E+01  0.50273327524E+01  0.51100000000E-03 0. -1.
        -11    1    3    3    0    0 -0.67303258353E+01 -0.48433876581E+01 -0.87884462901E+01  0.12082734720E+02  0.51100000000E-03 0.  1.
         12    1    3    3    0    0  0.10963676591E+02  0.38231794709E+02  0.14081327643E+02  0.42191896369E+02  0.00000000000E+00 0. -1.
</event>
<event>
 7    1  0.3750159E-013  0.5930189E+02  0.7816164E-02  0.1266605E+00
        -11   -1    0    0    0    0  0.00000000000E+00  0.00000000000E+00  0.45593999997E+02  0.45594000000E+02  0.51100000000E-03 0.  1.
         11   -1    0    0    0    0 -0.00000000000E+00 -0.00000000000E+00 -0.45593999997E+02  0.45594000000E+02  0.51100000000E-03 0. -1.
    9900012    2    1    2    0    0 -0.19336787445E+02  0.61080187426E+01 -0.24607004962E+02  0.59301891193E+02  0.49999903642E+02 0.  0.
        -12    1    1    2    0    0  0.19336787445E+02 -0.61080187426E+01  0.24607004962E+02  0.31886108807E+02  0.00000000000E+00 0.  1.
         11    1    3    3    0    0 -0.48465725048E+01  0.83240601975E+01 -0.15791986165E+02  0.18497731496E+02  0.51100000000E-03 0. -1.
        -11    1    3    3    0    0  0.21804616076E+01  0.81139513210E+01 -0.17456349525E+02  0.19373042039E+02  0.51100000000E-03 0.  1.
        -12    1    3    3    0    0 -0.16670676548E+02 -0.10329992776E+02  0.86413307275E+01  0.21431117657E+02  0.00000000000E+00 0.  1.
</event>
<event>
 7    1  0.3750159E-013  0.5930176E+02  0.7816164E-02  0.1266605E+00
        -11   -1    0    0    0    0  0.00000000000E+00  0.00000000000E+00  0.45593999997E+02  0.45594000000E+02  0.51100000000E-03 0.  1.
         11   -1    0    0    0    0 -0.00000000000E+00 -0.00000000000E+00 -0.45593999997E+02  0.45594000000E+02  0.51100000000E-03 0. -1.
    9900012    2    1    2    0    0  0.25564269163E+02 -0.11321020825E+02  0.15330851400E+02  0.59301758845E+02  0.49999662270E+02 0.  0.
        -12    1    1    2    0    0 -0.25564269163E+02  0.11321020825E+02 -0.15330851400E+02  0.31886241155E+02  0.00000000000E+00 0.  1.
         11    1    3    3    0    0  0.62640798354E+01 -0.23762209327E+02 -0.41392603047E+01  0.24920167825E+02  0.51100000000E-03 0. -1.
        -11    1    3    3    0    0  0.15432966217E+02  0.41793820787E+01  0.40964582525E+01  0.16505291615E+02  0.51100000000E-03 0.  1.
        -12    1    3    3    0    0  0.38672231099E+01  0.82618064234E+01  0.15373653452E+02  0.17876299405E+02  0.00000000000E+00 0.  1.
</event>
<event>
 7    1  0.3750159E-013  0.5930183E+02  0.7816164E-02  0.1266605E+00
        -11   -1    0    0    0    0  0.00000000000E+00  0.00000000000E+00  0.45593999997E+02  0.45594000000E+02  0.51100000000E-03 0. -1.
         11   -1    0    0    0    0 -0.00000000000E+00 -0.00000000000E+00 -0.45593999997E+02  0.45594000000E+02  0.51100000000E-03 0.  1.
    9900012    2    1    2    0    0 -0.13571773465E+02 -0.99697538516E+01  0.27076531257E+02  0.59301834163E+02  0.49999799633E+02 0.  0.
        -12    1    1    2    0    0  0.13571773465E+02  0.99697538516E+01 -0.27076531257E+02  0.31886165837E+02  0.00000000000E+00 0.  1.
         11    1    3    3    0    0  0.27317874235E+01  0.57369692483E+01 -0.68939990190E-01  0.63545441745E+01  0.51100000000E-03 0.  1.
        -11    1    3    3    0    0  0.18662386257E+01  0.10290853299E+02 -0.10471435698E+01  0.10510995107E+02  0.51100000000E-03 0. -1.
         12    1    3    3    0    0 -0.18169799514E+02 -0.25997576399E+02  0.28192614817E+02  0.42436294881E+02  0.00000000000E+00 0. -1.
</event>
<event>
 7    1  0.3750159E-013  0.5930190E+02  0.7816164E-02  0.1266605E+00
        -11   -1    0    0    0    0  0.00000000000E+00  0.00000000000E+00  0.45593999997E+02  0.45594000000E+02  0.51100000000E-03 0.  1.
         11   -1    0    0    0    0 -0.00000000000E+00 -0.00000000000E+00 -0.45593999997E+02  0.45594000000E+02  0.51100000000E-03 0. -1.
    9900012    2    1    2    0    0 -0.83772160571E+01 -0.79800988462E+01 -0.29713021682E+02  0.59301899832E+02  0.49999919397E+02 0.  0.
        -12    1    1    2    0    0  0.83772160571E+01  0.79800988462E+01  0.29713021682E+02  0.31886100168E+02  0.00000000000E+00 0.  1.
         11    1    3    3    0    0  0.58124370752E+01 -0.16318968960E+02 -0.13198215966E+02  0.21778110056E+02  0.51100000000E-03 0. -1.
        -11    1    3    3    0    0  0.85031726825E+01  0.43004498480E+01 -0.94399499925E+01  0.13413070889E+02  0.51100000000E-03 0.  1.
        -12    1    3    3    0    0 -0.22692825815E+02  0.40384202662E+01 -0.70748557237E+01  0.24110718886E+02  0.00000000000E+00 0.  1.
</event>
<event>
 7    1  0.3750159E-013  0.5930200E+02  0.7816164E-02  0.1266605E+00
        -11   -1    0    0    0    0  0.00000000000E+00  0.00000000000E+00  0.45593999997E+02  0.45594000000E+02  0.51100000000E-03 0.  1.
         11   -1    0    0    0    0 -0.00000000000E+00 -0.00000000000E+00 -0.45593999997E+02  0.45594000000E+02  0.51100000000E-03 0. -1.
    9900012    2    1    2    0    0  0.14487222662E+02 -0.24350288771E+02  0.14625353906E+02  0.59301997419E+02  0.50000097373E+02 0.  0.
        -12    1    1    2    0    0 -0.14487222662E+02  0.24350288771E+02 -0.14625353906E+02  0.31886002581E+02  0.00000000000E+00 0.  1.
         11    1    3    3    0    0  0.58164325200E+01 -0.22938248554E+01  0.10767812355E+02  0.12451437785E+02  0.51100000000E-03 0. -1.
        -11    1    3    3    0    0  0.75789197145E-01 -0.47979637717E+01  0.20700552374E+02  0.21249448680E+02  0.51100000000E-03 0.  1.
         12    1    3    3    0    0  0.85950009452E+01 -0.17258500144E+02 -0.16843010824E+02  0.25601110954E+02  0.00000000000E+00 0. -1.
</event>
<event>
 7    1  0.3750159E-013  0.5930194E+02  0.7816164E-02  0.1266605E+00
        -11   -1    0    0    0    0  0.00000000000E+00  0.00000000000E+00  0.45593999997E+02  0.45594000000E+02  0.51100000000E-03 0. -1.
         11   -1    0    0    0    0 -0.00000000000E+00 -0.00000000000E+00 -0.45593999997E+02  0.45594000000E+02  0.51100000000E-03 0.  1.
    9900012    2    1    2    0    0  0.21907298687E+02  0.19235544426E+02  0.12914531650E+02  0.59301936698E+02  0.49999986633E+02 0.  0.
        -12    1    1    2    0    0 -0.21907298687E+02 -0.19235544426E+02 -0.12914531650E+02  0.31886063302E+02  0.00000000000E+00 0.  1.
         11    1    3    3    0    0 -0.63780035573E+00  0.57222926737E+01  0.16963643081E+02  0.17914145516E+02  0.51100000000E-03 0. -1.
        -11    1    3    3    0    0  0.12372100353E+02  0.23555755461E+02 -0.29740510694E+00  0.26608850644E+02  0.51100000000E-03 0.  1.
         12    1    3    3    0    0  0.10172998690E+02 -0.10042503710E+02 -0.37517063238E+01  0.14778940539E+02  0.00000000000E+00 0. -1.
</event>
<event>
 7    1  0.3750159E-013  0.5930200E+02  0.7816164E-02  0.1266605E+00
        -11   -1    0    0    0    0  0.00000000000E+00  0.00000000000E+00  0.45593999997E+02  0.45594000000E+02  0.51100000000E-03 0.  1.
         11   -1    0    0    0    0 -0.00000000000E+00 -0.00000000000E+00 -0.45593999997E+02  0.45594000000E+02  0.51100000000E-03 0. -1.
    9900012    2    1    2    0    0 -0.38716090146E+01 -0.12060676686E+02 -0.29262052239E+02  0.59302000255E+02  0.50000102545E+02 0.  0.
        -12    1    1    2    0    0  0.38716090146E+01  0.12060676686E+02  0.29262052239E+02  0.31885999745E+02  0.00000000000E+00 0.  1.
         11    1    3    3    0    0 -0.17773258688E+01  0.10234044788E+01  0.92533658116E+01  0.94779229305E+01  0.51100000000E-03 0. -1.
        -11    1    3    3    0    0 -0.10037650297E+02  0.41424198970E+01 -0.22556729647E+02  0.25034378737E+02  0.51100000000E-03 0.  1.
         12    1    3    3    0    0  0.79433671516E+01 -0.17226501061E+02 -0.15958688403E+02  0.24789698588E+02  0.00000000000E+00 0. -1.
</event>
<event>
 7    1  0.3750159E-013  0.5930195E+02  0.7816164E-02  0.1266605E+00
        -11   -1    0    0    0    0  0.00000000000E+00  0.00000000000E+00  0.45593999997E+02  0.45594000000E+02  0.51100000000E-03 0.  1.
         11   -1    0    0    0    0 -0.00000000000E+00 -0.00000000000E+00 -0.45593999997E+02  0.45594000000E+02  0.51100000000E-03 0. -1.
    9900012    2    1    2    0    0  0.41770576879E+01  0.16936981195E+02 -0.26691034773E+02  0.59301945365E+02  0.50000002438E+02 0.  0.
        -12    1    1    2    0    0 -0.41770576879E+01 -0.16936981195E+02  0.26691034773E+02  0.31886054635E+02  0.00000000000E+00 0.  1.
         11    1    3    3    0    0  0.75328819531E+01  0.13206208736E+02 -0.16501281905E+02  0.22437481241E+02  0.51100000000E-03 0. -1.
        -11    1    3    3    0    0  0.12331782443E+02 -0.64070133455E+01  0.27179861606E+01  0.14160159860E+02  0.51100000000E-03 0.  1.
         12    1    3    3    0    0 -0.15687606708E+02  0.10137785805E+02 -0.12907739029E+02  0.22704304264E+02  0.00000000000E+00 0. -1.
</event>
<event>
 7    1  0.3750159E-013  0.5930194E+02  0.7816164E-02  0.1266605E+00
        -11   -1    0    0    0    0  0.00000000000E+00  0.00000000000E+00  0.45593999997E+02  0.45594000000E+02  0.51100000000E-03 0. -1.
         11   -1    0    0    0    0 -0.00000000000E+00 -0.00000000000E+00 -0.45593999997E+02  0.45594000000E+02  0.51100000000E-03 0.  1.
    9900012    2    1    2    0    0  0.51155275165E+01 -0.75908439632E+00  0.31463880299E+02  0.59301943575E+02  0.49999999173E+02 0.  0.
        -12    1    1    2    0    0 -0.51155275165E+01  0.75908439632E+00 -0.31463880299E+02  0.31886056425E+02  0.00000000000E+00 0.  1.
         11    1    3    3    0    0  0.42854069036E+01  0.13777236980E+02  0.49485816694E+01  0.15253374444E+02  0.51100000000E-03 0. -1.
        -11    1    3    3    0    0  0.13815897906E+02  0.14033641269E+01  0.64198479384E+01  0.15299114799E+02  0.51100000000E-03 0.  1.
        -12    1    3    3    0    0 -0.12985777293E+02 -0.15939685503E+02  0.20095450691E+02  0.28749454331E+02  0.00000000000E+00 0.  1.
</event>
<event>
 7    1  0.3750159E-013  0.5930195E+02  0.7816164E-02  0.1266605E+00
        -11   -1    0    0    0    0  0.00000000000E+00  0.00000000000E+00  0.45593999997E+02  0.45594000000E+02  0.51100000000E-03 0.  1.
         11   -1    0    0    0    0 -0.00000000000E+00 -0.00000000000E+00 -0.45593999997E+02  0.45594000000E+02  0.51100000000E-03 0. -1.
    9900012    2    1    2    0    0  0.65637219500E+01  0.30446195373E+02 -0.68313310894E+01  0.59301947517E+02  0.50000006363E+02 0.  0.
        -12    1    1    2    0    0 -0.65637219500E+01 -0.30446195373E+02  0.68313310894E+01  0.31886052483E+02  0.00000000000E+00 0.  1.
         11    1    3    3    0    0  0.10755246405E+02  0.76310324146E+01 -0.65232214653E+01  0.14712593228E+02  0.51100000000E-03 0. -1.
        -11    1    3    3    0    0  0.29603811167E+01 -0.10064030940E+02 -0.27742929671E+01  0.10851049574E+02  0.51100000000E-03 0.  1.
         12    1    3    3    0    0 -0.71519055720E+01  0.32879193899E+02  0.24661833429E+01  0.33738304715E+02  0.00000000000E+00 0. -1.
</event>
<event>
 7    1  0.3750159E-013  0.5930220E+02  0.7816164E-02  0.1266604E+00
        -11   -1    0    0    0    0  0.00000000000E+00  0.00000000000E+00  0.45593999997E+02  0.45594000000E+02  0.51100000000E-03 0. -1.
         11   -1    0    0    0    0 -0.00000000000E+00 -0.00000000000E+00 -0.45593999997E+02  0.45594000000E+02  0.51100000000E-03 0.  1.
    9900012    2    1    2    0    0 -0.92518095505E+01 -0.30495564293E+02  0.10624412803E+01  0.59302200606E+02  0.50000467935E+02 0.  0.
        -12    1    1    2    0    0  0.92518095505E+01  0.30495564293E+02 -0.10624412803E+01  0.31885799394E+02  0.00000000000E+00 0.  1.
         11    1    3    3    0    0 -0.17621960101E+02 -0.95098045645E+00  0.67931130621E+01  0.18909897593E+02  0.51100000000E-03 0. -1.
        -11    1    3    3    0    0 -0.34670431658E-01 -0.52982409132E+01  0.92630516739E+01  0.10671301954E+02  0.51100000000E-03 0.  1.
        -12    1    3    3    0    0  0.84048209826E+01 -0.24246342923E+02 -0.14993723456E+02  0.29721001059E+02  0.00000000000E+00 0.  1.
</event>
<event>
 7    1  0.3750159E-013  0.5930193E+02  0.7816164E-02  0.1266605E+00
        -11   -1    0    0    0    0  0.00000000000E+00  0.00000000000E+00  0.45593999997E+02  0.45594000000E+02  0.51100000000E-03 0.  1.
         11   -1    0    0    0    0 -0.00000000000E+00 -0.00000000000E+00 -0.45593999997E+02  0.45594000000E+02  0.51100000000E-03 0. -1.
    9900012    2    1    2    0    0  0.20787114593E+02 -0.60625632964E+01 -0.23406466322E+02  0.59301929805E+02  0.49999974061E+02 0.  0.
        -12    1    1    2    0    0 -0.20787114593E+02  0.60625632964E+01  0.23406466322E+02  0.31886070195E+02  0.00000000000E+00 0.  1.
         11    1    3    3    0    0  0.91425427898E+01 -0.83760341384E+01  0.54172962141E+01  0.13531117289E+02  0.51100000000E-03 0. -1.
        -11    1    3    3    0    0  0.11946115879E+02 -0.12545084959E+02 -0.25017258522E+02  0.30429460486E+02  0.51100000000E-03 0.  1.
        -12    1    3    3    0    0 -0.30154407617E+00  0.14858555801E+02 -0.38065040137E+01  0.15341352031E+02  0.00000000000E+00 0.  1.
</event>
<event>
 7    1  0.3750159E-013  0.5930196E+02  0.7816164E-02  0.1266605E+00
        -11   -1    0    0    0    0  0.00000000000E+00  0.00000000000E+00  0.45593999997E+02  0.45594000000E+02  0.51100000000E-03 0.  1.
         11   -1    0    0    0    0 -0.00000000000E+00 -0.00000000000E+00 -0.45593999997E+02  0.45594000000E+02  0.51100000000E-03 0. -1.
    9900012    2    1    2    0    0 -0.66008007446E+01 -0.76621153465E+01 -0.30239728182E+02  0.59301956931E+02  0.50000023533E+02 0.  0.
        -12    1    1    2    0    0  0.66008007446E+01  0.76621153465E+01  0.30239728182E+02  0.31886043069E+02  0.00000000000E+00 0.  1.
         11    1    3    3    0    0 -0.14352321044E+02  0.59193160355E+01 -0.13389896068E+02  0.20501627707E+02  0.51100000000E-03 0. -1.
        -11    1    3    3    0    0 -0.46647250342E+01  0.72997334885E+01  0.90512589094E+00  0.87100529153E+01  0.51100000000E-03 0.  1.
         12    1    3    3    0    0  0.12416245334E+02 -0.20881164871E+02 -0.17754958006E+02  0.30090276308E+02  0.00000000000E+00 0. -1.
</event>
<event>
 7    1  0.3750159E-013  0.5930193E+02  0.7816164E-02  0.1266605E+00
        -11   -1    0    0    0    0  0.00000000000E+00  0.00000000000E+00  0.45593999997E+02  0.45594000000E+02  0.51100000000E-03 0. -1.
         11   -1    0    0    0    0 -0.00000000000E+00 -0.00000000000E+00 -0.45593999997E+02  0.45594000000E+02  0.51100000000E-03 0.  1.
    9900012    2    1    2    0    0 -0.23776908174E+02  0.12902782408E+02  0.16878928629E+02  0.59301931133E+02  0.49999976483E+02 0.  0.
        -12    1    1    2    0    0  0.23776908174E+02 -0.12902782408E+02 -0.16878928629E+02  0.31886068867E+02  0.00000000000E+00 0.  1.
         11    1    3    3    0    0 -0.45249772664E+01 -0.13826716408E+02 -0.36312361999E+01  0.14994645127E+02  0.51100000000E-03 0. -1.
        -11    1    3    3    0    0 -0.87967426294E+00  0.33207764459E+01 -0.43422266158E+01  0.55368145406E+01  0.51100000000E-03 0.  1.
         12    1    3    3    0    0 -0.18372256644E+02  0.23408722369E+02  0.24852391444E+02  0.38770471466E+02  0.00000000000E+00 0. -1.
</event>
<event>
 7    1  0.3750159E-013  0.5930197E+02  0.7816164E-02  0.1266605E+00
        -11   -1    0    0    0    0  0.00000000000E+00  0.00000000000E+00  0.45593999997E+02  0.45594000000E+02  0.51100000000E-03 0.  1.
         11   -1    0    0    0    0 -0.00000000000E+00 -0.00000000000E+00 -0.45593999997E+02  0.45594000000E+02  0.51100000000E-03 0. -1.
    9900012    2    1    2    0    0  0.11770042541E+01  0.11127458185E+02 -0.29858220560E+02  0.59301968580E+02  0.50000044778E+02 0.  0.
        -12    1    1    2    0    0 -0.11770042541E+01 -0.11127458185E+02  0.29858220560E+02  0.31886031420E+02  0.00000000000E+00 0.  1.
         11    1    3    3    0    0  0.63974278424E+00  0.13513248344E+02 -0.23652318925E+02  0.27247923635E+02  0.51100000000E-03 0. -1.
        -11    1    3    3    0    0 -0.22342195252E+01  0.10953502487E+02 -0.12735561741E+02  0.16945957829E+02  0.51100000000E-03 0.  1.
        -12    1    3    3    0    0  0.27714809950E+01 -0.13339292646E+02  0.65296601058E+01  0.15108087116E+02  0.00000000000E+00 0.  1.
</event>
<event>
 7    1  0.3750159E-013  0.5930186E+02  0.7816164E-02  0.1266605E+00
        -11   -1    0    0    0    0  0.00000000000E+00  0.00000000000E+00  0.45593999997E+02  0.45594000000E+02  0.51100000000E-03 0. -1.
         11   -1    0    0    0    0 -0.00000000000E+00 -0.00000000000E+00 -0.45593999997E+02  0.45594000000E+02  0.51100000000E-03 0.  1.
    9900012    2    1    2    0    0  0.14116699321E+02  0.22683131460E+02  0.17404604331E+02  0.59301860308E+02  0.49999847316E+02 0.  0.
        -12    1    1    2    0    0 -0.14116699321E+02 -0.22683131460E+02 -0.17404604331E+02  0.31886139692E+02  0.00000000000E+00 0.  1.
         11    1    3    3    0    0  0.77925140059E+01  0.12282303179E+02  0.24939504830E+01  0.14757982084E+02  0.51100000000E-03 0. -1.
        -11    1    3    3    0    0  0.66348887002E+01  0.18689169157E+02 -0.70668010515E+01  0.21053419419E+02  0.51100000000E-03 0.  1.
         12    1    3    3    0    0 -0.31070338534E+00 -0.82883408764E+01  0.21977454899E+02  0.23490458806E+02  0.00000000000E+00 0. -1.
</event>
<event>
 7    1  0.3750159E-013  0.5930184E+02  0.7816164E-02  0.1266605E+00
        -11   -1    0    0    0    0  0.00000000000E+00  0.00000000000E+00  0.45593999997E+02  0.45594000000E+02  0.51100000000E-03 0.  1.
         11   -1    0    0    0    0 -0.00000000000E+00 -0.00000000000E+00 -0.45593999997E+02  0.45594000000E+02  0.51100000000E-03 0. -1.
    9900012    2    1    2    0    0 -0.29397579669E+01  0.92514049126E+01 -0.30372629819E+02  0.59301838239E+02  0.49999807066E+02 0.  0.
        -12    1    1    2    0    0  0.29397579669E+01 -0.92514049126E+01  0.30372629819E+02  0.31886161761E+02  0.00000000000E+00 0.  1.
         11    1    3    3    0    0  0.32556853337E+01 -0.34359942745E+01 -0.41013290050E+00  0.47511843686E+01  0.51100000000E-03 0. -1.
        -11    1    3    3    0    0  0.14402377431E+01 -0.11951756951E+02  0.32769697954E+01  0.12476269886E+02  0.51100000000E-03 0.  1.
         12    1    3    3    0    0 -0.76356810437E+01  0.24639156138E+02 -0.33239466714E+02  0.42074383984E+02  0.00000000000E+00 0. -1.
</event>
<event>
 7    1  0.3750159E-013  0.5930196E+02  0.7816164E-02  0.1266605E+00
        -11   -1    0    0    0    0  0.00000000000E+00  0.00000000000E+00  0.45593999997E+02  0.45594000000E+02  0.51100000000E-03 0.  1.
         11   -1    0    0    0    0 -0.00000000000E+00 -0.00000000000E+00 -0.45593999997E+02  0.45594000000E+02  0.51100000000E-03 0. -1.
    9900012    2    1    2    0    0 -0.27241301629E+02 -0.13682076891E+02  0.93505064350E+01  0.59301957394E+02  0.50000024377E+02 0.  0.
        -12    1    1    2    0    0  0.27241301629E+02  0.13682076891E+02 -0.93505064350E+01  0.31886042606E+02  0.00000000000E+00 0.  1.
         11    1    3    3    0    0  0.56712891313E+01 -0.66980553552E+01  0.73367192538E+01  0.11439183346E+02  0.51100000000E-03 0. -1.
        -11    1    3    3    0    0  0.29914749463E+01  0.12399814392E+01 -0.88797283708E+01  0.94517750991E+01  0.51100000000E-03 0.  1.
        -12    1    3    3    0    0 -0.35904065706E+02 -0.82240029753E+01  0.10893515552E+02  0.38410998949E+02  0.00000000000E+00 0.  1.
</event>
<event>
 7    1  0.3750159E-013  0.5930198E+02  0.7816164E-02  0.1266605E+00
        -11   -1    0    0    0    0  0.00000000000E+00  0.00000000000E+00  0.45593999997E+02  0.45594000000E+02  0.51100000000E-03 0.  1.
         11   -1    0    0    0    0 -0.00000000000E+00 -0.00000000000E+00 -0.45593999997E+02  0.45594000000E+02  0.51100000000E-03 0. -1.
    9900012    2    1    2    0    0 -0.28795495132E+02 -0.13571097611E+02 -0.18338819109E+01  0.59301978719E+02  0.50000063269E+02 0.  0.
        -12    1    1    2    0    0  0.28795495132E+02  0.13571097611E+02  0.18338819109E+01  0.31886021281E+02  0.00000000000E+00 0.  1.
         11    1    3    3    0    0 -0.84990211842E+01 -0.13859848592E+02 -0.22759476038E+00  0.16259783630E+02  0.51100000000E-03 0. -1.
        -11    1    3    3    0    0  0.89809724847E+01  0.19256189621E+01 -0.89382030542E+01  0.12816292337E+02  0.51100000000E-03 0.  1.
         12    1    3    3    0    0 -0.29277446432E+02 -0.16368679820E+01  0.73319159037E+01  0.30225902752E+02  0.00000000000E+00 0. -1.
</event>
<event>
 7    1  0.3750159E-013  0.5930195E+02  0.7816164E-02  0.1266605E+00
        -11   -1    0    0    0    0  0.00000000000E+00  0.00000000000E+00  0.45593999997E+02  0.45594000000E+02  0.51100000000E-03 0. -1.
         11   -1    0    0    0    0 -0.00000000000E+00 -0.00000000000E+00 -0.45593999997E+02  0.45594000000E+02  0.51100000000E-03 0.  1.
    9900012    2    1    2    0    0 -0.67912072443E+01  0.31030449304E+02 -0.27768894225E+01  0.59301946705E+02  0.50000004883E+02 0.  0.
        -12    1    1    2    0    0  0.67912072443E+01 -0.31030449304E+02  0.27768894225E+01  0.31886053295E+02  0.00000000000E+00 0.  1.
         11    1    3    3    0    0 -0.66302545967E+01  0.73135906156E+01  0.13544536714E+02  0.16760171800E+02  0.51100000000E-03 0. -1.
        -11    1    3    3    0    0 -0.66905941982E+01  0.26008021932E+02 -0.23585278823E+01  0.26958188173E+02  0.51100000000E-03 0.  1.
        -12    1    3    3    0    0  0.65296415506E+01 -0.22911632432E+01 -0.13962898254E+02  0.15583586732E+02  0.00000000000E+00 0.  1.
</event>
<event>
 7    1  0.3750159E-013  0.5930193E+02  0.7816164E-02  0.1266605E+00
        -11   -1    0    0    0    0  0.00000000000E+00  0.00000000000E+00  0.45593999997E+02  0.45594000000E+02  0.51100000000E-03 0. -1.
         11   -1    0    0    0    0 -0.00000000000E+00 -0.00000000000E+00 -0.45593999997E+02  0.45594000000E+02  0.51100000000E-03 0.  1.
    9900012    2    1    2    0    0  0.26596864250E+02 -0.18625055064E+01  0.17488840925E+02  0.59301926683E+02  0.49999968367E+02 0.  0.
        -12    1    1    2    0    0 -0.26596864250E+02  0.18625055064E+01 -0.17488840925E+02  0.31886073317E+02  0.00000000000E+00 0.  1.
         11    1    3    3    0    0  0.10467390566E+02 -0.76279366341E+00  0.22620944462E+02  0.24937025646E+02  0.51100000000E-03 0. -1.
        -11    1    3    3    0    0 -0.77980068047E+01  0.10626923438E+01  0.37920308281E+01  0.87360015572E+01  0.51100000000E-03 0.  1.
        -12    1    3    3    0    0  0.23927480488E+02 -0.21624041868E+01 -0.89241343650E+01  0.25628899480E+02  0.00000000000E+00 0.  1.
</event>
<event>
 7    1  0.3750159E-013  0.5930195E+02  0.7816164E-02  0.1266605E+00
        -11   -1    0    0    0    0  0.00000000000E+00  0.00000000000E+00  0.45593999997E+02  0.45594000000E+02  0.51100000000E-03 0.  1.
         11   -1    0    0    0    0 -0.00000000000E+00 -0.00000000000E+00 -0.45593999997E+02  0.45594000000E+02  0.51100000000E-03 0. -1.
    9900012    2    1    2    0    0 -0.92463415561E+00 -0.38385029931E+01 -0.31640659270E+02  0.59301947052E+02  0.50000005516E+02 0.  0.
        -12    1    1    2    0    0  0.92463415561E+00  0.38385029931E+01  0.31640659270E+02  0.31886052948E+02  0.00000000000E+00 0.  1.
         11    1    3    3    0    0 -0.95221325762E-01 -0.28282143120E+01 -0.24733175359E+02  0.24894534076E+02  0.51100000000E-03 0. -1.
        -11    1    3    3    0    0  0.98351258844E+01 -0.13779224121E+02 -0.19111252357E+01  0.17036699166E+02  0.51100000000E-03 0.  1.
        -12    1    3    3    0    0 -0.10664538714E+02  0.12768935440E+02 -0.49963586757E+01  0.17370713810E+02  0.00000000000E+00 0.  1.
</event>
<event>
 7    1  0.3750159E-013  0.5930183E+02  0.7816164E-02  0.1266605E+00
        -11   -1    0    0    0    0  0.00000000000E+00  0.00000000000E+00  0.45593999997E+02  0.45594000000E+02  0.51100000000E-03 0.  1.
         11   -1    0    0    0    0 -0.00000000000E+00 -0.00000000000E+00 -0.45593999997E+02  0.45594000000E+02  0.51100000000E-03 0. -1.
    9900012    2    1    2    0    0 -0.12165337455E+02 -0.19289797367E+02 -0.22285339824E+02  0.59301826054E+02  0.49999784844E+02 0.  0.
        -12    1    1    2    0    0  0.12165337455E+02  0.19289797367E+02  0.22285339824E+02  0.31886173946E+02  0.00000000000E+00 0.  1.
         11    1    3    3    0    0  0.62052197998E+01 -0.13318741200E+01  0.30536497723E+01  0.70429694468E+01  0.51100000000E-03 0. -1.
        -11    1    3    3    0    0  0.10079218652E+02  0.96544808102E+00 -0.11689266536E+02  0.15464853412E+02  0.51100000000E-03 0.  1.
         12    1    3    3    0    0 -0.28449775906E+02 -0.18923371328E+02 -0.13649723060E+02  0.36794003196E+02  0.00000000000E+00 0. -1.
</event>
<event>
 7    1  0.3750159E-013  0.5930196E+02  0.7816164E-02  0.1266605E+00
        -11   -1    0    0    0    0  0.00000000000E+00  0.00000000000E+00  0.45593999997E+02  0.45594000000E+02  0.51100000000E-03 0.  1.
         11   -1    0    0    0    0 -0.00000000000E+00 -0.00000000000E+00 -0.45593999997E+02  0.45594000000E+02  0.51100000000E-03 0. -1.
    9900012    2    1    2    0    0 -0.89392444960E+01  0.76074919979E+01 -0.29646844983E+02  0.59301961612E+02  0.50000032069E+02 0.  0.
        -12    1    1    2    0    0  0.89392444960E+01 -0.76074919979E+01  0.29646844983E+02  0.31886038388E+02  0.00000000000E+00 0.  1.
         11    1    3    3    0    0  0.28902601640E+01 -0.67830603214E+01 -0.20371519921E+00  0.73759752768E+01  0.51100000000E-03 0. -1.
        -11    1    3    3    0    0  0.76818903217E+01 -0.41559319425E+01  0.34770033841E+01  0.94006788063E+01  0.51100000000E-03 0.  1.
         12    1    3    3    0    0 -0.19511394982E+02  0.18546484262E+02 -0.32920133168E+02  0.42525307529E+02  0.00000000000E+00 0. -1.
</event>
<event>
 7    1  0.3750159E-013  0.5930192E+02  0.7816164E-02  0.1266605E+00
        -11   -1    0    0    0    0  0.00000000000E+00  0.00000000000E+00  0.45593999997E+02  0.45594000000E+02  0.51100000000E-03 0.  1.
         11   -1    0    0    0    0 -0.00000000000E+00 -0.00000000000E+00 -0.45593999997E+02  0.45594000000E+02  0.51100000000E-03 0. -1.
    9900012    2    1    2    0    0  0.99056155995E+01 -0.26959391172E+02 -0.13848900874E+02  0.59301920778E+02  0.49999957598E+02 0.  0.
        -12    1    1    2    0    0 -0.99056155995E+01  0.26959391172E+02  0.13848900874E+02  0.31886079222E+02  0.00000000000E+00 0.  1.
         11    1    3    3    0    0 -0.28002660578E+01  0.20096248228E+01 -0.70846979586E+01  0.78786437506E+01  0.51100000000E-03 0. -1.
        -11    1    3    3    0    0 -0.71899638180E+01 -0.15426128111E+02  0.12067671975E+02  0.20863597852E+02  0.51100000000E-03 0.  1.
         12    1    3    3    0    0  0.19895845475E+02 -0.13542887883E+02 -0.18831874890E+02  0.30559679175E+02  0.00000000000E+00 0. -1.
</event>
<event>
 7    1  0.3750159E-013  0.5930196E+02  0.7816164E-02  0.1266605E+00
        -11   -1    0    0    0    0  0.00000000000E+00  0.00000000000E+00  0.45593999997E+02  0.45594000000E+02  0.51100000000E-03 0.  1.
         11   -1    0    0    0    0 -0.00000000000E+00 -0.00000000000E+00 -0.45593999997E+02  0.45594000000E+02  0.51100000000E-03 0. -1.
    9900012    2    1    2    0    0 -0.49229534043E+01 -0.30575254581E+02  0.75919512158E+01  0.59301962520E+02  0.50000033726E+02 0.  0.
        -12    1    1    2    0    0  0.49229534043E+01  0.30575254581E+02 -0.75919512158E+01  0.31886037480E+02  0.00000000000E+00 0.  1.
         11    1    3    3    0    0 -0.73040541732E+01 -0.29887092247E+02  0.19244642745E+02  0.36289719825E+02  0.51100000000E-03 0. -1.
        -11    1    3    3    0    0 -0.68447399055E+01 -0.43180410158E+01 -0.10155223638E+02  0.12985550046E+02  0.51100000000E-03 0.  1.
        -12    1    3    3    0    0  0.92258406744E+01  0.36298786819E+01 -0.14974678912E+01  0.10026692649E+02  0.00000000000E+00 0.  1.
</event>
<event>
 7    1  0.3750159E-013  0.5930191E+02  0.7816164E-02  0.1266605E+00
        -11   -1    0    0    0    0  0.00000000000E+00  0.00000000000E+00  0.45593999997E+02  0.45594000000E+02  0.51100000000E-03 0.  1.
         11   -1    0    0    0    0 -0.00000000000E+00 -0.00000000000E+00 -0.45593999997E+02  0.45594000000E+02  0.51100000000E-03 0. -1.
    9900012    2    1    2    0    0 -0.13265117459E+02 -0.25901181305E+02  0.13034128706E+02  0.59301905142E+02  0.49999929081E+02 0.  0.
        -12    1    1    2    0    0  0.13265117459E+02  0.25901181305E+02 -0.13034128706E+02  0.31886094858E+02  0.00000000000E+00 0.  1.
         11    1    3    3    0    0 -0.18875509620E+02  0.12295172082E+01  0.13995704162E+02  0.23530327478E+02  0.51100000000E-03 0. -1.
        -11    1    3    3    0    0  0.44376186071E+01 -0.92098301380E+01  0.10349390494E+02  0.14547278574E+02  0.51100000000E-03 0.  1.
        -12    1    3    3    0    0  0.11727735533E+01 -0.17920868375E+02 -0.11310965949E+02  0.21224299089E+02  0.00000000000E+00 0.  1.
</event>
<event>
 7    1  0.3750159E-013  0.5930196E+02  0.7816164E-02  0.1266605E+00
        -11   -1    0    0    0    0  0.00000000000E+00  0.00000000000E+00  0.45593999997E+02  0.45594000000E+02  0.51100000000E-03 0. -1.
         11   -1    0    0    0    0 -0.00000000000E+00 -0.00000000000E+00 -0.45593999997E+02  0.45594000000E+02  0.51100000000E-03 0.  1.
    9900012    2    1    2    0    0  0.31771646265E+02 -0.12759164590E+01  0.23778443004E+01  0.59301958968E+02  0.50000027247E+02 0.  0.
        -12    1    1    2    0    0 -0.31771646265E+02  0.12759164590E+01 -0.23778443004E+01  0.31886041032E+02  0.00000000000E+00 0.  1.
         11    1    3    3    0    0  0.23037362973E+02 -0.75588904197E+01  0.10932162448E+02  0.26596411284E+02  0.51100000000E-03 0. -1.
        -11    1    3    3    0    0  0.19699420975E+02  0.58367181159E+01 -0.64211799335E+01  0.21525938240E+02  0.51100000000E-03 0.  1.
         12    1    3    3    0    0 -0.10965137683E+02  0.44625584476E+00 -0.21331382143E+01  0.11179609444E+02  0.00000000000E+00 0. -1.
</event>
<event>
 7    1  0.3750159E-013  0.5930199E+02  0.7816164E-02  0.1266605E+00
        -11   -1    0    0    0    0  0.00000000000E+00  0.00000000000E+00  0.45593999997E+02  0.45594000000E+02  0.51100000000E-03 0.  1.
         11   -1    0    0    0    0 -0.00000000000E+00 -0.00000000000E+00 -0.45593999997E+02  0.45594000000E+02  0.51100000000E-03 0. -1.
    9900012    2    1    2    0    0  0.28438456353E+02 -0.17794666405E+01 -0.14311013139E+02  0.59301993691E+02  0.50000090575E+02 0.  0.
        -12    1    1    2    0    0 -0.28438456353E+02  0.17794666405E+01  0.14311013139E+02  0.31886006309E+02  0.00000000000E+00 0.  1.
         11    1    3    3    0    0  0.28616775067E+02 -0.67519726033E+01 -0.16744829147E+02  0.33836345144E+02  0.51100000000E-03 0. -1.
        -11    1    3    3    0    0  0.56671812701E+00 -0.10168644763E+02  0.12306192217E+01  0.10258505236E+02  0.51100000000E-03 0.  1.
        -12    1    3    3    0    0 -0.74503684188E+00  0.15141150725E+02  0.12031967862E+01  0.15207143311E+02  0.00000000000E+00 0.  1.
</event>
<event>
 7    1  0.3750159E-013  0.5930195E+02  0.7816164E-02  0.1266605E+00
        -11   -1    0    0    0    0  0.00000000000E+00  0.00000000000E+00  0.45593999997E+02  0.45594000000E+02  0.51100000000E-03 0. -1.
         11   -1    0    0    0    0 -0.00000000000E+00 -0.00000000000E+00 -0.45593999997E+02  0.45594000000E+02  0.51100000000E-03 0.  1.
    9900012    2    1    2    0    0 -0.16991285515E+01  0.11016716524E+02  0.29874154928E+02  0.59301949548E+02  0.50000010067E+02 0.  0.
        -12    1    1    2    0    0  0.16991285515E+01 -0.11016716524E+02 -0.29874154928E+02  0.31886050452E+02  0.00000000000E+00 0.  1.
         11    1    3    3    0    0 -0.23038670424E+02 -0.20275719790E+00  0.17269710143E+02  0.28793477283E+02  0.51100000000E-03 0. -1.
        -11    1    3    3    0    0  0.54024315231E+01  0.22732500828E+01  0.10612968213E+02  0.12123903120E+02  0.51100000000E-03 0.  1.
        -12    1    3    3    0    0  0.15937110349E+02  0.89462236395E+01  0.19914765715E+01  0.18384569145E+02  0.00000000000E+00 0.  1.
</event>
<event>
 7    1  0.3750159E-013  0.5930194E+02  0.7816164E-02  0.1266605E+00
        -11   -1    0    0    0    0  0.00000000000E+00  0.00000000000E+00  0.45593999997E+02  0.45594000000E+02  0.51100000000E-03 0.  1.
         11   -1    0    0    0    0 -0.00000000000E+00 -0.00000000000E+00 -0.45593999997E+02  0.45594000000E+02  0.51100000000E-03 0. -1.
    9900012    2    1    2    0    0  0.15759677787E+02  0.89557808128E+01 -0.26232559649E+02  0.59301942865E+02  0.49999997879E+02 0.  0.
        -12    1    1    2    0    0 -0.15759677787E+02 -0.89557808128E+01  0.26232559649E+02  0.31886057135E+02  0.00000000000E+00 0.  1.
         11    1    3    3    0    0 -0.12720769634E+01 -0.31116026704E+01 -0.47787410142E+01  0.58426549548E+01  0.51100000000E-03 0. -1.
        -11    1    3    3    0    0  0.23523308096E+02  0.59283601127E+01  0.56607894993E+01  0.24910560319E+02  0.51100000000E-03 0.  1.
         12    1    3    3    0    0 -0.64915533455E+01  0.61390233705E+01 -0.27114608134E+02  0.28548727590E+02  0.00000000000E+00 0. -1.
</event>
<event>
 7    1  0.3750159E-013  0.5930197E+02  0.7816164E-02  0.1266605E+00
        -11   -1    0    0    0    0  0.00000000000E+00  0.00000000000E+00  0.45593999997E+02  0.45594000000E+02  0.51100000000E-03 0. -1.
         11   -1    0    0    0    0 -0.00000000000E+00 -0.00000000000E+00 -0.45593999997E+02  0.45594000000E+02  0.51100000000E-03 0.  1.
    9900012    2    1    2    0    0  0.16514054454E+02 -0.27225072702E+02 -0.16733298948E+01  0.59301974674E+02  0.50000055891E+02 0.  0.
        -12    1    1    2    0    0 -0.16514054454E+02  0.27225072702E+02  0.16733298948E+01  0.31886025326E+02  0.00000000000E+00 0.  1.
         11    1    3    3    0    0 -0.35136400659E+00 -0.71228468198E+01 -0.14078735890E+01  0.72691479409E+01  0.51100000000E-03 0. -1.
        -11    1    3    3    0    0 -0.71478712196E+01  0.23626111374E+01 -0.14393250471E+02  0.16243141745E+02  0.51100000000E-03 0.  1.
         12    1    3    3    0    0  0.24013289680E+02 -0.22464837020E+02  0.14127794165E+02  0.35789684988E+02  0.00000000000E+00 0. -1.
</event>
<event>
 7    1  0.3750159E-013  0.5930193E+02  0.7816164E-02  0.1266605E+00
        -11   -1    0    0    0    0  0.00000000000E+00  0.00000000000E+00  0.45593999997E+02  0.45594000000E+02  0.51100000000E-03 0.  1.
         11   -1    0    0    0    0 -0.00000000000E+00 -0.00000000000E+00 -0.45593999997E+02  0.45594000000E+02  0.51100000000E-03 0. -1.
    9900012    2    1    2    0    0  0.16878772854E+01  0.25044054259E+02  0.19663877762E+02  0.59301926675E+02  0.49999968352E+02 0.  0.
        -12    1    1    2    0    0 -0.16878772854E+01 -0.25044054259E+02 -0.19663877762E+02  0.31886073325E+02  0.00000000000E+00 0.  1.
         11    1    3    3    0    0 -0.86717364699E+01 -0.18739596122E+01  0.83038764874E+01  0.12151753084E+02  0.51100000000E-03 0. -1.
        -11    1    3    3    0    0  0.83510535755E+01  0.40342881124E+01  0.20442624014E+02  0.22448083509E+02  0.51100000000E-03 0.  1.
         12    1    3    3    0    0  0.20085601798E+01  0.22883725759E+02 -0.90826227388E+01  0.24702090082E+02  0.00000000000E+00 0. -1.
</event>
<event>
 7    1  0.3750159E-013  0.5930194E+02  0.7816164E-02  0.1266605E+00
        -11   -1    0    0    0    0  0.00000000000E+00  0.00000000000E+00  0.45593999997E+02  0.45594000000E+02  0.51100000000E-03 0. -1.
         11   -1    0    0    0    0 -0.00000000000E+00 -0.00000000000E+00 -0.45593999997E+02  0.45594000000E+02  0.51100000000E-03 0.  1.
    9900012    2    1    2    0    0  0.80404945007E+01 -0.18121671994E+02  0.24973506110E+02  0.59301944191E+02  0.50000000297E+02 0.  0.
        -12    1    1    2    0    0 -0.80404945007E+01  0.18121671994E+02 -0.24973506110E+02  0.31886055809E+02  0.00000000000E+00 0.  1.
         11    1    3    3    0    0 -0.91533261042E+01  0.18462472013E+01  0.37338584586E+01  0.10056525580E+02  0.51100000000E-03 0. -1.
        -11    1    3    3    0    0 -0.76282711201E+01 -0.17340604029E+02  0.12936329834E+02  0.22939827772E+02  0.51100000000E-03 0.  1.
        -12    1    3    3    0    0  0.24822091725E+02 -0.26273151659E+01  0.83033178165E+01  0.26305590838E+02  0.00000000000E+00 0.  1.
</event>
<event>
 7    1  0.3750159E-013  0.5930205E+02  0.7816164E-02  0.1266604E+00
        -11   -1    0    0    0    0  0.00000000000E+00  0.00000000000E+00  0.45593999997E+02  0.45594000000E+02  0.51100000000E-03 0.  1.
         11   -1    0    0    0    0 -0.00000000000E+00 -0.00000000000E+00 -0.45593999997E+02  0.45594000000E+02  0.51100000000E-03 0. -1.
    9900012    2    1    2    0    0 -0.82383969011E+01  0.21917793108E+02 -0.21643772180E+02  0.59302051490E+02  0.50000195984E+02 0.  0.
        -12    1    1    2    0    0  0.82383969011E+01 -0.21917793108E+02  0.21643772180E+02  0.31885948510E+02  0.00000000000E+00 0.  1.
         11    1    3    3    0    0  0.52710460471E+01  0.54968215338E+01 -0.52920168747E+01  0.92738566016E+01  0.51100000000E-03 0. -1.
        -11    1    3    3    0    0 -0.91088131549E+01  0.30846621969E+02 -0.12026042862E+02  0.34338175129E+02  0.51100000000E-03 0.  1.
        -12    1    3    3    0    0 -0.44006297933E+01 -0.14425650395E+02 -0.43257124436E+01  0.15690019759E+02  0.00000000000E+00 0.  1.
</event>
<event>
 7    1  0.3750159E-013  0.5930196E+02  0.7816164E-02  0.1266605E+00
        -11   -1    0    0    0    0  0.00000000000E+00  0.00000000000E+00  0.45593999997E+02  0.45594000000E+02  0.51100000000E-03 0. -1.
         11   -1    0    0    0    0 -0.00000000000E+00 -0.00000000000E+00 -0.45593999997E+02  0.45594000000E+02  0.51100000000E-03 0.  1.
    9900012    2    1    2    0    0 -0.23813828094E+02  0.10324510827E+02  0.18520956649E+02  0.59301956541E+02  0.50000022821E+02 0.  0.
        -12    1    1    2    0    0  0.23813828094E+02 -0.10324510827E+02 -0.18520956649E+02  0.31886043459E+02  0.00000000000E+00 0.  1.
         11    1    3    3    0    0 -0.22727286707E+02 -0.61301842923E+01  0.33203983358E+01  0.23772542268E+02  0.51100000000E-03 0. -1.
        -11    1    3    3    0    0 -0.53694213681E+01  0.58554471783E+01  0.21185161211E+02  0.22625826024E+02  0.51100000000E-03 0.  1.
         12    1    3    3    0    0  0.42828799815E+01  0.10599247941E+02 -0.59846028973E+01  0.12903588249E+02  0.00000000000E+00 0. -1.
</event>
<event>
 7    1  0.3750159E-013  0.5930172E+02  0.7816164E-02  0.1266606E+00
        -11   -1    0    0    0    0  0.00000000000E+00  0.00000000000E+00  0.45593999997E+02  0.45594000000E+02  0.51100000000E-03 0. -1.
         11   -1    0    0    0    0 -0.00000000000E+00 -0.00000000000E+00 -0.45593999997E+02  0.45594000000E+02  0.51100000000E-03 0.  1.
    9900012    2    1    2    0    0 -0.14087136858E+02  0.18979967998E+02  0.21402056508E+02  0.59301723440E+02  0.49999597700E+02 0.  0.
        -12    1    1    2    0    0  0.14087136858E+02 -0.18979967998E+02 -0.21402056508E+02  0.31886276560E+02  0.00000000000E+00 0.  1.
         11    1    3    3    0    0  0.10210428486E+02  0.86232493977E+01  0.27710593677E+02  0.30765082192E+02  0.51100000000E-03 0. -1.
        -11    1    3    3    0    0 -0.10040653394E+02  0.48568984073E+00 -0.47735515353E+01  0.11128225812E+02  0.51100000000E-03 0.  1.
        -12    1    3    3    0    0 -0.14256911950E+02  0.98710287598E+01 -0.15349856344E+01  0.17408415437E+02  0.00000000000E+00 0.  1.
</event>
<event>
 7    1  0.3750159E-013  0.5930192E+02  0.7816164E-02  0.1266605E+00
        -11   -1    0    0    0    0  0.00000000000E+00  0.00000000000E+00  0.45593999997E+02  0.45594000000E+02  0.51100000000E-03 0.  1.
         11   -1    0    0    0    0 -0.00000000000E+00 -0.00000000000E+00 -0.45593999997E+02  0.45594000000E+02  0.51100000000E-03 0. -1.
    9900012    2    1    2    0    0 -0.35702347119E+01  0.27054334229E+02 -0.16493595897E+02  0.59301917110E+02  0.49999950908E+02 0.  0.
        -12    1    1    2    0    0  0.35702347119E+01 -0.27054334229E+02  0.16493595897E+02  0.31886082890E+02  0.00000000000E+00 0.  1.
         11    1    3    3    0    0 -0.21723528408E+01  0.17664331950E+02  0.41676873914E+01  0.18278877388E+02  0.51100000000E-03 0. -1.
        -11    1    3    3    0    0 -0.67569739021E+01  0.18882868059E+02 -0.30144480817E+01  0.20280687856E+02  0.51100000000E-03 0.  1.
        -12    1    3    3    0    0  0.53590920310E+01 -0.94928657796E+01 -0.17646835206E+02  0.20742351865E+02  0.00000000000E+00 0.  1.
</event>
<event>
 7    1  0.3750159E-013  0.5930196E+02  0.7816164E-02  0.1266605E+00
        -11   -1    0    0    0    0  0.00000000000E+00  0.00000000000E+00  0.45593999997E+02  0.45594000000E+02  0.51100000000E-03 0.  1.
         11   -1    0    0    0    0 -0.00000000000E+00 -0.00000000000E+00 -0.45593999997E+02  0.45594000000E+02  0.51100000000E-03 0. -1.
    9900012    2    1    2    0    0  0.16611273746E+02  0.12944693471E+02 -0.23942009875E+02  0.59301963223E+02  0.50000035007E+02 0.  0.
        -12    1    1    2    0    0 -0.16611273746E+02 -0.12944693471E+02  0.23942009875E+02  0.31886036777E+02  0.00000000000E+00 0.  1.
         11    1    3    3    0    0 -0.97080282372E+01 -0.54953730268E+01 -0.10042699109E+02  0.15010021406E+02  0.51100000000E-03 0. -1.
        -11    1    3    3    0    0 -0.45829915418E+01  0.77760865480E+01 -0.75456423964E+00  0.90576321921E+01  0.51100000000E-03 0.  1.
         12    1    3    3    0    0  0.30902293525E+02  0.10663979950E+02 -0.13144746526E+02  0.35234309624E+02  0.00000000000E+00 0. -1.
</event>
<event>
 7    1  0.3750159E-013  0.5930194E+02  0.7816164E-02  0.1266605E+00
        -11   -1    0    0    0    0  0.00000000000E+00  0.00000000000E+00  0.45593999997E+02  0.45594000000E+02  0.51100000000E-03 0. -1.
         11   -1    0    0    0    0 -0.00000000000E+00 -0.00000000000E+00 -0.45593999997E+02  0.45594000000E+02  0.51100000000E-03 0.  1.
    9900012    2    1    2    0    0  0.27003727224E+02  0.12030871465E+02 -0.11948959103E+02  0.59301940728E+02  0.49999993983E+02 0.  0.
        -12    1    1    2    0    0 -0.27003727224E+02 -0.12030871465E+02  0.11948959103E+02  0.31886059272E+02  0.00000000000E+00 0.  1.
         11    1    3    3    0    0  0.15759321327E+02  0.23713511825E+02 -0.25001658562E+02  0.37891552922E+02  0.51100000000E-03 0. -1.
        -11    1    3    3    0    0  0.57614760356E+01 -0.25869462819E+01  0.55431451080E+01  0.84031753001E+01  0.51100000000E-03 0.  1.
        -12    1    3    3    0    0  0.54829298617E+01 -0.90956940781E+01  0.75095543505E+01  0.13007212506E+02  0.00000000000E+00 0.  1.
</event>
<event>
 7    1  0.3750159E-013  0.5930195E+02  0.7816164E-02  0.1266605E+00
        -11   -1    0    0    0    0  0.00000000000E+00  0.00000000000E+00  0.45593999997E+02  0.45594000000E+02  0.51100000000E-03 0.  1.
         11   -1    0    0    0    0 -0.00000000000E+00 -0.00000000000E+00 -0.45593999997E+02  0.45594000000E+02  0.51100000000E-03 0. -1.
    9900012    2    1    2    0    0  0.17316330392E+02  0.23791205198E+02 -0.12281835222E+02  0.59301949454E+02  0.50000009895E+02 0.  0.
        -12    1    1    2    0    0 -0.17316330392E+02 -0.23791205198E+02  0.12281835222E+02  0.31886050546E+02  0.00000000000E+00 0.  1.
         11    1    3    3    0    0  0.14419291462E+02  0.32386494462E+01 -0.10417887085E+02  0.18081404483E+02  0.51100000000E-03 0. -1.
        -11    1    3    3    0    0  0.10533220680E+02 -0.44307760537E+01 -0.85293044435E+01  0.14259367057E+02  0.51100000000E-03 0.  1.
         12    1    3    3    0    0 -0.76361817488E+01  0.24983331806E+02  0.66653563063E+01  0.26961177914E+02  0.00000000000E+00 0. -1.
</event>
<event>
 7    1  0.3750159E-013  0.5930203E+02  0.7816164E-02  0.1266604E+00
        -11   -1    0    0    0    0  0.00000000000E+00  0.00000000000E+00  0.45593999997E+02  0.45594000000E+02  0.51100000000E-03 0. -1.
         11   -1    0    0    0    0 -0.00000000000E+00 -0.00000000000E+00 -0.45593999997E+02  0.45594000000E+02  0.51100000000E-03 0.  1.
    9900012    2    1    2    0    0  0.23472972100E+02  0.21324539337E+02 -0.33164665439E+01  0.59302025850E+02  0.50000149224E+02 0.  0.
        -12    1    1    2    0    0 -0.23472972100E+02 -0.21324539337E+02  0.33164665439E+01  0.31885974150E+02  0.00000000000E+00 0.  1.
         11    1    3    3    0    0  0.32295550736E+01  0.66577213750E+01 -0.13975104199E+02  0.15813248165E+02  0.51100000000E-03 0. -1.
        -11    1    3    3    0    0  0.10252790954E+02 -0.81957814969E+01 -0.49841534168E+01  0.14040382553E+02  0.51100000000E-03 0.  1.
         12    1    3    3    0    0  0.99906260723E+01  0.22862599459E+02  0.15642791072E+02  0.29448395132E+02  0.00000000000E+00 0. -1.
</event>
<event>
 7    1  0.3750159E-013  0.5930195E+02  0.7816164E-02  0.1266605E+00
        -11   -1    0    0    0    0  0.00000000000E+00  0.00000000000E+00  0.45593999997E+02  0.45594000000E+02  0.51100000000E-03 0.  1.
         11   -1    0    0    0    0 -0.00000000000E+00 -0.00000000000E+00 -0.45593999997E+02  0.45594000000E+02  0.51100000000E-03 0. -1.
    9900012    2    1    2    0    0 -0.71414955712E+01  0.28120893821E+02 -0.13226287593E+02  0.59301948006E+02  0.50000007255E+02 0.  0.
        -12    1    1    2    0    0  0.71414955712E+01 -0.28120893821E+02  0.13226287593E+02  0.31886051994E+02  0.00000000000E+00 0.  1.
         11    1    3    3    0    0 -0.74647172893E+01  0.16736268470E+01 -0.14335552169E+02  0.16249033426E+02  0.51100000000E-03 0. -1.
        -11    1    3    3    0    0 -0.10305087673E+02  0.29149979925E+02  0.51924154607E+01  0.31350874631E+02  0.51100000000E-03 0.  1.
         12    1    3    3    0    0  0.10628309391E+02 -0.27027129510E+01 -0.40831508849E+01  0.11702039949E+02  0.00000000000E+00 0. -1.
</event>
<event>
 7    1  0.3750159E-013  0.5930191E+02  0.7816164E-02  0.1266605E+00
        -11   -1    0    0    0    0  0.00000000000E+00  0.00000000000E+00  0.45593999997E+02  0.45594000000E+02  0.51100000000E-03 0. -1.
         11   -1    0    0    0    0 -0.00000000000E+00 -0.00000000000E+00 -0.45593999997E+02  0.45594000000E+02  0.51100000000E-03 0.  1.
    9900012    2    1    2    0    0  0.78949255562E+01  0.30893231144E+02 -0.29036953099E-01  0.59301914897E+02  0.49999946873E+02 0.  0.
        -12    1    1    2    0    0 -0.78949255562E+01 -0.30893231144E+02  0.29036953099E-01  0.31886085103E+02  0.00000000000E+00 0.  1.
         11    1    3    3    0    0  0.47997537232E+01  0.36093999711E+01  0.40257659937E+01  0.72299513174E+01  0.51100000000E-03 0. -1.
        -11    1    3    3    0    0  0.20001659575E+02  0.21381749727E+02  0.81611961295E+01  0.30394912891E+02  0.51100000000E-03 0.  1.
        -12    1    3    3    0    0 -0.16906487742E+02  0.59020814457E+01 -0.12215999076E+02  0.21677050689E+02  0.00000000000E+00 0.  1.
</event>
<event>
 7    1  0.3750159E-013  0.5930193E+02  0.7816164E-02  0.1266605E+00
        -11   -1    0    0    0    0  0.00000000000E+00  0.00000000000E+00  0.45593999997E+02  0.45594000000E+02  0.51100000000E-03 0.  1.
         11   -1    0    0    0    0 -0.00000000000E+00 -0.00000000000E+00 -0.45593999997E+02  0.45594000000E+02  0.51100000000E-03 0. -1.
    9900012    2    1    2    0    0  0.25280031941E+02  0.14313541722E+02  0.13143975888E+02  0.59301927904E+02  0.49999970594E+02 0.  0.
        -12    1    1    2    0    0 -0.25280031941E+02 -0.14313541722E+02 -0.13143975888E+02  0.31886072096E+02  0.00000000000E+00 0.  1.
         11    1    3    3    0    0  0.25073026930E+02  0.11994631711E+02 -0.59461105001E+00  0.27800745168E+02  0.51100000000E-03 0. -1.
        -11    1    3    3    0    0  0.14345240758E+01 -0.75135071037E+01 -0.57960865297E+01  0.95971489330E+01  0.51100000000E-03 0.  1.
        -12    1    3    3    0    0 -0.12275190649E+01  0.98324171151E+01  0.19534673468E+02  0.21904033804E+02  0.00000000000E+00 0.  1.
</event>
<event>
 7    1  0.3750159E-013  0.5930193E+02  0.7816164E-02  0.1266605E+00
        -11   -1    0    0    0    0  0.00000000000E+00  0.00000000000E+00  0.45593999997E+02  0.45594000000E+02  0.51100000000E-03 0.  1.
         11   -1    0    0    0    0 -0.00000000000E+00 -0.00000000000E+00 -0.45593999997E+02  0.45594000000E+02  0.51100000000E-03 0. -1.
    9900012    2    1    2    0    0 -0.93320848684E+01  0.19650872018E+01 -0.30426502507E+02  0.59301930463E+02  0.49999975262E+02 0.  0.
        -12    1    1    2    0    0  0.93320848684E+01 -0.19650872018E+01  0.30426502507E+02  0.31886069537E+02  0.00000000000E+00 0.  1.
         11    1    3    3    0    0 -0.87665258685E+01 -0.97837512056E+01  0.24711268873E+00  0.13139057363E+02  0.51100000000E-03 0. -1.
        -11    1    3    3    0    0  0.59551152381E+01 -0.69981288974E+01  0.50455066494E+00  0.92028135480E+01  0.51100000000E-03 0.  1.
         12    1    3    3    0    0 -0.65206742380E+01  0.18746967305E+02 -0.31178165861E+02  0.36960059552E+02  0.00000000000E+00 0. -1.
</event>
<event>
 7    1  0.3750159E-013  0.5930193E+02  0.7816164E-02  0.1266605E+00
        -11   -1    0    0    0    0  0.00000000000E+00  0.00000000000E+00  0.45593999997E+02  0.45594000000E+02  0.51100000000E-03 0.  1.
         11   -1    0    0    0    0 -0.00000000000E+00 -0.00000000000E+00 -0.45593999997E+02  0.45594000000E+02  0.51100000000E-03 0. -1.
    9900012    2    1    2    0    0  0.12125223900E+02 -0.26418571245E+02 -0.13105706978E+02  0.59301929112E+02  0.49999972798E+02 0.  0.
        -12    1    1    2    0    0 -0.12125223900E+02  0.26418571245E+02  0.13105706978E+02  0.31886070888E+02  0.00000000000E+00 0.  1.
         11    1    3    3    0    0  0.15700801663E+01 -0.17962177308E+02 -0.57811240455E+01  0.18934792338E+02  0.51100000000E-03 0. -1.
        -11    1    3    3    0    0  0.13414382101E+02 -0.21611971774E+02 -0.85831382650E+01  0.26845730272E+02  0.51100000000E-03 0.  1.
         12    1    3    3    0    0 -0.28592383668E+01  0.13155577837E+02  0.12585553328E+01  0.13521406502E+02  0.00000000000E+00 0. -1.
</event>
<event>
 7    1  0.3750159E-013  0.5930194E+02  0.7816164E-02  0.1266605E+00
        -11   -1    0    0    0    0  0.00000000000E+00  0.00000000000E+00  0.45593999997E+02  0.45594000000E+02  0.51100000000E-03 0.  1.
         11   -1    0    0    0    0 -0.00000000000E+00 -0.00000000000E+00 -0.45593999997E+02  0.45594000000E+02  0.51100000000E-03 0. -1.
    9900012    2    1    2    0    0 -0.18421399735E+02 -0.24899830871E+02 -0.75743759848E+01  0.59301941649E+02  0.49999995662E+02 0.  0.
        -12    1    1    2    0    0  0.18421399735E+02  0.24899830871E+02  0.75743759848E+01  0.31886058351E+02  0.00000000000E+00 0.  1.
         11    1    3    3    0    0 -0.18899821478E+02 -0.77223990729E+00 -0.64031221201E+01  0.19969966939E+02  0.51100000000E-03 0. -1.
        -11    1    3    3    0    0  0.12613520809E+01  0.72937678926E+01  0.21962485002E+01  0.77209822483E+01  0.51100000000E-03 0.  1.
        -12    1    3    3    0    0 -0.78293033809E+00 -0.31421358856E+02 -0.33675023649E+01  0.31610992462E+02  0.00000000000E+00 0.  1.
</event>
<event>
 7    1  0.3750159E-013  0.5930194E+02  0.7816164E-02  0.1266605E+00
        -11   -1    0    0    0    0  0.00000000000E+00  0.00000000000E+00  0.45593999997E+02  0.45594000000E+02  0.51100000000E-03 0.  1.
         11   -1    0    0    0    0 -0.00000000000E+00 -0.00000000000E+00 -0.45593999997E+02  0.45594000000E+02  0.51100000000E-03 0. -1.
    9900012    2    1    2    0    0 -0.26734269687E+02 -0.17003143386E+02 -0.35906062762E+01  0.59301944833E+02  0.50000001469E+02 0.  0.
        -12    1    1    2    0    0  0.26734269687E+02  0.17003143386E+02  0.35906062762E+01  0.31886055167E+02  0.00000000000E+00 0.  1.
         11    1    3    3    0    0  0.43384394473E+01 -0.21114190102E+01  0.36400013058E+01  0.60439851789E+01  0.51100000000E-03 0. -1.
        -11    1    3    3    0    0 -0.17091603528E+02 -0.11598745157E+02  0.15875239934E+02  0.26051430740E+02  0.51100000000E-03 0.  1.
        -12    1    3    3    0    0 -0.13981105606E+02 -0.32929792183E+01 -0.23105847516E+02  0.27206528914E+02  0.00000000000E+00 0.  1.
</event>
<event>
 7    1  0.3750159E-013  0.5930188E+02  0.7816164E-02  0.1266605E+00
        -11   -1    0    0    0    0  0.00000000000E+00  0.00000000000E+00  0.45593999997E+02  0.45594000000E+02  0.51100000000E-03 0. -1.
         11   -1    0    0    0    0 -0.00000000000E+00 -0.00000000000E+00 -0.45593999997E+02  0.45594000000E+02  0.51100000000E-03 0.  1.
    9900012    2    1    2    0    0 -0.21650814862E+02 -0.59326264914E+01  0.22644446687E+02  0.59301877516E+02  0.49999878699E+02 0.  0.
        -12    1    1    2    0    0  0.21650814862E+02  0.59326264914E+01 -0.22644446687E+02  0.31886122484E+02  0.00000000000E+00 0.  1.
         11    1    3    3    0    0 -0.35621101622E+01  0.35730893774E+01 -0.61480420807E+01  0.79532394780E+01  0.51100000000E-03 0.  1.
        -11    1    3    3    0    0 -0.10019933097E+02 -0.48143458712E+01  0.37176219384E+02  0.38802683842E+02  0.51100000000E-03 0. -1.
         12    1    3    3    0    0 -0.80687716036E+01 -0.46913699976E+01 -0.83837306163E+01  0.12545954196E+02  0.00000000000E+00 0. -1.
</event>
<event>
 7    1  0.3750159E-013  0.5930193E+02  0.7816164E-02  0.1266605E+00
        -11   -1    0    0    0    0  0.00000000000E+00  0.00000000000E+00  0.45593999997E+02  0.45594000000E+02  0.51100000000E-03 0.  1.
         11   -1    0    0    0    0 -0.00000000000E+00 -0.00000000000E+00 -0.45593999997E+02  0.45594000000E+02  0.51100000000E-03 0. -1.
    9900012    2    1    2    0    0 -0.19970130835E+02  0.16329827974E+02 -0.18741726619E+02  0.59301925862E+02  0.49999966871E+02 0.  0.
        -12    1    1    2    0    0  0.19970130835E+02 -0.16329827974E+02  0.18741726619E+02  0.31886074138E+02  0.00000000000E+00 0.  1.
         11    1    3    3    0    0 -0.45431846869E+01  0.13659638175E+02 -0.48271833049E+01  0.15183146614E+02  0.51100000000E-03 0. -1.
        -11    1    3    3    0    0  0.58868349634E+01  0.22229439237E+01  0.10166973075E+02  0.11956740666E+02  0.51100000000E-03 0.  1.
         12    1    3    3    0    0 -0.21313781112E+02  0.44724587495E+00 -0.24081516389E+02  0.32162038582E+02  0.00000000000E+00 0. -1.
</event>
<event>
 7    1  0.3750159E-013  0.5930169E+02  0.7816164E-02  0.1266606E+00
        -11   -1    0    0    0    0  0.00000000000E+00  0.00000000000E+00  0.45593999997E+02  0.45594000000E+02  0.51100000000E-03 0. -1.
         11   -1    0    0    0    0 -0.00000000000E+00 -0.00000000000E+00 -0.45593999997E+02  0.45594000000E+02  0.51100000000E-03 0.  1.
    9900012    2    1    2    0    0 -0.27013175029E+02  0.16246449539E+02  0.48039520730E+01  0.59301690974E+02  0.49999538489E+02 0.  0.
        -12    1    1    2    0    0  0.27013175029E+02 -0.16246449539E+02 -0.48039520730E+01  0.31886309026E+02  0.00000000000E+00 0.  1.
         11    1    3    3    0    0 -0.10990947020E+01 -0.97231493742E+01  0.27441743497E+01  0.10162585106E+02  0.51100000000E-03 0. -1.
        -11    1    3    3    0    0 -0.29220566964E+02  0.15649291068E+02 -0.82745576976E+01  0.34164457408E+02  0.51100000000E-03 0.  1.
         12    1    3    3    0    0  0.33064866376E+01  0.10320307846E+02  0.10334335421E+02  0.14974648460E+02  0.00000000000E+00 0. -1.
</event>
<event>
 7    1  0.3750159E-013  0.5930196E+02  0.7816164E-02  0.1266605E+00
        -11   -1    0    0    0    0  0.00000000000E+00  0.00000000000E+00  0.45593999997E+02  0.45594000000E+02  0.51100000000E-03 0.  1.
         11   -1    0    0    0    0 -0.00000000000E+00 -0.00000000000E+00 -0.45593999997E+02  0.45594000000E+02  0.51100000000E-03 0. -1.
    9900012    2    1    2    0    0 -0.83579284478E+01  0.21968624297E+02 -0.21546329996E+02  0.59301956694E+02  0.50000023100E+02 0.  0.
        -12    1    1    2    0    0  0.83579284478E+01 -0.21968624297E+02  0.21546329996E+02  0.31886043306E+02  0.00000000000E+00 0.  1.
         11    1    3    3    0    0  0.58568253202E+01  0.22894117420E+02 -0.30591401276E+01  0.23828582708E+02  0.51100000000E-03 0. -1.
        -11    1    3    3    0    0  0.20455311808E+01 -0.64055912899E+01  0.35020199904E+01  0.75815527341E+01  0.51100000000E-03 0.  1.
         12    1    3    3    0    0 -0.16260284949E+02  0.54800981669E+01 -0.21989209859E+02  0.27891821252E+02  0.00000000000E+00 0. -1.
</event>
<event>
 7    1  0.3750159E-013  0.5930195E+02  0.7816164E-02  0.1266605E+00
        -11   -1    0    0    0    0  0.00000000000E+00  0.00000000000E+00  0.45593999997E+02  0.45594000000E+02  0.51100000000E-03 0. -1.
         11   -1    0    0    0    0 -0.00000000000E+00 -0.00000000000E+00 -0.45593999997E+02  0.45594000000E+02  0.51100000000E-03 0.  1.
    9900012    2    1    2    0    0 -0.28698263083E+02 -0.13263836063E+02  0.41473369742E+01  0.59301952032E+02  0.50000014597E+02 0.  0.
        -12    1    1    2    0    0  0.28698263083E+02  0.13263836063E+02 -0.41473369742E+01  0.31886047968E+02  0.00000000000E+00 0.  1.
         11    1    3    3    0    0 -0.12970471551E+02 -0.34527891268E+01 -0.18586870891E+02  0.22926549126E+02  0.51100000000E-03 0.  1.
        -11    1    3    3    0    0 -0.37638749290E+01 -0.10468742053E+02  0.52141499296E+00  0.11137018834E+02  0.51100000000E-03 0. -1.
        -12    1    3    3    0    0 -0.11963916603E+02  0.65769511755E+00  0.22212792873E+02  0.25238384072E+02  0.00000000000E+00 0.  1.
</event>
<event>
 7    1  0.3750159E-013  0.5930194E+02  0.7816164E-02  0.1266605E+00
        -11   -1    0    0    0    0  0.00000000000E+00  0.00000000000E+00  0.45593999997E+02  0.45594000000E+02  0.51100000000E-03 0.  1.
         11   -1    0    0    0    0 -0.00000000000E+00 -0.00000000000E+00 -0.45593999997E+02  0.45594000000E+02  0.51100000000E-03 0. -1.
    9900012    2    1    2    0    0 -0.23869186774E+01 -0.30861187471E+02 -0.76557461395E+01  0.59301941575E+02  0.49999995527E+02 0.  0.
        -12    1    1    2    0    0  0.23869186774E+01  0.30861187471E+02  0.76557461395E+01  0.31886058425E+02  0.00000000000E+00 0.  1.
         11    1    3    3    0    0  0.24987018496E+01 -0.78712655136E+01  0.77290991393E+01  0.11311025837E+02  0.51100000000E-03 0. -1.
        -11    1    3    3    0    0 -0.16422903786E+02  0.24880274542E+01 -0.12598190752E+01  0.16658006896E+02  0.51100000000E-03 0.  1.
         12    1    3    3    0    0  0.11537283260E+02 -0.25477949412E+02 -0.14125026204E+02  0.31332908842E+02  0.00000000000E+00 0. -1.
</event>
<event>
 7    1  0.3750159E-013  0.5930193E+02  0.7816164E-02  0.1266605E+00
        -11   -1    0    0    0    0  0.00000000000E+00  0.00000000000E+00  0.45593999997E+02  0.45594000000E+02  0.51100000000E-03 0. -1.
         11   -1    0    0    0    0 -0.00000000000E+00 -0.00000000000E+00 -0.45593999997E+02  0.45594000000E+02  0.51100000000E-03 0.  1.
    9900012    2    1    2    0    0 -0.33652733956E+01  0.13441994271E+02  0.28717749216E+02  0.59301931020E+02  0.49999976276E+02 0.  0.
        -12    1    1    2    0    0  0.33652733956E+01 -0.13441994271E+02 -0.28717749216E+02  0.31886068980E+02  0.00000000000E+00 0.  1.
         11    1    3    3    0    0  0.53469326843E+01 -0.95977820044E+01  0.17259041580E+02  0.20459267461E+02  0.51100000000E-03 0.  1.
        -11    1    3    3    0    0 -0.13084733988E+02  0.63650237844E+01  0.15370964667E+02  0.21165782442E+02  0.51100000000E-03 0. -1.
         12    1    3    3    0    0  0.43725279084E+01  0.16674752491E+02 -0.39122570306E+01  0.17676881117E+02  0.00000000000E+00 0. -1.
</event>
<event>
 7    1  0.3750159E-013  0.5930191E+02  0.7816164E-02  0.1266605E+00
        -11   -1    0    0    0    0  0.00000000000E+00  0.00000000000E+00  0.45593999997E+02  0.45594000000E+02  0.51100000000E-03 0.  1.
         11   -1    0    0    0    0 -0.00000000000E+00 -0.00000000000E+00 -0.45593999997E+02  0.45594000000E+02  0.51100000000E-03 0. -1.
    9900012    2    1    2    0    0 -0.28612924123E+02  0.11729857760E+02 -0.77739272205E+01  0.59301906881E+02  0.49999932254E+02 0.  0.
        -12    1    1    2    0    0  0.28612924123E+02 -0.11729857760E+02  0.77739272205E+01  0.31886093119E+02  0.00000000000E+00 0.  1.
         11    1    3    3    0    0 -0.79227303188E+01  0.54127521365E+01 -0.16945412389E+02  0.19473431713E+02  0.51100000000E-03 0. -1.
        -11    1    3    3    0    0  0.80089389642E+01 -0.30350176844E+01  0.23829055759E+01  0.88900323352E+01  0.51100000000E-03 0.  1.
        -12    1    3    3    0    0 -0.28699132769E+02  0.93521233074E+01  0.67885795928E+01  0.30938442833E+02  0.00000000000E+00 0.  1.
</event>
<event>
 7    1  0.3750159E-013  0.5930189E+02  0.7816164E-02  0.1266605E+00
        -11   -1    0    0    0    0  0.00000000000E+00  0.00000000000E+00  0.45593999997E+02  0.45594000000E+02  0.51100000000E-03 0. -1.
         11   -1    0    0    0    0 -0.00000000000E+00 -0.00000000000E+00 -0.45593999997E+02  0.45594000000E+02  0.51100000000E-03 0.  1.
    9900012    2    1    2    0    0  0.89316643421E+01  0.29488300302E+02  0.82091313708E+01  0.59301885146E+02  0.49999892614E+02 0.  0.
        -12    1    1    2    0    0 -0.89316643421E+01 -0.29488300302E+02 -0.82091313708E+01  0.31886114854E+02  0.00000000000E+00 0.  1.
         11    1    3    3    0    0 -0.13572942353E+02  0.10199339395E+02  0.65397031789E+01  0.18193927727E+02  0.51100000000E-03 0. -1.
        -11    1    3    3    0    0  0.85109659842E+01  0.19146194676E+02  0.11598843089E+02  0.23948830322E+02  0.51100000000E-03 0.  1.
        -12    1    3    3    0    0  0.13993640711E+02  0.14276623152E+00 -0.99294148968E+01  0.17159127097E+02  0.00000000000E+00 0.  1.
</event>
<event>
 7    1  0.3750159E-013  0.5930195E+02  0.7816164E-02  0.1266605E+00
        -11   -1    0    0    0    0  0.00000000000E+00  0.00000000000E+00  0.45593999997E+02  0.45594000000E+02  0.51100000000E-03 0.  1.
         11   -1    0    0    0    0 -0.00000000000E+00 -0.00000000000E+00 -0.45593999997E+02  0.45594000000E+02  0.51100000000E-03 0. -1.
    9900012    2    1    2    0    0 -0.21232680024E+02 -0.33391450600E+01 -0.23552994245E+02  0.59301950877E+02  0.50000012492E+02 0.  0.
        -12    1    1    2    0    0  0.21232680024E+02  0.33391450600E+01  0.23552994245E+02  0.31886049123E+02  0.00000000000E+00 0.  1.
         11    1    3    3    0    0 -0.63493152474E+01  0.44320399550E+01  0.80859993998E+01  0.11195542364E+02  0.51100000000E-03 0. -1.
        -11    1    3    3    0    0  0.43813790958E+01 -0.71803164581E+01  0.26095674242E+01  0.88070011708E+01  0.51100000000E-03 0.  1.
         12    1    3    3    0    0 -0.19264743873E+02 -0.59086855694E+00 -0.34248561069E+02  0.39299407342E+02  0.00000000000E+00 0. -1.
</event>
<event>
 7    1  0.3750159E-013  0.5930194E+02  0.7816164E-02  0.1266605E+00
        -11   -1    0    0    0    0  0.00000000000E+00  0.00000000000E+00  0.45593999997E+02  0.45594000000E+02  0.51100000000E-03 0. -1.
         11   -1    0    0    0    0 -0.00000000000E+00 -0.00000000000E+00 -0.45593999997E+02  0.45594000000E+02  0.51100000000E-03 0.  1.
    9900012    2    1    2    0    0 -0.14537073707E+02 -0.13499762404E+02 -0.24962984208E+02  0.59301942271E+02  0.49999996796E+02 0.  0.
        -12    1    1    2    0    0  0.14537073707E+02  0.13499762404E+02  0.24962984208E+02  0.31886057729E+02  0.00000000000E+00 0.  1.
         11    1    3    3    0    0 -0.65738797171E+01 -0.18184599300E+02 -0.25158581379E+02  0.31730896039E+02  0.51100000000E-03 0. -1.
        -11    1    3    3    0    0 -0.18346800287E+01  0.73523084400E+01 -0.11692221129E+02  0.13933073078E+02  0.51100000000E-03 0.  1.
         12    1    3    3    0    0 -0.61285139614E+01 -0.26674715447E+01  0.11887818299E+02  0.13637973154E+02  0.00000000000E+00 0. -1.
</event>
<event>
 7    1  0.3750159E-013  0.5930179E+02  0.7816164E-02  0.1266605E+00
        -11   -1    0    0    0    0  0.00000000000E+00  0.00000000000E+00  0.45593999997E+02  0.45594000000E+02  0.51100000000E-03 0.  1.
         11   -1    0    0    0    0 -0.00000000000E+00 -0.00000000000E+00 -0.45593999997E+02  0.45594000000E+02  0.51100000000E-03 0. -1.
    9900012    2    1    2    0    0  0.69314954129E+01 -0.31287505232E+01 -0.30966045455E+02  0.59301785430E+02  0.49999710755E+02 0.  0.
        -12    1    1    2    0    0 -0.69314954129E+01  0.31287505232E+01  0.30966045455E+02  0.31886214570E+02  0.00000000000E+00 0.  1.
         11    1    3    3    0    0  0.63450010521E+01  0.51921568211E+01 -0.40767669779E+02  0.41583896285E+02  0.51100000000E-03 0. -1.
        -11    1    3    3    0    0 -0.26059282364E+01  0.12283962930E+01 -0.90575920913E+00  0.30199701045E+01  0.51100000000E-03 0.  1.
        -12    1    3    3    0    0  0.31924225973E+01 -0.95493036373E+01  0.10707383533E+02  0.14697919041E+02  0.00000000000E+00 0.  1.
</event>
<event>
 7    1  0.3750159E-013  0.5930192E+02  0.7816164E-02  0.1266605E+00
        -11   -1    0    0    0    0  0.00000000000E+00  0.00000000000E+00  0.45593999997E+02  0.45594000000E+02  0.51100000000E-03 0. -1.
         11   -1    0    0    0    0 -0.00000000000E+00 -0.00000000000E+00 -0.45593999997E+02  0.45594000000E+02  0.51100000000E-03 0.  1.
    9900012    2    1    2    0    0  0.15492006336E+02 -0.92194631202E+00  0.27854442490E+02  0.59301918213E+02  0.49999952919E+02 0.  0.
        -12    1    1    2    0    0 -0.15492006336E+02  0.92194631202E+00 -0.27854442490E+02  0.31886081787E+02  0.00000000000E+00 0.  1.
         11    1    3    3    0    0 -0.43185009442E+00 -0.50289780820E+01  0.79683019051E+01  0.94324413894E+01  0.51100000000E-03 0. -1.
        -11    1    3    3    0    0 -0.22987284782E+01 -0.89679048234E+01 -0.92592325213E+01  0.13093542557E+02  0.51100000000E-03 0.  1.
         12    1    3    3    0    0  0.18222584908E+02  0.13074936593E+02  0.29145373106E+02  0.36775934267E+02  0.00000000000E+00 0. -1.
</event>
<event>
 7    1  0.3750159E-013  0.5930195E+02  0.7816164E-02  0.1266605E+00
        -11   -1    0    0    0    0  0.00000000000E+00  0.00000000000E+00  0.45593999997E+02  0.45594000000E+02  0.51100000000E-03 0.  1.
         11   -1    0    0    0    0 -0.00000000000E+00 -0.00000000000E+00 -0.45593999997E+02  0.45594000000E+02  0.51100000000E-03 0. -1.
    9900012    2    1    2    0    0 -0.18701120249E+02  0.24939517805E+02 -0.67088622123E+01  0.59301948518E+02  0.50000008190E+02 0.  0.
        -12    1    1    2    0    0  0.18701120249E+02 -0.24939517805E+02  0.67088622123E+01  0.31886051482E+02  0.00000000000E+00 0.  1.
         11    1    3    3    0    0 -0.49939805690E+01 -0.10501937605E+02  0.31583428484E+01  0.12050131335E+02  0.51100000000E-03 0. -1.
        -11    1    3    3    0    0  0.22292984807E+00 -0.38277637965E+01 -0.33238808178E+01  0.50744120203E+01  0.51100000000E-03 0.  1.
         12    1    3    3    0    0 -0.13930069528E+02  0.39269219206E+02 -0.65433242430E+01  0.42177405163E+02  0.00000000000E+00 0. -1.
</event>
<event>
 7    1  0.3750159E-013  0.5930191E+02  0.7816164E-02  0.1266605E+00
        -11   -1    0    0    0    0  0.00000000000E+00  0.00000000000E+00  0.45593999997E+02  0.45594000000E+02  0.51100000000E-03 0.  1.
         11   -1    0    0    0    0 -0.00000000000E+00 -0.00000000000E+00 -0.45593999997E+02  0.45594000000E+02  0.51100000000E-03 0. -1.
    9900012    2    1    2    0    0 -0.60263406639E+01  0.23521324122E+01 -0.31222959533E+02  0.59301913525E+02  0.49999944371E+02 0.  0.
        -12    1    1    2    0    0  0.60263406639E+01 -0.23521324122E+01  0.31222959533E+02  0.31886086475E+02  0.00000000000E+00 0.  1.
         11    1    3    3    0    0 -0.27136018164E+01  0.89651943238E+01 -0.10670353098E+02  0.14198407642E+02  0.51100000000E-03 0. -1.
        -11    1    3    3    0    0  0.11942789674E+02  0.95823201619E+01 -0.76944098494E+00  0.15331116221E+02  0.51100000000E-03 0.  1.
        -12    1    3    3    0    0 -0.15255528521E+02 -0.16195382073E+02 -0.19783165450E+02  0.29772389662E+02  0.00000000000E+00 0.  1.
</event>
<event>
 7    1  0.3750159E-013  0.5930192E+02  0.7816164E-02  0.1266605E+00
        -11   -1    0    0    0    0  0.00000000000E+00  0.00000000000E+00  0.45593999997E+02  0.45594000000E+02  0.51100000000E-03 0. -1.
         11   -1    0    0    0    0 -0.00000000000E+00 -0.00000000000E+00 -0.45593999997E+02  0.45594000000E+02  0.51100000000E-03 0.  1.
    9900012    2    1    2    0    0  0.22684472756E+02  0.14829856503E+02  0.16799166273E+02  0.59301922543E+02  0.49999960817E+02 0.  0.
        -12    1    1    2    0    0 -0.22684472756E+02 -0.14829856503E+02 -0.16799166273E+02  0.31886077457E+02  0.00000000000E+00 0.  1.
         11    1    3    3    0    0  0.24156473968E+02 -0.12844793042E+01  0.88116562160E+01  0.25745492949E+02  0.51100000000E-03 0. -1.
        -11    1    3    3    0    0  0.87093044536E+01  0.10881212858E+02 -0.62608569968E+01  0.15279106909E+02  0.51100000000E-03 0.  1.
        -12    1    3    3    0    0 -0.10181305665E+02  0.52331229491E+01  0.14248367054E+02  0.18277322686E+02  0.00000000000E+00 0.  1.
</event>
<event>
 7    1  0.3750159E-013  0.5930193E+02  0.7816164E-02  0.1266605E+00
        -11   -1    0    0    0    0  0.00000000000E+00  0.00000000000E+00  0.45593999997E+02  0.45594000000E+02  0.51100000000E-03 0.  1.
         11   -1    0    0    0    0 -0.00000000000E+00 -0.00000000000E+00 -0.45593999997E+02  0.45594000000E+02  0.51100000000E-03 0. -1.
    9900012    2    1    2    0    0 -0.18767325840E+02  0.10296128344E+02 -0.23632575836E+02  0.59301930649E+02  0.49999975600E+02 0.  0.
        -12    1    1    2    0    0  0.18767325840E+02 -0.10296128344E+02  0.23632575836E+02  0.31886069351E+02  0.00000000000E+00 0.  1.
         11    1    3    3    0    0  0.16526385742E+01  0.19697562250E+02  0.26908199437E+01  0.19949077299E+02  0.51100000000E-03 0. -1.
        -11    1    3    3    0    0 -0.13974984457E+02  0.27919045994E+01 -0.77603701471E+01  0.16227084364E+02  0.51100000000E-03 0.  1.
        -12    1    3    3    0    0 -0.64449799570E+01 -0.12193338506E+02 -0.18563025632E+02  0.23125768986E+02  0.00000000000E+00 0.  1.
</event>
<event>
 7    1  0.3750159E-013  0.5930192E+02  0.7816164E-02  0.1266605E+00
        -11   -1    0    0    0    0  0.00000000000E+00  0.00000000000E+00  0.45593999997E+02  0.45594000000E+02  0.51100000000E-03 0.  1.
         11   -1    0    0    0    0 -0.00000000000E+00 -0.00000000000E+00 -0.45593999997E+02  0.45594000000E+02  0.51100000000E-03 0. -1.
    9900012    2    1    2    0    0  0.18212685006E+01  0.26463865916E+02 -0.17693755437E+02  0.59301918402E+02  0.49999953266E+02 0.  0.
        -12    1    1    2    0    0 -0.18212685006E+01 -0.26463865916E+02  0.17693755437E+02  0.31886081598E+02  0.00000000000E+00 0.  1.
         11    1    3    3    0    0 -0.75039249923E+01  0.13448670706E+01  0.34738265539E+01  0.83776505606E+01  0.51100000000E-03 0.  1.
        -11    1    3    3    0    0  0.18192993898E+02  0.79842395735E+01  0.28996445320E+01  0.20078372623E+02  0.51100000000E-03 0. -1.
         12    1    3    3    0    0 -0.88678004046E+01  0.17134759272E+02 -0.24067226523E+02  0.30845895219E+02  0.00000000000E+00 0. -1.
</event>
<event>
 7    1  0.3750159E-013  0.5930194E+02  0.7816164E-02  0.1266605E+00
        -11   -1    0    0    0    0  0.00000000000E+00  0.00000000000E+00  0.45593999997E+02  0.45594000000E+02  0.51100000000E-03 0. -1.
         11   -1    0    0    0    0 -0.00000000000E+00 -0.00000000000E+00 -0.45593999997E+02  0.45594000000E+02  0.51100000000E-03 0.  1.
    9900012    2    1    2    0    0 -0.98169010855E+01 -0.22907014577E+02  0.19890148095E+02  0.59301939487E+02  0.49999991719E+02 0.  0.
        -12    1    1    2    0    0  0.98169010855E+01  0.22907014577E+02 -0.19890148095E+02  0.31886060513E+02  0.00000000000E+00 0.  1.
         11    1    3    3    0    0 -0.24397705052E+01 -0.30569777094E+02  0.95331863795E+00  0.30681795390E+02  0.51100000000E-03 0.  1.
        -11    1    3    3    0    0 -0.11939589820E+02  0.64984051996E+00  0.64398878428E+01  0.13581172757E+02  0.51100000000E-03 0. -1.
        -12    1    3    3    0    0  0.45624592401E+01  0.70129219964E+01  0.12496941614E+02  0.15038971340E+02  0.00000000000E+00 0.  1.
</event>
<event>
 7    1  0.3750159E-013  0.5930193E+02  0.7816164E-02  0.1266605E+00
        -11   -1    0    0    0    0  0.00000000000E+00  0.00000000000E+00  0.45593999997E+02  0.45594000000E+02  0.51100000000E-03 0.  1.
         11   -1    0    0    0    0 -0.00000000000E+00 -0.00000000000E+00 -0.45593999997E+02  0.45594000000E+02  0.51100000000E-03 0. -1.
    9900012    2    1    2    0    0  0.55717546195E+01 -0.85243329421E+00 -0.31383919409E+02  0.59301929537E+02  0.49999973573E+02 0.  0.
        -12    1    1    2    0    0 -0.55717546195E+01  0.85243329421E+00  0.31383919409E+02  0.31886070463E+02  0.00000000000E+00 0.  1.
         11    1    3    3    0    0  0.64550223813E+01 -0.10617090560E+02 -0.34493635612E+02  0.36663344417E+02  0.51100000000E-03 0. -1.
        -11    1    3    3    0    0  0.70502401559E+01  0.65866181187E+01 -0.49912970344E+01  0.10862894220E+02  0.51100000000E-03 0.  1.
        -12    1    3    3    0    0 -0.79335079176E+01  0.31780391468E+01  0.81010132370E+01  0.11775690900E+02  0.00000000000E+00 0.  1.
</event>
<event>
 7    1  0.3750159E-013  0.5930195E+02  0.7816164E-02  0.1266605E+00
        -11   -1    0    0    0    0  0.00000000000E+00  0.00000000000E+00  0.45593999997E+02  0.45594000000E+02  0.51100000000E-03 0.  1.
         11   -1    0    0    0    0 -0.00000000000E+00 -0.00000000000E+00 -0.45593999997E+02  0.45594000000E+02  0.51100000000E-03 0. -1.
    9900012    2    1    2    0    0  0.55347547675E+01 -0.22434455381E+02 -0.21972304584E+02  0.59301945567E+02  0.50000002808E+02 0.  0.
        -12    1    1    2    0    0 -0.55347547675E+01  0.22434455381E+02  0.21972304584E+02  0.31886054433E+02  0.00000000000E+00 0.  1.
         11    1    3    3    0    0 -0.37400466807E+01  0.37043938109E+01 -0.27000711080E+01  0.59161530515E+01  0.51100000000E-03 0. -1.
        -11    1    3    3    0    0  0.14333038068E+01  0.11306832002E+02 -0.60773410973E+01  0.12916380484E+02  0.51100000000E-03 0.  1.
         12    1    3    3    0    0  0.78414976413E+01 -0.37445681194E+02 -0.13194892378E+02  0.40469412032E+02  0.00000000000E+00 0. -1.
</event>
<event>
 7    1  0.3750159E-013  0.5930193E+02  0.7816164E-02  0.1266605E+00
        -11   -1    0    0    0    0  0.00000000000E+00  0.00000000000E+00  0.45593999997E+02  0.45594000000E+02  0.51100000000E-03 0. -1.
         11   -1    0    0    0    0 -0.00000000000E+00 -0.00000000000E+00 -0.45593999997E+02  0.45594000000E+02  0.51100000000E-03 0.  1.
    9900012    2    1    2    0    0 -0.26938602655E+02 -0.16868514988E+02  0.25468164983E+01  0.59301931174E+02  0.49999976558E+02 0.  0.
        -12    1    1    2    0    0  0.26938602655E+02  0.16868514988E+02 -0.25468164983E+01  0.31886068826E+02  0.00000000000E+00 0.  1.
         11    1    3    3    0    0  0.66667414295E+01 -0.16599528247E+02 -0.93197182295E+01  0.20170446883E+02  0.51100000000E-03 0. -1.
        -11    1    3    3    0    0 -0.17457588197E+02 -0.40825811228E+01 -0.12630591478E+01  0.17973040170E+02  0.51100000000E-03 0.  1.
        -12    1    3    3    0    0 -0.16147755888E+02  0.38135943812E+01  0.13129593876E+02  0.21158444122E+02  0.00000000000E+00 0.  1.
</event>
<event>
 7    1  0.3750159E-013  0.5930197E+02  0.7816164E-02  0.1266605E+00
        -11   -1    0    0    0    0  0.00000000000E+00  0.00000000000E+00  0.45593999997E+02  0.45594000000E+02  0.51100000000E-03 0.  1.
         11   -1    0    0    0    0 -0.00000000000E+00 -0.00000000000E+00 -0.45593999997E+02  0.45594000000E+02  0.51100000000E-03 0. -1.
    9900012    2    1    2    0    0  0.11481672497E+02  0.77595356040E+00 -0.29736975480E+02  0.59301974566E+02  0.50000055695E+02 0.  0.
        -12    1    1    2    0    0 -0.11481672497E+02 -0.77595356040E+00  0.29736975480E+02  0.31886025434E+02  0.00000000000E+00 0.  1.
         11    1    3    3    0    0 -0.98315708751E+01 -0.16138796122E+02 -0.71435897952E+01  0.20202757277E+02  0.51100000000E-03 0. -1.
        -11    1    3    3    0    0  0.72375793524E+00  0.43557209581E+01  0.18256720369E+01  0.47779921788E+01  0.51100000000E-03 0.  1.
         12    1    3    3    0    0  0.20589485437E+02  0.12559028725E+02 -0.24419057722E+02  0.34321225111E+02  0.00000000000E+00 0. -1.
</event>
<event>
 7    1  0.3750159E-013  0.5930185E+02  0.7816164E-02  0.1266605E+00
        -11   -1    0    0    0    0  0.00000000000E+00  0.00000000000E+00  0.45593999997E+02  0.45594000000E+02  0.51100000000E-03 0.  1.
         11   -1    0    0    0    0 -0.00000000000E+00 -0.00000000000E+00 -0.45593999997E+02  0.45594000000E+02  0.51100000000E-03 0. -1.
    9900012    2    1    2    0    0  0.63769350160E+01  0.17164849745E+02 -0.26104194505E+02  0.59301853514E+02  0.49999834924E+02 0.  0.
        -12    1    1    2    0    0 -0.63769350160E+01 -0.17164849745E+02  0.26104194505E+02  0.31886146486E+02  0.00000000000E+00 0.  1.
         11    1    3    3    0    0 -0.50266586192E+01  0.14202634847E+00 -0.12698136382E+02  0.13657603604E+02  0.51100000000E-03 0. -1.
        -11    1    3    3    0    0  0.75890880161E+01 -0.10030134751E+02 -0.13324989473E+02  0.18323569651E+02  0.51100000000E-03 0.  1.
         12    1    3    3    0    0  0.38145056191E+01  0.27052958148E+02 -0.81068650150E-01  0.27320680259E+02  0.00000000000E+00 0. -1.
</event>
<event>
 7    1  0.3750159E-013  0.5930192E+02  0.7816164E-02  0.1266605E+00
        -11   -1    0    0    0    0  0.00000000000E+00  0.00000000000E+00  0.45593999997E+02  0.45594000000E+02  0.51100000000E-03 0.  1.
         11   -1    0    0    0    0 -0.00000000000E+00 -0.00000000000E+00 -0.45593999997E+02  0.45594000000E+02  0.51100000000E-03 0. -1.
    9900012    2    1    2    0    0 -0.50227604786E+01  0.15690801040E+02 -0.27300055173E+02  0.59301915691E+02  0.49999948321E+02 0.  0.
        -12    1    1    2    0    0  0.50227604786E+01 -0.15690801040E+02  0.27300055173E+02  0.31886084309E+02  0.00000000000E+00 0.  1.
         11    1    3    3    0    0 -0.29299461730E+01  0.30423069921E+01 -0.62697432442E+01  0.75597550900E+01  0.51100000000E-03 0. -1.
        -11    1    3    3    0    0  0.44376206811E+01 -0.15189873383E+02 -0.16374234938E+02  0.22771479986E+02  0.51100000000E-03 0.  1.
         12    1    3    3    0    0 -0.65304349868E+01  0.27838367431E+02 -0.46560769913E+01  0.28970680615E+02  0.00000000000E+00 0. -1.
</event>
<event>
 7    1  0.3750159E-013  0.5930193E+02  0.7816164E-02  0.1266605E+00
        -11   -1    0    0    0    0  0.00000000000E+00  0.00000000000E+00  0.45593999997E+02  0.45594000000E+02  0.51100000000E-03 0. -1.
         11   -1    0    0    0    0 -0.00000000000E+00 -0.00000000000E+00 -0.45593999997E+02  0.45594000000E+02  0.51100000000E-03 0.  1.
    9900012    2    1    2    0    0  0.10618132899E+02 -0.29804383455E+02 -0.39592570462E+01  0.59301925677E+02  0.49999966532E+02 0.  0.
        -12    1    1    2    0    0 -0.10618132899E+02  0.29804383455E+02  0.39592570462E+01  0.31886074323E+02  0.00000000000E+00 0.  1.
         11    1    3    3    0    0 -0.35184482718E+00  0.70179189877E+01 -0.65745713159E+01  0.96228878176E+01  0.51100000000E-03 0. -1.
        -11    1    3    3    0    0  0.58746979324E+01 -0.15904649057E+02 -0.14394361035E+02  0.22241123337E+02  0.51100000000E-03 0.  1.
         12    1    3    3    0    0  0.50952797932E+01 -0.20917653386E+02  0.17009675305E+02  0.27437914522E+02  0.00000000000E+00 0. -1.
</event>
<event>
 7    1  0.3750159E-013  0.5930195E+02  0.7816164E-02  0.1266605E+00
        -11   -1    0    0    0    0  0.00000000000E+00  0.00000000000E+00  0.45593999997E+02  0.45594000000E+02  0.51100000000E-03 0.  1.
         11   -1    0    0    0    0 -0.00000000000E+00 -0.00000000000E+00 -0.45593999997E+02  0.45594000000E+02  0.51100000000E-03 0. -1.
    9900012    2    1    2    0    0  0.27080735872E+02 -0.73689495152E+01 -0.15134479208E+02  0.59301950806E+02  0.50000012362E+02 0.  0.
        -12    1    1    2    0    0 -0.27080735872E+02  0.73689495152E+01  0.15134479208E+02  0.31886049194E+02  0.00000000000E+00 0.  1.
         11    1    3    3    0    0  0.11796884224E+02  0.17894287786E+02  0.46116994043E+00  0.21437926456E+02  0.51100000000E-03 0. -1.
        -11    1    3    3    0    0  0.13758172970E+02 -0.72457365410E+01 -0.30230607023E+01  0.15840672895E+02  0.51100000000E-03 0.  1.
        -12    1    3    3    0    0  0.15256786778E+01 -0.18017500760E+02 -0.12572588446E+02  0.22023351455E+02  0.00000000000E+00 0.  1.
</event>
<event>
 7    1  0.3750159E-013  0.5930193E+02  0.7816164E-02  0.1266605E+00
        -11   -1    0    0    0    0  0.00000000000E+00  0.00000000000E+00  0.45593999997E+02  0.45594000000E+02  0.51100000000E-03 0. -1.
         11   -1    0    0    0    0 -0.00000000000E+00 -0.00000000000E+00 -0.45593999997E+02  0.45594000000E+02  0.51100000000E-03 0.  1.
    9900012    2    1    2    0    0  0.10438521792E+02  0.15898020890E+02  0.25593196553E+02  0.59301929135E+02  0.49999972839E+02 0.  0.
        -12    1    1    2    0    0 -0.10438521792E+02 -0.15898020890E+02 -0.25593196553E+02  0.31886070865E+02  0.00000000000E+00 0.  1.
         11    1    3    3    0    0  0.84215270201E+01  0.24798119335E+02  0.68558917281E+01  0.27071610435E+02  0.51100000000E-03 0. -1.
        -11    1    3    3    0    0  0.30388032577E+01  0.57898796944E+01 -0.19625934668E+01  0.68270641927E+01  0.51100000000E-03 0.  1.
        -12    1    3    3    0    0 -0.10218084855E+01 -0.14689978139E+02  0.20699898291E+02  0.25403254507E+02  0.00000000000E+00 0.  1.
</event>
<event>
 7    1  0.3750159E-013  0.5930201E+02  0.7816164E-02  0.1266605E+00
        -11   -1    0    0    0    0  0.00000000000E+00  0.00000000000E+00  0.45593999997E+02  0.45594000000E+02  0.51100000000E-03 0. -1.
         11   -1    0    0    0    0 -0.00000000000E+00 -0.00000000000E+00 -0.45593999997E+02  0.45594000000E+02  0.51100000000E-03 0.  1.
    9900012    2    1    2    0    0 -0.17879961504E+02  0.26400270776E+02  0.22214219245E+00  0.59302005150E+02  0.50000111472E+02 0.  0.
        -12    1    1    2    0    0  0.17879961504E+02 -0.26400270776E+02 -0.22214219245E+00  0.31885994850E+02  0.00000000000E+00 0.  1.
         11    1    3    3    0    0 -0.24758959906E+00  0.50603101743E+01 -0.75741494957E+00  0.51226670141E+01  0.51100000000E-03 0. -1.
        -11    1    3    3    0    0 -0.17960486519E+02  0.35222025920E+02  0.46688378702E+01  0.39811659514E+02  0.51100000000E-03 0.  1.
        -12    1    3    3    0    0  0.32811461414E+00 -0.13882065318E+02 -0.36892807281E+01  0.14367678622E+02  0.00000000000E+00 0.  1.
</event>
<event>
 7    1  0.3750159E-013  0.5930187E+02  0.7816164E-02  0.1266605E+00
        -11   -1    0    0    0    0  0.00000000000E+00  0.00000000000E+00  0.45593999997E+02  0.45594000000E+02  0.51100000000E-03 0.  1.
         11   -1    0    0    0    0 -0.00000000000E+00 -0.00000000000E+00 -0.45593999997E+02  0.45594000000E+02  0.51100000000E-03 0. -1.
    9900012    2    1    2    0    0  0.41318134575E+01 -0.31025481243E+02 -0.60887645597E+01  0.59301867863E+02  0.49999861094E+02 0.  0.
        -12    1    1    2    0    0 -0.41318134575E+01  0.31025481243E+02  0.60887645597E+01  0.31886132137E+02  0.00000000000E+00 0.  1.
         11    1    3    3    0    0  0.97612106749E+01 -0.34272133655E+02 -0.19658508463E+02  0.40697878745E+02  0.51100000000E-03 0. -1.
        -11    1    3    3    0    0 -0.84719443581E+00 -0.39459674412E+00 -0.18398556658E+01  0.20636167606E+01  0.51100000000E-03 0.  1.
         12    1    3    3    0    0 -0.47822027815E+01  0.36412491560E+01  0.15409599569E+02  0.16540372358E+02  0.00000000000E+00 0. -1.
</event>
<event>
 7    1  0.3750159E-013  0.5930189E+02  0.7816164E-02  0.1266605E+00
        -11   -1    0    0    0    0  0.00000000000E+00  0.00000000000E+00  0.45593999997E+02  0.45594000000E+02  0.51100000000E-03 0. -1.
         11   -1    0    0    0    0 -0.00000000000E+00 -0.00000000000E+00 -0.45593999997E+02  0.45594000000E+02  0.51100000000E-03 0.  1.
    9900012    2    1    2    0    0  0.67560046610E+01  0.14565850244E+02  0.27548433681E+02  0.59301893456E+02  0.49999907769E+02 0.  0.
        -12    1    1    2    0    0 -0.67560046610E+01 -0.14565850244E+02 -0.27548433681E+02  0.31886106544E+02  0.00000000000E+00 0.  1.
         11    1    3    3    0    0  0.82379586450E+01  0.91832830024E+01  0.33255718949E+00  0.12341282101E+02  0.51100000000E-03 0. -1.
        -11    1    3    3    0    0  0.70853669912E+01  0.20010007802E+02  0.16731876151E+02  0.27028846025E+02  0.51100000000E-03 0.  1.
        -12    1    3    3    0    0 -0.85673209752E+01 -0.14627440561E+02  0.10484000340E+02  0.19931765330E+02  0.00000000000E+00 0.  1.
</event>
<event>
 7    1  0.3964444E-013  0.5930192E+02  0.7816164E-02  0.1266605E+00
        -11   -1    0    0    0    0  0.00000000000E+00  0.00000000000E+00  0.45593999997E+02  0.45594000000E+02  0.51100000000E-03 0. -1.
         11   -1    0    0    0    0 -0.00000000000E+00 -0.00000000000E+00 -0.45593999997E+02  0.45594000000E+02  0.51100000000E-03 0.  1.
    9900012    2    1    2    0    0 -0.10530096672E+02  0.57992458993E+01  0.29533168624E+02  0.59301917803E+02  0.49999952172E+02 0.  0.
        -12    1    1    2    0    0  0.10530096672E+02 -0.57992458993E+01 -0.29533168624E+02  0.31886082197E+02  0.00000000000E+00 0.  1.
         11    1    3    3    0    0  0.76985261465E+01  0.53994996590E+01  0.12267824463E+02  0.15457083125E+02  0.51100000000E-03 0. -1.
        -11    1    3    3    0    0 -0.34018122363E+01 -0.43488111082E+01 -0.10584931243E+02  0.11938394122E+02  0.51100000000E-03 0.  1.
         12    1    3    3    0    0 -0.14826810582E+02  0.47485573485E+01  0.27850275403E+02  0.31906440556E+02  0.00000000000E+00 0. -1.
</event>
<event>
 7    1  0.3750159E-013  0.5930194E+02  0.7816164E-02  0.1266605E+00
        -11   -1    0    0    0    0  0.00000000000E+00  0.00000000000E+00  0.45593999997E+02  0.45594000000E+02  0.51100000000E-03 0.  1.
         11   -1    0    0    0    0 -0.00000000000E+00 -0.00000000000E+00 -0.45593999997E+02  0.45594000000E+02  0.51100000000E-03 0. -1.
    9900012    2    1    2    0    0  0.11360107131E+02  0.14598861035E+02 -0.25971945717E+02  0.59301941261E+02  0.49999994954E+02 0.  0.
        -12    1    1    2    0    0 -0.11360107131E+02 -0.14598861035E+02  0.25971945717E+02  0.31886058739E+02  0.00000000000E+00 0.  1.
         11    1    3    3    0    0  0.36750049171E+01  0.27341613419E+01 -0.26990508354E+01  0.53165943101E+01  0.51100000000E-03 0. -1.
        -11    1    3    3    0    0  0.10213764502E+02  0.24294421402E+02  0.12419358111E+01  0.26383371684E+02  0.51100000000E-03 0.  1.
         12    1    3    3    0    0 -0.25286622881E+01 -0.12429721709E+02 -0.24514830693E+02  0.27601975267E+02  0.00000000000E+00 0. -1.
</event>
<event>
 7    1  0.3750159E-013  0.5930194E+02  0.7816164E-02  0.1266605E+00
        -11   -1    0    0    0    0  0.00000000000E+00  0.00000000000E+00  0.45593999997E+02  0.45594000000E+02  0.51100000000E-03 0.  1.
         11   -1    0    0    0    0 -0.00000000000E+00 -0.00000000000E+00 -0.45593999997E+02  0.45594000000E+02  0.51100000000E-03 0. -1.
    9900012    2    1    2    0    0 -0.21515212106E+02 -0.16048143170E+02 -0.17212597058E+02  0.59301941155E+02  0.49999994761E+02 0.  0.
        -12    1    1    2    0    0  0.21515212106E+02  0.16048143170E+02  0.17212597058E+02  0.31886058845E+02  0.00000000000E+00 0.  1.
         11    1    3    3    0    0 -0.69727061484E+01  0.50001285745E+01 -0.16334931981E+02  0.18451285047E+02  0.51100000000E-03 0. -1.
        -11    1    3    3    0    0  0.97982805152E+00  0.52537468659E+01 -0.78762492472E+01  0.95182572779E+01  0.51100000000E-03 0.  1.
         12    1    3    3    0    0 -0.15522334009E+02 -0.26302018610E+02  0.69985841705E+01  0.31332398830E+02  0.00000000000E+00 0. -1.
</event>
<event>
 7    1  0.3750159E-013  0.5930193E+02  0.7816164E-02  0.1266605E+00
        -11   -1    0    0    0    0  0.00000000000E+00  0.00000000000E+00  0.45593999997E+02  0.45594000000E+02  0.51100000000E-03 0.  1.
         11   -1    0    0    0    0 -0.00000000000E+00 -0.00000000000E+00 -0.45593999997E+02  0.45594000000E+02  0.51100000000E-03 0. -1.
    9900012    2    1    2    0    0 -0.62600261913E+01 -0.82189111185E+01 -0.30165920616E+02  0.59301934164E+02  0.49999982010E+02 0.  0.
        -12    1    1    2    0    0  0.62600261913E+01  0.82189111185E+01  0.30165920616E+02  0.31886065836E+02  0.00000000000E+00 0.  1.
         11    1    3    3    0    0 -0.80699555448E+01 -0.20446924197E+01 -0.35729010208E+02  0.36686061662E+02  0.51100000000E-03 0. -1.
        -11    1    3    3    0    0  0.40261895662E+01  0.53887113626E+01 -0.36618707866E+01  0.76588321885E+01  0.51100000000E-03 0.  1.
         12    1    3    3    0    0 -0.22162602127E+01 -0.11562930061E+02  0.92249603785E+01  0.14957040313E+02  0.00000000000E+00 0. -1.
</event>
<event>
 7    1  0.3750159E-013  0.5930196E+02  0.7816164E-02  0.1266605E+00
        -11   -1    0    0    0    0  0.00000000000E+00  0.00000000000E+00  0.45593999997E+02  0.45594000000E+02  0.51100000000E-03 0.  1.
         11   -1    0    0    0    0 -0.00000000000E+00 -0.00000000000E+00 -0.45593999997E+02  0.45594000000E+02  0.51100000000E-03 0. -1.
    9900012    2    1    2    0    0  0.14956985918E+02  0.23525174722E+02 -0.15478182979E+02  0.59301961962E+02  0.50000032708E+02 0.  0.
        -12    1    1    2    0    0 -0.14956985918E+02 -0.23525174722E+02  0.15478182979E+02  0.31886038038E+02  0.00000000000E+00 0.  1.
         11    1    3    3    0    0 -0.67169509414E+01  0.13048342789E+01  0.54307304383E+01  0.87357229694E+01  0.51100000000E-03 0. -1.
        -11    1    3    3    0    0 -0.19783135667E+01  0.21160883917E+02 -0.15432488097E+02  0.26265156041E+02  0.51100000000E-03 0.  1.
         12    1    3    3    0    0  0.23652250426E+02  0.10594565261E+01 -0.54764253196E+01  0.24301082952E+02  0.00000000000E+00 0. -1.
</event>
<event>
 7    1  0.3750159E-013  0.5930194E+02  0.7816164E-02  0.1266605E+00
        -11   -1    0    0    0    0  0.00000000000E+00  0.00000000000E+00  0.45593999997E+02  0.45594000000E+02  0.51100000000E-03 0.  1.
         11   -1    0    0    0    0 -0.00000000000E+00 -0.00000000000E+00 -0.45593999997E+02  0.45594000000E+02  0.51100000000E-03 0. -1.
    9900012    2    1    2    0    0 -0.13599727041E+02 -0.21640608069E-01 -0.28840384250E+02  0.59301940231E+02  0.49999993076E+02 0.  0.
        -12    1    1    2    0    0  0.13599727041E+02  0.21640608069E-01  0.28840384250E+02  0.31886059769E+02  0.00000000000E+00 0.  1.
         11    1    3    3    0    0 -0.14491300636E+01  0.27766119346E+01 -0.14596799318E+02  0.14929035547E+02  0.51100000000E-03 0. -1.
        -11    1    3    3    0    0  0.68241845518E+01  0.85260117505E+01  0.75973820906E+01  0.13303480224E+02  0.51100000000E-03 0.  1.
         12    1    3    3    0    0 -0.18974781529E+02 -0.11324264293E+02 -0.21840967023E+02  0.31069424461E+02  0.00000000000E+00 0. -1.
</event>
<event>
 7    1  0.3750159E-013  0.5930195E+02  0.7816164E-02  0.1266605E+00
        -11   -1    0    0    0    0  0.00000000000E+00  0.00000000000E+00  0.45593999997E+02  0.45594000000E+02  0.51100000000E-03 0. -1.
         11   -1    0    0    0    0 -0.00000000000E+00 -0.00000000000E+00 -0.45593999997E+02  0.45594000000E+02  0.51100000000E-03 0.  1.
    9900012    2    1    2    0    0  0.23322322024E+02  0.47031984594E+01 -0.21228969182E+02  0.59301954261E+02  0.50000018663E+02 0.  0.
        -12    1    1    2    0    0 -0.23322322024E+02 -0.47031984594E+01  0.21228969182E+02  0.31886045739E+02  0.00000000000E+00 0.  1.
         11    1    3    3    0    0 -0.52768948277E+01  0.11355259141E+02  0.75703135597E+01  0.14632059897E+02  0.51100000000E-03 0. -1.
        -11    1    3    3    0    0  0.26048746569E+01  0.37007503346E+01 -0.99559550894E+01  0.10936268423E+02  0.51100000000E-03 0.  1.
        -12    1    3    3    0    0  0.25994342195E+02 -0.10352811016E+02 -0.18843327652E+02  0.33733625941E+02  0.00000000000E+00 0.  1.
</event>
<event>
 7    1  0.3750159E-013  0.5930194E+02  0.7816164E-02  0.1266605E+00
        -11   -1    0    0    0    0  0.00000000000E+00  0.00000000000E+00  0.45593999997E+02  0.45594000000E+02  0.51100000000E-03 0.  1.
         11   -1    0    0    0    0 -0.00000000000E+00 -0.00000000000E+00 -0.45593999997E+02  0.45594000000E+02  0.51100000000E-03 0. -1.
    9900012    2    1    2    0    0 -0.10389781220E+02  0.13207196097E+02 -0.27098765819E+02  0.59301942053E+02  0.49999996398E+02 0.  0.
        -12    1    1    2    0    0  0.10389781220E+02 -0.13207196097E+02  0.27098765819E+02  0.31886057947E+02  0.00000000000E+00 0.  1.
         11    1    3    3    0    0  0.72854312438E+01  0.68753122131E+01 -0.49335331513E+01  0.11166341212E+02  0.51100000000E-03 0. -1.
        -11    1    3    3    0    0  0.11225843576E+02  0.28227175216E+01 -0.50461034685E-01  0.11575398255E+02  0.51100000000E-03 0.  1.
         12    1    3    3    0    0 -0.28901056039E+02  0.35091663620E+01 -0.22114771633E+02  0.36560202586E+02  0.00000000000E+00 0. -1.
</event>
<event>
 7    1  0.3750159E-013  0.5930196E+02  0.7816164E-02  0.1266605E+00
        -11   -1    0    0    0    0  0.00000000000E+00  0.00000000000E+00  0.45593999997E+02  0.45594000000E+02  0.51100000000E-03 0. -1.
         11   -1    0    0    0    0 -0.00000000000E+00 -0.00000000000E+00 -0.45593999997E+02  0.45594000000E+02  0.51100000000E-03 0.  1.
    9900012    2    1    2    0    0 -0.20965462281E+02  0.22662256938E+02 -0.79743890276E+01  0.59301962639E+02  0.50000033943E+02 0.  0.
        -12    1    1    2    0    0  0.20965462281E+02 -0.22662256938E+02  0.79743890276E+01  0.31886037361E+02  0.00000000000E+00 0.  1.
         11    1    3    3    0    0 -0.94106404806E+01  0.38491767323E+01  0.17224398723E+02  0.20001405636E+02  0.51100000000E-03 0. -1.
        -11    1    3    3    0    0 -0.32882203585E+01 -0.42183097394E+01 -0.24248413773E+01  0.58725110600E+01  0.51100000000E-03 0.  1.
         12    1    3    3    0    0 -0.82666014421E+01  0.23031389945E+02 -0.22773946373E+02  0.33428045944E+02  0.00000000000E+00 0. -1.
</event>
<event>
 7    1  0.3750159E-013  0.5930196E+02  0.7816164E-02  0.1266605E+00
        -11   -1    0    0    0    0  0.00000000000E+00  0.00000000000E+00  0.45593999997E+02  0.45594000000E+02  0.51100000000E-03 0.  1.
         11   -1    0    0    0    0 -0.00000000000E+00 -0.00000000000E+00 -0.45593999997E+02  0.45594000000E+02  0.51100000000E-03 0. -1.
    9900012    2    1    2    0    0  0.25829767066E+02 -0.12537425858E+02 -0.13869229915E+02  0.59301961483E+02  0.50000031835E+02 0.  0.
        -12    1    1    2    0    0 -0.25829767066E+02  0.12537425858E+02  0.13869229915E+02  0.31886038517E+02  0.00000000000E+00 0.  1.
         11    1    3    3    0    0  0.42251527825E+01  0.33986777055E+01  0.32973681890E+00  0.54324628681E+01  0.51100000000E-03 0. -1.
        -11    1    3    3    0    0  0.35272914443E+02 -0.11465404091E+02 -0.68394859761E+01  0.37714885032E+02  0.51100000000E-03 0.  1.
        -12    1    3    3    0    0 -0.13668300159E+02 -0.44706994719E+01 -0.73594807581E+01  0.16154613584E+02  0.00000000000E+00 0.  1.
</event>
<event>
 7    1  0.3750159E-013  0.5930191E+02  0.7816164E-02  0.1266605E+00
        -11   -1    0    0    0    0  0.00000000000E+00  0.00000000000E+00  0.45593999997E+02  0.45594000000E+02  0.51100000000E-03 0. -1.
         11   -1    0    0    0    0 -0.00000000000E+00 -0.00000000000E+00 -0.45593999997E+02  0.45594000000E+02  0.51100000000E-03 0.  1.
    9900012    2    1    2    0    0 -0.62651394889E+01  0.29431299052E+02  0.10548429683E+02  0.59301910470E+02  0.49999938799E+02 0.  0.
        -12    1    1    2    0    0  0.62651394889E+01 -0.29431299052E+02 -0.10548429683E+02  0.31886089530E+02  0.00000000000E+00 0.  1.
         11    1    3    3    0    0 -0.20345972997E+02  0.15067667495E+02  0.16285628559E+02  0.30103403773E+02  0.51100000000E-03 0. -1.
        -11    1    3    3    0    0  0.27262686412E+00  0.13626567165E+02  0.12850497563E+01  0.13689741095E+02  0.51100000000E-03 0.  1.
        -12    1    3    3    0    0  0.13808206644E+02  0.73706439192E+00 -0.70222486325E+01  0.15508765602E+02  0.00000000000E+00 0.  1.
</event>
<event>
 7    1  0.3750159E-013  0.5930195E+02  0.7816164E-02  0.1266605E+00
        -11   -1    0    0    0    0  0.00000000000E+00  0.00000000000E+00  0.45593999997E+02  0.45594000000E+02  0.51100000000E-03 0. -1.
         11   -1    0    0    0    0 -0.00000000000E+00 -0.00000000000E+00 -0.45593999997E+02  0.45594000000E+02  0.51100000000E-03 0.  1.
    9900012    2    1    2    0    0  0.17738427537E+02 -0.17837433651E+02  0.19593218831E+02  0.59301951720E+02  0.50000014030E+02 0.  0.
        -12    1    1    2    0    0 -0.17738427537E+02  0.17837433651E+02 -0.19593218831E+02  0.31886048280E+02  0.00000000000E+00 0.  1.
         11    1    3    3    0    0 -0.98737444444E+01 -0.15452602930E+02  0.18153091092E+02  0.25803264970E+02  0.51100000000E-03 0. -1.
        -11    1    3    3    0    0  0.61992115170E+01 -0.14846706753E+01 -0.78735839275E+01  0.10130537724E+02  0.51100000000E-03 0.  1.
        -12    1    3    3    0    0  0.21412960464E+02 -0.90016004623E+00  0.93137116662E+01  0.23368149027E+02  0.00000000000E+00 0.  1.
</event>
<event>
 7    1  0.3750159E-013  0.5930189E+02  0.7816164E-02  0.1266605E+00
        -11   -1    0    0    0    0  0.00000000000E+00  0.00000000000E+00  0.45593999997E+02  0.45594000000E+02  0.51100000000E-03 0.  1.
         11   -1    0    0    0    0 -0.00000000000E+00 -0.00000000000E+00 -0.45593999997E+02  0.45594000000E+02  0.51100000000E-03 0. -1.
    9900012    2    1    2    0    0 -0.64813108303E+01  0.26079336218E+02 -0.17163479560E+02  0.59301887062E+02  0.49999896109E+02 0.  0.
        -12    1    1    2    0    0  0.64813108303E+01 -0.26079336218E+02  0.17163479560E+02  0.31886112938E+02  0.00000000000E+00 0.  1.
         11    1    3    3    0    0 -0.73894373883E+01  0.16348522751E+02 -0.88972657957E+01  0.20025966143E+02  0.51100000000E-03 0.  1.
        -11    1    3    3    0    0 -0.14791314792E+02  0.14674921430E+02 -0.92286748039E+01  0.22788259063E+02  0.51100000000E-03 0. -1.
         12    1    3    3    0    0  0.15699441350E+02 -0.49441079621E+01  0.96246103964E+00  0.16487661857E+02  0.00000000000E+00 0. -1.
</event>
<event>
 7    1  0.3750159E-013  0.5930195E+02  0.7816164E-02  0.1266605E+00
        -11   -1    0    0    0    0  0.00000000000E+00  0.00000000000E+00  0.45593999997E+02  0.45594000000E+02  0.51100000000E-03 0.  1.
         11   -1    0    0    0    0 -0.00000000000E+00 -0.00000000000E+00 -0.45593999997E+02  0.45594000000E+02  0.51100000000E-03 0. -1.
    9900012    2    1    2    0    0  0.18407735498E+02 -0.15909004299E+02 -0.20610175995E+02  0.59301945078E+02  0.50000001915E+02 0.  0.
        -12    1    1    2    0    0 -0.18407735498E+02  0.15909004299E+02  0.20610175995E+02  0.31886054922E+02  0.00000000000E+00 0.  1.
         11    1    3    3    0    0  0.40983622625E+00 -0.84304416180E+01 -0.55094214829E+01  0.10079386735E+02  0.51100000000E-03 0. -1.
        -11    1    3    3    0    0  0.15034605843E+01 -0.44363995400E+01  0.14479289766E+02  0.15218142693E+02  0.51100000000E-03 0.  1.
         12    1    3    3    0    0  0.16494438688E+02 -0.30421631410E+01 -0.29580044279E+02  0.34004415651E+02  0.00000000000E+00 0. -1.
</event>
<event>
 7    1  0.3750159E-013  0.5930188E+02  0.7816164E-02  0.1266605E+00
        -11   -1    0    0    0    0  0.00000000000E+00  0.00000000000E+00  0.45593999997E+02  0.45594000000E+02  0.51100000000E-03 0. -1.
         11   -1    0    0    0    0 -0.00000000000E+00 -0.00000000000E+00 -0.45593999997E+02  0.45594000000E+02  0.51100000000E-03 0.  1.
    9900012    2    1    2    0    0  0.21256556195E+02  0.91334263412E+01  0.21942285346E+02  0.59301881638E+02  0.49999886215E+02 0.  0.
        -12    1    1    2    0    0 -0.21256556195E+02 -0.91334263412E+01 -0.21942285346E+02  0.31886118362E+02  0.00000000000E+00 0.  1.
         11    1    3    3    0    0  0.18566709254E+02 -0.55271805400E+01  0.23784459041E+02  0.30675281733E+02  0.51100000000E-03 0. -1.
        -11    1    3    3    0    0  0.12777601104E+02  0.12844360728E+02  0.45149977814E+00  0.18123149417E+02  0.51100000000E-03 0.  1.
         12    1    3    3    0    0 -0.10087754163E+02  0.18162461528E+01 -0.22936734727E+01  0.10503450488E+02  0.00000000000E+00 0. -1.
</event>
<event>
 7    1  0.3750159E-013  0.5930192E+02  0.7816164E-02  0.1266605E+00
        -11   -1    0    0    0    0  0.00000000000E+00  0.00000000000E+00  0.45593999997E+02  0.45594000000E+02  0.51100000000E-03 0. -1.
         11   -1    0    0    0    0 -0.00000000000E+00 -0.00000000000E+00 -0.45593999997E+02  0.45594000000E+02  0.51100000000E-03 0.  1.
    9900012    2    1    2    0    0  0.19847798688E+02  0.18197166030E+02  0.17077770503E+02  0.59301918245E+02  0.49999952979E+02 0.  0.
        -12    1    1    2    0    0 -0.19847798688E+02 -0.18197166030E+02 -0.17077770503E+02  0.31886081755E+02  0.00000000000E+00 0.  1.
         11    1    3    3    0    0  0.16340563713E+02  0.10467772992E+02  0.18952229030E+02  0.27125177960E+02  0.51100000000E-03 0. -1.
        -11    1    3    3    0    0 -0.36307352951E+01 -0.51105273297E+01  0.10988267091E+02  0.12650760542E+02  0.51100000000E-03 0.  1.
         12    1    3    3    0    0  0.71379702706E+01  0.12839920368E+02 -0.12862725618E+02  0.19525979744E+02  0.00000000000E+00 0. -1.
</event>
<event>
 7    1  0.3750159E-013  0.5930199E+02  0.7816164E-02  0.1266605E+00
        -11   -1    0    0    0    0  0.00000000000E+00  0.00000000000E+00  0.45593999997E+02  0.45594000000E+02  0.51100000000E-03 0. -1.
         11   -1    0    0    0    0 -0.00000000000E+00 -0.00000000000E+00 -0.45593999997E+02  0.45594000000E+02  0.51100000000E-03 0.  1.
    9900012    2    1    2    0    0 -0.14349830695E+02 -0.42452911284E+01 -0.28156306155E+02  0.59301988741E+02  0.50000081546E+02 0.  0.
        -12    1    1    2    0    0  0.14349830695E+02  0.42452911284E+01  0.28156306155E+02  0.31886011259E+02  0.00000000000E+00 0.  1.
         11    1    3    3    0    0  0.19188513932E+01 -0.14498717503E+02  0.33270929992E+00  0.14628926675E+02  0.51100000000E-03 0. -1.
        -11    1    3    3    0    0  0.91825028503E+00 -0.12470807194E+01 -0.23301075998E+02  0.23352484597E+02  0.51100000000E-03 0.  1.
         12    1    3    3    0    0 -0.17186932373E+02  0.11500507094E+02 -0.51879394565E+01  0.21320577470E+02  0.00000000000E+00 0. -1.
</event>
<event>
 7    1  0.3750159E-013  0.5930194E+02  0.7816164E-02  0.1266605E+00
        -11   -1    0    0    0    0  0.00000000000E+00  0.00000000000E+00  0.45593999997E+02  0.45594000000E+02  0.51100000000E-03 0.  1.
         11   -1    0    0    0    0 -0.00000000000E+00 -0.00000000000E+00 -0.45593999997E+02  0.45594000000E+02  0.51100000000E-03 0. -1.
    9900012    2    1    2    0    0 -0.10552316031E+02 -0.14944298692E+02 -0.26115846816E+02  0.59301938909E+02  0.49999990664E+02 0.  0.
        -12    1    1    2    0    0  0.10552316031E+02  0.14944298692E+02  0.26115846816E+02  0.31886061091E+02  0.00000000000E+00 0.  1.
         11    1    3    3    0    0 -0.11906566874E+02  0.13440344659E+02 -0.22588797948E+02  0.28855900475E+02  0.51100000000E-03 0. -1.
        -11    1    3    3    0    0 -0.30285459922E+01 -0.12317095887E+02 -0.51982216551E+01  0.13707824428E+02  0.51100000000E-03 0.  1.
        -12    1    3    3    0    0  0.43827968349E+01 -0.16067547464E+02  0.16711727870E+01  0.16738214005E+02  0.00000000000E+00 0.  1.
</event>
<event>
 7    1  0.3750159E-013  0.5930194E+02  0.7816164E-02  0.1266605E+00
        -11   -1    0    0    0    0  0.00000000000E+00  0.00000000000E+00  0.45593999997E+02  0.45594000000E+02  0.51100000000E-03 0.  1.
         11   -1    0    0    0    0 -0.00000000000E+00 -0.00000000000E+00 -0.45593999997E+02  0.45594000000E+02  0.51100000000E-03 0. -1.
    9900012    2    1    2    0    0  0.21263463080E+01  0.17779499836E+02 -0.26383498737E+02  0.59301937706E+02  0.49999988471E+02 0.  0.
        -12    1    1    2    0    0 -0.21263463080E+01 -0.17779499836E+02  0.26383498737E+02  0.31886062294E+02  0.00000000000E+00 0.  1.
         11    1    3    3    0    0 -0.12558409654E+02 -0.47447971668E+01  0.25374630823E+01  0.13662557314E+02  0.51100000000E-03 0.  1.
        -11    1    3    3    0    0 -0.52400736632E+01  0.34958745004E+01 -0.11293543865E+02  0.12931498127E+02  0.51100000000E-03 0. -1.
        -12    1    3    3    0    0  0.19924829625E+02  0.19028422503E+02 -0.17627417953E+02  0.32707882265E+02  0.00000000000E+00 0.  1.
</event>
<event>
 7    1  0.3750159E-013  0.5930194E+02  0.7816164E-02  0.1266605E+00
        -11   -1    0    0    0    0  0.00000000000E+00  0.00000000000E+00  0.45593999997E+02  0.45594000000E+02  0.51100000000E-03 0.  1.
         11   -1    0    0    0    0 -0.00000000000E+00 -0.00000000000E+00 -0.45593999997E+02  0.45594000000E+02  0.51100000000E-03 0. -1.
    9900012    2    1    2    0    0 -0.41547790948E+01 -0.25230669443E+02 -0.19049198058E+02  0.59301940091E+02  0.49999992819E+02 0.  0.
        -12    1    1    2    0    0  0.41547790948E+01  0.25230669443E+02  0.19049198058E+02  0.31886059909E+02  0.00000000000E+00 0.  1.
         11    1    3    3    0    0  0.69381496174E+01 -0.43691188890E+01 -0.18785782010E+02  0.20497139458E+02  0.51100000000E-03 0.  1.
        -11    1    3    3    0    0  0.45130965662E+01  0.42843346466E+01 -0.60165806670E+01  0.86557961600E+01  0.51100000000E-03 0. -1.
         12    1    3    3    0    0 -0.15606025278E+02 -0.25145885201E+02  0.57531646190E+01  0.30149004472E+02  0.00000000000E+00 0. -1.
</event>
<event>
 7    1  0.3750159E-013  0.5930191E+02  0.7816164E-02  0.1266605E+00
        -11   -1    0    0    0    0  0.00000000000E+00  0.00000000000E+00  0.45593999997E+02  0.45594000000E+02  0.51100000000E-03 0.  1.
         11   -1    0    0    0    0 -0.00000000000E+00 -0.00000000000E+00 -0.45593999997E+02  0.45594000000E+02  0.51100000000E-03 0. -1.
    9900012    2    1    2    0    0  0.18939471446E+02 -0.12324394614E+02 -0.22497292368E+02  0.59301914553E+02  0.49999946244E+02 0.  0.
        -12    1    1    2    0    0 -0.18939471446E+02  0.12324394614E+02  0.22497292368E+02  0.31886085447E+02  0.00000000000E+00 0.  1.
         11    1    3    3    0    0 -0.20452734202E+01 -0.78544547870E+01  0.37166153915E+01  0.89268602316E+01  0.51100000000E-03 0. -1.
        -11    1    3    3    0    0  0.19942339863E+02 -0.74050887984E+01  0.25660723092E+01  0.21427015347E+02  0.51100000000E-03 0.  1.
         12    1    3    3    0    0  0.10424050031E+01  0.29351489710E+01 -0.28779980069E+02  0.28948038974E+02  0.00000000000E+00 0. -1.
</event>
<event>
 7    1  0.3750159E-013  0.5930195E+02  0.7816164E-02  0.1266605E+00
        -11   -1    0    0    0    0  0.00000000000E+00  0.00000000000E+00  0.45593999997E+02  0.45594000000E+02  0.51100000000E-03 0. -1.
         11   -1    0    0    0    0 -0.00000000000E+00 -0.00000000000E+00 -0.45593999997E+02  0.45594000000E+02  0.51100000000E-03 0.  1.
    9900012    2    1    2    0    0  0.13498437314E+02 -0.28830998126E+02  0.18126306094E+01  0.59301954579E+02  0.50000019243E+02 0.  0.
        -12    1    1    2    0    0 -0.13498437314E+02  0.28830998126E+02 -0.18126306094E+01  0.31886045421E+02  0.00000000000E+00 0.  1.
         11    1    3    3    0    0  0.31517524637E+01 -0.39018405249E+01 -0.10859990447E+02  0.11962328195E+02  0.51100000000E-03 0. -1.
        -11    1    3    3    0    0 -0.44667389882E+01  0.60821817993E+01 -0.46389860702E+01  0.88580406778E+01  0.51100000000E-03 0.  1.
         12    1    3    3    0    0  0.14813423839E+02 -0.31011339400E+02  0.17311607126E+02  0.38481585707E+02  0.00000000000E+00 0. -1.
</event>
<event>
 7    1  0.3750159E-013  0.5930196E+02  0.7816164E-02  0.1266605E+00
        -11   -1    0    0    0    0  0.00000000000E+00  0.00000000000E+00  0.45593999997E+02  0.45594000000E+02  0.51100000000E-03 0.  1.
         11   -1    0    0    0    0 -0.00000000000E+00 -0.00000000000E+00 -0.45593999997E+02  0.45594000000E+02  0.51100000000E-03 0. -1.
    9900012    2    1    2    0    0 -0.28603021463E+01  0.31735922132E+02  0.11701918193E+01  0.59301961820E+02  0.50000032448E+02 0.  0.
        -12    1    1    2    0    0  0.28603021463E+01 -0.31735922132E+02 -0.11701918193E+01  0.31886038180E+02  0.00000000000E+00 0.  1.
         11    1    3    3    0    0 -0.13429617423E+01 -0.56809975364E+01 -0.30391095765E+00  0.58454804235E+01  0.51100000000E-03 0. -1.
        -11    1    3    3    0    0 -0.27900098274E+01 -0.76693142844E+01 -0.13142466252E+01  0.82661829693E+01  0.51100000000E-03 0.  1.
         12    1    3    3    0    0  0.12726694234E+01  0.45086233953E+02  0.27883494022E+01  0.45190298427E+02  0.00000000000E+00 0. -1.
</event>
<event>
 7    1  0.3750159E-013  0.5930196E+02  0.7816164E-02  0.1266605E+00
        -11   -1    0    0    0    0  0.00000000000E+00  0.00000000000E+00  0.45593999997E+02  0.45594000000E+02  0.51100000000E-03 0.  1.
         11   -1    0    0    0    0 -0.00000000000E+00 -0.00000000000E+00 -0.45593999997E+02  0.45594000000E+02  0.51100000000E-03 0. -1.
    9900012    2    1    2    0    0  0.29682387684E+02 -0.10522163605E+02  0.49959576316E+01  0.59301958254E+02  0.50000025945E+02 0.  0.
        -12    1    1    2    0    0 -0.29682387684E+02  0.10522163605E+02 -0.49959576316E+01  0.31886041746E+02  0.00000000000E+00 0.  1.
         11    1    3    3    0    0  0.11735366262E+01 -0.11403386665E+02 -0.16254275700E+02  0.19890095386E+02  0.51100000000E-03 0. -1.
        -11    1    3    3    0    0 -0.10583393585E+01  0.27269720051E+01  0.45357318737E+01  0.53971587345E+01  0.51100000000E-03 0.  1.
        -12    1    3    3    0    0  0.29567190417E+02 -0.18457489443E+01  0.16714501458E+02  0.34014704134E+02  0.00000000000E+00 0.  1.
</event>
<event>
 7    1  0.3750159E-013  0.5930195E+02  0.7816164E-02  0.1266605E+00
        -11   -1    0    0    0    0  0.00000000000E+00  0.00000000000E+00  0.45593999997E+02  0.45594000000E+02  0.51100000000E-03 0. -1.
         11   -1    0    0    0    0 -0.00000000000E+00 -0.00000000000E+00 -0.45593999997E+02  0.45594000000E+02  0.51100000000E-03 0.  1.
    9900012    2    1    2    0    0  0.21882577658E+02 -0.98508758550E+01  0.20996035001E+02  0.59301945904E+02  0.50000003422E+02 0.  0.
        -12    1    1    2    0    0 -0.21882577658E+02  0.98508758550E+01 -0.20996035001E+02  0.31886054096E+02  0.00000000000E+00 0.  1.
         11    1    3    3    0    0 -0.29126429274E+01  0.13924862052E+02  0.92121628590E+01  0.16948428151E+02  0.51100000000E-03 0. -1.
        -11    1    3    3    0    0  0.13060319959E+01 -0.81425318481E+01  0.11481234786E+02  0.14135957589E+02  0.51100000000E-03 0.  1.
        -12    1    3    3    0    0  0.23489188589E+02 -0.15633206059E+02  0.30263735547E+00  0.28217560164E+02  0.00000000000E+00 0.  1.
</event>
<event>
 7    1  0.3750159E-013  0.5930193E+02  0.7816164E-02  0.1266605E+00
        -11   -1    0    0    0    0  0.00000000000E+00  0.00000000000E+00  0.45593999997E+02  0.45594000000E+02  0.51100000000E-03 0. -1.
         11   -1    0    0    0    0 -0.00000000000E+00 -0.00000000000E+00 -0.45593999997E+02  0.45594000000E+02  0.51100000000E-03 0.  1.
    9900012    2    1    2    0    0 -0.23511225312E+02 -0.21523592592E+02  0.82374422956E+00  0.59301932379E+02  0.49999978756E+02 0.  0.
        -12    1    1    2    0    0  0.23511225312E+02  0.21523592592E+02 -0.82374422956E+00  0.31886067621E+02  0.00000000000E+00 0.  1.
         11    1    3    3    0    0 -0.53408807905E+01 -0.14746086634E+02  0.44870983279E+01  0.16312759739E+02  0.51100000000E-03 0. -1.
        -11    1    3    3    0    0 -0.91800447802E+01  0.75621832800E+01 -0.17478747236E+02  0.21141580909E+02  0.51100000000E-03 0.  1.
         12    1    3    3    0    0 -0.89902997416E+01 -0.14339689238E+02  0.13815393138E+02  0.21847591731E+02  0.00000000000E+00 0. -1.
</event>
<event>
 7    1  0.3750159E-013  0.5930195E+02  0.7816164E-02  0.1266605E+00
        -11   -1    0    0    0    0  0.00000000000E+00  0.00000000000E+00  0.45593999997E+02  0.45594000000E+02  0.51100000000E-03 0.  1.
         11   -1    0    0    0    0 -0.00000000000E+00 -0.00000000000E+00 -0.45593999997E+02  0.45594000000E+02  0.51100000000E-03 0. -1.
    9900012    2    1    2    0    0  0.27548745874E+02 -0.20908312649E+01 -0.15919012884E+02  0.59301953745E+02  0.50000017722E+02 0.  0.
        -12    1    1    2    0    0 -0.27548745874E+02  0.20908312649E+01  0.15919012884E+02  0.31886046255E+02  0.00000000000E+00 0.  1.
         11    1    3    3    0    0  0.15411917001E+02 -0.12020658044E+02 -0.20339200085E+02  0.28208269458E+02  0.51100000000E-03 0. -1.
        -11    1    3    3    0    0  0.11681024749E+02  0.17302953440E+02  0.86311131841E+01  0.22590587686E+02  0.51100000000E-03 0.  1.
         12    1    3    3    0    0  0.45580412293E+00 -0.73731266615E+01 -0.42109259829E+01  0.85030966005E+01  0.00000000000E+00 0. -1.
</event>
<event>
 7    1  0.3750159E-013  0.5930183E+02  0.7816164E-02  0.1266605E+00
        -11   -1    0    0    0    0  0.00000000000E+00  0.00000000000E+00  0.45593999997E+02  0.45594000000E+02  0.51100000000E-03 0.  1.
         11   -1    0    0    0    0 -0.00000000000E+00 -0.00000000000E+00 -0.45593999997E+02  0.45594000000E+02  0.51100000000E-03 0. -1.
    9900012    2    1    2    0    0  0.77033975889E+01 -0.30931325472E+02  0.79922116014E+00  0.59301827694E+02  0.49999787834E+02 0.  0.
        -12    1    1    2    0    0 -0.77033975889E+01  0.30931325472E+02 -0.79922116014E+00  0.31886172306E+02  0.00000000000E+00 0.  1.
         11    1    3    3    0    0 -0.60383613358E+01 -0.13733597482E+02  0.64382211499E+01  0.16325568880E+02  0.51100000000E-03 0. -1.
        -11    1    3    3    0    0  0.19588922764E+02 -0.95467889634E+01  0.10495066285E+02  0.24187052138E+02  0.51100000000E-03 0.  1.
         12    1    3    3    0    0 -0.58471638392E+01 -0.76509390271E+01 -0.16134066274E+02  0.18789206676E+02  0.00000000000E+00 0. -1.
</event>
<event>
 7    1  0.3750159E-013  0.5930195E+02  0.7816164E-02  0.1266605E+00
        -11   -1    0    0    0    0  0.00000000000E+00  0.00000000000E+00  0.45593999997E+02  0.45594000000E+02  0.51100000000E-03 0. -1.
         11   -1    0    0    0    0 -0.00000000000E+00 -0.00000000000E+00 -0.45593999997E+02  0.45594000000E+02  0.51100000000E-03 0.  1.
    9900012    2    1    2    0    0  0.19255893679E+02  0.25406666933E+02  0.65741737237E+00  0.59301947192E+02  0.50000005772E+02 0.  0.
        -12    1    1    2    0    0 -0.19255893679E+02 -0.25406666933E+02 -0.65741737237E+00  0.31886052808E+02  0.00000000000E+00 0.  1.
         11    1    3    3    0    0  0.24188988946E+02  0.14988256951E+02 -0.79765352672E+01  0.29553005732E+02  0.51100000000E-03 0. -1.
        -11    1    3    3    0    0 -0.23011309922E+01  0.70246788283E+01 -0.89730599013E+01  0.11625709472E+02  0.51100000000E-03 0.  1.
         12    1    3    3    0    0 -0.26319642744E+01  0.33937311544E+01  0.17607012541E+02  0.18123231988E+02  0.00000000000E+00 0. -1.
</event>
<event>
 7    1  0.3750159E-013  0.5930196E+02  0.7816164E-02  0.1266605E+00
        -11   -1    0    0    0    0  0.00000000000E+00  0.00000000000E+00  0.45593999997E+02  0.45594000000E+02  0.51100000000E-03 0.  1.
         11   -1    0    0    0    0 -0.00000000000E+00 -0.00000000000E+00 -0.45593999997E+02  0.45594000000E+02  0.51100000000E-03 0. -1.
    9900012    2    1    2    0    0  0.11901082602E+02 -0.17625690045E+02  0.23757506489E+02  0.59301955541E+02  0.50000020997E+02 0.  0.
        -12    1    1    2    0    0 -0.11901082602E+02  0.17625690045E+02 -0.23757506489E+02  0.31886044459E+02  0.00000000000E+00 0.  1.
         11    1    3    3    0    0  0.97869377744E+01 -0.21281922878E+02 -0.49902707455E+01  0.23950098012E+02  0.51100000000E-03 0. -1.
        -11    1    3    3    0    0  0.94270722130E+00 -0.65950258802E+01  0.24430245012E+01  0.70958743112E+01  0.51100000000E-03 0.  1.
        -12    1    3    3    0    0  0.11714376064E+01  0.10251258713E+02  0.26304752733E+02  0.28255983218E+02  0.00000000000E+00 0.  1.
</event>
<event>
 7    1  0.3750159E-013  0.5930191E+02  0.7816164E-02  0.1266605E+00
        -11   -1    0    0    0    0  0.00000000000E+00  0.00000000000E+00  0.45593999997E+02  0.45594000000E+02  0.51100000000E-03 0. -1.
         11   -1    0    0    0    0 -0.00000000000E+00 -0.00000000000E+00 -0.45593999997E+02  0.45594000000E+02  0.51100000000E-03 0.  1.
    9900012    2    1    2    0    0  0.25928238729E+02  0.65266840689E+01  0.17373872627E+02  0.59301911833E+02  0.49999941284E+02 0.  0.
        -12    1    1    2    0    0 -0.25928238729E+02 -0.65266840689E+01 -0.17373872627E+02  0.31886088167E+02  0.00000000000E+00 0.  1.
         11    1    3    3    0    0  0.34118466165E+01 -0.15194475754E+02  0.12840216915E+02  0.20183754890E+02  0.51100000000E-03 0. -1.
        -11    1    3    3    0    0  0.32093052701E+01 -0.44537856790E+01  0.36283232787E+01  0.65803174139E+01  0.51100000000E-03 0.  1.
         12    1    3    3    0    0  0.19307086843E+02  0.26174945502E+02  0.90533243338E+00  0.32537839529E+02  0.00000000000E+00 0. -1.
</event>
<event>
 7    1  0.3750159E-013  0.5930182E+02  0.7816164E-02  0.1266605E+00
        -11   -1    0    0    0    0  0.00000000000E+00  0.00000000000E+00  0.45593999997E+02  0.45594000000E+02  0.51100000000E-03 0.  1.
         11   -1    0    0    0    0 -0.00000000000E+00 -0.00000000000E+00 -0.45593999997E+02  0.45594000000E+02  0.51100000000E-03 0. -1.
    9900012    2    1    2    0    0 -0.10638663217E+02  0.25530087609E+02 -0.15867016266E+02  0.59301815946E+02  0.49999766409E+02 0.  0.
        -12    1    1    2    0    0  0.10638663217E+02 -0.25530087609E+02  0.15867016266E+02  0.31886184054E+02  0.00000000000E+00 0.  1.
         11    1    3    3    0    0 -0.10348651572E+02 -0.46591549545E+01 -0.33641222384E+01  0.11837213901E+02  0.51100000000E-03 0. -1.
        -11    1    3    3    0    0 -0.56509308577E+01 -0.56158188817E+01  0.23889911346E+01  0.83173144809E+01  0.51100000000E-03 0.  1.
         12    1    3    3    0    0  0.53609192128E+01  0.35805061445E+02 -0.14891885162E+02  0.39147287563E+02  0.00000000000E+00 0. -1.
</event>
<event>
 7    1  0.3750159E-013  0.5930193E+02  0.7816164E-02  0.1266605E+00
        -11   -1    0    0    0    0  0.00000000000E+00  0.00000000000E+00  0.45593999997E+02  0.45594000000E+02  0.51100000000E-03 0.  1.
         11   -1    0    0    0    0 -0.00000000000E+00 -0.00000000000E+00 -0.45593999997E+02  0.45594000000E+02  0.51100000000E-03 0. -1.
    9900012    2    1    2    0    0 -0.15241741225E+02 -0.24441713851E+02 -0.13675284066E+02  0.59301930222E+02  0.49999974822E+02 0.  0.
        -12    1    1    2    0    0  0.15241741225E+02  0.24441713851E+02  0.13675284066E+02  0.31886069778E+02  0.00000000000E+00 0.  1.
         11    1    3    3    0    0 -0.10738373716E+02 -0.22233062836E+02 -0.65511099673E+01  0.25544838915E+02  0.51100000000E-03 0. -1.
        -11    1    3    3    0    0  0.38778276472E+01 -0.15910840852E+02 -0.50469579708E+00  0.16384356014E+02  0.51100000000E-03 0.  1.
        -12    1    3    3    0    0 -0.83811951565E+01  0.13702189837E+02 -0.66194783021E+01  0.17372735293E+02  0.00000000000E+00 0.  1.
</event>
<event>
 7    1  0.3750159E-013  0.5930193E+02  0.7816164E-02  0.1266605E+00
        -11   -1    0    0    0    0  0.00000000000E+00  0.00000000000E+00  0.45593999997E+02  0.45594000000E+02  0.51100000000E-03 0.  1.
         11   -1    0    0    0    0 -0.00000000000E+00 -0.00000000000E+00 -0.45593999997E+02  0.45594000000E+02  0.51100000000E-03 0. -1.
    9900012    2    1    2    0    0 -0.17687376657E+02  0.62605408557E+01 -0.25781457077E+02  0.59301934174E+02  0.49999982029E+02 0.  0.
        -12    1    1    2    0    0  0.17687376657E+02 -0.62605408557E+01  0.25781457077E+02  0.31886065826E+02  0.00000000000E+00 0.  1.
         11    1    3    3    0    0 -0.30522739347E+01  0.98571844603E+01  0.64371249396E+01  0.12162114923E+02  0.51100000000E-03 0.  1.
        -11    1    3    3    0    0 -0.26471457487E+01  0.70773022674E+01  0.32368467604E+01  0.82202655194E+01  0.51100000000E-03 0. -1.
         12    1    3    3    0    0 -0.11987956974E+02 -0.10673945872E+02 -0.35455428777E+02  0.38919553732E+02  0.00000000000E+00 0. -1.
</event>
<event>
 7    1  0.3750159E-013  0.5930194E+02  0.7816164E-02  0.1266605E+00
        -11   -1    0    0    0    0  0.00000000000E+00  0.00000000000E+00  0.45593999997E+02  0.45594000000E+02  0.51100000000E-03 0.  1.
         11   -1    0    0    0    0 -0.00000000000E+00 -0.00000000000E+00 -0.45593999997E+02  0.45594000000E+02  0.51100000000E-03 0. -1.
    9900012    2    1    2    0    0  0.21703588976E+02 -0.23305354632E+02 -0.15922334014E+01  0.59301944487E+02  0.50000000837E+02 0.  0.
        -12    1    1    2    0    0 -0.21703588976E+02  0.23305354632E+02  0.15922334014E+01  0.31886055513E+02  0.00000000000E+00 0.  1.
         11    1    3    3    0    0 -0.42029248383E+01  0.32659048995E+01  0.43411340002E+01  0.68684901309E+01  0.51100000000E-03 0. -1.
        -11    1    3    3    0    0  0.52435948263E+01 -0.22147208894E+02  0.11071731436E+02  0.25309630296E+02  0.51100000000E-03 0.  1.
         12    1    3    3    0    0  0.20662918988E+02 -0.44240506378E+01 -0.17005098837E+02  0.27123824060E+02  0.00000000000E+00 0. -1.
</event>
<event>
 7    1  0.3750159E-013  0.5930192E+02  0.7816164E-02  0.1266605E+00
        -11   -1    0    0    0    0  0.00000000000E+00  0.00000000000E+00  0.45593999997E+02  0.45594000000E+02  0.51100000000E-03 0.  1.
         11   -1    0    0    0    0 -0.00000000000E+00 -0.00000000000E+00 -0.45593999997E+02  0.45594000000E+02  0.51100000000E-03 0. -1.
    9900012    2    1    2    0    0  0.33313510038E+01  0.15929621883E+02 -0.27420271167E+02  0.59301921161E+02  0.49999958297E+02 0.  0.
        -12    1    1    2    0    0 -0.33313510038E+01 -0.15929621883E+02  0.27420271167E+02  0.31886078839E+02  0.00000000000E+00 0.  1.
         11    1    3    3    0    0  0.10999721894E+02 -0.27160137001E+01  0.40586077516E+00  0.11337342519E+02  0.51100000000E-03 0. -1.
        -11    1    3    3    0    0 -0.60012287374E+00 -0.57247232347E+00  0.72778077411E+01  0.73249135013E+01  0.51100000000E-03 0.  1.
         12    1    3    3    0    0 -0.70682480162E+01  0.19218107907E+02 -0.35103939683E+02  0.40639665141E+02  0.00000000000E+00 0. -1.
</event>
<event>
 7    1  0.3750159E-013  0.5930193E+02  0.7816164E-02  0.1266605E+00
        -11   -1    0    0    0    0  0.00000000000E+00  0.00000000000E+00  0.45593999997E+02  0.45594000000E+02  0.51100000000E-03 0.  1.
         11   -1    0    0    0    0 -0.00000000000E+00 -0.00000000000E+00 -0.45593999997E+02  0.45594000000E+02  0.51100000000E-03 0. -1.
    9900012    2    1    2    0    0 -0.17192248918E+02 -0.26812654191E+02  0.14930983678E+01  0.59301934228E+02  0.49999982128E+02 0.  0.
        -12    1    1    2    0    0  0.17192248918E+02  0.26812654191E+02 -0.14930983678E+01  0.31886065772E+02  0.00000000000E+00 0.  1.
         11    1    3    3    0    0 -0.57432295798E+01 -0.24620349683E+01 -0.38400379228E+01  0.73343161713E+01  0.51100000000E-03 0.  1.
        -11    1    3    3    0    0 -0.27769491478E+02 -0.10955968154E+02 -0.11696914229E+01  0.29875509593E+02  0.51100000000E-03 0. -1.
        -12    1    3    3    0    0  0.16320472140E+02 -0.13394651069E+02  0.65028277135E+01  0.22092108464E+02  0.00000000000E+00 0.  1.
</event>
<event>
 7    1  0.3750159E-013  0.5930194E+02  0.7816164E-02  0.1266605E+00
        -11   -1    0    0    0    0  0.00000000000E+00  0.00000000000E+00  0.45593999997E+02  0.45594000000E+02  0.51100000000E-03 0.  1.
         11   -1    0    0    0    0 -0.00000000000E+00 -0.00000000000E+00 -0.45593999997E+02  0.45594000000E+02  0.51100000000E-03 0. -1.
    9900012    2    1    2    0    0 -0.11201097811E+02 -0.29852811919E+02 -0.25680239972E+00  0.59301938482E+02  0.49999989886E+02 0.  0.
        -12    1    1    2    0    0  0.11201097811E+02  0.29852811919E+02  0.25680239972E+00  0.31886061518E+02  0.00000000000E+00 0.  1.
         11    1    3    3    0    0 -0.11909752503E+02  0.29966532837E+01 -0.12842803900E+02  0.17769629931E+02  0.51100000000E-03 0. -1.
        -11    1    3    3    0    0 -0.77375202338E+01 -0.28311851430E+01  0.41612449195E+01  0.92304273045E+01  0.51100000000E-03 0.  1.
         12    1    3    3    0    0  0.84461749257E+01 -0.30018280060E+02  0.84247565809E+01  0.32301881247E+02  0.00000000000E+00 0. -1.
</event>
<event>
 7    1  0.3750159E-013  0.5930196E+02  0.7816164E-02  0.1266605E+00
        -11   -1    0    0    0    0  0.00000000000E+00  0.00000000000E+00  0.45593999997E+02  0.45594000000E+02  0.51100000000E-03 0.  1.
         11   -1    0    0    0    0 -0.00000000000E+00 -0.00000000000E+00 -0.45593999997E+02  0.45594000000E+02  0.51100000000E-03 0. -1.
    9900012    2    1    2    0    0  0.21732161939E+02  0.45057452839E+01 -0.22893900088E+02  0.59301964430E+02  0.50000037209E+02 0.  0.
        -12    1    1    2    0    0 -0.21732161939E+02 -0.45057452839E+01  0.22893900088E+02  0.31886035570E+02  0.00000000000E+00 0.  1.
         11    1    3    3    0    0  0.24243672891E+02  0.13253609878E+02 -0.30996115978E+02  0.41523162886E+02  0.51100000000E-03 0. -1.
        -11    1    3    3    0    0  0.27360181454E+01 -0.16870431059E+01  0.83819075722E+01  0.89770977795E+01  0.51100000000E-03 0.  1.
        -12    1    3    3    0    0 -0.52475290976E+01 -0.70608214883E+01 -0.27969168268E+00  0.88017037644E+01  0.00000000000E+00 0.  1.
</event>
<event>
 7    1  0.3750159E-013  0.5930193E+02  0.7816164E-02  0.1266605E+00
        -11   -1    0    0    0    0  0.00000000000E+00  0.00000000000E+00  0.45593999997E+02  0.45594000000E+02  0.51100000000E-03 0.  1.
         11   -1    0    0    0    0 -0.00000000000E+00 -0.00000000000E+00 -0.45593999997E+02  0.45594000000E+02  0.51100000000E-03 0. -1.
    9900012    2    1    2    0    0 -0.29246598825E+02 -0.12455179580E+02 -0.24952410887E+01  0.59301932992E+02  0.49999979873E+02 0.  0.
        -12    1    1    2    0    0  0.29246598825E+02  0.12455179580E+02  0.24952410887E+01  0.31886067008E+02  0.00000000000E+00 0.  1.
         11    1    3    3    0    0 -0.10513531682E+02  0.22989713632E+01  0.12905201376E+02  0.16803685327E+02  0.51100000000E-03 0. -1.
        -11    1    3    3    0    0 -0.83231982800E+01 -0.23511989518E+01  0.94673789464E+01  0.12823222313E+02  0.51100000000E-03 0.  1.
         12    1    3    3    0    0 -0.10409868863E+02 -0.12402951991E+02 -0.24867821411E+02  0.29675025351E+02  0.00000000000E+00 0. -1.
</event>
<event>
 7    1  0.3750159E-013  0.5930195E+02  0.7816164E-02  0.1266605E+00
        -11   -1    0    0    0    0  0.00000000000E+00  0.00000000000E+00  0.45593999997E+02  0.45594000000E+02  0.51100000000E-03 0. -1.
         11   -1    0    0    0    0 -0.00000000000E+00 -0.00000000000E+00 -0.45593999997E+02  0.45594000000E+02  0.51100000000E-03 0.  1.
    9900012    2    1    2    0    0 -0.26524242572E+02 -0.12963888194E+02  0.12046666140E+02  0.59301952797E+02  0.50000015993E+02 0.  0.
        -12    1    1    2    0    0  0.26524242572E+02  0.12963888194E+02 -0.12046666140E+02  0.31886047203E+02  0.00000000000E+00 0.  1.
         11    1    3    3    0    0  0.66483928850E+00 -0.45072661573E+01 -0.49253988017E+01  0.67094718950E+01  0.51100000000E-03 0. -1.
        -11    1    3    3    0    0 -0.23197296865E+02  0.70582473932E+01 -0.56264834682E+01  0.24891579994E+02  0.51100000000E-03 0.  1.
         12    1    3    3    0    0 -0.39917849951E+01 -0.15514869430E+02  0.22598548410E+02  0.27700900908E+02  0.00000000000E+00 0. -1.
</event>
<event>
 7    1  0.3750159E-013  0.5930193E+02  0.7816164E-02  0.1266605E+00
        -11   -1    0    0    0    0  0.00000000000E+00  0.00000000000E+00  0.45593999997E+02  0.45594000000E+02  0.51100000000E-03 0.  1.
         11   -1    0    0    0    0 -0.00000000000E+00 -0.00000000000E+00 -0.45593999997E+02  0.45594000000E+02  0.51100000000E-03 0. -1.
    9900012    2    1    2    0    0 -0.15260636114E+02 -0.94162488815E+01 -0.26366046892E+02  0.59301934293E+02  0.49999982246E+02 0.  0.
        -12    1    1    2    0    0  0.15260636114E+02  0.94162488815E+01  0.26366046892E+02  0.31886065707E+02  0.00000000000E+00 0.  1.
         11    1    3    3    0    0 -0.97982457307E+01 -0.10668813978E+02  0.13901267928E+01  0.14552032980E+02  0.51100000000E-03 0. -1.
        -11    1    3    3    0    0 -0.18844168255E+02 -0.20088830311E+01 -0.77803889184E+01  0.20485915656E+02  0.51100000000E-03 0.  1.
         12    1    3    3    0    0  0.13381777873E+02  0.32614481276E+01 -0.19975784766E+02  0.24263985657E+02  0.00000000000E+00 0. -1.
</event>
<event>
 7    1  0.3750159E-013  0.5930195E+02  0.7816164E-02  0.1266605E+00
        -11   -1    0    0    0    0  0.00000000000E+00  0.00000000000E+00  0.45593999997E+02  0.45594000000E+02  0.51100000000E-03 0.  1.
         11   -1    0    0    0    0 -0.00000000000E+00 -0.00000000000E+00 -0.45593999997E+02  0.45594000000E+02  0.51100000000E-03 0. -1.
    9900012    2    1    2    0    0  0.17469341291E+01  0.26176916108E+02 -0.18122838403E+02  0.59301953090E+02  0.50000016528E+02 0.  0.
        -12    1    1    2    0    0 -0.17469341291E+01 -0.26176916108E+02  0.18122838403E+02  0.31886046910E+02  0.00000000000E+00 0.  1.
         11    1    3    3    0    0  0.36962197113E+01  0.28365492623E+01  0.50657925555E+01  0.68826089783E+01  0.51100000000E-03 0. -1.
        -11    1    3    3    0    0 -0.14335619443E+02  0.14195980189E+02  0.45614683936E+01  0.20684362028E+02  0.51100000000E-03 0.  1.
         12    1    3    3    0    0  0.12386333861E+02  0.91443866565E+01 -0.27750099352E+02  0.31734982084E+02  0.00000000000E+00 0. -1.
</event>
<event>
 7    1  0.3750159E-013  0.5930195E+02  0.7816164E-02  0.1266605E+00
        -11   -1    0    0    0    0  0.00000000000E+00  0.00000000000E+00  0.45593999997E+02  0.45594000000E+02  0.51100000000E-03 0.  1.
         11   -1    0    0    0    0 -0.00000000000E+00 -0.00000000000E+00 -0.45593999997E+02  0.45594000000E+02  0.51100000000E-03 0. -1.
    9900012    2    1    2    0    0  0.22662054407E+01 -0.19085893906E+02 -0.25442355578E+02  0.59301945201E+02  0.50000002139E+02 0.  0.
        -12    1    1    2    0    0 -0.22662054407E+01  0.19085893906E+02  0.25442355578E+02  0.31886054799E+02  0.00000000000E+00 0.  1.
         11    1    3    3    0    0  0.10036815246E+02 -0.99897838635E+01  0.49419441148E+00  0.14169603745E+02  0.51100000000E-03 0. -1.
        -11    1    3    3    0    0  0.12823470907E+02 -0.21566947364E+01 -0.17540816032E+02  0.21835131454E+02  0.51100000000E-03 0.  1.
        -12    1    3    3    0    0 -0.20594080712E+02 -0.69394153065E+01 -0.83957339573E+01  0.23297210001E+02  0.00000000000E+00 0.  1.
</event>
<event>
 7    1  0.3750159E-013  0.5930195E+02  0.7816164E-02  0.1266605E+00
        -11   -1    0    0    0    0  0.00000000000E+00  0.00000000000E+00  0.45593999997E+02  0.45594000000E+02  0.51100000000E-03 0.  1.
         11   -1    0    0    0    0 -0.00000000000E+00 -0.00000000000E+00 -0.45593999997E+02  0.45594000000E+02  0.51100000000E-03 0. -1.
    9900012    2    1    2    0    0  0.23662629378E+02  0.72068030278E+01 -0.20121183999E+02  0.59301951570E+02  0.50000013756E+02 0.  0.
        -12    1    1    2    0    0 -0.23662629378E+02 -0.72068030278E+01  0.20121183999E+02  0.31886048430E+02  0.00000000000E+00 0.  1.
         11    1    3    3    0    0  0.18342778368E+02  0.16683269528E+02 -0.96605382166E+01  0.26610430273E+02  0.51100000000E-03 0. -1.
        -11    1    3    3    0    0  0.16413937942E+02 -0.10957304384E+01 -0.24125840516E+01  0.16626441172E+02  0.51100000000E-03 0.  1.
         12    1    3    3    0    0 -0.11094086933E+02 -0.83807360623E+01 -0.80480617308E+01  0.16065080126E+02  0.00000000000E+00 0. -1.
</event>
<event>
 7    1  0.3750159E-013  0.5930194E+02  0.7816164E-02  0.1266605E+00
        -11   -1    0    0    0    0  0.00000000000E+00  0.00000000000E+00  0.45593999997E+02  0.45594000000E+02  0.51100000000E-03 0.  1.
         11   -1    0    0    0    0 -0.00000000000E+00 -0.00000000000E+00 -0.45593999997E+02  0.45594000000E+02  0.51100000000E-03 0. -1.
    9900012    2    1    2    0    0  0.21937906560E+02 -0.18245564734E+02 -0.14231951215E+02  0.59301940161E+02  0.49999992948E+02 0.  0.
        -12    1    1    2    0    0 -0.21937906560E+02  0.18245564734E+02  0.14231951215E+02  0.31886059839E+02  0.00000000000E+00 0.  1.
         11    1    3    3    0    0  0.23586617135E+02 -0.10626003421E+02 -0.82010359735E+01  0.27138486470E+02  0.51100000000E-03 0. -1.
        -11    1    3    3    0    0  0.75205343425E+01  0.66269224215E+01 -0.10627454327E+02  0.14608809785E+02  0.51100000000E-03 0.  1.
        -12    1    3    3    0    0 -0.91692449172E+01 -0.14246483734E+02  0.45965390862E+01  0.17554643907E+02  0.00000000000E+00 0.  1.
</event>
<event>
 7    1  0.3750159E-013  0.5930192E+02  0.7816164E-02  0.1266605E+00
        -11   -1    0    0    0    0  0.00000000000E+00  0.00000000000E+00  0.45593999997E+02  0.45594000000E+02  0.51100000000E-03 0.  1.
         11   -1    0    0    0    0 -0.00000000000E+00 -0.00000000000E+00 -0.45593999997E+02  0.45594000000E+02  0.51100000000E-03 0. -1.
    9900012    2    1    2    0    0 -0.17657039063E+02  0.29732694395E+01 -0.26383916155E+02  0.59301915398E+02  0.49999947785E+02 0.  0.
        -12    1    1    2    0    0  0.17657039063E+02 -0.29732694395E+01  0.26383916155E+02  0.31886084602E+02  0.00000000000E+00 0.  1.
         11    1    3    3    0    0  0.12980079315E+02  0.51682025910E+01 -0.21359462782E+02  0.25522919654E+02  0.51100000000E-03 0. -1.
        -11    1    3    3    0    0 -0.21930969815E+02 -0.33817901375E+01 -0.92354951922E+01  0.24035355484E+02  0.51100000000E-03 0.  1.
        -12    1    3    3    0    0 -0.87061485624E+01  0.11868569860E+01  0.42110418201E+01  0.97436402595E+01  0.00000000000E+00 0.  1.
</event>
<event>
 7    1  0.3750159E-013  0.5930203E+02  0.7816164E-02  0.1266604E+00
        -11   -1    0    0    0    0  0.00000000000E+00  0.00000000000E+00  0.45593999997E+02  0.45594000000E+02  0.51100000000E-03 0.  1.
         11   -1    0    0    0    0 -0.00000000000E+00 -0.00000000000E+00 -0.45593999997E+02  0.45594000000E+02  0.51100000000E-03 0. -1.
    9900012    2    1    2    0    0  0.30907660800E+02 -0.49428079011E+01 -0.60827762737E+01  0.59302031091E+02  0.50000158782E+02 0.  0.
        -12    1    1    2    0    0 -0.30907660800E+02  0.49428079011E+01  0.60827762737E+01  0.31885968909E+02  0.00000000000E+00 0.  1.
         11    1    3    3    0    0  0.11259984595E+02  0.12421471391E+02 -0.15747610786E+02  0.23001466265E+02  0.51100000000E-03 0. -1.
        -11    1    3    3    0    0  0.90386817774E+01 -0.14093116144E+02 -0.53955527595E+01  0.17590499730E+02  0.51100000000E-03 0.  1.
        -12    1    3    3    0    0  0.10608994427E+02 -0.32711631485E+01  0.15060387272E+02  0.18710065096E+02  0.00000000000E+00 0.  1.
</event>
<event>
 7    1  0.3750159E-013  0.5930190E+02  0.7816164E-02  0.1266605E+00
        -11   -1    0    0    0    0  0.00000000000E+00  0.00000000000E+00  0.45593999997E+02  0.45594000000E+02  0.51100000000E-03 0.  1.
         11   -1    0    0    0    0 -0.00000000000E+00 -0.00000000000E+00 -0.45593999997E+02  0.45594000000E+02  0.51100000000E-03 0. -1.
    9900012    2    1    2    0    0 -0.33954913406E+01  0.15210892300E+02 -0.27817672764E+02  0.59301897635E+02  0.49999915390E+02 0.  0.
        -12    1    1    2    0    0  0.33954913406E+01 -0.15210892300E+02  0.27817672764E+02  0.31886102365E+02  0.00000000000E+00 0.  1.
         11    1    3    3    0    0  0.69387712510E+01  0.19166517052E+02 -0.19151034491E+02  0.27968983620E+02  0.51100000000E-03 0. -1.
        -11    1    3    3    0    0 -0.15238877505E+02  0.44035887531E+01 -0.13197163221E+02  0.20634439630E+02  0.51100000000E-03 0.  1.
        -12    1    3    3    0    0  0.49046149130E+01 -0.83592135046E+01  0.45305249481E+01  0.10698474385E+02  0.00000000000E+00 0.  1.
</event>
<event>
 7    1  0.3750159E-013  0.5930195E+02  0.7816164E-02  0.1266605E+00
        -11   -1    0    0    0    0  0.00000000000E+00  0.00000000000E+00  0.45593999997E+02  0.45594000000E+02  0.51100000000E-03 0. -1.
         11   -1    0    0    0    0 -0.00000000000E+00 -0.00000000000E+00 -0.45593999997E+02  0.45594000000E+02  0.51100000000E-03 0.  1.
    9900012    2    1    2    0    0  0.13488738104E+02  0.20889368825E+02  0.19960164297E+02  0.59301953768E+02  0.50000017764E+02 0.  0.
        -12    1    1    2    0    0 -0.13488738104E+02 -0.20889368825E+02 -0.19960164297E+02  0.31886046232E+02  0.00000000000E+00 0.  1.
         11    1    3    3    0    0  0.46088256663E+01  0.11584344405E+02 -0.50254707161E+00  0.12477614481E+02  0.51100000000E-03 0. -1.
        -11    1    3    3    0    0  0.18627419958E+02  0.18795631418E+02  0.63328461569E+01  0.27209584256E+02  0.51100000000E-03 0.  1.
        -12    1    3    3    0    0 -0.97475075202E+01 -0.94906069974E+01  0.14129865211E+02  0.19614755031E+02  0.00000000000E+00 0.  1.
</event>
<event>
 7    1  0.3750159E-013  0.5930193E+02  0.7816164E-02  0.1266605E+00
        -11   -1    0    0    0    0  0.00000000000E+00  0.00000000000E+00  0.45593999997E+02  0.45594000000E+02  0.51100000000E-03 0. -1.
         11   -1    0    0    0    0 -0.00000000000E+00 -0.00000000000E+00 -0.45593999997E+02  0.45594000000E+02  0.51100000000E-03 0.  1.
    9900012    2    1    2    0    0  0.19366461251E+02 -0.24949777348E+02 -0.43784166563E+01  0.59301925555E+02  0.49999966311E+02 0.  0.
        -12    1    1    2    0    0 -0.19366461251E+02  0.24949777348E+02  0.43784166563E+01  0.31886074445E+02  0.00000000000E+00 0.  1.
         11    1    3    3    0    0  0.15031418694E+02 -0.13880655013E+02  0.49306457916E+00  0.20466051023E+02  0.51100000000E-03 0. -1.
        -11    1    3    3    0    0  0.10152845361E+02 -0.14847510664E+02 -0.17073437975E+02  0.24799821095E+02  0.51100000000E-03 0.  1.
        -12    1    3    3    0    0 -0.58178028038E+01  0.37783883289E+01  0.12201956739E+02  0.14036053437E+02  0.00000000000E+00 0.  1.
</event>
<event>
 7    1  0.3750159E-013  0.5930191E+02  0.7816164E-02  0.1266605E+00
        -11   -1    0    0    0    0  0.00000000000E+00  0.00000000000E+00  0.45593999997E+02  0.45594000000E+02  0.51100000000E-03 0.  1.
         11   -1    0    0    0    0 -0.00000000000E+00 -0.00000000000E+00 -0.45593999997E+02  0.45594000000E+02  0.51100000000E-03 0. -1.
    9900012    2    1    2    0    0  0.88289582116E+01  0.74592474841E+01 -0.29717529591E+02  0.59301914616E+02  0.49999946359E+02 0.  0.
        -12    1    1    2    0    0 -0.88289582116E+01 -0.74592474841E+01  0.29717529591E+02  0.31886085384E+02  0.00000000000E+00 0.  1.
         11    1    3    3    0    0 -0.53138448363E+01  0.33983218071E+01 -0.22521123420E+01  0.66975777943E+01  0.51100000000E-03 0. -1.
        -11    1    3    3    0    0 -0.10791580697E+01 -0.12754304201E+02  0.43611941147E+01  0.13522458066E+02  0.51100000000E-03 0.  1.
         12    1    3    3    0    0  0.15221961118E+02  0.16815229878E+02 -0.31826611364E+02  0.39081878755E+02  0.00000000000E+00 0. -1.
</event>
<event>
 7    1  0.3750159E-013  0.5930192E+02  0.7816164E-02  0.1266605E+00
        -11   -1    0    0    0    0  0.00000000000E+00  0.00000000000E+00  0.45593999997E+02  0.45594000000E+02  0.51100000000E-03 0. -1.
         11   -1    0    0    0    0 -0.00000000000E+00 -0.00000000000E+00 -0.45593999997E+02  0.45594000000E+02  0.51100000000E-03 0.  1.
    9900012    2    1    2    0    0  0.13379165207E+02  0.28913681291E+02  0.13112095664E+01  0.59301916861E+02  0.49999950454E+02 0.  0.
        -12    1    1    2    0    0 -0.13379165207E+02 -0.28913681291E+02 -0.13112095664E+01  0.31886083139E+02  0.00000000000E+00 0.  1.
         11    1    3    3    0    0  0.10921223510E+02  0.11959400573E+02  0.13809859410E+02  0.21284092703E+02  0.51100000000E-03 0. -1.
        -11    1    3    3    0    0  0.11474838904E+02  0.69745488250E+01  0.63568789013E+01  0.14856855953E+02  0.51100000000E-03 0.  1.
        -12    1    3    3    0    0 -0.90168972078E+01  0.99797318936E+01 -0.18855528745E+02  0.23160968204E+02  0.00000000000E+00 0.  1.
</event>
<event>
 7    1  0.3750159E-013  0.5930194E+02  0.7816164E-02  0.1266605E+00
        -11   -1    0    0    0    0  0.00000000000E+00  0.00000000000E+00  0.45593999997E+02  0.45594000000E+02  0.51100000000E-03 0. -1.
         11   -1    0    0    0    0 -0.00000000000E+00 -0.00000000000E+00 -0.45593999997E+02  0.45594000000E+02  0.51100000000E-03 0.  1.
    9900012    2    1    2    0    0 -0.13539141916E+02  0.28859763017E+02 -0.72564326119E+00  0.59301939670E+02  0.49999992052E+02 0.  0.
        -12    1    1    2    0    0  0.13539141916E+02 -0.28859763017E+02  0.72564326119E+00  0.31886060330E+02  0.00000000000E+00 0.  1.
         11    1    3    3    0    0 -0.18253546448E+02  0.15303354276E+02  0.45902313627E+01  0.24258088018E+02  0.51100000000E-03 0. -1.
        -11    1    3    3    0    0 -0.76565136242E+01 -0.94396072201E+00 -0.12488017058E+02  0.14678686352E+02  0.51100000000E-03 0.  1.
         12    1    3    3    0    0  0.12370918156E+02  0.14500369463E+02  0.71721424341E+01  0.20365165300E+02  0.00000000000E+00 0. -1.
</event>
<event>
 7    1  0.3750159E-013  0.5930180E+02  0.7816164E-02  0.1266605E+00
        -11   -1    0    0    0    0  0.00000000000E+00  0.00000000000E+00  0.45593999997E+02  0.45594000000E+02  0.51100000000E-03 0.  1.
         11   -1    0    0    0    0 -0.00000000000E+00 -0.00000000000E+00 -0.45593999997E+02  0.45594000000E+02  0.51100000000E-03 0. -1.
    9900012    2    1    2    0    0  0.67216540078E+01 -0.24556675301E+02 -0.19196848548E+02  0.59301797206E+02  0.49999732232E+02 0.  0.
        -12    1    1    2    0    0 -0.67216540078E+01  0.24556675301E+02  0.19196848548E+02  0.31886202794E+02  0.00000000000E+00 0.  1.
         11    1    3    3    0    0  0.50203595109E+01 -0.17629219007E+02 -0.28468762503E+02  0.33859471513E+02  0.51100000000E-03 0. -1.
        -11    1    3    3    0    0 -0.29652355387E+00 -0.13563610441E+02 -0.36552184113E+00  0.13571774420E+02  0.51100000000E-03 0.  1.
        -12    1    3    3    0    0  0.19978180507E+01  0.66361541476E+01  0.96374357957E+01  0.11870551274E+02  0.00000000000E+00 0.  1.
</event>
<event>
 7    1  0.3750159E-013  0.5930196E+02  0.7816164E-02  0.1266605E+00
        -11   -1    0    0    0    0  0.00000000000E+00  0.00000000000E+00  0.45593999997E+02  0.45594000000E+02  0.51100000000E-03 0.  1.
         11   -1    0    0    0    0 -0.00000000000E+00 -0.00000000000E+00 -0.45593999997E+02  0.45594000000E+02  0.51100000000E-03 0. -1.
    9900012    2    1    2    0    0  0.15106339456E+02  0.21011188126E+02 -0.18629231479E+02  0.59301956286E+02  0.50000022356E+02 0.  0.
        -12    1    1    2    0    0 -0.15106339456E+02 -0.21011188126E+02  0.18629231479E+02  0.31886043714E+02  0.00000000000E+00 0.  1.
         11    1    3    3    0    0  0.62072994655E+01 -0.16208780363E+01 -0.46620776537E+01  0.79304968680E+01  0.51100000000E-03 0. -1.
        -11    1    3    3    0    0  0.22443251439E+02  0.63581829244E+00 -0.10169023753E+01  0.22475272874E+02  0.51100000000E-03 0.  1.
         12    1    3    3    0    0 -0.13544211449E+02  0.21996247870E+02 -0.12950251450E+02  0.28896186543E+02  0.00000000000E+00 0. -1.
</event>
<event>
 7    1  0.3750159E-013  0.5930195E+02  0.7816164E-02  0.1266605E+00
        -11   -1    0    0    0    0  0.00000000000E+00  0.00000000000E+00  0.45593999997E+02  0.45594000000E+02  0.51100000000E-03 0.  1.
         11   -1    0    0    0    0 -0.00000000000E+00 -0.00000000000E+00 -0.45593999997E+02  0.45594000000E+02  0.51100000000E-03 0. -1.
    9900012    2    1    2    0    0  0.22042275777E+01  0.31484934953E+02 -0.45343831365E+01  0.59301946958E+02  0.50000005343E+02 0.  0.
        -12    1    1    2    0    0 -0.22042275777E+01 -0.31484934953E+02  0.45343831365E+01  0.31886053042E+02  0.00000000000E+00 0.  1.
         11    1    3    3    0    0 -0.70153164329E+01  0.53183829791E+01  0.26364396595E+01  0.91897049193E+01  0.51100000000E-03 0. -1.
        -11    1    3    3    0    0 -0.87973567099E+01  0.55311927344E+01  0.12597435432E+02  0.16330430425E+02  0.51100000000E-03 0.  1.
        -12    1    3    3    0    0  0.18016900720E+02  0.20635359239E+02 -0.19768258228E+02  0.33781811613E+02  0.00000000000E+00 0.  1.
</event>
<event>
 7    1  0.3750159E-013  0.5930195E+02  0.7816164E-02  0.1266605E+00
        -11   -1    0    0    0    0  0.00000000000E+00  0.00000000000E+00  0.45593999997E+02  0.45594000000E+02  0.51100000000E-03 0. -1.
         11   -1    0    0    0    0 -0.00000000000E+00 -0.00000000000E+00 -0.45593999997E+02  0.45594000000E+02  0.51100000000E-03 0.  1.
    9900012    2    1    2    0    0 -0.17106636699E+02 -0.32716308260E+01  0.26709163292E+02  0.59301953033E+02  0.50000016424E+02 0.  0.
        -12    1    1    2    0    0  0.17106636699E+02  0.32716308260E+01 -0.26709163292E+02  0.31886046967E+02  0.00000000000E+00 0.  1.
         11    1    3    3    0    0 -0.98951097664E+01  0.30612994753E+01  0.10057083306E+02  0.14437093774E+02  0.51100000000E-03 0. -1.
        -11    1    3    3    0    0 -0.21556195723E+01  0.17043299814E+02  0.10628898425E+02  0.20201342686E+02  0.51100000000E-03 0.  1.
        -12    1    3    3    0    0 -0.50559073601E+01 -0.23376230116E+02  0.60231815608E+01  0.24663516574E+02  0.00000000000E+00 0.  1.
</event>
<event>
 7    1  0.3750159E-013  0.5930193E+02  0.7816164E-02  0.1266605E+00
        -11   -1    0    0    0    0  0.00000000000E+00  0.00000000000E+00  0.45593999997E+02  0.45594000000E+02  0.51100000000E-03 0.  1.
         11   -1    0    0    0    0 -0.00000000000E+00 -0.00000000000E+00 -0.45593999997E+02  0.45594000000E+02  0.51100000000E-03 0. -1.
    9900012    2    1    2    0    0 -0.86352446039E+01 -0.87636609459E+01 -0.29416869775E+02  0.59301930472E+02  0.49999975278E+02 0.  0.
        -12    1    1    2    0    0  0.86352446039E+01  0.87636609459E+01  0.29416869775E+02  0.31886069528E+02  0.00000000000E+00 0.  1.
         11    1    3    3    0    0  0.81031337164E+01  0.45504722678E+01 -0.79836531663E+01  0.12251787299E+02  0.51100000000E-03 0. -1.
        -11    1    3    3    0    0  0.35272233499E+01 -0.20159958926E+02 -0.11338732764E+02  0.23397267136E+02  0.51100000000E-03 0.  1.
         12    1    3    3    0    0 -0.20265601670E+02  0.68458257123E+01 -0.10094483845E+02  0.23652876037E+02  0.00000000000E+00 0. -1.
</event>
<event>
 7    1  0.3750159E-013  0.5930193E+02  0.7816164E-02  0.1266605E+00
        -11   -1    0    0    0    0  0.00000000000E+00  0.00000000000E+00  0.45593999997E+02  0.45594000000E+02  0.51100000000E-03 0. -1.
         11   -1    0    0    0    0 -0.00000000000E+00 -0.00000000000E+00 -0.45593999997E+02  0.45594000000E+02  0.51100000000E-03 0.  1.
    9900012    2    1    2    0    0  0.29762573583E+02  0.10615987786E+02  0.42674690879E+01  0.59301932896E+02  0.49999979699E+02 0.  0.
        -12    1    1    2    0    0 -0.29762573583E+02 -0.10615987786E+02 -0.42674690879E+01  0.31886067104E+02  0.00000000000E+00 0.  1.
         11    1    3    3    0    0 -0.27896785371E+01  0.16962530834E+01 -0.73373715245E+01  0.80309776498E+01  0.51100000000E-03 0. -1.
        -11    1    3    3    0    0  0.47727538110E+01 -0.18081029847E+01 -0.12149671278E+02  0.13178123075E+02  0.51100000000E-03 0.  1.
         12    1    3    3    0    0  0.27779498309E+02  0.10727837687E+02  0.23754511890E+02  0.38092832172E+02  0.00000000000E+00 0. -1.
</event>
<event>
 7    1  0.3750159E-013  0.5930194E+02  0.7816164E-02  0.1266605E+00
        -11   -1    0    0    0    0  0.00000000000E+00  0.00000000000E+00  0.45593999997E+02  0.45594000000E+02  0.51100000000E-03 0. -1.
         11   -1    0    0    0    0 -0.00000000000E+00 -0.00000000000E+00 -0.45593999997E+02  0.45594000000E+02  0.51100000000E-03 0.  1.
    9900012    2    1    2    0    0  0.57362929133E+00  0.69521230367E+01  0.31113656246E+02  0.59301942384E+02  0.49999997002E+02 0.  0.
        -12    1    1    2    0    0 -0.57362929133E+00 -0.69521230367E+01 -0.31113656246E+02  0.31886057616E+02  0.00000000000E+00 0.  1.
         11    1    3    3    0    0 -0.17736183809E+02  0.39399288268E+01  0.27579205643E+02  0.33025866218E+02  0.51100000000E-03 0. -1.
        -11    1    3    3    0    0 -0.34440521268E+01  0.24113161544E+01  0.12939087372E+01  0.43988794857E+01  0.51100000000E-03 0.  1.
         12    1    3    3    0    0  0.21753865227E+02  0.60087805558E+00  0.22405418659E+01  0.21877196680E+02  0.00000000000E+00 0. -1.
</event>
<event>
 7    1  0.3750159E-013  0.5930190E+02  0.7816164E-02  0.1266605E+00
        -11   -1    0    0    0    0  0.00000000000E+00  0.00000000000E+00  0.45593999997E+02  0.45594000000E+02  0.51100000000E-03 0.  1.
         11   -1    0    0    0    0 -0.00000000000E+00 -0.00000000000E+00 -0.45593999997E+02  0.45594000000E+02  0.51100000000E-03 0. -1.
    9900012    2    1    2    0    0  0.59761724330E+01  0.26910966396E+02 -0.16025242930E+02  0.59301903339E+02  0.49999925793E+02 0.  0.
        -12    1    1    2    0    0 -0.59761724330E+01 -0.26910966396E+02  0.16025242930E+02  0.31886096661E+02  0.00000000000E+00 0.  1.
         11    1    3    3    0    0 -0.16809380117E+02  0.11297837272E+02 -0.78690557837E+01  0.21728286314E+02  0.51100000000E-03 0. -1.
        -11    1    3    3    0    0  0.84455809264E+01 -0.19065082615E+01  0.63037872309E+01  0.10709824679E+02  0.51100000000E-03 0.  1.
         12    1    3    3    0    0  0.14339971623E+02  0.17519637385E+02 -0.14459974377E+02  0.26863792347E+02  0.00000000000E+00 0. -1.
</event>
<event>
 7    1  0.3750159E-013  0.5930194E+02  0.7816164E-02  0.1266605E+00
        -11   -1    0    0    0    0  0.00000000000E+00  0.00000000000E+00  0.45593999997E+02  0.45594000000E+02  0.51100000000E-03 0.  1.
         11   -1    0    0    0    0 -0.00000000000E+00 -0.00000000000E+00 -0.45593999997E+02  0.45594000000E+02  0.51100000000E-03 0. -1.
    9900012    2    1    2    0    0  0.47125276793E+01  0.10458114449E+02 -0.29751312491E+02  0.59301942390E+02  0.49999997014E+02 0.  0.
        -12    1    1    2    0    0 -0.47125276793E+01 -0.10458114449E+02  0.29751312491E+02  0.31886057610E+02  0.00000000000E+00 0.  1.
         11    1    3    3    0    0  0.33487291338E+01  0.25367680620E+01  0.17325724256E+01  0.45443356482E+01  0.51100000000E-03 0. -1.
        -11    1    3    3    0    0 -0.11489470655E+02 -0.10135972433E+02  0.10875813760E+01  0.15359970918E+02  0.51100000000E-03 0.  1.
         12    1    3    3    0    0  0.12853269200E+02  0.18057318820E+02 -0.32571466293E+02  0.39397635824E+02  0.00000000000E+00 0. -1.
</event>
<event>
 7    1  0.3750159E-013  0.5930194E+02  0.7816164E-02  0.1266605E+00
        -11   -1    0    0    0    0  0.00000000000E+00  0.00000000000E+00  0.45593999997E+02  0.45594000000E+02  0.51100000000E-03 0.  1.
         11   -1    0    0    0    0 -0.00000000000E+00 -0.00000000000E+00 -0.45593999997E+02  0.45594000000E+02  0.51100000000E-03 0. -1.
    9900012    2    1    2    0    0  0.18658944667E+02 -0.20253003269E+02 -0.16074217281E+02  0.59301940056E+02  0.49999992757E+02 0.  0.
        -12    1    1    2    0    0 -0.18658944667E+02  0.20253003269E+02  0.16074217281E+02  0.31886059944E+02  0.00000000000E+00 0.  1.
         11    1    3    3    0    0 -0.11150887901E+02 -0.82369263556E+01 -0.16491508129E+02  0.21544351868E+02  0.51100000000E-03 0. -1.
        -11    1    3    3    0    0 -0.27330952208E+01 -0.23811973346E+01 -0.10889252926E+01  0.37849265232E+01  0.51100000000E-03 0.  1.
        -12    1    3    3    0    0  0.32542927789E+02 -0.96348795789E+01  0.15062161403E+01  0.33972661666E+02  0.00000000000E+00 0.  1.
</event>
<event>
 7    1  0.3750159E-013  0.5930194E+02  0.7816164E-02  0.1266605E+00
        -11   -1    0    0    0    0  0.00000000000E+00  0.00000000000E+00  0.45593999997E+02  0.45594000000E+02  0.51100000000E-03 0.  1.
         11   -1    0    0    0    0 -0.00000000000E+00 -0.00000000000E+00 -0.45593999997E+02  0.45594000000E+02  0.51100000000E-03 0. -1.
    9900012    2    1    2    0    0 -0.11203928396E+02 -0.26065763412E+02 -0.14552267467E+02  0.59301944707E+02  0.50000001238E+02 0.  0.
        -12    1    1    2    0    0  0.11203928396E+02  0.26065763412E+02  0.14552267467E+02  0.31886055293E+02  0.00000000000E+00 0.  1.
         11    1    3    3    0    0  0.47759089984E-01 -0.17815195742E+01  0.43748743555E+01  0.47239410254E+01  0.51100000000E-03 0. -1.
        -11    1    3    3    0    0  0.11984897696E+02  0.93933647726E+00 -0.16201640220E+02  0.20174569931E+02  0.51100000000E-03 0.  1.
         12    1    3    3    0    0 -0.23236585182E+02 -0.25223580315E+02 -0.27255016025E+01  0.34403433750E+02  0.00000000000E+00 0. -1.
</event>
<event>
 7    1  0.3750159E-013  0.5930194E+02  0.7816164E-02  0.1266605E+00
        -11   -1    0    0    0    0  0.00000000000E+00  0.00000000000E+00  0.45593999997E+02  0.45594000000E+02  0.51100000000E-03 0.  1.
         11   -1    0    0    0    0 -0.00000000000E+00 -0.00000000000E+00 -0.45593999997E+02  0.45594000000E+02  0.51100000000E-03 0. -1.
    9900012    2    1    2    0    0  0.35879391785E+01 -0.12857299774E+02 -0.28957512795E+02  0.59301937021E+02  0.49999987221E+02 0.  0.
        -12    1    1    2    0    0 -0.35879391785E+01  0.12857299774E+02  0.28957512795E+02  0.31886062979E+02  0.00000000000E+00 0.  1.
         11    1    3    3    0    0  0.46985623993E+01  0.53652555715E+01 -0.55711562977E+01  0.90498750667E+01  0.51100000000E-03 0. -1.
        -11    1    3    3    0    0  0.76967389882E+01  0.98194681966E+01  0.33560350882E+00  0.12480960568E+02  0.51100000000E-03 0.  1.
         12    1    3    3    0    0 -0.88073622090E+01 -0.28042023543E+02 -0.23721960006E+02  0.37771101387E+02  0.00000000000E+00 0. -1.
</event>
<event>
 7    1  0.3750159E-013  0.5930193E+02  0.7816164E-02  0.1266605E+00
        -11   -1    0    0    0    0  0.00000000000E+00  0.00000000000E+00  0.45593999997E+02  0.45594000000E+02  0.51100000000E-03 0. -1.
         11   -1    0    0    0    0 -0.00000000000E+00 -0.00000000000E+00 -0.45593999997E+02  0.45594000000E+02  0.51100000000E-03 0.  1.
    9900012    2    1    2    0    0  0.16216926254E+02  0.27446443179E+02 -0.65253824692E+00  0.59301925509E+02  0.49999966226E+02 0.  0.
        -12    1    1    2    0    0 -0.16216926254E+02 -0.27446443179E+02  0.65253824692E+00  0.31886074491E+02  0.00000000000E+00 0.  1.
         11    1    3    3    0    0 -0.15404254166E+01  0.13779741390E+02  0.11538851885E+02  0.18038827188E+02  0.51100000000E-03 0. -1.
        -11    1    3    3    0    0 -0.81642882072E+01 -0.15770002148E+01  0.10952458828E+01  0.83870194594E+01  0.51100000000E-03 0.  1.
        -12    1    3    3    0    0  0.25921639878E+02  0.15243702003E+02 -0.13286636014E+02  0.32876078861E+02  0.00000000000E+00 0.  1.
</event>
<event>
 7    1  0.3750159E-013  0.5930194E+02  0.7816164E-02  0.1266605E+00
        -11   -1    0    0    0    0  0.00000000000E+00  0.00000000000E+00  0.45593999997E+02  0.45594000000E+02  0.51100000000E-03 0.  1.
         11   -1    0    0    0    0 -0.00000000000E+00 -0.00000000000E+00 -0.45593999997E+02  0.45594000000E+02  0.51100000000E-03 0. -1.
    9900012    2    1    2    0    0  0.26535734636E+02 -0.15911673429E+02 -0.77067474708E+01  0.59301944732E+02  0.50000001285E+02 0.  0.
        -12    1    1    2    0    0 -0.26535734636E+02  0.15911673429E+02  0.77067474708E+01  0.31886055268E+02  0.00000000000E+00 0.  1.
         11    1    3    3    0    0  0.54717115337E+01  0.51706938680E+01 -0.15595360970E+02  0.17317360833E+02  0.51100000000E-03 0. -1.
        -11    1    3    3    0    0  0.82629335286E+00  0.36911664908E+01 -0.60144067966E+01  0.71049672866E+01  0.51100000000E-03 0.  1.
        -12    1    3    3    0    0  0.20237729749E+02 -0.24773533788E+02  0.13903020295E+02  0.34879616613E+02  0.00000000000E+00 0.  1.
</event>
<event>
 7    1  0.3750159E-013  0.5930195E+02  0.7816164E-02  0.1266605E+00
        -11   -1    0    0    0    0  0.00000000000E+00  0.00000000000E+00  0.45593999997E+02  0.45594000000E+02  0.51100000000E-03 0. -1.
         11   -1    0    0    0    0 -0.00000000000E+00 -0.00000000000E+00 -0.45593999997E+02  0.45594000000E+02  0.51100000000E-03 0.  1.
    9900012    2    1    2    0    0  0.30951514907E+02  0.65740817528E+01  0.39377245741E+01  0.59301945042E+02  0.50000001850E+02 0.  0.
        -12    1    1    2    0    0 -0.30951514907E+02 -0.65740817528E+01 -0.39377245741E+01  0.31886054958E+02  0.00000000000E+00 0.  1.
         11    1    3    3    0    0  0.26142856252E+02  0.94041309162E+01 -0.51953587802E+01  0.28264436390E+02  0.51100000000E-03 0. -1.
        -11    1    3    3    0    0  0.22798216711E+00 -0.11345979355E+02 -0.61837721691E+01  0.12923709293E+02  0.51100000000E-03 0.  1.
         12    1    3    3    0    0  0.45806764880E+01  0.85159301917E+01  0.15316855523E+02  0.18113799360E+02  0.00000000000E+00 0. -1.
</event>
<event>
 7    1  0.3750159E-013  0.5930193E+02  0.7816164E-02  0.1266605E+00
        -11   -1    0    0    0    0  0.00000000000E+00  0.00000000000E+00  0.45593999997E+02  0.45594000000E+02  0.51100000000E-03 0.  1.
         11   -1    0    0    0    0 -0.00000000000E+00 -0.00000000000E+00 -0.45593999997E+02  0.45594000000E+02  0.51100000000E-03 0. -1.
    9900012    2    1    2    0    0 -0.19245614680E+01 -0.30634638594E+02  0.86334382297E+01  0.59301932913E+02  0.49999979729E+02 0.  0.
        -12    1    1    2    0    0  0.19245614680E+01  0.30634638594E+02 -0.86334382297E+01  0.31886067087E+02  0.00000000000E+00 0.  1.
         11    1    3    3    0    0  0.51537222827E+00 -0.11649144422E+02  0.57063652600E+00  0.11674493591E+02  0.51100000000E-03 0. -1.
        -11    1    3    3    0    0  0.59483398908E+01 -0.31283638710E+02  0.33862557486E+01  0.32023671349E+02  0.51100000000E-03 0.  1.
         12    1    3    3    0    0 -0.83882735871E+01  0.12298144539E+02  0.46765459551E+01  0.15603767972E+02  0.00000000000E+00 0. -1.
</event>
<event>
 7    1  0.3750159E-013  0.5930197E+02  0.7816164E-02  0.1266605E+00
        -11   -1    0    0    0    0  0.00000000000E+00  0.00000000000E+00  0.45593999997E+02  0.45594000000E+02  0.51100000000E-03 0. -1.
         11   -1    0    0    0    0 -0.00000000000E+00 -0.00000000000E+00 -0.45593999997E+02  0.45594000000E+02  0.51100000000E-03 0.  1.
    9900012    2    1    2    0    0  0.15489212857E+02 -0.25119855693E+02  0.12074591940E+02  0.59301974291E+02  0.50000055194E+02 0.  0.
        -12    1    1    2    0    0 -0.15489212857E+02  0.25119855693E+02 -0.12074591940E+02  0.31886025709E+02  0.00000000000E+00 0.  1.
         11    1    3    3    0    0  0.86984834454E+01  0.75036786217E+01  0.45260618237E+01  0.12347228151E+02  0.51100000000E-03 0. -1.
        -11    1    3    3    0    0 -0.46175614528E+01  0.35426570965E+01 -0.42863696792E+01  0.72280881540E+01  0.51100000000E-03 0.  1.
         12    1    3    3    0    0  0.11408290865E+02 -0.36166191411E+02  0.11834899796E+02  0.39726657987E+02  0.00000000000E+00 0. -1.
</event>
<event>
 7    1  0.3750159E-013  0.5930199E+02  0.7816164E-02  0.1266605E+00
        -11   -1    0    0    0    0  0.00000000000E+00  0.00000000000E+00  0.45593999997E+02  0.45594000000E+02  0.51100000000E-03 0.  1.
         11   -1    0    0    0    0 -0.00000000000E+00 -0.00000000000E+00 -0.45593999997E+02  0.45594000000E+02  0.51100000000E-03 0. -1.
    9900012    2    1    2    0    0 -0.15263839897E+02  0.27905503405E+02 -0.22395670928E+01  0.59301990694E+02  0.50000085108E+02 0.  0.
        -12    1    1    2    0    0  0.15263839897E+02 -0.27905503405E+02  0.22395670928E+01  0.31886009306E+02  0.00000000000E+00 0.  1.
         11    1    3    3    0    0 -0.10153510057E+02  0.26344268792E+02 -0.90237046520E+00  0.28247628881E+02  0.51100000000E-03 0. -1.
        -11    1    3    3    0    0 -0.15265757559E+02  0.56675945749E+01 -0.80933107004E+01  0.18184242092E+02  0.51100000000E-03 0.  1.
        -12    1    3    3    0    0  0.10155427718E+02 -0.41063599614E+01  0.67561140728E+01  0.12870119721E+02  0.00000000000E+00 0.  1.
</event>
<event>
 7    1  0.3750159E-013  0.5930195E+02  0.7816164E-02  0.1266605E+00
        -11   -1    0    0    0    0  0.00000000000E+00  0.00000000000E+00  0.45593999997E+02  0.45594000000E+02  0.51100000000E-03 0.  1.
         11   -1    0    0    0    0 -0.00000000000E+00 -0.00000000000E+00 -0.45593999997E+02  0.45594000000E+02  0.51100000000E-03 0. -1.
    9900012    2    1    2    0    0 -0.16711071439E+02 -0.93194426745E+01 -0.25507022540E+02  0.59301951024E+02  0.50000012760E+02 0.  0.
        -12    1    1    2    0    0  0.16711071439E+02  0.93194426745E+01  0.25507022540E+02  0.31886048976E+02  0.00000000000E+00 0.  1.
         11    1    3    3    0    0 -0.12747795463E+02 -0.71472023122E+01 -0.23235360700E+01  0.14798229968E+02  0.51100000000E-03 0. -1.
        -11    1    3    3    0    0  0.78500403336E+00 -0.19598624642E+02 -0.92170123460E+01  0.21672001200E+02  0.51100000000E-03 0.  1.
        -12    1    3    3    0    0 -0.47482800094E+01  0.17426384279E+02 -0.13966474124E+02  0.22831719856E+02  0.00000000000E+00 0.  1.
</event>
<event>
 7    1  0.3750159E-013  0.5930204E+02  0.7816164E-02  0.1266604E+00
        -11   -1    0    0    0    0  0.00000000000E+00  0.00000000000E+00  0.45593999997E+02  0.45594000000E+02  0.51100000000E-03 0. -1.
         11   -1    0    0    0    0 -0.00000000000E+00 -0.00000000000E+00 -0.45593999997E+02  0.45594000000E+02  0.51100000000E-03 0.  1.
    9900012    2    1    2    0    0 -0.20843795148E+00  0.20955502057E+02  0.24032018366E+02  0.59302040401E+02  0.50000175761E+02 0.  0.
        -12    1    1    2    0    0  0.20843795148E+00 -0.20955502057E+02 -0.24032018366E+02  0.31885959599E+02  0.00000000000E+00 0.  1.
         11    1    3    3    0    0 -0.85578701322E+01  0.47816411629E+01 -0.42621385327E+01  0.10689577098E+02  0.51100000000E-03 0. -1.
        -11    1    3    3    0    0  0.12159120821E+02 -0.70098604530E+01  0.35209264917E+01  0.14469944241E+02  0.51100000000E-03 0.  1.
         12    1    3    3    0    0 -0.38096886407E+01  0.23183721347E+02  0.24773230407E+02  0.34142519061E+02  0.00000000000E+00 0. -1.
</event>
<event>
 7    1  0.3750159E-013  0.5930200E+02  0.7816164E-02  0.1266605E+00
        -11   -1    0    0    0    0  0.00000000000E+00  0.00000000000E+00  0.45593999997E+02  0.45594000000E+02  0.51100000000E-03 0.  1.
         11   -1    0    0    0    0 -0.00000000000E+00 -0.00000000000E+00 -0.45593999997E+02  0.45594000000E+02  0.51100000000E-03 0. -1.
    9900012    2    1    2    0    0  0.57545853449E+01  0.52335013373E+01 -0.30922685351E+02  0.59301995890E+02  0.50000094585E+02 0.  0.
        -12    1    1    2    0    0 -0.57545853449E+01 -0.52335013373E+01  0.30922685351E+02  0.31886004110E+02  0.00000000000E+00 0.  1.
         11    1    3    3    0    0  0.22756389622E+01 -0.28199989434E+01 -0.27685629905E+01  0.45602486797E+01  0.51100000000E-03 0. -1.
        -11    1    3    3    0    0  0.19300854118E+02 -0.91488793947E+01 -0.21803098578E+02  0.30522124299E+02  0.51100000000E-03 0.  1.
         12    1    3    3    0    0 -0.15821907736E+02  0.17202379675E+02 -0.63510237832E+01  0.24219622912E+02  0.00000000000E+00 0. -1.
</event>
<event>
 7    1  0.3750159E-013  0.5930190E+02  0.7816164E-02  0.1266605E+00
        -11   -1    0    0    0    0  0.00000000000E+00  0.00000000000E+00  0.45593999997E+02  0.45594000000E+02  0.51100000000E-03 0.  1.
         11   -1    0    0    0    0 -0.00000000000E+00 -0.00000000000E+00 -0.45593999997E+02  0.45594000000E+02  0.51100000000E-03 0. -1.
    9900012    2    1    2    0    0  0.27597799182E+02 -0.14969577235E+02 -0.55674814773E+01  0.59301896251E+02  0.49999912867E+02 0.  0.
        -12    1    1    2    0    0 -0.27597799182E+02  0.14969577235E+02  0.55674814773E+01  0.31886103749E+02  0.00000000000E+00 0.  1.
         11    1    3    3    0    0 -0.93966749376E+01 -0.17016913655E+02 -0.16969478664E+01  0.19512879914E+02  0.51100000000E-03 0. -1.
        -11    1    3    3    0    0  0.13331835251E+00 -0.24301179041E+01  0.15877810835E+00  0.24389459936E+01  0.51100000000E-03 0.  1.
         12    1    3    3    0    0  0.36861155767E+02  0.44774543241E+01 -0.40293117192E+01  0.37350070343E+02  0.00000000000E+00 0. -1.
</event>
<event>
 7    1  0.3750159E-013  0.5930188E+02  0.7816164E-02  0.1266605E+00
        -11   -1    0    0    0    0  0.00000000000E+00  0.00000000000E+00  0.45593999997E+02  0.45594000000E+02  0.51100000000E-03 0.  1.
         11   -1    0    0    0    0 -0.00000000000E+00 -0.00000000000E+00 -0.45593999997E+02  0.45594000000E+02  0.51100000000E-03 0. -1.
    9900012    2    1    2    0    0  0.12997321339E+02 -0.11537576247E+02 -0.26733474716E+02  0.59301879226E+02  0.49999881818E+02 0.  0.
        -12    1    1    2    0    0 -0.12997321339E+02  0.11537576247E+02  0.26733474716E+02  0.31886120774E+02  0.00000000000E+00 0.  1.
         11    1    3    3    0    0 -0.68737748437E-01 -0.16810348600E+02 -0.16915542516E+02  0.23848021381E+02  0.51100000000E-03 0. -1.
        -11    1    3    3    0    0 -0.64159986351E+01 -0.67212442432E+01 -0.84096692540E+01  0.12532465834E+02  0.51100000000E-03 0.  1.
        -12    1    3    3    0    0  0.19482057722E+02  0.11994016596E+02 -0.14082629457E+01  0.22921392011E+02  0.00000000000E+00 0.  1.
</event>
<event>
 7    1  0.3750159E-013  0.5930197E+02  0.7816164E-02  0.1266605E+00
        -11   -1    0    0    0    0  0.00000000000E+00  0.00000000000E+00  0.45593999997E+02  0.45594000000E+02  0.51100000000E-03 0.  1.
         11   -1    0    0    0    0 -0.00000000000E+00 -0.00000000000E+00 -0.45593999997E+02  0.45594000000E+02  0.51100000000E-03 0. -1.
    9900012    2    1    2    0    0 -0.60393505976E+01 -0.54988175019E+01 -0.30822204088E+02  0.59301968350E+02  0.50000044358E+02 0.  0.
        -12    1    1    2    0    0  0.60393505976E+01  0.54988175019E+01  0.30822204088E+02  0.31886031650E+02  0.00000000000E+00 0.  1.
         11    1    3    3    0    0  0.75579714511E+01 -0.15715795676E+02 -0.14753255475E+02  0.22842235302E+02  0.51100000000E-03 0. -1.
        -11    1    3    3    0    0 -0.34068921699E+01 -0.88183080525E+01  0.15086383344E+00  0.94547464970E+01  0.51100000000E-03 0.  1.
         12    1    3    3    0    0 -0.10190429879E+02  0.19035286227E+02 -0.16219812446E+02  0.27004986551E+02  0.00000000000E+00 0. -1.
</event>
<event>
 7    1  0.3750159E-013  0.5930194E+02  0.7816164E-02  0.1266605E+00
        -11   -1    0    0    0    0  0.00000000000E+00  0.00000000000E+00  0.45593999997E+02  0.45594000000E+02  0.51100000000E-03 0. -1.
         11   -1    0    0    0    0 -0.00000000000E+00 -0.00000000000E+00 -0.45593999997E+02  0.45594000000E+02  0.51100000000E-03 0.  1.
    9900012    2    1    2    0    0  0.18226314860E+01  0.28836117100E+02  0.13486196709E+02  0.59301935072E+02  0.49999983666E+02 0.  0.
        -12    1    1    2    0    0 -0.18226314860E+01 -0.28836117100E+02 -0.13486196709E+02  0.31886064928E+02  0.00000000000E+00 0.  1.
         11    1    3    3    0    0 -0.38209845309E+01  0.10983295919E+02  0.62192050651E+01  0.13187540481E+02  0.51100000000E-03 0. -1.
        -11    1    3    3    0    0 -0.56432830873E+01  0.10887316891E+02 -0.15500869828E+02  0.19765051955E+02  0.51100000000E-03 0.  1.
         12    1    3    3    0    0  0.11286899104E+02  0.69655042900E+01  0.22767861471E+02  0.26349342636E+02  0.00000000000E+00 0. -1.
</event>
<event>
 7    1  0.3750159E-013  0.5930195E+02  0.7816164E-02  0.1266605E+00
        -11   -1    0    0    0    0  0.00000000000E+00  0.00000000000E+00  0.45593999997E+02  0.45594000000E+02  0.51100000000E-03 0.  1.
         11   -1    0    0    0    0 -0.00000000000E+00 -0.00000000000E+00 -0.45593999997E+02  0.45594000000E+02  0.51100000000E-03 0. -1.
    9900012    2    1    2    0    0 -0.35813689737E+00 -0.18441012293E+00 -0.31883505860E+02  0.59301949522E+02  0.50000010021E+02 0.  0.
        -12    1    1    2    0    0  0.35813689737E+00  0.18441012293E+00  0.31883505860E+02  0.31886050478E+02  0.00000000000E+00 0.  1.
         11    1    3    3    0    0  0.14724914077E+02  0.30119737135E+01 -0.33289577942E+02  0.36525211567E+02  0.51100000000E-03 0. -1.
        -11    1    3    3    0    0 -0.77556756774E+00 -0.72674236351E+01  0.28209554995E+01  0.78342033121E+01  0.51100000000E-03 0.  1.
        -12    1    3    3    0    0 -0.14307483406E+02  0.40710397987E+01 -0.14148834178E+01  0.14942534643E+02  0.00000000000E+00 0.  1.
</event>
<event>
 7    1  0.3750159E-013  0.5930195E+02  0.7816164E-02  0.1266605E+00
        -11   -1    0    0    0    0  0.00000000000E+00  0.00000000000E+00  0.45593999997E+02  0.45594000000E+02  0.51100000000E-03 0.  1.
         11   -1    0    0    0    0 -0.00000000000E+00 -0.00000000000E+00 -0.45593999997E+02  0.45594000000E+02  0.51100000000E-03 0. -1.
    9900012    2    1    2    0    0  0.30236708915E+01 -0.66368150655E+01 -0.31040787602E+02  0.59301946704E+02  0.50000004881E+02 0.  0.
        -12    1    1    2    0    0 -0.30236708915E+01  0.66368150655E+01  0.31040787602E+02  0.31886053296E+02  0.00000000000E+00 0.  1.
         11    1    3    3    0    0 -0.13711814565E+01 -0.18921552108E+02 -0.16136387015E+02  0.24905586902E+02  0.51100000000E-03 0. -1.
        -11    1    3    3    0    0  0.13277418990E+02 -0.18718804364E+00 -0.13634293363E+02  0.19032047977E+02  0.51100000000E-03 0.  1.
        -12    1    3    3    0    0 -0.88825666424E+01  0.12471925086E+02 -0.12701072229E+01  0.15364311825E+02  0.00000000000E+00 0.  1.
</event>
<event>
 7    1  0.3750159E-013  0.5930209E+02  0.7816164E-02  0.1266604E+00
        -11   -1    0    0    0    0  0.00000000000E+00  0.00000000000E+00  0.45593999997E+02  0.45594000000E+02  0.51100000000E-03 0.  1.
         11   -1    0    0    0    0 -0.00000000000E+00 -0.00000000000E+00 -0.45593999997E+02  0.45594000000E+02  0.51100000000E-03 0. -1.
    9900012    2    1    2    0    0  0.15144451941E+02 -0.27309131802E+02  0.64473154787E+01  0.59302094317E+02  0.50000274090E+02 0.  0.
        -12    1    1    2    0    0 -0.15144451941E+02  0.27309131802E+02 -0.64473154787E+01  0.31885905683E+02  0.00000000000E+00 0.  1.
         11    1    3    3    0    0  0.78903289782E+01 -0.63957274841E+00 -0.49223339677E+01  0.93217872018E+01  0.51100000000E-03 0. -1.
        -11    1    3    3    0    0 -0.15123201509E+02 -0.81805342757E+01  0.11964025873E+02  0.20946844161E+02  0.51100000000E-03 0.  1.
         12    1    3    3    0    0  0.22377324472E+02 -0.18489024778E+02 -0.59437642704E+00  0.29033462954E+02  0.00000000000E+00 0. -1.
</event>
<event>
 7    1  0.3750159E-013  0.5930199E+02  0.7816164E-02  0.1266605E+00
        -11   -1    0    0    0    0  0.00000000000E+00  0.00000000000E+00  0.45593999997E+02  0.45594000000E+02  0.51100000000E-03 0. -1.
         11   -1    0    0    0    0 -0.00000000000E+00 -0.00000000000E+00 -0.45593999997E+02  0.45594000000E+02  0.51100000000E-03 0.  1.
    9900012    2    1    2    0    0  0.14895947538E+02 -0.68024272930E+01  0.27359735314E+02  0.59301993875E+02  0.50000090909E+02 0.  0.
        -12    1    1    2    0    0 -0.14895947538E+02  0.68024272930E+01 -0.27359735314E+02  0.31886006125E+02  0.00000000000E+00 0.  1.
         11    1    3    3    0    0 -0.27038294854E+01 -0.47141729953E+01  0.14283242363E+02  0.15282183534E+02  0.51100000000E-03 0. -1.
        -11    1    3    3    0    0  0.43833327362E+01 -0.18300674543E+02  0.13397829810E+02  0.23100435894E+02  0.51100000000E-03 0.  1.
         12    1    3    3    0    0  0.13216444288E+02  0.16212420246E+02 -0.32133685892E+00  0.20919374446E+02  0.00000000000E+00 0. -1.
</event>
<event>
 7    1  0.3750159E-013  0.5930199E+02  0.7816164E-02  0.1266605E+00
        -11   -1    0    0    0    0  0.00000000000E+00  0.00000000000E+00  0.45593999997E+02  0.45594000000E+02  0.51100000000E-03 0.  1.
         11   -1    0    0    0    0 -0.00000000000E+00 -0.00000000000E+00 -0.45593999997E+02  0.45594000000E+02  0.51100000000E-03 0. -1.
    9900012    2    1    2    0    0  0.19152868912E+02 -0.18207480631E+02 -0.17843014160E+02  0.59301985937E+02  0.50000076433E+02 0.  0.
        -12    1    1    2    0    0 -0.19152868912E+02  0.18207480631E+02  0.17843014160E+02  0.31886014063E+02  0.00000000000E+00 0.  1.
         11    1    3    3    0    0  0.11637846707E+02 -0.10827890606E+02 -0.18796725975E+02  0.24617059097E+02  0.51100000000E-03 0. -1.
        -11    1    3    3    0    0  0.44887803057E+01  0.65236095840E+01 -0.12698926157E+02  0.14965605782E+02  0.51100000000E-03 0.  1.
         12    1    3    3    0    0  0.30262418996E+01 -0.13903199608E+02  0.13652637972E+02  0.19719321058E+02  0.00000000000E+00 0. -1.
</event>
<event>
 7    1  0.3750159E-013  0.5930194E+02  0.7816164E-02  0.1266605E+00
        -11   -1    0    0    0    0  0.00000000000E+00  0.00000000000E+00  0.45593999997E+02  0.45594000000E+02  0.51100000000E-03 0.  1.
         11   -1    0    0    0    0 -0.00000000000E+00 -0.00000000000E+00 -0.45593999997E+02  0.45594000000E+02  0.51100000000E-03 0. -1.
    9900012    2    1    2    0    0 -0.14842568969E+02  0.22581828507E+02 -0.16925717203E+02  0.59301941367E+02  0.49999995147E+02 0.  0.
        -12    1    1    2    0    0  0.14842568969E+02 -0.22581828507E+02  0.16925717203E+02  0.31886058633E+02  0.00000000000E+00 0.  1.
         11    1    3    3    0    0  0.39469901529E+01  0.12062801181E+02 -0.41805554620E+01  0.13362894441E+02  0.51100000000E-03 0. -1.
        -11    1    3    3    0    0  0.67859352958E+01  0.16505113610E+02 -0.58900346037E+01  0.18792557064E+02  0.51100000000E-03 0.  1.
         12    1    3    3    0    0 -0.25575494418E+02 -0.59860862841E+01 -0.68551271373E+01  0.27146489861E+02  0.00000000000E+00 0. -1.
</event>
<event>
 7    1  0.3750159E-013  0.5930196E+02  0.7816164E-02  0.1266605E+00
        -11   -1    0    0    0    0  0.00000000000E+00  0.00000000000E+00  0.45593999997E+02  0.45594000000E+02  0.51100000000E-03 0. -1.
         11   -1    0    0    0    0 -0.00000000000E+00 -0.00000000000E+00 -0.45593999997E+02  0.45594000000E+02  0.51100000000E-03 0.  1.
    9900012    2    1    2    0    0 -0.13722573627E+02 -0.27540794171E+02  0.83615267602E+01  0.59301960730E+02  0.50000030461E+02 0.  0.
        -12    1    1    2    0    0  0.13722573627E+02  0.27540794171E+02 -0.83615267602E+01  0.31886039270E+02  0.00000000000E+00 0.  1.
         11    1    3    3    0    0 -0.22724004111E+02 -0.27885492370E+02  0.12259498317E+02  0.38003635968E+02  0.51100000000E-03 0. -1.
        -11    1    3    3    0    0  0.71481323620E-02 -0.64677739721E+01  0.39277728317E+01  0.75670040920E+01  0.51100000000E-03 0.  1.
        -12    1    3    3    0    0  0.89942823518E+01  0.68124721705E+01 -0.78257443888E+01  0.13731320670E+02  0.00000000000E+00 0.  1.
</event>
<event>
 7    1  0.3750159E-013  0.5930191E+02  0.7816164E-02  0.1266605E+00
        -11   -1    0    0    0    0  0.00000000000E+00  0.00000000000E+00  0.45593999997E+02  0.45594000000E+02  0.51100000000E-03 0.  1.
         11   -1    0    0    0    0 -0.00000000000E+00 -0.00000000000E+00 -0.45593999997E+02  0.45594000000E+02  0.51100000000E-03 0. -1.
    9900012    2    1    2    0    0  0.28274281827E+02 -0.88683763718E+01 -0.11774542663E+02  0.59301906366E+02  0.49999931315E+02 0.  0.
        -12    1    1    2    0    0 -0.28274281827E+02  0.88683763718E+01  0.11774542663E+02  0.31886093634E+02  0.00000000000E+00 0.  1.
         11    1    3    3    0    0 -0.96184652469E+01 -0.42487519712E+01 -0.11947122782E+02  0.15915417369E+02  0.51100000000E-03 0. -1.
        -11    1    3    3    0    0  0.93249089049E+01  0.38375854777E+01 -0.75635705885E+01  0.12605101693E+02  0.51100000000E-03 0.  1.
        -12    1    3    3    0    0  0.28567838169E+02 -0.84572098782E+01  0.77361507077E+01  0.30781387304E+02  0.00000000000E+00 0.  1.
</event>
<event>
 7    1  0.3750159E-013  0.5930194E+02  0.7816164E-02  0.1266605E+00
        -11   -1    0    0    0    0  0.00000000000E+00  0.00000000000E+00  0.45593999997E+02  0.45594000000E+02  0.51100000000E-03 0.  1.
         11   -1    0    0    0    0 -0.00000000000E+00 -0.00000000000E+00 -0.45593999997E+02  0.45594000000E+02  0.51100000000E-03 0. -1.
    9900012    2    1    2    0    0 -0.26264086243E+02  0.41011591371E+01 -0.17609636694E+02  0.59301936634E+02  0.49999986516E+02 0.  0.
        -12    1    1    2    0    0  0.26264086243E+02 -0.41011591371E+01  0.17609636694E+02  0.31886063366E+02  0.00000000000E+00 0.  1.
         11    1    3    3    0    0  0.77171226053E+00 -0.33158892507E+01 -0.11129222341E+01  0.35817952895E+01  0.51100000000E-03 0. -1.
        -11    1    3    3    0    0 -0.94480718071E+01 -0.85206151723E+01  0.12778609345E+02  0.18032187911E+02  0.51100000000E-03 0.  1.
         12    1    3    3    0    0 -0.17587726697E+02  0.15937663560E+02 -0.29275323806E+02  0.37687953434E+02  0.00000000000E+00 0. -1.
</event>
<event>
 7    1  0.3750159E-013  0.5930194E+02  0.7816164E-02  0.1266605E+00
        -11   -1    0    0    0    0  0.00000000000E+00  0.00000000000E+00  0.45593999997E+02  0.45594000000E+02  0.51100000000E-03 0.  1.
         11   -1    0    0    0    0 -0.00000000000E+00 -0.00000000000E+00 -0.45593999997E+02  0.45594000000E+02  0.51100000000E-03 0. -1.
    9900012    2    1    2    0    0 -0.28867414127E+02  0.11776803216E+02 -0.66858127409E+01  0.59301940595E+02  0.49999993740E+02 0.  0.
        -12    1    1    2    0    0  0.28867414127E+02 -0.11776803216E+02  0.66858127409E+01  0.31886059405E+02  0.00000000000E+00 0.  1.
         11    1    3    3    0    0 -0.22056871436E+02  0.54578889916E+01 -0.93774813386E+01  0.24581116457E+02  0.51100000000E-03 0. -1.
        -11    1    3    3    0    0 -0.20377701353E+02  0.25674661503E+01  0.17428461664E+01  0.20612620112E+02  0.51100000000E-03 0.  1.
         12    1    3    3    0    0  0.13567158662E+02  0.37514480742E+01  0.94882243124E+00  0.14108204026E+02  0.00000000000E+00 0. -1.
</event>
<event>
 7    1  0.3750159E-013  0.5930194E+02  0.7816164E-02  0.1266605E+00
        -11   -1    0    0    0    0  0.00000000000E+00  0.00000000000E+00  0.45593999997E+02  0.45594000000E+02  0.51100000000E-03 0.  1.
         11   -1    0    0    0    0 -0.00000000000E+00 -0.00000000000E+00 -0.45593999997E+02  0.45594000000E+02  0.51100000000E-03 0. -1.
    9900012    2    1    2    0    0 -0.15831125023E+02 -0.83049363367E+01 -0.26403111509E+02  0.59301940595E+02  0.49999993740E+02 0.  0.
        -12    1    1    2    0    0  0.15831125023E+02  0.83049363367E+01  0.26403111509E+02  0.31886059405E+02  0.00000000000E+00 0.  1.
         11    1    3    3    0    0 -0.26133364681E+02 -0.11415830360E+02 -0.12533368215E+02  0.31150589905E+02  0.51100000000E-03 0. -1.
        -11    1    3    3    0    0 -0.39605322447E+01 -0.58530580835E+01 -0.70354939921E+01  0.99720750380E+01  0.51100000000E-03 0.  1.
         12    1    3    3    0    0  0.14262771903E+02  0.89639521067E+01 -0.68342493014E+01  0.18179275652E+02  0.00000000000E+00 0. -1.
</event>
<event>
 7    1  0.3750159E-013  0.5930170E+02  0.7816164E-02  0.1266606E+00
        -11   -1    0    0    0    0  0.00000000000E+00  0.00000000000E+00  0.45593999997E+02  0.45594000000E+02  0.51100000000E-03 0.  1.
         11   -1    0    0    0    0 -0.00000000000E+00 -0.00000000000E+00 -0.45593999997E+02  0.45594000000E+02  0.51100000000E-03 0. -1.
    9900012    2    1    2    0    0  0.12429945011E+02  0.11262199712E+02 -0.27118170166E+02  0.59301704691E+02  0.49999563506E+02 0.  0.
        -12    1    1    2    0    0 -0.12429945011E+02 -0.11262199712E+02  0.27118170166E+02  0.31886295309E+02  0.00000000000E+00 0.  1.
         11    1    3    3    0    0 -0.43558721089E+01  0.20813412218E+01 -0.81723988070E+01  0.94917704161E+01  0.51100000000E-03 0. -1.
        -11    1    3    3    0    0 -0.44459502721E+00 -0.10631619300E+02  0.71269482136E+01  0.12807122424E+02  0.51100000000E-03 0.  1.
        -12    1    3    3    0    0  0.17230412147E+02  0.19812477791E+02 -0.26072719573E+02  0.37002811851E+02  0.00000000000E+00 0.  1.
</event>
<event>
 7    1  0.3750159E-013  0.5930195E+02  0.7816164E-02  0.1266605E+00
        -11   -1    0    0    0    0  0.00000000000E+00  0.00000000000E+00  0.45593999997E+02  0.45594000000E+02  0.51100000000E-03 0. -1.
         11   -1    0    0    0    0 -0.00000000000E+00 -0.00000000000E+00 -0.45593999997E+02  0.45594000000E+02  0.51100000000E-03 0.  1.
    9900012    2    1    2    0    0  0.22383735346E+01 -0.24715959311E+02  0.20020775092E+02  0.59301946684E+02  0.50000004845E+02 0.  0.
        -12    1    1    2    0    0 -0.22383735346E+01  0.24715959311E+02 -0.20020775092E+02  0.31886053316E+02  0.00000000000E+00 0.  1.
         11    1    3    3    0    0  0.41735082465E+01  0.57300099531E+01  0.13010760212E+02  0.14816580803E+02  0.51100000000E-03 0. -1.
        -11    1    3    3    0    0  0.10488237273E+01  0.33979338622E+01  0.97711668679E+01  0.10398157912E+02  0.51100000000E-03 0.  1.
        -12    1    3    3    0    0 -0.29839584391E+01 -0.33843903127E+02 -0.27611519874E+01  0.34087207969E+02  0.00000000000E+00 0.  1.
</event>
<event>
 7    1  0.3750159E-013  0.5930195E+02  0.7816164E-02  0.1266605E+00
        -11   -1    0    0    0    0  0.00000000000E+00  0.00000000000E+00  0.45593999997E+02  0.45594000000E+02  0.51100000000E-03 0. -1.
         11   -1    0    0    0    0 -0.00000000000E+00 -0.00000000000E+00 -0.45593999997E+02  0.45594000000E+02  0.51100000000E-03 0.  1.
    9900012    2    1    2    0    0 -0.81382710999E+01  0.30316602473E+02  0.56028850859E+01  0.59301950334E+02  0.50000011501E+02 0.  0.
        -12    1    1    2    0    0  0.81382710999E+01 -0.30316602473E+02 -0.56028850859E+01  0.31886049666E+02  0.00000000000E+00 0.  1.
         11    1    3    3    0    0  0.17912471454E+01  0.18724324267E+02  0.17840813549E+02  0.25924959285E+02  0.51100000000E-03 0. -1.
        -11    1    3    3    0    0 -0.14065658169E+02  0.41615610003E+01  0.38626428956E+01  0.15168432355E+02  0.51100000000E-03 0.  1.
        -12    1    3    3    0    0  0.41361399239E+01  0.74307172062E+01 -0.16100571359E+02  0.18208558695E+02  0.00000000000E+00 0.  1.
</event>
<event>
 7    1  0.3750159E-013  0.5930195E+02  0.7816164E-02  0.1266605E+00
        -11   -1    0    0    0    0  0.00000000000E+00  0.00000000000E+00  0.45593999997E+02  0.45594000000E+02  0.51100000000E-03 0.  1.
         11   -1    0    0    0    0 -0.00000000000E+00 -0.00000000000E+00 -0.45593999997E+02  0.45594000000E+02  0.51100000000E-03 0. -1.
    9900012    2    1    2    0    0  0.98204253571E+01 -0.10753581789E+02 -0.28366180256E+02  0.59301945716E+02  0.50000003079E+02 0.  0.
        -12    1    1    2    0    0 -0.98204253571E+01  0.10753581789E+02  0.28366180256E+02  0.31886054284E+02  0.00000000000E+00 0.  1.
         11    1    3    3    0    0  0.19133391043E+02 -0.24609840454E+00 -0.16605415039E+02  0.25335489459E+02  0.51100000000E-03 0. -1.
        -11    1    3    3    0    0 -0.24942212893E+00  0.82734450002E+01 -0.10083350800E+02  0.13045538210E+02  0.51100000000E-03 0.  1.
        -12    1    3    3    0    0 -0.90635435573E+01 -0.18780928385E+02 -0.16774144166E+01  0.20920918047E+02  0.00000000000E+00 0.  1.
</event>
<event>
 7    1  0.3750159E-013  0.5930168E+02  0.7816164E-02  0.1266606E+00
        -11   -1    0    0    0    0  0.00000000000E+00  0.00000000000E+00  0.45593999997E+02  0.45594000000E+02  0.51100000000E-03 0.  1.
         11   -1    0    0    0    0 -0.00000000000E+00 -0.00000000000E+00 -0.45593999997E+02  0.45594000000E+02  0.51100000000E-03 0. -1.
    9900012    2    1    2    0    0 -0.20836433401E+02 -0.24134684234E+02 -0.31239951606E+00  0.59301677957E+02  0.49999514749E+02 0.  0.
        -12    1    1    2    0    0  0.20836433401E+02  0.24134684234E+02  0.31239951606E+00  0.31886322043E+02  0.00000000000E+00 0.  1.
         11    1    3    3    0    0 -0.14193066401E+02 -0.11924347505E+02 -0.98972996484E+01  0.21014036687E+02  0.51100000000E-03 0. -1.
        -11    1    3    3    0    0 -0.98476175611E+01 -0.19493165350E+01 -0.11106206024E+02  0.14970745442E+02  0.51100000000E-03 0.  1.
        -12    1    3    3    0    0  0.32042505609E+01 -0.10261020194E+02  0.20691106157E+02  0.23316895828E+02  0.00000000000E+00 0.  1.
</event>
<event>
 7    1  0.3750159E-013  0.5930193E+02  0.7816164E-02  0.1266605E+00
        -11   -1    0    0    0    0  0.00000000000E+00  0.00000000000E+00  0.45593999997E+02  0.45594000000E+02  0.51100000000E-03 0.  1.
         11   -1    0    0    0    0 -0.00000000000E+00 -0.00000000000E+00 -0.45593999997E+02  0.45594000000E+02  0.51100000000E-03 0. -1.
    9900012    2    1    2    0    0  0.25910167755E+01 -0.16554060787E+02 -0.27128786935E+02  0.59301931301E+02  0.49999976790E+02 0.  0.
        -12    1    1    2    0    0 -0.25910167755E+01  0.16554060787E+02  0.27128786935E+02  0.31886068699E+02  0.00000000000E+00 0.  1.
         11    1    3    3    0    0 -0.10330301429E+02 -0.46580102449E+01 -0.11723603088E+02  0.16305062302E+02  0.51100000000E-03 0. -1.
        -11    1    3    3    0    0 -0.35732575572E+01  0.11141855073E+02 -0.59508927910E+01  0.13127156178E+02  0.51100000000E-03 0.  1.
        -12    1    3    3    0    0  0.16494575761E+02 -0.23037905615E+02 -0.94542910561E+01  0.29869712822E+02  0.00000000000E+00 0.  1.
</event>
<event>
 7    1  0.3750159E-013  0.5930194E+02  0.7816164E-02  0.1266605E+00
        -11   -1    0    0    0    0  0.00000000000E+00  0.00000000000E+00  0.45593999997E+02  0.45594000000E+02  0.51100000000E-03 0. -1.
         11   -1    0    0    0    0 -0.00000000000E+00 -0.00000000000E+00 -0.45593999997E+02  0.45594000000E+02  0.51100000000E-03 0.  1.
    9900012    2    1    2    0    0  0.87648501757E+01 -0.11999454048E+02  0.28211901101E+02  0.59301939413E+02  0.49999991583E+02 0.  0.
        -12    1    1    2    0    0 -0.87648501757E+01  0.11999454048E+02 -0.28211901101E+02  0.31886060587E+02  0.00000000000E+00 0.  1.
         11    1    3    3    0    0  0.11225331533E+02  0.52073763368E+01  0.24299692162E+02  0.27269027774E+02  0.51100000000E-03 0. -1.
        -11    1    3    3    0    0  0.10822939163E+02 -0.14198753698E+02  0.44606382317E+01  0.18402117063E+02  0.51100000000E-03 0.  1.
         12    1    3    3    0    0 -0.13283420521E+02 -0.30080766868E+01 -0.54842929245E+00  0.13630794576E+02  0.00000000000E+00 0. -1.
</event>
<event>
 7    1  0.3750159E-013  0.5930194E+02  0.7816164E-02  0.1266605E+00
        -11   -1    0    0    0    0  0.00000000000E+00  0.00000000000E+00  0.45593999997E+02  0.45594000000E+02  0.51100000000E-03 0.  1.
         11   -1    0    0    0    0 -0.00000000000E+00 -0.00000000000E+00 -0.45593999997E+02  0.45594000000E+02  0.51100000000E-03 0. -1.
    9900012    2    1    2    0    0  0.19973091995E+02 -0.56928130629E+01  0.24194804661E+02  0.59301935693E+02  0.49999984799E+02 0.  0.
        -12    1    1    2    0    0 -0.19973091995E+02  0.56928130629E+01 -0.24194804661E+02  0.31886064307E+02  0.00000000000E+00 0.  1.
         11    1    3    3    0    0  0.82368124727E+01  0.38468363894E+01 -0.88801500902E+01  0.12708276665E+02  0.51100000000E-03 0. -1.
        -11    1    3    3    0    0 -0.20139611815E+00 -0.71745534988E+01 -0.35445640036E+01  0.80049180221E+01  0.51100000000E-03 0.  1.
        -12    1    3    3    0    0  0.11937675641E+02 -0.23650959536E+01  0.36619518755E+02  0.38588741006E+02  0.00000000000E+00 0.  1.
</event>
<event>
 7    1  0.3750159E-013  0.5930195E+02  0.7816164E-02  0.1266605E+00
        -11   -1    0    0    0    0  0.00000000000E+00  0.00000000000E+00  0.45593999997E+02  0.45594000000E+02  0.51100000000E-03 0. -1.
         11   -1    0    0    0    0 -0.00000000000E+00 -0.00000000000E+00 -0.45593999997E+02  0.45594000000E+02  0.51100000000E-03 0.  1.
    9900012    2    1    2    0    0  0.15316998430E+02 -0.63390163718E+01  0.27238332263E+02  0.59301947972E+02  0.50000007193E+02 0.  0.
        -12    1    1    2    0    0 -0.15316998430E+02  0.63390163718E+01 -0.27238332263E+02  0.31886052028E+02  0.00000000000E+00 0.  1.
         11    1    3    3    0    0 -0.12323622401E+01 -0.11217425104E+02  0.93943331210E+01  0.14683420504E+02  0.51100000000E-03 0. -1.
        -11    1    3    3    0    0 -0.60636196757E+01  0.96409406556E+01 -0.47125354046E+01  0.12325713387E+02  0.51100000000E-03 0.  1.
        -12    1    3    3    0    0  0.22612980346E+02 -0.47625319231E+01  0.22556534547E+02  0.32292814080E+02  0.00000000000E+00 0.  1.
</event>
<event>
 7    1  0.3750159E-013  0.5930195E+02  0.7816164E-02  0.1266605E+00
        -11   -1    0    0    0    0  0.00000000000E+00  0.00000000000E+00  0.45593999997E+02  0.45594000000E+02  0.51100000000E-03 0. -1.
         11   -1    0    0    0    0 -0.00000000000E+00 -0.00000000000E+00 -0.45593999997E+02  0.45594000000E+02  0.51100000000E-03 0.  1.
    9900012    2    1    2    0    0 -0.11350916938E+02  0.11146957573E+01  0.29776400925E+02  0.59301954243E+02  0.50000018630E+02 0.  0.
        -12    1    1    2    0    0  0.11350916938E+02 -0.11146957573E+01 -0.29776400925E+02  0.31886045757E+02  0.00000000000E+00 0.  1.
         11    1    3    3    0    0 -0.15861913383E+02 -0.30538683771E+01  0.20131175685E+01  0.16278177135E+02  0.51100000000E-03 0. -1.
        -11    1    3    3    0    0  0.14666667306E+02  0.63084505949E+01  0.30976645842E+01  0.16263554498E+02  0.51100000000E-03 0.  1.
         12    1    3    3    0    0 -0.10155670862E+02 -0.21398864605E+01  0.24665618772E+02  0.26760222610E+02  0.00000000000E+00 0. -1.
</event>
<event>
 7    1  0.3750159E-013  0.5930194E+02  0.7816164E-02  0.1266605E+00
        -11   -1    0    0    0    0  0.00000000000E+00  0.00000000000E+00  0.45593999997E+02  0.45594000000E+02  0.51100000000E-03 0. -1.
         11   -1    0    0    0    0 -0.00000000000E+00 -0.00000000000E+00 -0.45593999997E+02  0.45594000000E+02  0.51100000000E-03 0.  1.
    9900012    2    1    2    0    0  0.28607180389E+02 -0.36147667508E+00 -0.14079038474E+02  0.59301940984E+02  0.49999994449E+02 0.  0.
        -12    1    1    2    0    0 -0.28607180389E+02  0.36147667508E+00  0.14079038474E+02  0.31886059016E+02  0.00000000000E+00 0.  1.
         11    1    3    3    0    0 -0.47147976286E+01 -0.44820048240E+01  0.21761457464E+01  0.68595403995E+01  0.51100000000E-03 0. -1.
        -11    1    3    3    0    0  0.34545273098E+02 -0.93766672919E+01 -0.83623064057E+01  0.36759025444E+02  0.51100000000E-03 0.  1.
        -12    1    3    3    0    0 -0.12232950797E+01  0.13497195441E+02 -0.78928778145E+01  0.15683375141E+02  0.00000000000E+00 0.  1.
</event>
<event>
 7    1  0.3750159E-013  0.5930193E+02  0.7816164E-02  0.1266605E+00
        -11   -1    0    0    0    0  0.00000000000E+00  0.00000000000E+00  0.45593999997E+02  0.45594000000E+02  0.51100000000E-03 0. -1.
         11   -1    0    0    0    0 -0.00000000000E+00 -0.00000000000E+00 -0.45593999997E+02  0.45594000000E+02  0.51100000000E-03 0.  1.
    9900012    2    1    2    0    0  0.19890281961E+02  0.13222165302E+02  0.21125158663E+02  0.59301932505E+02  0.49999978985E+02 0.  0.
        -12    1    1    2    0    0 -0.19890281961E+02 -0.13222165302E+02 -0.21125158663E+02  0.31886067495E+02  0.00000000000E+00 0.  1.
         11    1    3    3    0    0  0.12239893676E+02 -0.44645938018E+01 -0.52070909797E+01  0.14030730264E+02  0.51100000000E-03 0. -1.
        -11    1    3    3    0    0  0.61895032099E+01  0.10017945181E+02 -0.51374353333E+01  0.12847661955E+02  0.51100000000E-03 0.  1.
         12    1    3    3    0    0  0.14608850754E+01  0.76688139230E+01  0.31469684976E+02  0.32423540286E+02  0.00000000000E+00 0. -1.
</event>
<event>
 7    1  0.3750159E-013  0.5930194E+02  0.7816164E-02  0.1266605E+00
        -11   -1    0    0    0    0  0.00000000000E+00  0.00000000000E+00  0.45593999997E+02  0.45594000000E+02  0.51100000000E-03 0.  1.
         11   -1    0    0    0    0 -0.00000000000E+00 -0.00000000000E+00 -0.45593999997E+02  0.45594000000E+02  0.51100000000E-03 0. -1.
    9900012    2    1    2    0    0 -0.24532763668E+01  0.16070993132E+02 -0.27430368709E+02  0.59301944855E+02  0.50000001509E+02 0.  0.
        -12    1    1    2    0    0  0.24532763668E+01 -0.16070993132E+02  0.27430368709E+02  0.31886055145E+02  0.00000000000E+00 0.  1.
         11    1    3    3    0    0  0.20673399287E+01  0.73040412236E+01 -0.61220052200E+01  0.97520182912E+01  0.51100000000E-03 0. -1.
        -11    1    3    3    0    0  0.19214167271E+02  0.11249797558E+01 -0.54663169582E+01  0.20008258913E+02  0.51100000000E-03 0.  1.
         12    1    3    3    0    0 -0.23734783566E+02  0.76419721524E+01 -0.15842046531E+02  0.29541667651E+02  0.00000000000E+00 0. -1.
</event>
<event>
 7    1  0.3750159E-013  0.5930194E+02  0.7816164E-02  0.1266605E+00
        -11   -1    0    0    0    0  0.00000000000E+00  0.00000000000E+00  0.45593999997E+02  0.45594000000E+02  0.51100000000E-03 0. -1.
         11   -1    0    0    0    0 -0.00000000000E+00 -0.00000000000E+00 -0.45593999997E+02  0.45594000000E+02  0.51100000000E-03 0.  1.
    9900012    2    1    2    0    0  0.67616077049E+01 -0.31160380504E+02 -0.17907793124E+00  0.59301941591E+02  0.49999995557E+02 0.  0.
        -12    1    1    2    0    0 -0.67616077049E+01  0.31160380504E+02  0.17907793124E+00  0.31886058409E+02  0.00000000000E+00 0.  1.
         11    1    3    3    0    0  0.93777376261E+01 -0.50249327661E+01 -0.80235753268E+01  0.13325527141E+02  0.51100000000E-03 0. -1.
        -11    1    3    3    0    0 -0.70188658823E+01 -0.61204320051E+00 -0.11611979720E+02  0.13582236503E+02  0.51100000000E-03 0.  1.
         12    1    3    3    0    0  0.44027359612E+01 -0.25523404538E+02  0.19456477116E+02  0.32394177947E+02  0.00000000000E+00 0. -1.
</event>
<event>
 7    1  0.3750159E-013  0.5930195E+02  0.7816164E-02  0.1266605E+00
        -11   -1    0    0    0    0  0.00000000000E+00  0.00000000000E+00  0.45593999997E+02  0.45594000000E+02  0.51100000000E-03 0. -1.
         11   -1    0    0    0    0 -0.00000000000E+00 -0.00000000000E+00 -0.45593999997E+02  0.45594000000E+02  0.51100000000E-03 0.  1.
    9900012    2    1    2    0    0  0.25634831984E+02  0.16560257449E+02  0.92376266675E+01  0.59301945304E+02  0.50000002328E+02 0.  0.
        -12    1    1    2    0    0 -0.25634831984E+02 -0.16560257449E+02 -0.92376266675E+01  0.31886054696E+02  0.00000000000E+00 0.  1.
         11    1    3    3    0    0 -0.89682267322E+01 -0.33606999728E+01  0.30684986939E+00  0.95821475741E+01  0.51100000000E-03 0.  1.
        -11    1    3    3    0    0 -0.41331810470E+00 -0.55222100132E+01  0.69532643598E-01  0.55380926622E+01  0.51100000000E-03 0. -1.
         12    1    3    3    0    0  0.35016376820E+02  0.25443167435E+02  0.88612441545E+01  0.44181705068E+02  0.00000000000E+00 0. -1.
</event>
<event>
 7    1  0.3750159E-013  0.5930196E+02  0.7816164E-02  0.1266605E+00
        -11   -1    0    0    0    0  0.00000000000E+00  0.00000000000E+00  0.45593999997E+02  0.45594000000E+02  0.51100000000E-03 0. -1.
         11   -1    0    0    0    0 -0.00000000000E+00 -0.00000000000E+00 -0.45593999997E+02  0.45594000000E+02  0.51100000000E-03 0.  1.
    9900012    2    1    2    0    0  0.27826877528E+02 -0.46665747408E+01  0.14852858791E+02  0.59301961566E+02  0.50000031986E+02 0.  0.
        -12    1    1    2    0    0 -0.27826877528E+02  0.46665747408E+01 -0.14852858791E+02  0.31886038434E+02  0.00000000000E+00 0.  1.
         11    1    3    3    0    0 -0.86719130685E+01  0.34367229461E+01  0.28865561508E+01  0.97644942290E+01  0.51100000000E-03 0. -1.
        -11    1    3    3    0    0 -0.44056715562E+01  0.26937464253E-01 -0.28862722701E+01  0.52669949085E+01  0.51100000000E-03 0.  1.
         12    1    3    3    0    0  0.40904462152E+02 -0.81302351511E+01  0.14852574910E+02  0.44270472429E+02  0.00000000000E+00 0. -1.
</event>
<event>
 7    1  0.3750159E-013  0.5930199E+02  0.7816164E-02  0.1266605E+00
        -11   -1    0    0    0    0  0.00000000000E+00  0.00000000000E+00  0.45593999997E+02  0.45594000000E+02  0.51100000000E-03 0. -1.
         11   -1    0    0    0    0 -0.00000000000E+00 -0.00000000000E+00 -0.45593999997E+02  0.45594000000E+02  0.51100000000E-03 0.  1.
    9900012    2    1    2    0    0 -0.15705270111E+02  0.18269623879E+02  0.20887391078E+02  0.59301987832E+02  0.50000079888E+02 0.  0.
        -12    1    1    2    0    0  0.15705270111E+02 -0.18269623879E+02 -0.20887391078E+02  0.31886012168E+02  0.00000000000E+00 0.  1.
         11    1    3    3    0    0 -0.29746127757E+01 -0.49706780452E+01  0.15080897730E+02  0.16155167532E+02  0.51100000000E-03 0. -1.
        -11    1    3    3    0    0 -0.90904829576E+01  0.14227551942E+02 -0.13443402391E+02  0.21582056964E+02  0.51100000000E-03 0.  1.
         12    1    3    3    0    0 -0.36401743772E+01  0.90127499819E+01  0.19249895740E+02  0.21564763336E+02  0.00000000000E+00 0. -1.
</event>
<event>
 7    1  0.3750159E-013  0.5930195E+02  0.7816164E-02  0.1266605E+00
        -11   -1    0    0    0    0  0.00000000000E+00  0.00000000000E+00  0.45593999997E+02  0.45594000000E+02  0.51100000000E-03 0. -1.
         11   -1    0    0    0    0 -0.00000000000E+00 -0.00000000000E+00 -0.45593999997E+02  0.45594000000E+02  0.51100000000E-03 0.  1.
    9900012    2    1    2    0    0 -0.99714905204E+01 -0.27866011451E+02  0.11864857166E+02  0.59301952064E+02  0.50000014657E+02 0.  0.
        -12    1    1    2    0    0  0.99714905204E+01  0.27866011451E+02 -0.11864857166E+02  0.31886047936E+02  0.00000000000E+00 0.  1.
         11    1    3    3    0    0 -0.98391043483E+01 -0.27740494844E+01  0.23692919881E+02  0.25804220153E+02  0.51100000000E-03 0. -1.
        -11    1    3    3    0    0 -0.13432087586E+01 -0.22686459478E+01 -0.10254739911E+02  0.10588231916E+02  0.51100000000E-03 0.  1.
        -12    1    3    3    0    0  0.12108225864E+01 -0.22823316019E+02 -0.15733228045E+01  0.22909499996E+02  0.00000000000E+00 0.  1.
</event>
<event>
 7    1  0.3750159E-013  0.5930192E+02  0.7816164E-02  0.1266605E+00
        -11   -1    0    0    0    0  0.00000000000E+00  0.00000000000E+00  0.45593999997E+02  0.45594000000E+02  0.51100000000E-03 0.  1.
         11   -1    0    0    0    0 -0.00000000000E+00 -0.00000000000E+00 -0.45593999997E+02  0.45594000000E+02  0.51100000000E-03 0. -1.
    9900012    2    1    2    0    0 -0.22184952660E+02 -0.19908952701E+02 -0.11321816351E+02  0.59301920785E+02  0.49999957611E+02 0.  0.
        -12    1    1    2    0    0  0.22184952660E+02  0.19908952701E+02  0.11321816351E+02  0.31886079215E+02  0.00000000000E+00 0.  1.
         11    1    3    3    0    0 -0.12949194491E+02  0.83718219697E+00 -0.29281373381E+01  0.13302499785E+02  0.51100000000E-03 0. -1.
        -11    1    3    3    0    0 -0.15655639905E+00 -0.20459038564E+02  0.11968321960E+02  0.23703111604E+02  0.51100000000E-03 0.  1.
         12    1    3    3    0    0 -0.90792017708E+01 -0.28709633398E+00 -0.20362000973E+02  0.22296309397E+02  0.00000000000E+00 0. -1.
</event>
<event>
 7    1  0.3750159E-013  0.5930195E+02  0.7816164E-02  0.1266605E+00
        -11   -1    0    0    0    0  0.00000000000E+00  0.00000000000E+00  0.45593999997E+02  0.45594000000E+02  0.51100000000E-03 0.  1.
         11   -1    0    0    0    0 -0.00000000000E+00 -0.00000000000E+00 -0.45593999997E+02  0.45594000000E+02  0.51100000000E-03 0. -1.
    9900012    2    1    2    0    0  0.20836993253E+01  0.23011954558E+02  0.21973351850E+02  0.59301952158E+02  0.50000014827E+02 0.  0.
        -12    1    1    2    0    0 -0.20836993253E+01 -0.23011954558E+02 -0.21973351850E+02  0.31886047842E+02  0.00000000000E+00 0.  1.
         11    1    3    3    0    0  0.68873386891E+00 -0.15704132216E+01 -0.84490555109E+01  0.86213161012E+01  0.51100000000E-03 0. -1.
        -11    1    3    3    0    0  0.71019867554E+01 -0.20765951414E+01  0.20287563104E+02  0.21594806788E+02  0.51100000000E-03 0.  1.
         12    1    3    3    0    0 -0.57070212989E+01  0.26658962921E+02  0.10134844257E+02  0.29085829269E+02  0.00000000000E+00 0. -1.
</event>
<event>
 7    1  0.3750159E-013  0.5930196E+02  0.7816164E-02  0.1266605E+00
        -11   -1    0    0    0    0  0.00000000000E+00  0.00000000000E+00  0.45593999997E+02  0.45594000000E+02  0.51100000000E-03 0.  1.
         11   -1    0    0    0    0 -0.00000000000E+00 -0.00000000000E+00 -0.45593999997E+02  0.45594000000E+02  0.51100000000E-03 0. -1.
    9900012    2    1    2    0    0 -0.11647777408E+02  0.23600268066E+02 -0.18002123936E+02  0.59301955442E+02  0.50000020817E+02 0.  0.
        -12    1    1    2    0    0  0.11647777408E+02 -0.23600268066E+02  0.18002123936E+02  0.31886044558E+02  0.00000000000E+00 0.  1.
         11    1    3    3    0    0  0.55748891611E+01  0.14855706958E+01  0.58043395826E+00  0.57985526894E+01  0.51100000000E-03 0. -1.
        -11    1    3    3    0    0  0.56823157725E+01  0.84899362174E+01  0.10089200130E+02  0.14358262048E+02  0.51100000000E-03 0.  1.
         12    1    3    3    0    0 -0.22904982342E+02  0.13624761153E+02 -0.28671758024E+02  0.39145140704E+02  0.00000000000E+00 0. -1.
</event>
<event>
 7    1  0.3750159E-013  0.5930188E+02  0.7816164E-02  0.1266605E+00
        -11   -1    0    0    0    0  0.00000000000E+00  0.00000000000E+00  0.45593999997E+02  0.45594000000E+02  0.51100000000E-03 0.  1.
         11   -1    0    0    0    0 -0.00000000000E+00 -0.00000000000E+00 -0.45593999997E+02  0.45594000000E+02  0.51100000000E-03 0. -1.
    9900012    2    1    2    0    0  0.11711981234E+02  0.64661744918E+01 -0.28943781016E+02  0.59301884268E+02  0.49999891012E+02 0.  0.
        -12    1    1    2    0    0 -0.11711981234E+02 -0.64661744918E+01  0.28943781016E+02  0.31886115732E+02  0.00000000000E+00 0.  1.
         11    1    3    3    0    0  0.17091418335E+02 -0.99533821683E+01 -0.40430173452E+01  0.20187431407E+02  0.51100000000E-03 0. -1.
        -11    1    3    3    0    0 -0.47704135442E+01  0.53990573534E+01  0.39557305764E+01  0.82191526535E+01  0.51100000000E-03 0.  1.
        -12    1    3    3    0    0 -0.60902355616E+00  0.11020499307E+02 -0.28856494247E+02  0.30895300207E+02  0.00000000000E+00 0.  1.
</event>
<event>
 7    1  0.3750159E-013  0.5930195E+02  0.7816164E-02  0.1266605E+00
        -11   -1    0    0    0    0  0.00000000000E+00  0.00000000000E+00  0.45593999997E+02  0.45594000000E+02  0.51100000000E-03 0. -1.
         11   -1    0    0    0    0 -0.00000000000E+00 -0.00000000000E+00 -0.45593999997E+02  0.45594000000E+02  0.51100000000E-03 0.  1.
    9900012    2    1    2    0    0  0.15507797801E+02 -0.10417292691E+02  0.25840054657E+02  0.59301949690E+02  0.50000010327E+02 0.  0.
        -12    1    1    2    0    0 -0.15507797801E+02  0.10417292691E+02 -0.25840054657E+02  0.31886050310E+02  0.00000000000E+00 0.  1.
         11    1    3    3    0    0  0.17049384828E+02 -0.17082523873E+02  0.23219958437E+02  0.33491202053E+02  0.51100000000E-03 0. -1.
        -11    1    3    3    0    0 -0.46526793245E+01  0.28354355203E+01  0.13121576663E+02  0.14207846208E+02  0.51100000000E-03 0.  1.
        -12    1    3    3    0    0  0.31110922982E+01  0.38297956623E+01 -0.10501480442E+02  0.11602901430E+02  0.00000000000E+00 0.  1.
</event>
<event>
 7    1  0.3750159E-013  0.5930195E+02  0.7816164E-02  0.1266605E+00
        -11   -1    0    0    0    0  0.00000000000E+00  0.00000000000E+00  0.45593999997E+02  0.45594000000E+02  0.51100000000E-03 0.  1.
         11   -1    0    0    0    0 -0.00000000000E+00 -0.00000000000E+00 -0.45593999997E+02  0.45594000000E+02  0.51100000000E-03 0. -1.
    9900012    2    1    2    0    0  0.15206624616E+02  0.55197795219E-01 -0.28026334259E+02  0.59301954604E+02  0.50000019289E+02 0.  0.
        -12    1    1    2    0    0 -0.15206624616E+02 -0.55197795219E-01  0.28026334259E+02  0.31886045396E+02  0.00000000000E+00 0.  1.
         11    1    3    3    0    0  0.12710024893E+02 -0.30021444299E+01  0.27982391681E+01  0.13356187580E+02  0.51100000000E-03 0. -1.
        -11    1    3    3    0    0  0.14442778788E+02  0.89917060160E+01 -0.65165823315E+01  0.18218410516E+02  0.51100000000E-03 0.  1.
         12    1    3    3    0    0 -0.11946179065E+02 -0.59343637908E+01 -0.24307991095E+02  0.27727356508E+02  0.00000000000E+00 0. -1.
</event>
<event>
 7    1  0.3750159E-013  0.5930194E+02  0.7816164E-02  0.1266605E+00
        -11   -1    0    0    0    0  0.00000000000E+00  0.00000000000E+00  0.45593999997E+02  0.45594000000E+02  0.51100000000E-03 0.  1.
         11   -1    0    0    0    0 -0.00000000000E+00 -0.00000000000E+00 -0.45593999997E+02  0.45594000000E+02  0.51100000000E-03 0. -1.
    9900012    2    1    2    0    0 -0.20045284135E+02  0.20100607463E+02  0.14521469766E+02  0.59301938459E+02  0.49999989844E+02 0.  0.
        -12    1    1    2    0    0  0.20045284135E+02 -0.20100607463E+02 -0.14521469766E+02  0.31886061541E+02  0.00000000000E+00 0.  1.
         11    1    3    3    0    0  0.74017549207E+01  0.10759336862E+02 -0.94580485749E+01  0.16124639181E+02  0.51100000000E-03 0. -1.
        -11    1    3    3    0    0 -0.17046790088E+01  0.53145181370E+01 -0.24217858825E+01  0.60840020278E+01  0.51100000000E-03 0.  1.
        -12    1    3    3    0    0 -0.25742360046E+02  0.40267524633E+01  0.26401304224E+02  0.37093297250E+02  0.00000000000E+00 0.  1.
</event>
<event>
 7    1  0.3750159E-013  0.5930198E+02  0.7816164E-02  0.1266605E+00
        -11   -1    0    0    0    0  0.00000000000E+00  0.00000000000E+00  0.45593999997E+02  0.45594000000E+02  0.51100000000E-03 0.  1.
         11   -1    0    0    0    0 -0.00000000000E+00 -0.00000000000E+00 -0.45593999997E+02  0.45594000000E+02  0.51100000000E-03 0. -1.
    9900012    2    1    2    0    0  0.14889455553E+02  0.25939759172E+02 -0.11052206546E+02  0.59301980146E+02  0.50000065872E+02 0.  0.
        -12    1    1    2    0    0 -0.14889455553E+02 -0.25939759172E+02  0.11052206546E+02  0.31886019854E+02  0.00000000000E+00 0.  1.
         11    1    3    3    0    0  0.10912483529E+02  0.41115316837E+01  0.11942294397E+01  0.11722336532E+02  0.51100000000E-03 0. -1.
        -11    1    3    3    0    0  0.19246328088E+02 -0.86642743427E-01 -0.58262574338E+01  0.20109050892E+02  0.51100000000E-03 0.  1.
        -12    1    3    3    0    0 -0.15269356064E+02  0.21914870232E+02 -0.64201785522E+01  0.27470592722E+02  0.00000000000E+00 0.  1.
</event>
<event>
 7    1  0.3750159E-013  0.5930195E+02  0.7816164E-02  0.1266605E+00
        -11   -1    0    0    0    0  0.00000000000E+00  0.00000000000E+00  0.45593999997E+02  0.45594000000E+02  0.51100000000E-03 0.  1.
         11   -1    0    0    0    0 -0.00000000000E+00 -0.00000000000E+00 -0.45593999997E+02  0.45594000000E+02  0.51100000000E-03 0. -1.
    9900012    2    1    2    0    0 -0.10999772956E+02 -0.14290883637E+02 -0.26296305445E+02  0.59301952263E+02  0.50000015019E+02 0.  0.
        -12    1    1    2    0    0  0.10999772956E+02  0.14290883637E+02  0.26296305445E+02  0.31886047737E+02  0.00000000000E+00 0.  1.
         11    1    3    3    0    0 -0.14895241312E+02 -0.72111140415E+01 -0.22648068704E+02  0.28050015966E+02  0.51100000000E-03 0. -1.
        -11    1    3    3    0    0 -0.47726832574E+01  0.85350443104E+01 -0.82668831368E+01  0.12804953882E+02  0.51100000000E-03 0.  1.
        -12    1    3    3    0    0  0.86681516128E+01 -0.15614813906E+02  0.46186463952E+01  0.18446982415E+02  0.00000000000E+00 0.  1.
</event>
<event>
 7    1  0.3750159E-013  0.5930188E+02  0.7816164E-02  0.1266605E+00
        -11   -1    0    0    0    0  0.00000000000E+00  0.00000000000E+00  0.45593999997E+02  0.45594000000E+02  0.51100000000E-03 0. -1.
         11   -1    0    0    0    0 -0.00000000000E+00 -0.00000000000E+00 -0.45593999997E+02  0.45594000000E+02  0.51100000000E-03 0.  1.
    9900012    2    1    2    0    0  0.56952285761E+01 -0.29357599420E+02  0.11064376495E+02  0.59301879204E+02  0.49999881776E+02 0.  0.
        -12    1    1    2    0    0 -0.56952285761E+01  0.29357599420E+02 -0.11064376495E+02  0.31886120796E+02  0.00000000000E+00 0.  1.
         11    1    3    3    0    0 -0.10341026693E+02 -0.24683148680E+01  0.12250160825E+02  0.16220229711E+02  0.51100000000E-03 0. -1.
        -11    1    3    3    0    0  0.42450423592E+00 -0.21529528825E+02  0.93751684149E+01  0.23486051144E+02  0.51100000000E-03 0.  1.
        -12    1    3    3    0    0  0.15611751034E+02 -0.53597557268E+01 -0.10560952745E+02  0.19595598349E+02  0.00000000000E+00 0.  1.
</event>
<event>
 7    1  0.3750159E-013  0.5930191E+02  0.7816164E-02  0.1266605E+00
        -11   -1    0    0    0    0  0.00000000000E+00  0.00000000000E+00  0.45593999997E+02  0.45594000000E+02  0.51100000000E-03 0.  1.
         11   -1    0    0    0    0 -0.00000000000E+00 -0.00000000000E+00 -0.45593999997E+02  0.45594000000E+02  0.51100000000E-03 0. -1.
    9900012    2    1    2    0    0 -0.72485634870E+01 -0.29759660760E+02 -0.88624804380E+01  0.59301911487E+02  0.49999940653E+02 0.  0.
        -12    1    1    2    0    0  0.72485634870E+01  0.29759660760E+02  0.88624804380E+01  0.31886088513E+02  0.00000000000E+00 0.  1.
         11    1    3    3    0    0  0.31286891553E+01  0.80324043390E+01  0.85189125069E+01  0.12119409468E+02  0.51100000000E-03 0. -1.
        -11    1    3    3    0    0  0.18099660648E+01  0.10863962166E+00 -0.52636754475E+01  0.55672308377E+01  0.51100000000E-03 0.  1.
         12    1    3    3    0    0 -0.12187218707E+02 -0.37900704720E+02 -0.12117717497E+02  0.41615271181E+02  0.00000000000E+00 0. -1.
</event>
<event>
 7    1  0.3750159E-013  0.5930196E+02  0.7816164E-02  0.1266605E+00
        -11   -1    0    0    0    0  0.00000000000E+00  0.00000000000E+00  0.45593999997E+02  0.45594000000E+02  0.51100000000E-03 0.  1.
         11   -1    0    0    0    0 -0.00000000000E+00 -0.00000000000E+00 -0.45593999997E+02  0.45594000000E+02  0.51100000000E-03 0. -1.
    9900012    2    1    2    0    0  0.14797546192E+02 -0.23022259277E+02 -0.16362384316E+02  0.59301962052E+02  0.50000032873E+02 0.  0.
        -12    1    1    2    0    0 -0.14797546192E+02  0.23022259277E+02  0.16362384316E+02  0.31886037948E+02  0.00000000000E+00 0.  1.
         11    1    3    3    0    0 -0.26519962215E+01 -0.27524035130E+01 -0.74718113030E+01  0.83926618820E+01  0.51100000000E-03 0. -1.
        -11    1    3    3    0    0 -0.18414131420E+00 -0.21698560029E+02 -0.20416732466E+02  0.29794368264E+02  0.51100000000E-03 0.  1.
         12    1    3    3    0    0  0.17633683727E+02  0.14287042657E+01  0.11526159453E+02  0.21114931907E+02  0.00000000000E+00 0. -1.
</event>
<event>
 7    1  0.3750159E-013  0.5930195E+02  0.7816164E-02  0.1266605E+00
        -11   -1    0    0    0    0  0.00000000000E+00  0.00000000000E+00  0.45593999997E+02  0.45594000000E+02  0.51100000000E-03 0.  1.
         11   -1    0    0    0    0 -0.00000000000E+00 -0.00000000000E+00 -0.45593999997E+02  0.45594000000E+02  0.51100000000E-03 0. -1.
    9900012    2    1    2    0    0 -0.30117536825E+02  0.66887579722E+01 -0.80569500415E+01  0.59301953654E+02  0.50000017556E+02 0.  0.
        -12    1    1    2    0    0  0.30117536825E+02 -0.66887579722E+01  0.80569500415E+01  0.31886046346E+02  0.00000000000E+00 0.  1.
         11    1    3    3    0    0 -0.18058712058E+02 -0.22836574669E+01 -0.26562322142E+00  0.18204470016E+02  0.51100000000E-03 0. -1.
        -11    1    3    3    0    0 -0.15301068866E+02 -0.37529693958E+01 -0.18394601790E+02  0.24219183780E+02  0.51100000000E-03 0.  1.
        -12    1    3    3    0    0  0.32422440986E+01  0.12725384835E+02  0.10603274970E+02  0.16878299858E+02  0.00000000000E+00 0.  1.
</event>
<event>
 7    1  0.3750159E-013  0.5930194E+02  0.7816164E-02  0.1266605E+00
        -11   -1    0    0    0    0  0.00000000000E+00  0.00000000000E+00  0.45593999997E+02  0.45594000000E+02  0.51100000000E-03 0.  1.
         11   -1    0    0    0    0 -0.00000000000E+00 -0.00000000000E+00 -0.45593999997E+02  0.45594000000E+02  0.51100000000E-03 0. -1.
    9900012    2    1    2    0    0 -0.71419077843E+01  0.28305832023E+02 -0.12825518908E+02  0.59301938648E+02  0.49999990188E+02 0.  0.
        -12    1    1    2    0    0  0.71419077843E+01 -0.28305832023E+02  0.12825518908E+02  0.31886061352E+02  0.00000000000E+00 0.  1.
         11    1    3    3    0    0  0.11761227323E+02  0.11687075498E+02 -0.85425810242E+01  0.18651806686E+02  0.51100000000E-03 0. -1.
        -11    1    3    3    0    0 -0.51873605456E+01  0.57488910536E+00  0.12589067905E+02  0.13628053342E+02  0.51100000000E-03 0.  1.
         12    1    3    3    0    0 -0.13715774561E+02  0.16043867419E+02 -0.16872005789E+02  0.27022078620E+02  0.00000000000E+00 0. -1.
</event>
<event>
 7    1  0.3750159E-013  0.5930158E+02  0.7816164E-02  0.1266606E+00
        -11   -1    0    0    0    0  0.00000000000E+00  0.00000000000E+00  0.45593999997E+02  0.45594000000E+02  0.51100000000E-03 0. -1.
         11   -1    0    0    0    0 -0.00000000000E+00 -0.00000000000E+00 -0.45593999997E+02  0.45594000000E+02  0.51100000000E-03 0.  1.
    9900012    2    1    2    0    0  0.28461108736E+02  0.11791915351E+02 -0.82255601586E+01  0.59301579410E+02  0.49999335020E+02 0.  0.
        -12    1    1    2    0    0 -0.28461108736E+02 -0.11791915351E+02  0.82255601586E+01  0.31886420590E+02  0.00000000000E+00 0.  1.
         11    1    3    3    0    0 -0.69944783636E+01 -0.40956852640E+01 -0.12051011964E+02  0.14523231561E+02  0.51100000000E-03 0.  1.
        -11    1    3    3    0    0  0.86654604381E+01  0.71620535796E+01 -0.84313859887E+01  0.14052525966E+02  0.51100000000E-03 0. -1.
         12    1    3    3    0    0  0.26790126662E+02  0.87255470356E+01  0.12256837794E+02  0.30725821882E+02  0.00000000000E+00 0. -1.
</event>
<event>
 7    1  0.3750159E-013  0.5930194E+02  0.7816164E-02  0.1266605E+00
        -11   -1    0    0    0    0  0.00000000000E+00  0.00000000000E+00  0.45593999997E+02  0.45594000000E+02  0.51100000000E-03 0. -1.
         11   -1    0    0    0    0 -0.00000000000E+00 -0.00000000000E+00 -0.45593999997E+02  0.45594000000E+02  0.51100000000E-03 0.  1.
    9900012    2    1    2    0    0  0.14944786636E+02  0.23697772707E+02  0.15224632966E+02  0.59301944618E+02  0.50000001076E+02 0.  0.
        -12    1    1    2    0    0 -0.14944786636E+02 -0.23697772707E+02 -0.15224632966E+02  0.31886055382E+02  0.00000000000E+00 0.  1.
         11    1    3    3    0    0  0.90795902127E+01 -0.28579654592E+01  0.14031965344E+02  0.16955912735E+02  0.51100000000E-03 0. -1.
        -11    1    3    3    0    0  0.64382757327E+01 -0.15033267733E+01 -0.10118872581E+02  0.12087306084E+02  0.51100000000E-03 0.  1.
        -12    1    3    3    0    0 -0.57307930971E+00  0.28059064940E+02  0.11311540204E+02  0.30258725799E+02  0.00000000000E+00 0.  1.
</event>
<event>
 7    1  0.3750159E-013  0.5930194E+02  0.7816164E-02  0.1266605E+00
        -11   -1    0    0    0    0  0.00000000000E+00  0.00000000000E+00  0.45593999997E+02  0.45594000000E+02  0.51100000000E-03 0. -1.
         11   -1    0    0    0    0 -0.00000000000E+00 -0.00000000000E+00 -0.45593999997E+02  0.45594000000E+02  0.51100000000E-03 0.  1.
    9900012    2    1    2    0    0 -0.55098467379E+00  0.31875146352E+02 -0.62641680060E+00  0.59301938201E+02  0.49999989373E+02 0.  0.
        -12    1    1    2    0    0  0.55098467379E+00 -0.31875146352E+02  0.62641680060E+00  0.31886061799E+02  0.00000000000E+00 0.  1.
         11    1    3    3    0    0  0.34530064806E+00  0.64300119267E+01  0.15481854097E+02  0.16767590538E+02  0.51100000000E-03 0. -1.
        -11    1    3    3    0    0  0.52105455589E+01  0.30181220576E+02 -0.87250482887E+01  0.31846229422E+02  0.51100000000E-03 0.  1.
        -12    1    3    3    0    0 -0.61068308807E+01 -0.47360861514E+01 -0.73832226088E+01  0.10688118241E+02  0.00000000000E+00 0.  1.
</event>
<event>
 7    1  0.3750159E-013  0.5930194E+02  0.7816164E-02  0.1266605E+00
        -11   -1    0    0    0    0  0.00000000000E+00  0.00000000000E+00  0.45593999997E+02  0.45594000000E+02  0.51100000000E-03 0.  1.
         11   -1    0    0    0    0 -0.00000000000E+00 -0.00000000000E+00 -0.45593999997E+02  0.45594000000E+02  0.51100000000E-03 0. -1.
    9900012    2    1    2    0    0 -0.27163857919E+01  0.30126192733E+02  0.10087346544E+02  0.59301940340E+02  0.49999993274E+02 0.  0.
        -12    1    1    2    0    0  0.27163857919E+01 -0.30126192733E+02 -0.10087346544E+02  0.31886059660E+02  0.00000000000E+00 0.  1.
         11    1    3    3    0    0 -0.17165993545E+01  0.18787310719E+02  0.12696062886E+01  0.18908243117E+02  0.51100000000E-03 0. -1.
        -11    1    3    3    0    0 -0.17257382332E+02 -0.27977475487E+01  0.11309144896E+01  0.17519235261E+02  0.51100000000E-03 0.  1.
         12    1    3    3    0    0  0.16257595894E+02  0.14136629563E+02  0.76868257662E+01  0.22874461961E+02  0.00000000000E+00 0. -1.
</event>
<event>
 7    1  0.3750159E-013  0.5930194E+02  0.7816164E-02  0.1266605E+00
        -11   -1    0    0    0    0  0.00000000000E+00  0.00000000000E+00  0.45593999997E+02  0.45594000000E+02  0.51100000000E-03 0.  1.
         11   -1    0    0    0    0 -0.00000000000E+00 -0.00000000000E+00 -0.45593999997E+02  0.45594000000E+02  0.51100000000E-03 0. -1.
    9900012    2    1    2    0    0  0.20527143096E+02 -0.24250640581E+02 -0.26950710907E+01  0.59301943793E+02  0.49999999572E+02 0.  0.
        -12    1    1    2    0    0 -0.20527143096E+02  0.24250640581E+02  0.26950710907E+01  0.31886056207E+02  0.00000000000E+00 0.  1.
         11    1    3    3    0    0  0.30975650382E+01 -0.79148885841E+00 -0.17775598310E+02  0.18060821114E+02  0.51100000000E-03 0. -1.
        -11    1    3    3    0    0  0.23960504833E+01  0.33989582772E+01 -0.33723799743E+01  0.53541500017E+01  0.51100000000E-03 0.  1.
        -12    1    3    3    0    0  0.15033527575E+02 -0.26858109999E+02  0.18452907193E+02  0.35886972677E+02  0.00000000000E+00 0.  1.
</event>
<event>
 7    1  0.3750159E-013  0.5930196E+02  0.7816164E-02  0.1266605E+00
        -11   -1    0    0    0    0  0.00000000000E+00  0.00000000000E+00  0.45593999997E+02  0.45594000000E+02  0.51100000000E-03 0. -1.
         11   -1    0    0    0    0 -0.00000000000E+00 -0.00000000000E+00 -0.45593999997E+02  0.45594000000E+02  0.51100000000E-03 0.  1.
    9900012    2    1    2    0    0  0.24738456690E+02  0.10671335143E+02  0.17054346475E+02  0.59301962823E+02  0.50000034278E+02 0.  0.
        -12    1    1    2    0    0 -0.24738456690E+02 -0.10671335143E+02 -0.17054346475E+02  0.31886037177E+02  0.00000000000E+00 0.  1.
         11    1    3    3    0    0  0.12641330629E+00  0.96752981485E+01  0.50503538362E+01  0.10914827013E+02  0.51100000000E-03 0.  1.
        -11    1    3    3    0    0  0.10174806009E+02 -0.17548703926E+02  0.14232183378E+02  0.24779804898E+02  0.51100000000E-03 0. -1.
         12    1    3    3    0    0  0.14437237375E+02  0.18544740921E+02 -0.22281907390E+01  0.23607330912E+02  0.00000000000E+00 0. -1.
</event>
<event>
 7    1  0.3750159E-013  0.5930193E+02  0.7816164E-02  0.1266605E+00
        -11   -1    0    0    0    0  0.00000000000E+00  0.00000000000E+00  0.45593999997E+02  0.45594000000E+02  0.51100000000E-03 0.  1.
         11   -1    0    0    0    0 -0.00000000000E+00 -0.00000000000E+00 -0.45593999997E+02  0.45594000000E+02  0.51100000000E-03 0. -1.
    9900012    2    1    2    0    0 -0.12955769876E+01 -0.17939591827E+02 -0.26328956756E+02  0.59301930338E+02  0.49999975032E+02 0.  0.
        -12    1    1    2    0    0  0.12955769876E+01  0.17939591827E+02  0.26328956756E+02  0.31886069662E+02  0.00000000000E+00 0.  1.
         11    1    3    3    0    0 -0.82412613691E+01 -0.10509215984E+02 -0.29003378234E+02  0.31930517672E+02  0.51100000000E-03 0. -1.
        -11    1    3    3    0    0  0.13035306280E+02 -0.57161597523E+01 -0.69611899791E+01  0.15844616067E+02  0.51100000000E-03 0.  1.
        -12    1    3    3    0    0 -0.60896218989E+01 -0.17142160911E+01  0.96356114567E+01  0.11526796598E+02  0.00000000000E+00 0.  1.
</event>
<event>
 7    1  0.3750159E-013  0.5930195E+02  0.7816164E-02  0.1266605E+00
        -11   -1    0    0    0    0  0.00000000000E+00  0.00000000000E+00  0.45593999997E+02  0.45594000000E+02  0.51100000000E-03 0.  1.
         11   -1    0    0    0    0 -0.00000000000E+00 -0.00000000000E+00 -0.45593999997E+02  0.45594000000E+02  0.51100000000E-03 0. -1.
    9900012    2    1    2    0    0  0.39211411793E+01  0.24921489607E+02 -0.19500366708E+02  0.59301948283E+02  0.50000007760E+02 0.  0.
        -12    1    1    2    0    0 -0.39211411793E+01 -0.24921489607E+02  0.19500366708E+02  0.31886051717E+02  0.00000000000E+00 0.  1.
         11    1    3    3    0    0 -0.13316033371E+01 -0.74650880672E+01  0.88150365680E+01  0.11627793310E+02  0.51100000000E-03 0. -1.
        -11    1    3    3    0    0  0.33507755923E+01  0.26549375215E+00  0.16145371362E+01  0.37289293943E+01  0.51100000000E-03 0.  1.
         12    1    3    3    0    0  0.19019689241E+01  0.32121083922E+02 -0.29929940412E+02  0.43945225579E+02  0.00000000000E+00 0. -1.
</event>
<event>
 7    1  0.3750159E-013  0.5930193E+02  0.7816164E-02  0.1266605E+00
        -11   -1    0    0    0    0  0.00000000000E+00  0.00000000000E+00  0.45593999997E+02  0.45594000000E+02  0.51100000000E-03 0. -1.
         11   -1    0    0    0    0 -0.00000000000E+00 -0.00000000000E+00 -0.45593999997E+02  0.45594000000E+02  0.51100000000E-03 0.  1.
    9900012    2    1    2    0    0 -0.20693433247E+02  0.16993004009E+02  0.17313032170E+02  0.59301930193E+02  0.49999974769E+02 0.  0.
        -12    1    1    2    0    0  0.20693433247E+02 -0.16993004009E+02 -0.17313032170E+02  0.31886069807E+02  0.00000000000E+00 0.  1.
         11    1    3    3    0    0  0.12154073915E+02  0.74982350189E+01  0.10651629299E+02  0.17815786486E+02  0.51100000000E-03 0. -1.
        -11    1    3    3    0    0 -0.14766405476E+02  0.75085866969E+01  0.14177806366E+02  0.21804490328E+02  0.51100000000E-03 0.  1.
        -12    1    3    3    0    0 -0.18081101685E+02  0.19861822933E+01 -0.75164034940E+01  0.19681653379E+02  0.00000000000E+00 0.  1.
</event>
<event>
 7    1  0.3750159E-013  0.5930196E+02  0.7816164E-02  0.1266605E+00
        -11   -1    0    0    0    0  0.00000000000E+00  0.00000000000E+00  0.45593999997E+02  0.45594000000E+02  0.51100000000E-03 0. -1.
         11   -1    0    0    0    0 -0.00000000000E+00 -0.00000000000E+00 -0.45593999997E+02  0.45594000000E+02  0.51100000000E-03 0.  1.
    9900012    2    1    2    0    0 -0.15581039494E+02  0.22213405273E+02  0.16748598544E+02  0.59301957306E+02  0.50000024216E+02 0.  0.
        -12    1    1    2    0    0  0.15581039494E+02 -0.22213405273E+02 -0.16748598544E+02  0.31886042694E+02  0.00000000000E+00 0.  1.
         11    1    3    3    0    0 -0.33029351762E+00 -0.34394128272E+01  0.28685372481E+01  0.44907861905E+01  0.51100000000E-03 0. -1.
        -11    1    3    3    0    0  0.76717713420E+01 -0.76287910944E+01 -0.26668670569E+01  0.11143011678E+02  0.51100000000E-03 0.  1.
         12    1    3    3    0    0 -0.22922517318E+02  0.33281609194E+02  0.16546928353E+02  0.43668159438E+02  0.00000000000E+00 0. -1.
</event>
<event>
 7    1  0.3750159E-013  0.5930194E+02  0.7816164E-02  0.1266605E+00
        -11   -1    0    0    0    0  0.00000000000E+00  0.00000000000E+00  0.45593999997E+02  0.45594000000E+02  0.51100000000E-03 0.  1.
         11   -1    0    0    0    0 -0.00000000000E+00 -0.00000000000E+00 -0.45593999997E+02  0.45594000000E+02  0.51100000000E-03 0. -1.
    9900012    2    1    2    0    0  0.14973441056E+02  0.16588209666E+02  0.22745288214E+02  0.59301940775E+02  0.49999994067E+02 0.  0.
        -12    1    1    2    0    0 -0.14973441056E+02 -0.16588209666E+02 -0.22745288214E+02  0.31886059225E+02  0.00000000000E+00 0.  1.
         11    1    3    3    0    0  0.43816110443E+01 -0.34158224557E+01  0.55993347344E+01  0.78878963052E+01  0.51100000000E-03 0. -1.
        -11    1    3    3    0    0 -0.18282498413E+01 -0.12800808902E+02  0.78457963322E+01  0.15124805003E+02  0.51100000000E-03 0.  1.
         12    1    3    3    0    0  0.12420079853E+02  0.32804841023E+02  0.93001571478E+01  0.36289239467E+02  0.00000000000E+00 0. -1.
</event>
<event>
 7    1  0.3750159E-013  0.5930197E+02  0.7816164E-02  0.1266605E+00
        -11   -1    0    0    0    0  0.00000000000E+00  0.00000000000E+00  0.45593999997E+02  0.45594000000E+02  0.51100000000E-03 0.  1.
         11   -1    0    0    0    0 -0.00000000000E+00 -0.00000000000E+00 -0.45593999997E+02  0.45594000000E+02  0.51100000000E-03 0. -1.
    9900012    2    1    2    0    0 -0.14245422122E+02  0.26738205626E+02  0.99425932403E+01  0.59301970898E+02  0.50000049005E+02 0.  0.
        -12    1    1    2    0    0  0.14245422122E+02 -0.26738205626E+02 -0.99425932403E+01  0.31886029102E+02  0.00000000000E+00 0.  1.
         11    1    3    3    0    0 -0.62593529919E+01  0.11285363347E+02  0.50653129788E+01  0.13863488796E+02  0.51100000000E-03 0. -1.
        -11    1    3    3    0    0  0.44826285969E+01  0.48410619305E+01  0.21269864586E+02  0.22269642555E+02  0.51100000000E-03 0.  1.
        -12    1    3    3    0    0 -0.12468697727E+02  0.10611780348E+02 -0.16392584324E+02  0.23168839548E+02  0.00000000000E+00 0.  1.
</event>
<event>
 7    1  0.3750159E-013  0.5930195E+02  0.7816164E-02  0.1266605E+00
        -11   -1    0    0    0    0  0.00000000000E+00  0.00000000000E+00  0.45593999997E+02  0.45594000000E+02  0.51100000000E-03 0. -1.
         11   -1    0    0    0    0 -0.00000000000E+00 -0.00000000000E+00 -0.45593999997E+02  0.45594000000E+02  0.51100000000E-03 0.  1.
    9900012    2    1    2    0    0  0.12258062868E+02  0.22012923937E+02  0.19542045254E+02  0.59301945709E+02  0.50000003066E+02 0.  0.
        -12    1    1    2    0    0 -0.12258062868E+02 -0.22012923937E+02 -0.19542045254E+02  0.31886054291E+02  0.00000000000E+00 0.  1.
         11    1    3    3    0    0  0.60555996544E+01  0.69232319239E+01  0.11052217843E+02  0.14378906320E+02  0.51100000000E-03 0. -1.
        -11    1    3    3    0    0 -0.13606707997E+02  0.19439598693E+02  0.61118092543E+01  0.24502953138E+02  0.51100000000E-03 0.  1.
         12    1    3    3    0    0  0.19809171210E+02 -0.43499066799E+01  0.23780181568E+01  0.20420086251E+02  0.00000000000E+00 0. -1.
</event>
<event>
 7    1  0.3750159E-013  0.5930194E+02  0.7816164E-02  0.1266605E+00
        -11   -1    0    0    0    0  0.00000000000E+00  0.00000000000E+00  0.45593999997E+02  0.45594000000E+02  0.51100000000E-03 0. -1.
         11   -1    0    0    0    0 -0.00000000000E+00 -0.00000000000E+00 -0.45593999997E+02  0.45594000000E+02  0.51100000000E-03 0.  1.
    9900012    2    1    2    0    0  0.20985709377E+02  0.21748653406E+02  0.10164492546E+02  0.59301939852E+02  0.49999992385E+02 0.  0.
        -12    1    1    2    0    0 -0.20985709377E+02 -0.21748653406E+02 -0.10164492546E+02  0.31886060148E+02  0.00000000000E+00 0.  1.
         11    1    3    3    0    0 -0.50610482340E+01  0.78253283682E+01 -0.70101098377E+00  0.93456615581E+01  0.51100000000E-03 0. -1.
        -11    1    3    3    0    0  0.19091351363E+02  0.25617193264E+02 -0.91078090938E+00  0.31961692848E+02  0.51100000000E-03 0.  1.
        -12    1    3    3    0    0  0.69554062487E+01 -0.11693868227E+02  0.11776284439E+02  0.17994585446E+02  0.00000000000E+00 0.  1.
</event>
<event>
 7    1  0.3750159E-013  0.5930194E+02  0.7816164E-02  0.1266605E+00
        -11   -1    0    0    0    0  0.00000000000E+00  0.00000000000E+00  0.45593999997E+02  0.45594000000E+02  0.51100000000E-03 0.  1.
         11   -1    0    0    0    0 -0.00000000000E+00 -0.00000000000E+00 -0.45593999997E+02  0.45594000000E+02  0.51100000000E-03 0. -1.
    9900012    2    1    2    0    0 -0.56865523534E+01 -0.14474686770E+02 -0.27836444829E+02  0.59301935717E+02  0.49999984843E+02 0.  0.
        -12    1    1    2    0    0  0.56865523534E+01  0.14474686770E+02  0.27836444829E+02  0.31886064283E+02  0.00000000000E+00 0.  1.
         11    1    3    3    0    0  0.26333710724E+01  0.63116807981E+01  0.35361878924E+01  0.76991287022E+01  0.51100000000E-03 0. -1.
        -11    1    3    3    0    0 -0.43550967002E+01 -0.29771701798E+02 -0.18174916106E+02  0.35151794705E+02  0.51100000000E-03 0.  1.
         12    1    3    3    0    0 -0.39648267255E+01  0.89853342296E+01 -0.13197716615E+02  0.16451012310E+02  0.00000000000E+00 0. -1.
</event>
<event>
 7    1  0.3750159E-013  0.5930194E+02  0.7816164E-02  0.1266605E+00
        -11   -1    0    0    0    0  0.00000000000E+00  0.00000000000E+00  0.45593999997E+02  0.45594000000E+02  0.51100000000E-03 0. -1.
         11   -1    0    0    0    0 -0.00000000000E+00 -0.00000000000E+00 -0.45593999997E+02  0.45594000000E+02  0.51100000000E-03 0.  1.
    9900012    2    1    2    0    0 -0.27998141748E+02  0.12334041847E+02 -0.89831059359E+01  0.59301941575E+02  0.49999995527E+02 0.  0.
        -12    1    1    2    0    0  0.27998141748E+02 -0.12334041847E+02  0.89831059359E+01  0.31886058425E+02  0.00000000000E+00 0.  1.
         11    1    3    3    0    0 -0.10101183564E+02  0.35881125814E+01 -0.60347212204E+01  0.12301476406E+02  0.51100000000E-03 0. -1.
        -11    1    3    3    0    0 -0.17163341299E+02  0.10703917207E+02 -0.20807675777E+02  0.29019191918E+02  0.51100000000E-03 0.  1.
         12    1    3    3    0    0 -0.73361688477E+00 -0.19579879412E+01  0.17859291061E+02  0.17981273251E+02  0.00000000000E+00 0. -1.
</event>
<event>
 7    1  0.3750159E-013  0.5930189E+02  0.7816164E-02  0.1266605E+00
        -11   -1    0    0    0    0  0.00000000000E+00  0.00000000000E+00  0.45593999997E+02  0.45594000000E+02  0.51100000000E-03 0. -1.
         11   -1    0    0    0    0 -0.00000000000E+00 -0.00000000000E+00 -0.45593999997E+02  0.45594000000E+02  0.51100000000E-03 0.  1.
    9900012    2    1    2    0    0  0.43978565663E+01 -0.24116883496E+02  0.20390158165E+02  0.59301893904E+02  0.49999908587E+02 0.  0.
        -12    1    1    2    0    0 -0.43978565663E+01  0.24116883496E+02 -0.20390158165E+02  0.31886106096E+02  0.00000000000E+00 0.  1.
         11    1    3    3    0    0 -0.27633948252E+00 -0.68790916733E+00  0.84043028070E+01  0.84369359643E+01  0.51100000000E-03 0. -1.
        -11    1    3    3    0    0 -0.16136963958E+01 -0.27208416707E+02  0.24310129248E+02  0.36522381358E+02  0.51100000000E-03 0.  1.
        -12    1    3    3    0    0  0.62878924447E+01  0.37794423784E+01 -0.12324273890E+02  0.14342576582E+02  0.00000000000E+00 0.  1.
</event>
<event>
 7    1  0.4214185E-013  0.5930221E+02  0.7816164E-02  0.1266604E+00
        -11   -1    0    0    0    0  0.00000000000E+00  0.00000000000E+00  0.45593999997E+02  0.45594000000E+02  0.51100000000E-03 0. -1.
         11   -1    0    0    0    0 -0.00000000000E+00 -0.00000000000E+00 -0.45593999997E+02  0.45594000000E+02  0.51100000000E-03 0.  1.
    9900012    2    1    2    0    0 -0.42338867322E+00  0.20345875598E+02  0.24547296696E+02  0.59302208699E+02  0.50000482695E+02 0.  0.
        -12    1    1    2    0    0  0.42338867322E+00 -0.20345875598E+02 -0.24547296696E+02  0.31885791301E+02  0.00000000000E+00 0.  1.
         11    1    3    3    0    0 -0.13135110638E+02  0.10734461556E+01  0.35290348898E+01  0.13643221967E+02  0.51100000000E-03 0. -1.
        -11    1    3    3    0    0  0.39332914774E+01  0.13818834335E+02 -0.68639907520E+01  0.15923106905E+02  0.51100000000E-03 0.  1.
         12    1    3    3    0    0  0.87784304873E+01  0.54535951075E+01  0.27882252558E+02  0.29735879827E+02  0.00000000000E+00 0. -1.
</event>
<event>
 7    1  0.3750159E-013  0.5930194E+02  0.7816164E-02  0.1266605E+00
        -11   -1    0    0    0    0  0.00000000000E+00  0.00000000000E+00  0.45593999997E+02  0.45594000000E+02  0.51100000000E-03 0. -1.
         11   -1    0    0    0    0 -0.00000000000E+00 -0.00000000000E+00 -0.45593999997E+02  0.45594000000E+02  0.51100000000E-03 0.  1.
    9900012    2    1    2    0    0 -0.39008370720E+01  0.20020243205E+02  0.24509068411E+02  0.59301935611E+02  0.49999984649E+02 0.  0.
        -12    1    1    2    0    0  0.39008370720E+01 -0.20020243205E+02 -0.24509068411E+02  0.31886064389E+02  0.00000000000E+00 0.  1.
         11    1    3    3    0    0  0.14614669468E+02  0.15763605782E+02  0.23047254994E+02  0.31515960940E+02  0.51100000000E-03 0. -1.
        -11    1    3    3    0    0 -0.52001759507E+01 -0.39502824256E+01  0.84292679124E+01  0.10662978897E+02  0.51100000000E-03 0.  1.
        -12    1    3    3    0    0 -0.13315330590E+02  0.82069198490E+01 -0.69674544955E+01  0.17122995774E+02  0.00000000000E+00 0.  1.
</event>
<event>
 7    1  0.3750159E-013  0.5930197E+02  0.7816164E-02  0.1266605E+00
        -11   -1    0    0    0    0  0.00000000000E+00  0.00000000000E+00  0.45593999997E+02  0.45594000000E+02  0.51100000000E-03 0. -1.
         11   -1    0    0    0    0 -0.00000000000E+00 -0.00000000000E+00 -0.45593999997E+02  0.45594000000E+02  0.51100000000E-03 0.  1.
    9900012    2    1    2    0    0  0.12187604819E+02 -0.10722770685E+02  0.27444556636E+02  0.59301965261E+02  0.50000038725E+02 0.  0.
        -12    1    1    2    0    0 -0.12187604819E+02  0.10722770685E+02 -0.27444556636E+02  0.31886034739E+02  0.00000000000E+00 0.  1.
         11    1    3    3    0    0  0.85899364285E+01  0.63580377785E+01 -0.10199690554E+02  0.14773128981E+02  0.51100000000E-03 0. -1.
        -11    1    3    3    0    0 -0.44731152875E+01 -0.31383730880E+01  0.27982348547E+01  0.61390768506E+01  0.51100000000E-03 0.  1.
         12    1    3    3    0    0  0.80707836784E+01 -0.13942435375E+02  0.34846012335E+02  0.38389759430E+02  0.00000000000E+00 0. -1.
</event>
<event>
 7    1  0.3750159E-013  0.5930194E+02  0.7816164E-02  0.1266605E+00
        -11   -1    0    0    0    0  0.00000000000E+00  0.00000000000E+00  0.45593999997E+02  0.45594000000E+02  0.51100000000E-03 0.  1.
         11   -1    0    0    0    0 -0.00000000000E+00 -0.00000000000E+00 -0.45593999997E+02  0.45594000000E+02  0.51100000000E-03 0. -1.
    9900012    2    1    2    0    0 -0.19521670601E+02 -0.14494416694E+02 -0.20628543305E+02  0.59301944470E+02  0.50000000807E+02 0.  0.
        -12    1    1    2    0    0  0.19521670601E+02  0.14494416694E+02  0.20628543305E+02  0.31886055530E+02  0.00000000000E+00 0.  1.
         11    1    3    3    0    0 -0.52664364489E+01 -0.10431152604E+02  0.45565756244E+01  0.12542195948E+02  0.51100000000E-03 0. -1.
        -11    1    3    3    0    0 -0.23024096039E+01 -0.17568585682E+02 -0.26809013490E+01  0.17920477816E+02  0.51100000000E-03 0.  1.
        -12    1    3    3    0    0 -0.11952824548E+02  0.13505321591E+02 -0.22504217581E+02  0.28839270707E+02  0.00000000000E+00 0.  1.
</event>
<event>
 7    1  0.3750159E-013  0.5930192E+02  0.7816164E-02  0.1266605E+00
        -11   -1    0    0    0    0  0.00000000000E+00  0.00000000000E+00  0.45593999997E+02  0.45594000000E+02  0.51100000000E-03 0. -1.
         11   -1    0    0    0    0 -0.00000000000E+00 -0.00000000000E+00 -0.45593999997E+02  0.45594000000E+02  0.51100000000E-03 0.  1.
    9900012    2    1    2    0    0  0.27752237918E+02  0.12518017633E+02 -0.94781218932E+01  0.59301917306E+02  0.49999951266E+02 0.  0.
        -12    1    1    2    0    0 -0.27752237918E+02 -0.12518017633E+02  0.94781218932E+01  0.31886082694E+02  0.00000000000E+00 0.  1.
         11    1    3    3    0    0  0.76870150638E+01  0.18823547991E+02 -0.61510260532E+01  0.21242675946E+02  0.51100000000E-03 0. -1.
        -11    1    3    3    0    0  0.43185250463E+01  0.12562662516E+02 -0.20330521383E+00  0.13285762354E+02  0.51100000000E-03 0.  1.
        -12    1    3    3    0    0  0.15746697808E+02 -0.18868192874E+02 -0.31237906261E+01  0.24773479006E+02  0.00000000000E+00 0.  1.
</event>
<event>
 7    1  0.3750159E-013  0.5930180E+02  0.7816164E-02  0.1266605E+00
        -11   -1    0    0    0    0  0.00000000000E+00  0.00000000000E+00  0.45593999997E+02  0.45594000000E+02  0.51100000000E-03 0. -1.
         11   -1    0    0    0    0 -0.00000000000E+00 -0.00000000000E+00 -0.45593999997E+02  0.45594000000E+02  0.51100000000E-03 0.  1.
    9900012    2    1    2    0    0 -0.30504289014E+02 -0.83862759997E+01 -0.39860019255E+01  0.59301804167E+02  0.49999744927E+02 0.  0.
        -12    1    1    2    0    0  0.30504289014E+02  0.83862759997E+01  0.39860019255E+01  0.31886195833E+02  0.00000000000E+00 0.  1.
         11    1    3    3    0    0  0.10030504079E+01 -0.10793604080E+02  0.18063130649E+01  0.10989575347E+02  0.51100000000E-03 0. -1.
        -11    1    3    3    0    0  0.53717870386E+01 -0.80060543182E+01 -0.10162650359E+01  0.96946272037E+01  0.51100000000E-03 0.  1.
        -12    1    3    3    0    0 -0.36879126460E+02  0.10413382398E+02 -0.47760499545E+01  0.38617601616E+02  0.00000000000E+00 0.  1.
</event>
<event>
 7    1  0.3750159E-013  0.5930196E+02  0.7816164E-02  0.1266605E+00
        -11   -1    0    0    0    0  0.00000000000E+00  0.00000000000E+00  0.45593999997E+02  0.45594000000E+02  0.51100000000E-03 0. -1.
         11   -1    0    0    0    0 -0.00000000000E+00 -0.00000000000E+00 -0.45593999997E+02  0.45594000000E+02  0.51100000000E-03 0.  1.
    9900012    2    1    2    0    0  0.95435022558E+01  0.30234330418E+02  0.33950706139E+01  0.59301957981E+02  0.50000025448E+02 0.  0.
        -12    1    1    2    0    0 -0.95435022558E+01 -0.30234330418E+02 -0.33950706139E+01  0.31886042019E+02  0.00000000000E+00 0.  1.
         11    1    3    3    0    0 -0.52136982130E+01  0.15442861796E+02  0.93696116492E+01  0.18800379045E+02  0.51100000000E-03 0. -1.
        -11    1    3    3    0    0 -0.15032761752E+01  0.15933759700E+02 -0.14943550573E+02  0.21896443579E+02  0.51100000000E-03 0.  1.
         12    1    3    3    0    0  0.16260476644E+02 -0.11422910780E+01  0.89690095373E+01  0.18605135358E+02  0.00000000000E+00 0. -1.
</event>
<event>
 7    1  0.3750159E-013  0.5930212E+02  0.7816164E-02  0.1266604E+00
        -11   -1    0    0    0    0  0.00000000000E+00  0.00000000000E+00  0.45593999997E+02  0.45594000000E+02  0.51100000000E-03 0. -1.
         11   -1    0    0    0    0 -0.00000000000E+00 -0.00000000000E+00 -0.45593999997E+02  0.45594000000E+02  0.51100000000E-03 0.  1.
    9900012    2    1    2    0    0 -0.11417039902E+02  0.19301751620E+02  0.22667216301E+02  0.59302123651E+02  0.50000327589E+02 0.  0.
        -12    1    1    2    0    0  0.11417039902E+02 -0.19301751620E+02 -0.22667216301E+02  0.31885876349E+02  0.00000000000E+00 0.  1.
         11    1    3    3    0    0 -0.18682207043E+01  0.35692640130E+01 -0.59130586244E+01  0.71550092069E+01  0.51100000000E-03 0. -1.
        -11    1    3    3    0    0 -0.10922315674E+02  0.12981201988E+02 -0.55721118276E+01  0.17856567845E+02  0.51100000000E-03 0.  1.
         12    1    3    3    0    0  0.13734964763E+01  0.27512856192E+01  0.34152386753E+02  0.34290546599E+02  0.00000000000E+00 0. -1.
</event>
<event>
 7    1  0.3750159E-013  0.5930194E+02  0.7816164E-02  0.1266605E+00
        -11   -1    0    0    0    0  0.00000000000E+00  0.00000000000E+00  0.45593999997E+02  0.45594000000E+02  0.51100000000E-03 0.  1.
         11   -1    0    0    0    0 -0.00000000000E+00 -0.00000000000E+00 -0.45593999997E+02  0.45594000000E+02  0.51100000000E-03 0. -1.
    9900012    2    1    2    0    0 -0.10314485699E+02  0.11550292075E+02 -0.27873333431E+02  0.59301943818E+02  0.49999999618E+02 0.  0.
        -12    1    1    2    0    0  0.10314485699E+02 -0.11550292075E+02  0.27873333431E+02  0.31886056182E+02  0.00000000000E+00 0.  1.
         11    1    3    3    0    0 -0.22302576345E+02 -0.33953060786E+01 -0.87112409406E+01  0.24183025741E+02  0.51100000000E-03 0. -1.
        -11    1    3    3    0    0 -0.38501501607E+00  0.85774787024E+01 -0.19385029910E+02  0.21201433026E+02  0.51100000000E-03 0.  1.
        -12    1    3    3    0    0  0.12373105663E+02  0.63681194512E+01  0.22293741963E+00  0.13917485052E+02  0.00000000000E+00 0.  1.
</event>
<event>
 7    1  0.3750159E-013  0.5930194E+02  0.7816164E-02  0.1266605E+00
        -11   -1    0    0    0    0  0.00000000000E+00  0.00000000000E+00  0.45593999997E+02  0.45594000000E+02  0.51100000000E-03 0. -1.
         11   -1    0    0    0    0 -0.00000000000E+00 -0.00000000000E+00 -0.45593999997E+02  0.45594000000E+02  0.51100000000E-03 0.  1.
    9900012    2    1    2    0    0 -0.76199102431E+01  0.19122358050E+02  0.24351457159E+02  0.59301936034E+02  0.49999985421E+02 0.  0.
        -12    1    1    2    0    0  0.76199102431E+01 -0.19122358050E+02 -0.24351457159E+02  0.31886063966E+02  0.00000000000E+00 0.  1.
         11    1    3    3    0    0 -0.10990041684E+02 -0.64294898004E+01  0.98579619999E+01  0.16102756608E+02  0.51100000000E-03 0. -1.
        -11    1    3    3    0    0  0.13154872017E+01 -0.12732680935E+01 -0.79531805601E+01  0.81611763550E+01  0.51100000000E-03 0.  1.
         12    1    3    3    0    0  0.20546442393E+01  0.26825115944E+02  0.22446675719E+02  0.35038003071E+02  0.00000000000E+00 0. -1.
</event>
<event>
 7    1  0.3750159E-013  0.5930197E+02  0.7816164E-02  0.1266605E+00
        -11   -1    0    0    0    0  0.00000000000E+00  0.00000000000E+00  0.45593999997E+02  0.45594000000E+02  0.51100000000E-03 0.  1.
         11   -1    0    0    0    0 -0.00000000000E+00 -0.00000000000E+00 -0.45593999997E+02  0.45594000000E+02  0.51100000000E-03 0. -1.
    9900012    2    1    2    0    0  0.21568464570E+02 -0.10311744457E+02 -0.21099475696E+02  0.59301974655E+02  0.50000055857E+02 0.  0.
        -12    1    1    2    0    0 -0.21568464570E+02  0.10311744457E+02  0.21099475696E+02  0.31886025345E+02  0.00000000000E+00 0.  1.
         11    1    3    3    0    0  0.15527303708E+01 -0.21505724444E+02 -0.16985157118E+02  0.27448182418E+02  0.51100000000E-03 0. -1.
        -11    1    3    3    0    0  0.47984080727E+01 -0.44246140855E+01  0.49974757271E+01  0.82205044700E+01  0.51100000000E-03 0.  1.
         12    1    3    3    0    0  0.15217326126E+02  0.15618594072E+02 -0.91117943046E+01  0.23633287767E+02  0.00000000000E+00 0. -1.
</event>
<event>
 7    1  0.3750159E-013  0.5930215E+02  0.7816164E-02  0.1266604E+00
        -11   -1    0    0    0    0  0.00000000000E+00  0.00000000000E+00  0.45593999997E+02  0.45594000000E+02  0.51100000000E-03 0.  1.
         11   -1    0    0    0    0 -0.00000000000E+00 -0.00000000000E+00 -0.45593999997E+02  0.45594000000E+02  0.51100000000E-03 0. -1.
    9900012    2    1    2    0    0 -0.31412956635E+02  0.54709760935E+01 -0.41438089734E-01  0.59302154534E+02  0.50000383912E+02 0.  0.
        -12    1    1    2    0    0  0.31412956635E+02 -0.54709760935E+01  0.41438089734E-01  0.31885845466E+02  0.00000000000E+00 0.  1.
         11    1    3    3    0    0 -0.10445211813E+02 -0.14423298862E+01 -0.17833461413E+01  0.10694067937E+02  0.51100000000E-03 0. -1.
        -11    1    3    3    0    0 -0.13640902828E+02  0.80194259723E+01  0.21964475883E+02  0.27070715246E+02  0.51100000000E-03 0.  1.
         12    1    3    3    0    0 -0.73268419941E+01 -0.11061199926E+01 -0.20222567831E+02  0.21537371351E+02  0.00000000000E+00 0. -1.
</event>
<event>
 7    1  0.3750159E-013  0.5930195E+02  0.7816164E-02  0.1266605E+00
        -11   -1    0    0    0    0  0.00000000000E+00  0.00000000000E+00  0.45593999997E+02  0.45594000000E+02  0.51100000000E-03 0. -1.
         11   -1    0    0    0    0 -0.00000000000E+00 -0.00000000000E+00 -0.45593999997E+02  0.45594000000E+02  0.51100000000E-03 0.  1.
    9900012    2    1    2    0    0  0.24602065224E+02 -0.29834898587E+00  0.20282247103E+02  0.59301950183E+02  0.50000011226E+02 0.  0.
        -12    1    1    2    0    0 -0.24602065224E+02  0.29834898587E+00 -0.20282247103E+02  0.31886049817E+02  0.00000000000E+00 0.  1.
         11    1    3    3    0    0  0.46105716081E+01  0.28971355349E+01  0.12585649179E+01  0.55888058451E+01  0.51100000000E-03 0.  1.
        -11    1    3    3    0    0  0.26379224679E+02  0.12924083439E+02  0.21216682026E+02  0.36235935532E+02  0.51100000000E-03 0. -1.
        -12    1    3    3    0    0 -0.63877310635E+01 -0.16119567960E+02 -0.21929998411E+01  0.17477208806E+02  0.00000000000E+00 0.  1.
</event>
<event>
 7    1  0.3750159E-013  0.5930201E+02  0.7816164E-02  0.1266605E+00
        -11   -1    0    0    0    0  0.00000000000E+00  0.00000000000E+00  0.45593999997E+02  0.45594000000E+02  0.51100000000E-03 0.  1.
         11   -1    0    0    0    0 -0.00000000000E+00 -0.00000000000E+00 -0.45593999997E+02  0.45594000000E+02  0.51100000000E-03 0. -1.
    9900012    2    1    2    0    0 -0.30380571538E+01 -0.31537478035E+02 -0.35880173528E+01  0.59302012786E+02  0.50000125398E+02 0.  0.
        -12    1    1    2    0    0  0.30380571538E+01  0.31537478035E+02  0.35880173528E+01  0.31885987214E+02  0.00000000000E+00 0.  1.
         11    1    3    3    0    0 -0.23670805583E+00  0.42102717610E+01  0.58581031263E+01  0.72180185304E+01  0.51100000000E-03 0.  1.
        -11    1    3    3    0    0  0.32018270619E+00 -0.12273311266E+02  0.14095217342E+02  0.18692561049E+02  0.51100000000E-03 0. -1.
         12    1    3    3    0    0 -0.31215318041E+01 -0.23474438531E+02 -0.23541337822E+02  0.33391433206E+02  0.00000000000E+00 0. -1.
</event>
<event>
 7    1  0.3750159E-013  0.5930192E+02  0.7816164E-02  0.1266605E+00
        -11   -1    0    0    0    0  0.00000000000E+00  0.00000000000E+00  0.45593999997E+02  0.45594000000E+02  0.51100000000E-03 0. -1.
         11   -1    0    0    0    0 -0.00000000000E+00 -0.00000000000E+00 -0.45593999997E+02  0.45594000000E+02  0.51100000000E-03 0.  1.
    9900012    2    1    2    0    0  0.19421205978E+02  0.12058885505E+02  0.22228852872E+02  0.59301923709E+02  0.49999962943E+02 0.  0.
        -12    1    1    2    0    0 -0.19421205978E+02 -0.12058885505E+02 -0.22228852872E+02  0.31886076291E+02  0.00000000000E+00 0.  1.
         11    1    3    3    0    0  0.15925517094E+02  0.89545803749E+01 -0.11531966110E+00  0.18270738991E+02  0.51100000000E-03 0. -1.
        -11    1    3    3    0    0  0.15148061744E+02 -0.88869058865E+01  0.96575739326E+01  0.20042694563E+02  0.51100000000E-03 0.  1.
         12    1    3    3    0    0 -0.11652372860E+02  0.11991211017E+02  0.12686598600E+02  0.20988490155E+02  0.00000000000E+00 0. -1.
</event>
<event>
 7    1  0.3750159E-013  0.5930190E+02  0.7816164E-02  0.1266605E+00
        -11   -1    0    0    0    0  0.00000000000E+00  0.00000000000E+00  0.45593999997E+02  0.45594000000E+02  0.51100000000E-03 0. -1.
         11   -1    0    0    0    0 -0.00000000000E+00 -0.00000000000E+00 -0.45593999997E+02  0.45594000000E+02  0.51100000000E-03 0.  1.
    9900012    2    1    2    0    0  0.16644640469E+02  0.17386931700E+02  0.20913483403E+02  0.59301902115E+02  0.49999923561E+02 0.  0.
        -12    1    1    2    0    0 -0.16644640469E+02 -0.17386931700E+02 -0.20913483403E+02  0.31886097885E+02  0.00000000000E+00 0.  1.
         11    1    3    3    0    0  0.13087937372E+02 -0.48375775813E+01  0.25047484814E+02  0.28671811196E+02  0.51100000000E-03 0. -1.
        -11    1    3    3    0    0  0.53018102276E+01  0.33291356944E+00 -0.66657136367E+01  0.85236002770E+01  0.51100000000E-03 0.  1.
        -12    1    3    3    0    0 -0.17451071307E+01  0.21891595712E+02  0.25317122258E+01  0.22106490642E+02  0.00000000000E+00 0.  1.
</event>
<event>
 7    1  0.3750159E-013  0.5930192E+02  0.7816164E-02  0.1266605E+00
        -11   -1    0    0    0    0  0.00000000000E+00  0.00000000000E+00  0.45593999997E+02  0.45594000000E+02  0.51100000000E-03 0.  1.
         11   -1    0    0    0    0 -0.00000000000E+00 -0.00000000000E+00 -0.45593999997E+02  0.45594000000E+02  0.51100000000E-03 0. -1.
    9900012    2    1    2    0    0 -0.19330967344E+02  0.69654081793E+00 -0.25348577319E+02  0.59301924047E+02  0.49999963561E+02 0.  0.
        -12    1    1    2    0    0  0.19330967344E+02 -0.69654081793E+00  0.25348577319E+02  0.31886075953E+02  0.00000000000E+00 0.  1.
         11    1    3    3    0    0 -0.94568551163E+01  0.19824536809E+02 -0.38187473682E+01  0.22294106847E+02  0.51100000000E-03 0. -1.
        -11    1    3    3    0    0  0.35608395366E+01 -0.97590581783E+00  0.21608080062E+01  0.42779740382E+01  0.51100000000E-03 0.  1.
         12    1    3    3    0    0 -0.13434951764E+02 -0.18152090174E+02 -0.23690637957E+02  0.32729843162E+02  0.00000000000E+00 0. -1.
</event>
<event>
 7    1  0.3750159E-013  0.5930192E+02  0.7816164E-02  0.1266605E+00
        -11   -1    0    0    0    0  0.00000000000E+00  0.00000000000E+00  0.45593999997E+02  0.45594000000E+02  0.51100000000E-03 0.  1.
         11   -1    0    0    0    0 -0.00000000000E+00 -0.00000000000E+00 -0.45593999997E+02  0.45594000000E+02  0.51100000000E-03 0. -1.
    9900012    2    1    2    0    0  0.25274076867E+01  0.65352902231E+01 -0.31106655477E+02  0.59301924310E+02  0.49999964040E+02 0.  0.
        -12    1    1    2    0    0 -0.25274076867E+01 -0.65352902231E+01  0.31106655477E+02  0.31886075690E+02  0.00000000000E+00 0.  1.
         11    1    3    3    0    0 -0.15880424276E+02 -0.95923971612E+01 -0.13373352247E+02  0.22870253805E+02  0.51100000000E-03 0. -1.
        -11    1    3    3    0    0 -0.25747158735E+01 -0.20912848107E+01 -0.46641030909E+01  0.57233287423E+01  0.51100000000E-03 0.  1.
        -12    1    3    3    0    0  0.20982547837E+02  0.18218972195E+02 -0.13069200139E+02  0.30708341763E+02  0.00000000000E+00 0.  1.
</event>
<event>
 7    1  0.3750159E-013  0.5930187E+02  0.7816164E-02  0.1266605E+00
        -11   -1    0    0    0    0  0.00000000000E+00  0.00000000000E+00  0.45593999997E+02  0.45594000000E+02  0.51100000000E-03 0.  1.
         11   -1    0    0    0    0 -0.00000000000E+00 -0.00000000000E+00 -0.45593999997E+02  0.45594000000E+02  0.51100000000E-03 0. -1.
    9900012    2    1    2    0    0  0.10644758495E+02  0.87779901624E+01 -0.28746505429E+02  0.59301865567E+02  0.49999856907E+02 0.  0.
        -12    1    1    2    0    0 -0.10644758495E+02 -0.87779901624E+01  0.28746505429E+02  0.31886134433E+02  0.00000000000E+00 0.  1.
         11    1    3    3    0    0  0.18826544185E+02 -0.10640659509E+00 -0.19950783887E+02  0.27431439377E+02  0.51100000000E-03 0. -1.
        -11    1    3    3    0    0  0.57293592860E+01  0.42347752523E+01 -0.14481638736E+02  0.16139291806E+02  0.51100000000E-03 0.  1.
        -12    1    3    3    0    0 -0.13911144976E+02  0.46496215052E+01  0.56859171948E+01  0.15731134384E+02  0.00000000000E+00 0.  1.
</event>
<event>
 7    1  0.3750159E-013  0.5930194E+02  0.7816164E-02  0.1266605E+00
        -11   -1    0    0    0    0  0.00000000000E+00  0.00000000000E+00  0.45593999997E+02  0.45594000000E+02  0.51100000000E-03 0. -1.
         11   -1    0    0    0    0 -0.00000000000E+00 -0.00000000000E+00 -0.45593999997E+02  0.45594000000E+02  0.51100000000E-03 0.  1.
    9900012    2    1    2    0    0  0.25545718719E+02  0.19037679376E+02  0.13054253922E+01  0.59301935389E+02  0.49999984245E+02 0.  0.
        -12    1    1    2    0    0 -0.25545718719E+02 -0.19037679376E+02 -0.13054253922E+01  0.31886064611E+02  0.00000000000E+00 0.  1.
         11    1    3    3    0    0 -0.64327284050E+00 -0.11700547174E+02 -0.78214905635E+01  0.14088730213E+02  0.51100000000E-03 0. -1.
        -11    1    3    3    0    0  0.12128455535E+02  0.64002287870E+01 -0.38656527478E+01  0.14248004549E+02  0.51100000000E-03 0.  1.
        -12    1    3    3    0    0  0.14060536025E+02  0.24337997763E+02  0.12992568703E+02  0.30965200628E+02  0.00000000000E+00 0.  1.
</event>
<event>
 7    1  0.3750159E-013  0.5930194E+02  0.7816164E-02  0.1266605E+00
        -11   -1    0    0    0    0  0.00000000000E+00  0.00000000000E+00  0.45593999997E+02  0.45594000000E+02  0.51100000000E-03 0. -1.
         11   -1    0    0    0    0 -0.00000000000E+00 -0.00000000000E+00 -0.45593999997E+02  0.45594000000E+02  0.51100000000E-03 0.  1.
    9900012    2    1    2    0    0  0.99558382099E+01 -0.11923149695E+02  0.27846737605E+02  0.59301937083E+02  0.49999987335E+02 0.  0.
        -12    1    1    2    0    0 -0.99558382099E+01  0.11923149695E+02 -0.27846737605E+02  0.31886062917E+02  0.00000000000E+00 0.  1.
         11    1    3    3    0    0  0.24338060158E+02  0.33158131648E+01  0.24537750977E+02  0.34719403976E+02  0.51100000000E-03 0. -1.
        -11    1    3    3    0    0 -0.82559769780E+01 -0.98485454993E+01  0.80313712882E+01  0.15154468956E+02  0.51100000000E-03 0.  1.
        -12    1    3    3    0    0 -0.61262449698E+01 -0.53904173601E+01 -0.47223846607E+01  0.94280641507E+01  0.00000000000E+00 0.  1.
</event>
<event>
 7    1  0.3750159E-013  0.5930196E+02  0.7816164E-02  0.1266605E+00
        -11   -1    0    0    0    0  0.00000000000E+00  0.00000000000E+00  0.45593999997E+02  0.45594000000E+02  0.51100000000E-03 0.  1.
         11   -1    0    0    0    0 -0.00000000000E+00 -0.00000000000E+00 -0.45593999997E+02  0.45594000000E+02  0.51100000000E-03 0. -1.
    9900012    2    1    2    0    0  0.29872272188E+02 -0.41557640162E+01 -0.10348730532E+02  0.59301964751E+02  0.50000037795E+02 0.  0.
        -12    1    1    2    0    0 -0.29872272188E+02  0.41557640162E+01  0.10348730532E+02  0.31886035249E+02  0.00000000000E+00 0.  1.
         11    1    3    3    0    0  0.47822693352E+01 -0.59123693383E+00 -0.75955229865E+01  0.89950892606E+01  0.51100000000E-03 0. -1.
        -11    1    3    3    0    0  0.28208724153E+02  0.48553408266E+01 -0.17129092940E+02  0.33357342192E+02  0.51100000000E-03 0.  1.
        -12    1    3    3    0    0 -0.31187213000E+01 -0.84198679090E+01  0.14375885395E+02  0.16949533299E+02  0.00000000000E+00 0.  1.
</event>
<event>
 7    1  0.3750159E-013  0.5930193E+02  0.7816164E-02  0.1266605E+00
        -11   -1    0    0    0    0  0.00000000000E+00  0.00000000000E+00  0.45593999997E+02  0.45594000000E+02  0.51100000000E-03 0.  1.
         11   -1    0    0    0    0 -0.00000000000E+00 -0.00000000000E+00 -0.45593999997E+02  0.45594000000E+02  0.51100000000E-03 0. -1.
    9900012    2    1    2    0    0 -0.23898658135E+02 -0.61567063367E+01 -0.20190849768E+02  0.59301932386E+02  0.49999978767E+02 0.  0.
        -12    1    1    2    0    0  0.23898658135E+02  0.61567063367E+01  0.20190849768E+02  0.31886067614E+02  0.00000000000E+00 0.  1.
         11    1    3    3    0    0 -0.15497216202E+02 -0.25930954797E+01 -0.10687854567E+02  0.19003107369E+02  0.51100000000E-03 0. -1.
        -11    1    3    3    0    0 -0.75316993622E+01 -0.17358699644E+02  0.56896934629E+01  0.19759138660E+02  0.51100000000E-03 0.  1.
         12    1    3    3    0    0 -0.86974257116E+00  0.13795088787E+02 -0.15192688664E+02  0.20539686357E+02  0.00000000000E+00 0. -1.
</event>
<event>
 7    1  0.3750159E-013  0.5930195E+02  0.7816164E-02  0.1266605E+00
        -11   -1    0    0    0    0  0.00000000000E+00  0.00000000000E+00  0.45593999997E+02  0.45594000000E+02  0.51100000000E-03 0.  1.
         11   -1    0    0    0    0 -0.00000000000E+00 -0.00000000000E+00 -0.45593999997E+02  0.45594000000E+02  0.51100000000E-03 0. -1.
    9900012    2    1    2    0    0 -0.22345755260E+02  0.28073590121E+01 -0.22572246624E+02  0.59301947243E+02  0.50000005864E+02 0.  0.
        -12    1    1    2    0    0  0.22345755260E+02 -0.28073590121E+01  0.22572246624E+02  0.31886052757E+02  0.00000000000E+00 0.  1.
         11    1    3    3    0    0 -0.23596835233E+02 -0.73944194272E+01 -0.16174800714E+02  0.29548472889E+02  0.51100000000E-03 0. -1.
        -11    1    3    3    0    0  0.56815827919E+00 -0.94047673853E+01 -0.15975038435E+01  0.95563838450E+01  0.51100000000E-03 0.  1.
         12    1    3    3    0    0  0.68292169302E+00  0.19606545825E+02 -0.47999420659E+01  0.20197090509E+02  0.00000000000E+00 0. -1.
</event>
<event>
 7    1  0.3750159E-013  0.5930194E+02  0.7816164E-02  0.1266605E+00
        -11   -1    0    0    0    0  0.00000000000E+00  0.00000000000E+00  0.45593999997E+02  0.45594000000E+02  0.51100000000E-03 0.  1.
         11   -1    0    0    0    0 -0.00000000000E+00 -0.00000000000E+00 -0.45593999997E+02  0.45594000000E+02  0.51100000000E-03 0. -1.
    9900012    2    1    2    0    0  0.15586099948E+02 -0.93540844757E+01 -0.26197236562E+02  0.59301943307E+02  0.49999998686E+02 0.  0.
        -12    1    1    2    0    0 -0.15586099948E+02  0.93540844757E+01  0.26197236562E+02  0.31886056693E+02  0.00000000000E+00 0.  1.
         11    1    3    3    0    0  0.37352126253E+01  0.51071321418E+01 -0.13080288678E+01  0.64610797743E+01  0.51100000000E-03 0. -1.
        -11    1    3    3    0    0  0.10326671724E+02  0.11541037046E+02  0.17483339304E+01  0.15585004228E+02  0.51100000000E-03 0.  1.
        -12    1    3    3    0    0  0.15242155987E+01 -0.26002253664E+02 -0.26637541624E+02  0.37255859305E+02  0.00000000000E+00 0.  1.
</event>
<event>
 7    1  0.3750159E-013  0.5930196E+02  0.7816164E-02  0.1266605E+00
        -11   -1    0    0    0    0  0.00000000000E+00  0.00000000000E+00  0.45593999997E+02  0.45594000000E+02  0.51100000000E-03 0. -1.
         11   -1    0    0    0    0 -0.00000000000E+00 -0.00000000000E+00 -0.45593999997E+02  0.45594000000E+02  0.51100000000E-03 0.  1.
    9900012    2    1    2    0    0 -0.17395407191E+02 -0.10797803621E+02  0.24444360088E+02  0.59301960821E+02  0.50000030627E+02 0.  0.
        -12    1    1    2    0    0  0.17395407191E+02  0.10797803621E+02 -0.24444360088E+02  0.31886039179E+02  0.00000000000E+00 0.  1.
         11    1    3    3    0    0 -0.59835507797E+01 -0.28102292594E+01 -0.73781883928E+01  0.99064591375E+01  0.51100000000E-03 0.  1.
        -11    1    3    3    0    0  0.84946475308E+01 -0.10476126561E+01 -0.26742277302E+01  0.89670520888E+01  0.51100000000E-03 0. -1.
         12    1    3    3    0    0 -0.19906503942E+02 -0.69399617057E+01  0.34496776211E+02  0.40428449595E+02  0.00000000000E+00 0. -1.
</event>
<event>
 7    1  0.3750159E-013  0.5930195E+02  0.7816164E-02  0.1266605E+00
        -11   -1    0    0    0    0  0.00000000000E+00  0.00000000000E+00  0.45593999997E+02  0.45594000000E+02  0.51100000000E-03 0. -1.
         11   -1    0    0    0    0 -0.00000000000E+00 -0.00000000000E+00 -0.45593999997E+02  0.45594000000E+02  0.51100000000E-03 0.  1.
    9900012    2    1    2    0    0  0.29724784304E+02 -0.58292660929E+01  0.99587611104E+01  0.59301951829E+02  0.50000014228E+02 0.  0.
        -12    1    1    2    0    0 -0.29724784304E+02  0.58292660929E+01 -0.99587611104E+01  0.31886048171E+02  0.00000000000E+00 0.  1.
         11    1    3    3    0    0  0.13057136872E+02 -0.17150111853E+02 -0.42137807706E+01  0.21962948539E+02  0.51100000000E-03 0. -1.
        -11    1    3    3    0    0  0.79243408503E+00 -0.16479469796E+01  0.16596665755E+02  0.16697095421E+02  0.51100000000E-03 0.  1.
         12    1    3    3    0    0  0.15875213347E+02  0.12968792740E+02 -0.24241238743E+01  0.20641907870E+02  0.00000000000E+00 0. -1.
</event>
<event>
 7    1  0.3750159E-013  0.5930196E+02  0.7816164E-02  0.1266605E+00
        -11   -1    0    0    0    0  0.00000000000E+00  0.00000000000E+00  0.45593999997E+02  0.45594000000E+02  0.51100000000E-03 0. -1.
         11   -1    0    0    0    0 -0.00000000000E+00 -0.00000000000E+00 -0.45593999997E+02  0.45594000000E+02  0.51100000000E-03 0.  1.
    9900012    2    1    2    0    0  0.46296050306E+01  0.29686441621E+02  0.10677139036E+02  0.59301962980E+02  0.50000034564E+02 0.  0.
        -12    1    1    2    0    0 -0.46296050306E+01 -0.29686441621E+02 -0.10677139036E+02  0.31886037020E+02  0.00000000000E+00 0.  1.
         11    1    3    3    0    0  0.12333830672E+02 -0.47834239064E+01 -0.10879206536E+02  0.17127803666E+02  0.51100000000E-03 0.  1.
        -11    1    3    3    0    0  0.52253574544E+00  0.11741096260E+02  0.97629393223E+01  0.15278788220E+02  0.51100000000E-03 0. -1.
        -12    1    3    3    0    0 -0.82267613868E+01  0.22728769268E+02  0.11793406249E+02  0.26895371094E+02  0.00000000000E+00 0.  1.
</event>
<event>
 7    1  0.3750159E-013  0.5930189E+02  0.7816164E-02  0.1266605E+00
        -11   -1    0    0    0    0  0.00000000000E+00  0.00000000000E+00  0.45593999997E+02  0.45594000000E+02  0.51100000000E-03 0. -1.
         11   -1    0    0    0    0 -0.00000000000E+00 -0.00000000000E+00 -0.45593999997E+02  0.45594000000E+02  0.51100000000E-03 0.  1.
    9900012    2    1    2    0    0  0.10265873613E+02  0.29990674389E+02  0.34489224897E+01  0.59301893657E+02  0.49999908136E+02 0.  0.
        -12    1    1    2    0    0 -0.10265873613E+02 -0.29990674389E+02 -0.34489224897E+01  0.31886106343E+02  0.00000000000E+00 0.  1.
         11    1    3    3    0    0 -0.35706290547E+01  0.75988005008E+01  0.20156286451E+02  0.21834995870E+02  0.51100000000E-03 0. -1.
        -11    1    3    3    0    0 -0.33540806024E+01  0.35503760264E+01  0.25484428505E+01  0.55090460009E+01  0.51100000000E-03 0.  1.
        -12    1    3    3    0    0  0.17190583270E+02  0.18841497862E+02 -0.19255806811E+02  0.31957851786E+02  0.00000000000E+00 0.  1.
</event>
<event>
 7    1  0.3750159E-013  0.5930213E+02  0.7816164E-02  0.1266604E+00
        -11   -1    0    0    0    0  0.00000000000E+00  0.00000000000E+00  0.45593999997E+02  0.45594000000E+02  0.51100000000E-03 0.  1.
         11   -1    0    0    0    0 -0.00000000000E+00 -0.00000000000E+00 -0.45593999997E+02  0.45594000000E+02  0.51100000000E-03 0. -1.
    9900012    2    1    2    0    0 -0.15573180160E+02  0.11671159082E+02 -0.25258038760E+02  0.59302134533E+02  0.50000347434E+02 0.  0.
        -12    1    1    2    0    0  0.15573180160E+02 -0.11671159082E+02  0.25258038760E+02  0.31885865467E+02  0.00000000000E+00 0.  1.
         11    1    3    3    0    0 -0.47599634094E+01 -0.18684217591E+00  0.50736853688E+01  0.69594859825E+01  0.51100000000E-03 0.  1.
        -11    1    3    3    0    0  0.14072150142E+02  0.90097771712E+01 -0.17512009783E+02  0.24204792525E+02  0.51100000000E-03 0. -1.
         12    1    3    3    0    0 -0.24885366892E+02  0.28482240865E+01 -0.12819714346E+02  0.28137856025E+02  0.00000000000E+00 0. -1.
</event>
<event>
 7    1  0.3750159E-013  0.5930197E+02  0.7816164E-02  0.1266605E+00
        -11   -1    0    0    0    0  0.00000000000E+00  0.00000000000E+00  0.45593999997E+02  0.45594000000E+02  0.51100000000E-03 0.  1.
         11   -1    0    0    0    0 -0.00000000000E+00 -0.00000000000E+00 -0.45593999997E+02  0.45594000000E+02  0.51100000000E-03 0. -1.
    9900012    2    1    2    0    0  0.42363041953E+01  0.31420387012E+02  0.33958407357E+01  0.59301972848E+02  0.50000052562E+02 0.  0.
        -12    1    1    2    0    0 -0.42363041953E+01 -0.31420387012E+02 -0.33958407357E+01  0.31886027152E+02  0.00000000000E+00 0.  1.
         11    1    3    3    0    0  0.25446240767E+01  0.13261685315E+02 -0.15144764318E+02  0.20290670161E+02  0.51100000000E-03 0. -1.
        -11    1    3    3    0    0  0.14037521626E+02  0.41550118172E+01  0.35371505953E+01  0.15060795835E+02  0.51100000000E-03 0.  1.
         12    1    3    3    0    0 -0.12345841507E+02  0.14003689879E+02  0.15003454458E+02  0.23950506851E+02  0.00000000000E+00 0. -1.
</event>
<event>
 7    1  0.3750159E-013  0.5930195E+02  0.7816164E-02  0.1266605E+00
        -11   -1    0    0    0    0  0.00000000000E+00  0.00000000000E+00  0.45593999997E+02  0.45594000000E+02  0.51100000000E-03 0.  1.
         11   -1    0    0    0    0 -0.00000000000E+00 -0.00000000000E+00 -0.45593999997E+02  0.45594000000E+02  0.51100000000E-03 0. -1.
    9900012    2    1    2    0    0  0.19384439259E+02  0.12428477490E+02 -0.22056675766E+02  0.59301945306E+02  0.50000002331E+02 0.  0.
        -12    1    1    2    0    0 -0.19384439259E+02 -0.12428477490E+02  0.22056675766E+02  0.31886054694E+02  0.00000000000E+00 0.  1.
         11    1    3    3    0    0 -0.28248150159E+01  0.13859565059E+01 -0.16425490303E+02  0.16724149822E+02  0.51100000000E-03 0. -1.
        -11    1    3    3    0    0 -0.46024765431E+01  0.11319258658E+02  0.56820079467E+01  0.13475667756E+02  0.51100000000E-03 0.  1.
        -12    1    3    3    0    0  0.26811730818E+02 -0.27673767417E+00 -0.11313193410E+02  0.29102127728E+02  0.00000000000E+00 0.  1.
</event>
<event>
 7    1  0.3750159E-013  0.5930196E+02  0.7816164E-02  0.1266605E+00
        -11   -1    0    0    0    0  0.00000000000E+00  0.00000000000E+00  0.45593999997E+02  0.45594000000E+02  0.51100000000E-03 0. -1.
         11   -1    0    0    0    0 -0.00000000000E+00 -0.00000000000E+00 -0.45593999997E+02  0.45594000000E+02  0.51100000000E-03 0.  1.
    9900012    2    1    2    0    0  0.26678748923E+02 -0.16187265492E+02 -0.65525640877E+01  0.59301963803E+02  0.50000036066E+02 0.  0.
        -12    1    1    2    0    0 -0.26678748923E+02  0.16187265492E+02  0.65525640877E+01  0.31886036197E+02  0.00000000000E+00 0.  1.
         11    1    3    3    0    0  0.27983065335E+02 -0.33947491716E+01  0.37217938838E+01  0.28432868612E+02  0.51100000000E-03 0. -1.
        -11    1    3    3    0    0  0.69865023102E+01 -0.15249188823E+02 -0.13610417393E+02  0.21600750823E+02  0.51100000000E-03 0.  1.
        -12    1    3    3    0    0 -0.82908187222E+01  0.24566725024E+01  0.33360594210E+01  0.92683443683E+01  0.00000000000E+00 0.  1.
</event>
<event>
 7    1  0.3750159E-013  0.5930189E+02  0.7816164E-02  0.1266605E+00
        -11   -1    0    0    0    0  0.00000000000E+00  0.00000000000E+00  0.45593999997E+02  0.45594000000E+02  0.51100000000E-03 0. -1.
         11   -1    0    0    0    0 -0.00000000000E+00 -0.00000000000E+00 -0.45593999997E+02  0.45594000000E+02  0.51100000000E-03 0.  1.
    9900012    2    1    2    0    0  0.20997068060E+02 -0.17904729424E+02  0.15977107173E+02  0.59301887718E+02  0.49999897305E+02 0.  0.
        -12    1    1    2    0    0 -0.20997068060E+02  0.17904729424E+02 -0.15977107173E+02  0.31886112282E+02  0.00000000000E+00 0.  1.
         11    1    3    3    0    0 -0.36511777292E-01  0.40793111711E+01  0.21988053214E+02  0.22363286815E+02  0.51100000000E-03 0. -1.
        -11    1    3    3    0    0  0.54054962759E+01 -0.13086181525E+02  0.59314453346E+01  0.15350882089E+02  0.51100000000E-03 0.  1.
         12    1    3    3    0    0  0.15628083561E+02 -0.88978590700E+01 -0.11942391376E+02  0.21587718814E+02  0.00000000000E+00 0. -1.
</event>
<event>
 7    1  0.3750159E-013  0.5930195E+02  0.7816164E-02  0.1266605E+00
        -11   -1    0    0    0    0  0.00000000000E+00  0.00000000000E+00  0.45593999997E+02  0.45594000000E+02  0.51100000000E-03 0. -1.
         11   -1    0    0    0    0 -0.00000000000E+00 -0.00000000000E+00 -0.45593999997E+02  0.45594000000E+02  0.51100000000E-03 0.  1.
    9900012    2    1    2    0    0  0.41793033178E+01 -0.17403460228E+02  0.26388887251E+02  0.59301947022E+02  0.50000005461E+02 0.  0.
        -12    1    1    2    0    0 -0.41793033178E+01  0.17403460228E+02 -0.26388887251E+02  0.31886052978E+02  0.00000000000E+00 0.  1.
         11    1    3    3    0    0  0.45911440827E+01  0.32137960181E+01  0.11972653013E+02  0.13219361152E+02  0.51100000000E-03 0. -1.
        -11    1    3    3    0    0 -0.19091064155E+02 -0.90955813893E+01  0.11110837849E+02  0.23888261748E+02  0.51100000000E-03 0.  1.
         12    1    3    3    0    0  0.18679223390E+02 -0.11521674857E+02  0.33053963894E+01  0.22194324122E+02  0.00000000000E+00 0. -1.
</event>
<event>
 7    1  0.3750159E-013  0.5930194E+02  0.7816164E-02  0.1266605E+00
        -11   -1    0    0    0    0  0.00000000000E+00  0.00000000000E+00  0.45593999997E+02  0.45594000000E+02  0.51100000000E-03 0.  1.
         11   -1    0    0    0    0 -0.00000000000E+00 -0.00000000000E+00 -0.45593999997E+02  0.45594000000E+02  0.51100000000E-03 0. -1.
    9900012    2    1    2    0    0 -0.13161861357E+02 -0.11811446876E+02 -0.26532546470E+02  0.59301938878E+02  0.49999990609E+02 0.  0.
        -12    1    1    2    0    0  0.13161861357E+02  0.11811446876E+02  0.26532546470E+02  0.31886061122E+02  0.00000000000E+00 0.  1.
         11    1    3    3    0    0 -0.19630062092E+01  0.49372972927E+00  0.57848191819E+01  0.61287270824E+01  0.51100000000E-03 0.  1.
        -11    1    3    3    0    0  0.11940481692E+02  0.18050835709E+01 -0.15563372220E+01  0.12176026262E+02  0.51100000000E-03 0. -1.
         12    1    3    3    0    0 -0.23139336840E+02 -0.14110260176E+02 -0.30761028429E+02  0.40997185534E+02  0.00000000000E+00 0. -1.
</event>
<event>
 7    1  0.3750159E-013  0.5930171E+02  0.7816164E-02  0.1266606E+00
        -11   -1    0    0    0    0  0.00000000000E+00  0.00000000000E+00  0.45593999997E+02  0.45594000000E+02  0.51100000000E-03 0.  1.
         11   -1    0    0    0    0 -0.00000000000E+00 -0.00000000000E+00 -0.45593999997E+02  0.45594000000E+02  0.51100000000E-03 0. -1.
    9900012    2    1    2    0    0  0.21733258700E+02  0.21353081688E+02 -0.94046080450E+01  0.59301713233E+02  0.49999579084E+02 0.  0.
        -12    1    1    2    0    0 -0.21733258700E+02 -0.21353081688E+02  0.94046080450E+01  0.31886286767E+02  0.00000000000E+00 0.  1.
         11    1    3    3    0    0  0.38540605555E+01  0.93130583449E+01 -0.18893660054E+02  0.21413949402E+02  0.51100000000E-03 0. -1.
        -11    1    3    3    0    0 -0.42859845032E+01  0.25379788806E+01 -0.70594989695E+01  0.86398799714E+01  0.51100000000E-03 0.  1.
         12    1    3    3    0    0  0.22165182648E+02  0.95020444628E+01  0.16548550978E+02  0.29247883860E+02  0.00000000000E+00 0. -1.
</event>
<event>
 7    1  0.3750159E-013  0.5930207E+02  0.7816164E-02  0.1266604E+00
        -11   -1    0    0    0    0  0.00000000000E+00  0.00000000000E+00  0.45593999997E+02  0.45594000000E+02  0.51100000000E-03 0.  1.
         11   -1    0    0    0    0 -0.00000000000E+00 -0.00000000000E+00 -0.45593999997E+02  0.45594000000E+02  0.51100000000E-03 0. -1.
    9900012    2    1    2    0    0 -0.24332243832E+02 -0.13081074559E+02 -0.15922932680E+02  0.59302072279E+02  0.50000233899E+02 0.  0.
        -12    1    1    2    0    0  0.24332243832E+02  0.13081074559E+02  0.15922932680E+02  0.31885927721E+02  0.00000000000E+00 0.  1.
         11    1    3    3    0    0 -0.20441009962E+02 -0.15796230631E+02 -0.92517139209E+01  0.27439934423E+02  0.51100000000E-03 0. -1.
        -11    1    3    3    0    0 -0.65345682577E+01 -0.13325760263E+02 -0.41460968037E+01  0.15409950937E+02  0.51100000000E-03 0.  1.
         12    1    3    3    0    0  0.26433343876E+01  0.16040916335E+02 -0.25251219557E+01  0.16452186919E+02  0.00000000000E+00 0. -1.
</event>
<event>
 7    1  0.3750159E-013  0.5930197E+02  0.7816164E-02  0.1266605E+00
        -11   -1    0    0    0    0  0.00000000000E+00  0.00000000000E+00  0.45593999997E+02  0.45594000000E+02  0.51100000000E-03 0. -1.
         11   -1    0    0    0    0 -0.00000000000E+00 -0.00000000000E+00 -0.45593999997E+02  0.45594000000E+02  0.51100000000E-03 0.  1.
    9900012    2    1    2    0    0  0.12295116837E+02  0.26722551181E+02  0.12306669380E+02  0.59301972481E+02  0.50000051893E+02 0.  0.
        -12    1    1    2    0    0 -0.12295116837E+02 -0.26722551181E+02 -0.12306669380E+02  0.31886027519E+02  0.00000000000E+00 0.  1.
         11    1    3    3    0    0  0.13560202405E+02  0.40986172875E+01  0.92775443481E+01  0.16933711416E+02  0.51100000000E-03 0. -1.
        -11    1    3    3    0    0  0.11153334568E+02  0.16605589747E+01  0.11941222240E+02  0.16423979936E+02  0.51100000000E-03 0.  1.
        -12    1    3    3    0    0 -0.12418420136E+02  0.20963374919E+02 -0.89120972081E+01  0.25944281129E+02  0.00000000000E+00 0.  1.
</event>
<event>
 7    1  0.3750159E-013  0.5930191E+02  0.7816164E-02  0.1266605E+00
        -11   -1    0    0    0    0  0.00000000000E+00  0.00000000000E+00  0.45593999997E+02  0.45594000000E+02  0.51100000000E-03 0.  1.
         11   -1    0    0    0    0 -0.00000000000E+00 -0.00000000000E+00 -0.45593999997E+02  0.45594000000E+02  0.51100000000E-03 0. -1.
    9900012    2    1    2    0    0  0.16570152334E+02  0.70670370425E+01 -0.26309883616E+02  0.59301906843E+02  0.49999932185E+02 0.  0.
        -12    1    1    2    0    0 -0.16570152334E+02 -0.70670370425E+01  0.26309883616E+02  0.31886093157E+02  0.00000000000E+00 0.  1.
         11    1    3    3    0    0 -0.41312284296E+01  0.14246200391E+02 -0.70347431982E+01  0.16416725802E+02  0.51100000000E-03 0.  1.
        -11    1    3    3    0    0  0.14737067103E+02  0.10136058139E+02 -0.16552614314E+02  0.24370265946E+02  0.51100000000E-03 0. -1.
        -12    1    3    3    0    0  0.59643136610E+01 -0.17315221488E+02 -0.27225261032E+01  0.18514915096E+02  0.00000000000E+00 0.  1.
</event>
<event>
 7    1  0.3750159E-013  0.5930204E+02  0.7816164E-02  0.1266604E+00
        -11   -1    0    0    0    0  0.00000000000E+00  0.00000000000E+00  0.45593999997E+02  0.45594000000E+02  0.51100000000E-03 0.  1.
         11   -1    0    0    0    0 -0.00000000000E+00 -0.00000000000E+00 -0.45593999997E+02  0.45594000000E+02  0.51100000000E-03 0. -1.
    9900012    2    1    2    0    0  0.17418168890E+02  0.26693217254E+02  0.89100827428E+00  0.59302041482E+02  0.50000177733E+02 0.  0.
        -12    1    1    2    0    0 -0.17418168890E+02 -0.26693217254E+02 -0.89100827428E+00  0.31885958518E+02  0.00000000000E+00 0.  1.
         11    1    3    3    0    0  0.12440461159E+02  0.12200038407E+02 -0.13681196729E+02  0.22153581091E+02  0.51100000000E-03 0. -1.
        -11    1    3    3    0    0 -0.10995398306E+02  0.14499695964E+02  0.76446141743E+01  0.19737783389E+02  0.51100000000E-03 0.  1.
         12    1    3    3    0    0  0.15973106038E+02 -0.65171176663E-02  0.69275908285E+01  0.17410677002E+02  0.00000000000E+00 0. -1.
</event>
<event>
 7    1  0.3750159E-013  0.5930195E+02  0.7816164E-02  0.1266605E+00
        -11   -1    0    0    0    0  0.00000000000E+00  0.00000000000E+00  0.45593999997E+02  0.45594000000E+02  0.51100000000E-03 0.  1.
         11   -1    0    0    0    0 -0.00000000000E+00 -0.00000000000E+00 -0.45593999997E+02  0.45594000000E+02  0.51100000000E-03 0. -1.
    9900012    2    1    2    0    0  0.17696413441E+02  0.10824322341E+02 -0.24215518076E+02  0.59301947900E+02  0.50000007063E+02 0.  0.
        -12    1    1    2    0    0 -0.17696413441E+02 -0.10824322341E+02  0.24215518076E+02  0.31886052100E+02  0.00000000000E+00 0.  1.
         11    1    3    3    0    0  0.25484151010E+02  0.12032668099E+02 -0.21259564919E+02  0.35301503581E+02  0.51100000000E-03 0. -1.
        -11    1    3    3    0    0 -0.12934753377E+01  0.13645343571E+01 -0.12239115189E+02  0.12382688454E+02  0.51100000000E-03 0.  1.
        -12    1    3    3    0    0 -0.64942622312E+01 -0.25728801152E+01  0.92831620331E+01  0.11617755865E+02  0.00000000000E+00 0.  1.
</event>
<event>
 7    1  0.3750159E-013  0.5930193E+02  0.7816164E-02  0.1266605E+00
        -11   -1    0    0    0    0  0.00000000000E+00  0.00000000000E+00  0.45593999997E+02  0.45594000000E+02  0.51100000000E-03 0. -1.
         11   -1    0    0    0    0 -0.00000000000E+00 -0.00000000000E+00 -0.45593999997E+02  0.45594000000E+02  0.51100000000E-03 0.  1.
    9900012    2    1    2    0    0 -0.11206016656E+01 -0.17952549803E+02  0.26328158172E+02  0.59301926155E+02  0.49999967405E+02 0.  0.
        -12    1    1    2    0    0  0.11206016656E+01  0.17952549803E+02 -0.26328158172E+02  0.31886073845E+02  0.00000000000E+00 0.  1.
         11    1    3    3    0    0 -0.75818520183E+01 -0.18101885862E+02  0.18178546262E+01  0.19709575020E+02  0.51100000000E-03 0. -1.
        -11    1    3    3    0    0  0.24991398797E+00 -0.72167611147E+01 -0.48452010548E+01  0.86959801927E+01  0.51100000000E-03 0.  1.
        -12    1    3    3    0    0  0.62113363647E+01  0.73660971739E+01  0.29355504601E+02  0.30896370942E+02  0.00000000000E+00 0.  1.
</event>
<event>
 7    1  0.3750159E-013  0.5930194E+02  0.7816164E-02  0.1266605E+00
        -11   -1    0    0    0    0  0.00000000000E+00  0.00000000000E+00  0.45593999997E+02  0.45594000000E+02  0.51100000000E-03 0. -1.
         11   -1    0    0    0    0 -0.00000000000E+00 -0.00000000000E+00 -0.45593999997E+02  0.45594000000E+02  0.51100000000E-03 0.  1.
    9900012    2    1    2    0    0  0.17270126034E+02 -0.13191484420E+02  0.23333413122E+02  0.59301942195E+02  0.49999996658E+02 0.  0.
        -12    1    1    2    0    0 -0.17270126034E+02  0.13191484420E+02 -0.23333413122E+02  0.31886057805E+02  0.00000000000E+00 0.  1.
         11    1    3    3    0    0 -0.10803589025E+01 -0.13397492236E+02  0.12574938403E+00  0.13441569356E+02  0.51100000000E-03 0. -1.
        -11    1    3    3    0    0 -0.10563195851E+02  0.61414436255E+00  0.73245038776E+01  0.12868824236E+02  0.51100000000E-03 0.  1.
         12    1    3    3    0    0  0.28913680788E+02 -0.40813654577E+00  0.15883159860E+02  0.32991548604E+02  0.00000000000E+00 0. -1.
</event>
<event>
 7    1  0.3750159E-013  0.5930230E+02  0.7816164E-02  0.1266604E+00
        -11   -1    0    0    0    0  0.00000000000E+00  0.00000000000E+00  0.45593999997E+02  0.45594000000E+02  0.51100000000E-03 0.  1.
         11   -1    0    0    0    0 -0.00000000000E+00 -0.00000000000E+00 -0.45593999997E+02  0.45594000000E+02  0.51100000000E-03 0. -1.
    9900012    2    1    2    0    0 -0.53640623396E+01  0.27300885521E+02 -0.15575190631E+02  0.59302296648E+02  0.50000643091E+02 0.  0.
        -12    1    1    2    0    0  0.53640623396E+01 -0.27300885521E+02  0.15575190631E+02  0.31885703352E+02  0.00000000000E+00 0.  1.
         11    1    3    3    0    0 -0.19676127436E+02  0.31934486474E+01 -0.13911315117E+02  0.24307875138E+02  0.51100000000E-03 0. -1.
        -11    1    3    3    0    0  0.31996642497E+01  0.15291388654E+02 -0.99928369381E+01  0.18545112796E+02  0.51100000000E-03 0.  1.
        -12    1    3    3    0    0  0.11112400847E+02  0.88160482199E+01  0.83289614236E+01  0.16449308715E+02  0.00000000000E+00 0.  1.
</event>
<event>
 7    1  0.3750159E-013  0.5930197E+02  0.7816164E-02  0.1266605E+00
        -11   -1    0    0    0    0  0.00000000000E+00  0.00000000000E+00  0.45593999997E+02  0.45594000000E+02  0.51100000000E-03 0.  1.
         11   -1    0    0    0    0 -0.00000000000E+00 -0.00000000000E+00 -0.45593999997E+02  0.45594000000E+02  0.51100000000E-03 0. -1.
    9900012    2    1    2    0    0 -0.41608804116E+01 -0.28191107212E+02 -0.14306206028E+02  0.59301968849E+02  0.50000045268E+02 0.  0.
        -12    1    1    2    0    0  0.41608804116E+01  0.28191107212E+02  0.14306206028E+02  0.31886031151E+02  0.00000000000E+00 0.  1.
         11    1    3    3    0    0 -0.49699840646E+01  0.21613568891E+01 -0.46718344042E+01  0.71552946945E+01  0.51100000000E-03 0. -1.
        -11    1    3    3    0    0  0.13315434204E+02 -0.64533932292E+01  0.10789740386E+02  0.18312989108E+02  0.51100000000E-03 0.  1.
         12    1    3    3    0    0 -0.12506330551E+02 -0.23899070872E+02 -0.20424112010E+02  0.33833685046E+02  0.00000000000E+00 0. -1.
</event>
<event>
 7    1  0.3750159E-013  0.5930193E+02  0.7816164E-02  0.1266605E+00
        -11   -1    0    0    0    0  0.00000000000E+00  0.00000000000E+00  0.45593999997E+02  0.45594000000E+02  0.51100000000E-03 0.  1.
         11   -1    0    0    0    0 -0.00000000000E+00 -0.00000000000E+00 -0.45593999997E+02  0.45594000000E+02  0.51100000000E-03 0. -1.
    9900012    2    1    2    0    0 -0.13843734220E+02  0.27185912460E+02  0.92735496114E+01  0.59301928811E+02  0.49999972248E+02 0.  0.
        -12    1    1    2    0    0  0.13843734220E+02 -0.27185912460E+02 -0.92735496114E+01  0.31886071189E+02  0.00000000000E+00 0.  1.
         11    1    3    3    0    0 -0.20344832530E+02  0.26986969482E+02 -0.81514317962E+01  0.34765709731E+02  0.51100000000E-03 0. -1.
        -11    1    3    3    0    0 -0.49952784507E+01 -0.18326614126E+01  0.35183376921E+01  0.63788835253E+01  0.51100000000E-03 0.  1.
        -12    1    3    3    0    0  0.11496376761E+02  0.20316043911E+01  0.13906643715E+02  0.18157335555E+02  0.00000000000E+00 0.  1.
</event>
<event>
 7    1  0.3750159E-013  0.5930200E+02  0.7816164E-02  0.1266605E+00
        -11   -1    0    0    0    0  0.00000000000E+00  0.00000000000E+00  0.45593999997E+02  0.45594000000E+02  0.51100000000E-03 0.  1.
         11   -1    0    0    0    0 -0.00000000000E+00 -0.00000000000E+00 -0.45593999997E+02  0.45594000000E+02  0.51100000000E-03 0. -1.
    9900012    2    1    2    0    0  0.27822746406E+02  0.14036413416E+01 -0.15512634012E+02  0.59301996165E+02  0.50000095086E+02 0.  0.
        -12    1    1    2    0    0 -0.27822746406E+02 -0.14036413416E+01  0.15512634012E+02  0.31886003835E+02  0.00000000000E+00 0.  1.
         11    1    3    3    0    0 -0.65441960181E+00 -0.11823368926E+02 -0.21267095329E+01  0.12030927291E+02  0.51100000000E-03 0. -1.
        -11    1    3    3    0    0  0.61981760606E+01 -0.10822118808E+02 -0.24296715839E+01  0.12705862672E+02  0.51100000000E-03 0.  1.
         12    1    3    3    0    0  0.22278989947E+02  0.24049129075E+02 -0.10956252895E+02  0.34565206203E+02  0.00000000000E+00 0. -1.
</event>
<event>
 7    1  0.3750159E-013  0.5930200E+02  0.7816164E-02  0.1266605E+00
        -11   -1    0    0    0    0  0.00000000000E+00  0.00000000000E+00  0.45593999997E+02  0.45594000000E+02  0.51100000000E-03 0. -1.
         11   -1    0    0    0    0 -0.00000000000E+00 -0.00000000000E+00 -0.45593999997E+02  0.45594000000E+02  0.51100000000E-03 0.  1.
    9900012    2    1    2    0    0  0.23000639884E+02  0.18470763796E+02  0.12104474277E+02  0.59302002324E+02  0.50000106318E+02 0.  0.
        -12    1    1    2    0    0 -0.23000639884E+02 -0.18470763796E+02 -0.12104474277E+02  0.31885997676E+02  0.00000000000E+00 0.  1.
         11    1    3    3    0    0 -0.14462266391E+00 -0.62397782627E+00 -0.28391291198E+01  0.29104842316E+01  0.51100000000E-03 0. -1.
        -11    1    3    3    0    0  0.32551462897E+02 -0.59048395916E+00  0.87367660465E+01  0.33708715331E+02  0.51100000000E-03 0.  1.
         12    1    3    3    0    0 -0.94062003496E+01  0.19685225582E+02  0.62068373499E+01  0.22682802761E+02  0.00000000000E+00 0. -1.
</event>
<event>
 7    1  0.3750159E-013  0.5930196E+02  0.7816164E-02  0.1266605E+00
        -11   -1    0    0    0    0  0.00000000000E+00  0.00000000000E+00  0.45593999997E+02  0.45594000000E+02  0.51100000000E-03 0.  1.
         11   -1    0    0    0    0 -0.00000000000E+00 -0.00000000000E+00 -0.45593999997E+02  0.45594000000E+02  0.51100000000E-03 0. -1.
    9900012    2    1    2    0    0 -0.15595315306E+02 -0.25124921715E+02 -0.11926603386E+02  0.59301962005E+02  0.50000032786E+02 0.  0.
        -12    1    1    2    0    0  0.15595315306E+02  0.25124921715E+02  0.11926603386E+02  0.31886037995E+02  0.00000000000E+00 0.  1.
         11    1    3    3    0    0 -0.50882935807E+01 -0.50050450629E+01 -0.90619428731E+01  0.11535164348E+02  0.51100000000E-03 0. -1.
        -11    1    3    3    0    0  0.11960468076E+02 -0.12516707236E+02 -0.13321930728E+02  0.21844784165E+02  0.51100000000E-03 0.  1.
        -12    1    3    3    0    0 -0.22467489801E+02 -0.76031694163E+01  0.10457270215E+02  0.25922013492E+02  0.00000000000E+00 0.  1.
</event>
<event>
 7    1  0.3750159E-013  0.5930211E+02  0.7816164E-02  0.1266604E+00
        -11   -1    0    0    0    0  0.00000000000E+00  0.00000000000E+00  0.45593999997E+02  0.45594000000E+02  0.51100000000E-03 0. -1.
         11   -1    0    0    0    0 -0.00000000000E+00 -0.00000000000E+00 -0.45593999997E+02  0.45594000000E+02  0.51100000000E-03 0.  1.
    9900012    2    1    2    0    0  0.66101717385E+01 -0.35511947546E+01  0.30990397789E+02  0.59302107983E+02  0.50000299014E+02 0.  0.
        -12    1    1    2    0    0 -0.66101717385E+01  0.35511947546E+01 -0.30990397789E+02  0.31885892017E+02  0.00000000000E+00 0.  1.
         11    1    3    3    0    0  0.12322026489E+02 -0.20479770067E+02  0.12790789180E+02  0.27108257172E+02  0.51100000000E-03 0. -1.
        -11    1    3    3    0    0  0.47705551931E+01 -0.17800797833E+01  0.39790814671E+01  0.64621954836E+01  0.51100000000E-03 0.  1.
        -12    1    3    3    0    0 -0.10482409943E+02  0.18708655095E+02  0.14220527142E+02  0.25731655328E+02  0.00000000000E+00 0.  1.
</event>
<event>
 7    1  0.3750159E-013  0.5930200E+02  0.7816164E-02  0.1266605E+00
        -11   -1    0    0    0    0  0.00000000000E+00  0.00000000000E+00  0.45593999997E+02  0.45594000000E+02  0.51100000000E-03 0.  1.
         11   -1    0    0    0    0 -0.00000000000E+00 -0.00000000000E+00 -0.45593999997E+02  0.45594000000E+02  0.51100000000E-03 0. -1.
    9900012    2    1    2    0    0 -0.17211218200E+02  0.26813409929E+02 -0.12378533813E+01  0.59301995782E+02  0.50000094388E+02 0.  0.
        -12    1    1    2    0    0  0.17211218200E+02 -0.26813409929E+02  0.12378533813E+01  0.31886004218E+02  0.00000000000E+00 0.  1.
         11    1    3    3    0    0 -0.51054293926E+01  0.11544820643E+02 -0.37448204763E+01  0.13167079161E+02  0.51100000000E-03 0.  1.
        -11    1    3    3    0    0 -0.27726271429E+02  0.88302005749E+01  0.28366406826E+01  0.29236366056E+02  0.51100000000E-03 0. -1.
        -12    1    3    3    0    0  0.15620482622E+02  0.64383887109E+01 -0.32967358769E+00  0.16898550565E+02  0.00000000000E+00 0.  1.
</event>
<event>
 7    1  0.3750159E-013  0.5930194E+02  0.7816164E-02  0.1266605E+00
        -11   -1    0    0    0    0  0.00000000000E+00  0.00000000000E+00  0.45593999997E+02  0.45594000000E+02  0.51100000000E-03 0. -1.
         11   -1    0    0    0    0 -0.00000000000E+00 -0.00000000000E+00 -0.45593999997E+02  0.45594000000E+02  0.51100000000E-03 0.  1.
    9900012    2    1    2    0    0  0.16501985942E+02  0.16050517359E+02  0.22063230682E+02  0.59301940418E+02  0.49999993418E+02 0.  0.
        -12    1    1    2    0    0 -0.16501985942E+02 -0.16050517359E+02 -0.22063230682E+02  0.31886059582E+02  0.00000000000E+00 0.  1.
         11    1    3    3    0    0  0.20461537527E+02  0.10190724156E+02  0.65489098704E+01  0.23778427146E+02  0.51100000000E-03 0. -1.
        -11    1    3    3    0    0 -0.12669464818E+02  0.13290995889E+02  0.30759365474E+01  0.18617929433E+02  0.51100000000E-03 0.  1.
         12    1    3    3    0    0  0.87099132322E+01 -0.74312026848E+01  0.12438384264E+02  0.16905583839E+02  0.00000000000E+00 0. -1.
</event>
<event>
 7    1  0.3750159E-013  0.5930202E+02  0.7816164E-02  0.1266604E+00
        -11   -1    0    0    0    0  0.00000000000E+00  0.00000000000E+00  0.45593999997E+02  0.45594000000E+02  0.51100000000E-03 0.  1.
         11   -1    0    0    0    0 -0.00000000000E+00 -0.00000000000E+00 -0.45593999997E+02  0.45594000000E+02  0.51100000000E-03 0. -1.
    9900012    2    1    2    0    0  0.26462035084E+02  0.36437408403E+01 -0.17412625578E+02  0.59302020674E+02  0.50000139783E+02 0.  0.
        -12    1    1    2    0    0 -0.26462035084E+02 -0.36437408403E+01  0.17412625578E+02  0.31885979326E+02  0.00000000000E+00 0.  1.
         11    1    3    3    0    0 -0.49984784431E+01  0.82356316795E+01 -0.25540024087E+01  0.99666114839E+01  0.51100000000E-03 0. -1.
        -11    1    3    3    0    0 -0.44627921051E+01 -0.95956471133E+01 -0.52540381490E+01  0.11815154423E+02  0.51100000000E-03 0.  1.
        -12    1    3    3    0    0  0.35923305632E+02  0.50037562742E+01 -0.96045850205E+01  0.37520254767E+02  0.00000000000E+00 0.  1.
</event>
<event>
 7    1  0.3750159E-013  0.5930193E+02  0.7816164E-02  0.1266605E+00
        -11   -1    0    0    0    0  0.00000000000E+00  0.00000000000E+00  0.45593999997E+02  0.45594000000E+02  0.51100000000E-03 0.  1.
         11   -1    0    0    0    0 -0.00000000000E+00 -0.00000000000E+00 -0.45593999997E+02  0.45594000000E+02  0.51100000000E-03 0. -1.
    9900012    2    1    2    0    0  0.25084824168E+02  0.18657039188E+02 -0.62759628677E+01  0.59301933690E+02  0.49999981147E+02 0.  0.
        -12    1    1    2    0    0 -0.25084824168E+02 -0.18657039188E+02  0.62759628677E+01  0.31886066310E+02  0.00000000000E+00 0.  1.
         11    1    3    3    0    0  0.86981075959E+01  0.86268048791E+01 -0.16374166993E+02  0.20449747752E+02  0.51100000000E-03 0. -1.
        -11    1    3    3    0    0  0.63720209660E+01  0.31282269128E+01 -0.11818716915E+02  0.13786606710E+02  0.51100000000E-03 0.  1.
        -12    1    3    3    0    0  0.10014695606E+02  0.69020073960E+01  0.21916921040E+02  0.25065579228E+02  0.00000000000E+00 0.  1.
</event>
<event>
 7    1  0.3750159E-013  0.5930194E+02  0.7816164E-02  0.1266605E+00
        -11   -1    0    0    0    0  0.00000000000E+00  0.00000000000E+00  0.45593999997E+02  0.45594000000E+02  0.51100000000E-03 0.  1.
         11   -1    0    0    0    0 -0.00000000000E+00 -0.00000000000E+00 -0.45593999997E+02  0.45594000000E+02  0.51100000000E-03 0. -1.
    9900012    2    1    2    0    0  0.30866216999E+02 -0.68514556876E+01  0.41297709877E+01  0.59301940267E+02  0.49999993142E+02 0.  0.
        -12    1    1    2    0    0 -0.30866216999E+02  0.68514556876E+01 -0.41297709877E+01  0.31886059733E+02  0.00000000000E+00 0.  1.
         11    1    3    3    0    0  0.42174484001E+01 -0.47215511050E+01  0.20452658358E+02  0.21410071228E+02  0.51100000000E-03 0. -1.
        -11    1    3    3    0    0  0.87513947568E+01 -0.45274052934E+01  0.40636007933E+01  0.10658196871E+02  0.51100000000E-03 0.  1.
         12    1    3    3    0    0  0.17897373842E+02  0.23975007108E+01 -0.20386488163E+02  0.27233672168E+02  0.00000000000E+00 0. -1.
</event>
<event>
 7    1  0.3750159E-013  0.5930194E+02  0.7816164E-02  0.1266605E+00
        -11   -1    0    0    0    0  0.00000000000E+00  0.00000000000E+00  0.45593999997E+02  0.45594000000E+02  0.51100000000E-03 0.  1.
         11   -1    0    0    0    0 -0.00000000000E+00 -0.00000000000E+00 -0.45593999997E+02  0.45594000000E+02  0.51100000000E-03 0. -1.
    9900012    2    1    2    0    0 -0.14497833383E+02 -0.16750972086E+01 -0.28350096647E+02  0.59301935593E+02  0.49999984618E+02 0.  0.
        -12    1    1    2    0    0  0.14497833383E+02  0.16750972086E+01  0.28350096647E+02  0.31886064407E+02  0.00000000000E+00 0.  1.
         11    1    3    3    0    0 -0.30789822163E+01  0.21402479520E+01 -0.19168731352E+01  0.42113175684E+01  0.51100000000E-03 0. -1.
        -11    1    3    3    0    0 -0.23880684816E+02  0.10617330793E+02 -0.53741334674E+01  0.26681381734E+02  0.51100000000E-03 0.  1.
        -12    1    3    3    0    0  0.12461833650E+02 -0.14432675954E+02 -0.21059090045E+02  0.28409236291E+02  0.00000000000E+00 0.  1.
</event>
<event>
 7    1  0.3750159E-013  0.5930196E+02  0.7816164E-02  0.1266605E+00
        -11   -1    0    0    0    0  0.00000000000E+00  0.00000000000E+00  0.45593999997E+02  0.45594000000E+02  0.51100000000E-03 0. -1.
         11   -1    0    0    0    0 -0.00000000000E+00 -0.00000000000E+00 -0.45593999997E+02  0.45594000000E+02  0.51100000000E-03 0.  1.
    9900012    2    1    2    0    0  0.15043759646E+02  0.12396139270E+02  0.25233717077E+02  0.59301961509E+02  0.50000031882E+02 0.  0.
        -12    1    1    2    0    0 -0.15043759646E+02 -0.12396139270E+02 -0.25233717077E+02  0.31886038491E+02  0.00000000000E+00 0.  1.
         11    1    3    3    0    0  0.91449039990E+01 -0.35674176345E+00  0.14931554895E+00  0.91530775825E+01  0.51100000000E-03 0. -1.
        -11    1    3    3    0    0  0.12287611877E+02 -0.15787848783E+01 -0.71459728454E+01  0.14301849374E+02  0.51100000000E-03 0.  1.
         12    1    3    3    0    0 -0.63887562304E+01  0.14331665912E+02  0.32230374374E+02  0.35847034553E+02  0.00000000000E+00 0. -1.
</event>
<event>
 7    1  0.3750159E-013  0.5930195E+02  0.7816164E-02  0.1266605E+00
        -11   -1    0    0    0    0  0.00000000000E+00  0.00000000000E+00  0.45593999997E+02  0.45594000000E+02  0.51100000000E-03 0.  1.
         11   -1    0    0    0    0 -0.00000000000E+00 -0.00000000000E+00 -0.45593999997E+02  0.45594000000E+02  0.51100000000E-03 0. -1.
    9900012    2    1    2    0    0  0.34610689109E+01  0.17980920494E+02 -0.26104175350E+02  0.59301945517E+02  0.50000002716E+02 0.  0.
        -12    1    1    2    0    0 -0.34610689109E+01 -0.17980920494E+02  0.26104175350E+02  0.31886054483E+02  0.00000000000E+00 0.  1.
         11    1    3    3    0    0 -0.37243353860E+01  0.13803731103E+02 -0.19478678543E+02  0.24162627847E+02  0.51100000000E-03 0. -1.
        -11    1    3    3    0    0 -0.64329916863E+01  0.22218678326E+01 -0.16735234891E+02  0.18066216145E+02  0.51100000000E-03 0.  1.
        -12    1    3    3    0    0  0.13618395983E+02  0.19553215576E+01  0.10109738084E+02  0.17073101525E+02  0.00000000000E+00 0.  1.
</event>
<event>
 7    1  0.3750159E-013  0.5930198E+02  0.7816164E-02  0.1266605E+00
        -11   -1    0    0    0    0  0.00000000000E+00  0.00000000000E+00  0.45593999997E+02  0.45594000000E+02  0.51100000000E-03 0.  1.
         11   -1    0    0    0    0 -0.00000000000E+00 -0.00000000000E+00 -0.45593999997E+02  0.45594000000E+02  0.51100000000E-03 0. -1.
    9900012    2    1    2    0    0 -0.13174136741E+00 -0.20125897098E+02 -0.24731539668E+02  0.59301981996E+02  0.50000069246E+02 0.  0.
        -12    1    1    2    0    0  0.13174136741E+00  0.20125897098E+02  0.24731539668E+02  0.31886018004E+02  0.00000000000E+00 0.  1.
         11    1    3    3    0    0  0.39649480163E+01 -0.17799000511E+01 -0.17526597591E+01  0.46862216610E+01  0.51100000000E-03 0. -1.
        -11    1    3    3    0    0  0.19444626591E+02 -0.66491788545E+00 -0.48898510064E+01  0.20061063336E+02  0.51100000000E-03 0.  1.
         12    1    3    3    0    0 -0.23541315974E+02 -0.17681079162E+02 -0.18089028902E+02  0.34554697000E+02  0.00000000000E+00 0. -1.
</event>
<event>
 7    1  0.3750159E-013  0.5930195E+02  0.7816164E-02  0.1266605E+00
        -11   -1    0    0    0    0  0.00000000000E+00  0.00000000000E+00  0.45593999997E+02  0.45594000000E+02  0.51100000000E-03 0. -1.
         11   -1    0    0    0    0 -0.00000000000E+00 -0.00000000000E+00 -0.45593999997E+02  0.45594000000E+02  0.51100000000E-03 0.  1.
    9900012    2    1    2    0    0  0.19715124498E+02  0.24800796451E+02 -0.35992826594E+01  0.59301945458E+02  0.50000002609E+02 0.  0.
        -12    1    1    2    0    0 -0.19715124498E+02 -0.24800796451E+02  0.35992826594E+01  0.31886054542E+02  0.00000000000E+00 0.  1.
         11    1    3    3    0    0  0.15557210243E+01  0.20648432009E+01  0.85649588229E+01  0.89466398859E+01  0.51100000000E-03 0. -1.
        -11    1    3    3    0    0 -0.10219130303E+02 -0.19598821944E+01 -0.66116645112E+01  0.12328254955E+02  0.51100000000E-03 0.  1.
         12    1    3    3    0    0  0.28378533777E+02  0.24695835444E+02 -0.55525769710E+01  0.38027050617E+02  0.00000000000E+00 0. -1.
</event>
<event>
 7    1  0.3750159E-013  0.5930189E+02  0.7816164E-02  0.1266605E+00
        -11   -1    0    0    0    0  0.00000000000E+00  0.00000000000E+00  0.45593999997E+02  0.45594000000E+02  0.51100000000E-03 0.  1.
         11   -1    0    0    0    0 -0.00000000000E+00 -0.00000000000E+00 -0.45593999997E+02  0.45594000000E+02  0.51100000000E-03 0. -1.
    9900012    2    1    2    0    0  0.26189880187E+01  0.24699133667E+02 -0.19995447997E+02  0.59301886365E+02  0.49999894836E+02 0.  0.
        -12    1    1    2    0    0 -0.26189880187E+01 -0.24699133667E+02  0.19995447997E+02  0.31886113635E+02  0.00000000000E+00 0.  1.
         11    1    3    3    0    0  0.48493851611E+01 -0.17934540505E+01 -0.17384006463E+02  0.18136612000E+02  0.51100000000E-03 0. -1.
        -11    1    3    3    0    0  0.12699345347E+02  0.82462630357E+01  0.56825035558E+01  0.16172973543E+02  0.51100000000E-03 0.  1.
         12    1    3    3    0    0 -0.14929742489E+02  0.18246324682E+02 -0.82939450901E+01  0.24992300822E+02  0.00000000000E+00 0. -1.
</event>
<event>
 7    1  0.3750159E-013  0.5930183E+02  0.7816164E-02  0.1266605E+00
        -11   -1    0    0    0    0  0.00000000000E+00  0.00000000000E+00  0.45593999997E+02  0.45594000000E+02  0.51100000000E-03 0.  1.
         11   -1    0    0    0    0 -0.00000000000E+00 -0.00000000000E+00 -0.45593999997E+02  0.45594000000E+02  0.51100000000E-03 0. -1.
    9900012    2    1    2    0    0  0.10335688677E+00  0.65874052826E+01 -0.31198124447E+02  0.59301834348E+02  0.49999799970E+02 0.  0.
        -12    1    1    2    0    0 -0.10335688677E+00 -0.65874052826E+01  0.31198124447E+02  0.31886165652E+02  0.00000000000E+00 0.  1.
         11    1    3    3    0    0 -0.99004248093E+00 -0.50022463452E+01 -0.39312288276E+02  0.39641627897E+02  0.51100000000E-03 0. -1.
        -11    1    3    3    0    0 -0.50645628714E+01  0.94384064887E+01  0.23740719297E+01  0.10971304932E+02  0.51100000000E-03 0.  1.
        -12    1    3    3    0    0  0.61579622391E+01  0.21512451391E+01  0.57400918992E+01  0.86889015185E+01  0.00000000000E+00 0.  1.
</event>
<event>
 7    1  0.3750159E-013  0.5930195E+02  0.7816164E-02  0.1266605E+00
        -11   -1    0    0    0    0  0.00000000000E+00  0.00000000000E+00  0.45593999997E+02  0.45594000000E+02  0.51100000000E-03 0.  1.
         11   -1    0    0    0    0 -0.00000000000E+00 -0.00000000000E+00 -0.45593999997E+02  0.45594000000E+02  0.51100000000E-03 0. -1.
    9900012    2    1    2    0    0  0.26804098728E+02 -0.35658323152E+01 -0.16898086764E+02  0.59301949680E+02  0.50000010309E+02 0.  0.
        -12    1    1    2    0    0 -0.26804098728E+02  0.35658323152E+01  0.16898086764E+02  0.31886050320E+02  0.00000000000E+00 0.  1.
         11    1    3    3    0    0  0.12714680419E+02 -0.11715324278E+02 -0.65270923997E+01  0.18480120577E+02  0.51100000000E-03 0. -1.
        -11    1    3    3    0    0 -0.39215790932E+01 -0.80629384547E+01 -0.13687745199E+02  0.16362888743E+02  0.51100000000E-03 0.  1.
        -12    1    3    3    0    0  0.18010997402E+02  0.16212430417E+02  0.33167508353E+01  0.24458940360E+02  0.00000000000E+00 0.  1.
</event>
<event>
 7    1  0.3750159E-013  0.5930190E+02  0.7816164E-02  0.1266605E+00
        -11   -1    0    0    0    0  0.00000000000E+00  0.00000000000E+00  0.45593999997E+02  0.45594000000E+02  0.51100000000E-03 0. -1.
         11   -1    0    0    0    0 -0.00000000000E+00 -0.00000000000E+00 -0.45593999997E+02  0.45594000000E+02  0.51100000000E-03 0.  1.
    9900012    2    1    2    0    0  0.14323842392E+02 -0.26077951877E+02  0.11466976379E+02  0.59301896722E+02  0.49999913726E+02 0.  0.
        -12    1    1    2    0    0 -0.14323842392E+02  0.26077951877E+02 -0.11466976379E+02  0.31886103278E+02  0.00000000000E+00 0.  1.
         11    1    3    3    0    0  0.43040565581E+01  0.67875588619E+01 -0.86509113535E+01  0.11808222799E+02  0.51100000000E-03 0. -1.
        -11    1    3    3    0    0 -0.60609728244E+01  0.54457893192E-01  0.91898126548E+00  0.61304880775E+01  0.51100000000E-03 0.  1.
         12    1    3    3    0    0  0.16080758658E+02 -0.32919968632E+02  0.19198906467E+02  0.41363185846E+02  0.00000000000E+00 0. -1.
</event>
<event>
 7    1  0.3750159E-013  0.5930193E+02  0.7816164E-02  0.1266605E+00
        -11   -1    0    0    0    0  0.00000000000E+00  0.00000000000E+00  0.45593999997E+02  0.45594000000E+02  0.51100000000E-03 0. -1.
         11   -1    0    0    0    0 -0.00000000000E+00 -0.00000000000E+00 -0.45593999997E+02  0.45594000000E+02  0.51100000000E-03 0.  1.
    9900012    2    1    2    0    0 -0.10883098325E+02 -0.53656061421E+01  0.29487109858E+02  0.59301933981E+02  0.49999981677E+02 0.  0.
        -12    1    1    2    0    0  0.10883098325E+02  0.53656061421E+01 -0.29487109858E+02  0.31886066019E+02  0.00000000000E+00 0.  1.
         11    1    3    3    0    0 -0.39249521917E+01 -0.33385854718E+01  0.15873443429E+02  0.16688846851E+02  0.51100000000E-03 0. -1.
        -11    1    3    3    0    0 -0.41549459265E+01 -0.20784056857E+02  0.49663041858E+01  0.21769353978E+02  0.51100000000E-03 0.  1.
         12    1    3    3    0    0 -0.28032002072E+01  0.18757036187E+02  0.86473622428E+01  0.20843733151E+02  0.00000000000E+00 0. -1.
</event>
<event>
 7    1  0.3750159E-013  0.5930196E+02  0.7816164E-02  0.1266605E+00
        -11   -1    0    0    0    0  0.00000000000E+00  0.00000000000E+00  0.45593999997E+02  0.45594000000E+02  0.51100000000E-03 0.  1.
         11   -1    0    0    0    0 -0.00000000000E+00 -0.00000000000E+00 -0.45593999997E+02  0.45594000000E+02  0.51100000000E-03 0. -1.
    9900012    2    1    2    0    0 -0.15134333728E+02 -0.27995393653E+02  0.19823391827E+01  0.59301956159E+02  0.50000022124E+02 0.  0.
        -12    1    1    2    0    0  0.15134333728E+02  0.27995393653E+02 -0.19823391827E+01  0.31886043841E+02  0.00000000000E+00 0.  1.
         11    1    3    3    0    0  0.53531530055E+01  0.13776000993E+01  0.15074861975E+02  0.16056322523E+02  0.51100000000E-03 0. -1.
        -11    1    3    3    0    0  0.36437557865E+01 -0.77549596908E+01 -0.84635928756E+00  0.86100337016E+01  0.51100000000E-03 0.  1.
         12    1    3    3    0    0 -0.24131242520E+02 -0.21618034062E+02 -0.12246163504E+02  0.34635599935E+02  0.00000000000E+00 0. -1.
</event>
<event>
 7    1  0.3750159E-013  0.5930192E+02  0.7816164E-02  0.1266605E+00
        -11   -1    0    0    0    0  0.00000000000E+00  0.00000000000E+00  0.45593999997E+02  0.45594000000E+02  0.51100000000E-03 0.  1.
         11   -1    0    0    0    0 -0.00000000000E+00 -0.00000000000E+00 -0.45593999997E+02  0.45594000000E+02  0.51100000000E-03 0. -1.
    9900012    2    1    2    0    0  0.25533777443E+02 -0.17429840454E+02 -0.78069818887E+01  0.59301920044E+02  0.49999956259E+02 0.  0.
        -12    1    1    2    0    0 -0.25533777443E+02  0.17429840454E+02  0.78069818887E+01  0.31886079956E+02  0.00000000000E+00 0.  1.
         11    1    3    3    0    0 -0.59366552686E+01 -0.15623356594E+02 -0.10654809952E+02  0.19820648890E+02  0.51100000000E-03 0. -1.
        -11    1    3    3    0    0  0.12426158478E+02 -0.11534646213E+02  0.57436172681E+01  0.17901022802E+02  0.51100000000E-03 0.  1.
         12    1    3    3    0    0  0.19044274234E+02  0.97281623524E+01 -0.28957892052E+01  0.21580248353E+02  0.00000000000E+00 0. -1.
</event>
<event>
 7    1  0.3750159E-013  0.5930193E+02  0.7816164E-02  0.1266605E+00
        -11   -1    0    0    0    0  0.00000000000E+00  0.00000000000E+00  0.45593999997E+02  0.45594000000E+02  0.51100000000E-03 0. -1.
         11   -1    0    0    0    0 -0.00000000000E+00 -0.00000000000E+00 -0.45593999997E+02  0.45594000000E+02  0.51100000000E-03 0.  1.
    9900012    2    1    2    0    0 -0.18146454518E+02 -0.24291017030E+02  0.98678229226E+01  0.59301933306E+02  0.49999980447E+02 0.  0.
        -12    1    1    2    0    0  0.18146454518E+02  0.24291017030E+02 -0.98678229226E+01  0.31886066694E+02  0.00000000000E+00 0.  1.
         11    1    3    3    0    0  0.11338598643E+02 -0.16392353905E+01  0.47643466727E+01  0.12407655352E+02  0.51100000000E-03 0. -1.
        -11    1    3    3    0    0  0.48028599153E+01 -0.64999690695E+01 -0.20162936769E+01  0.83296159409E+01  0.51100000000E-03 0.  1.
         12    1    3    3    0    0 -0.34287913076E+02 -0.16151812570E+02  0.71197699268E+01  0.38564662014E+02  0.00000000000E+00 0. -1.
</event>
<event>
 7    1  0.3750159E-013  0.5930195E+02  0.7816164E-02  0.1266605E+00
        -11   -1    0    0    0    0  0.00000000000E+00  0.00000000000E+00  0.45593999997E+02  0.45594000000E+02  0.51100000000E-03 0. -1.
         11   -1    0    0    0    0 -0.00000000000E+00 -0.00000000000E+00 -0.45593999997E+02  0.45594000000E+02  0.51100000000E-03 0.  1.
    9900012    2    1    2    0    0 -0.28634447594E+02  0.17842408187E+01 -0.13914195736E+02  0.59301953721E+02  0.50000017679E+02 0.  0.
        -12    1    1    2    0    0  0.28634447594E+02 -0.17842408187E+01  0.13914195736E+02  0.31886046279E+02  0.00000000000E+00 0.  1.
         11    1    3    3    0    0 -0.63348075819E+01 -0.13548207580E+00  0.52207777644E-01  0.63364712897E+01  0.51100000000E-03 0.  1.
        -11    1    3    3    0    0 -0.65279278282E+01  0.32121069009E+01  0.16833349820E+02  0.18338297056E+02  0.51100000000E-03 0. -1.
        -12    1    3    3    0    0 -0.15771712184E+02 -0.12923840064E+01 -0.30799753334E+02  0.34627185376E+02  0.00000000000E+00 0.  1.
</event>
<event>
 7    1  0.3750159E-013  0.5930193E+02  0.7816164E-02  0.1266605E+00
        -11   -1    0    0    0    0  0.00000000000E+00  0.00000000000E+00  0.45593999997E+02  0.45594000000E+02  0.51100000000E-03 0. -1.
         11   -1    0    0    0    0 -0.00000000000E+00 -0.00000000000E+00 -0.45593999997E+02  0.45594000000E+02  0.51100000000E-03 0.  1.
    9900012    2    1    2    0    0 -0.25321063324E+02 -0.28375215700E+01  0.19170643762E+02  0.59301931588E+02  0.49999977313E+02 0.  0.
        -12    1    1    2    0    0  0.25321063324E+02  0.28375215700E+01 -0.19170643762E+02  0.31886068412E+02  0.00000000000E+00 0.  1.
         11    1    3    3    0    0 -0.25605254626E+02 -0.14454810543E+02  0.15228266135E+02  0.33112998989E+02  0.51100000000E-03 0. -1.
        -11    1    3    3    0    0 -0.50225245284E+01  0.62244839798E+01  0.12453773827E+02  0.14800893090E+02  0.51100000000E-03 0.  1.
        -12    1    3    3    0    0  0.53067158309E+01  0.53928049930E+01 -0.85113961995E+01  0.11388039509E+02  0.00000000000E+00 0.  1.
</event>
<event>
 7    1  0.3750159E-013  0.5930193E+02  0.7816164E-02  0.1266605E+00
        -11   -1    0    0    0    0  0.00000000000E+00  0.00000000000E+00  0.45593999997E+02  0.45594000000E+02  0.51100000000E-03 0.  1.
         11   -1    0    0    0    0 -0.00000000000E+00 -0.00000000000E+00 -0.45593999997E+02  0.45594000000E+02  0.51100000000E-03 0. -1.
    9900012    2    1    2    0    0  0.11911910693E+02 -0.22910488422E+02 -0.18706605280E+02  0.59301934436E+02  0.49999982507E+02 0.  0.
        -12    1    1    2    0    0 -0.11911910693E+02  0.22910488422E+02  0.18706605280E+02  0.31886065564E+02  0.00000000000E+00 0.  1.
         11    1    3    3    0    0  0.19691652641E+02 -0.90167284661E+01  0.12160545025E+01  0.21691965443E+02  0.51100000000E-03 0. -1.
        -11    1    3    3    0    0  0.11094678316E+01 -0.33774486692E+01 -0.23187379486E+02  0.23458317205E+02  0.51100000000E-03 0.  1.
        -12    1    3    3    0    0 -0.88892097802E+01 -0.10516311286E+02  0.32647197037E+01  0.14151651788E+02  0.00000000000E+00 0.  1.
</event>
<event>
 7    1  0.3750159E-013  0.5930194E+02  0.7816164E-02  0.1266605E+00
        -11   -1    0    0    0    0  0.00000000000E+00  0.00000000000E+00  0.45593999997E+02  0.45594000000E+02  0.51100000000E-03 0.  1.
         11   -1    0    0    0    0 -0.00000000000E+00 -0.00000000000E+00 -0.45593999997E+02  0.45594000000E+02  0.51100000000E-03 0. -1.
    9900012    2    1    2    0    0  0.16378181304E+02  0.14742017814E+02 -0.23046673670E+02  0.59301935970E+02  0.49999985305E+02 0.  0.
        -12    1    1    2    0    0 -0.16378181304E+02 -0.14742017814E+02  0.23046673670E+02  0.31886064030E+02  0.00000000000E+00 0.  1.
         11    1    3    3    0    0  0.32095539279E+02  0.17029696071E+02 -0.87613386472E+01  0.37375061807E+02  0.51100000000E-03 0. -1.
        -11    1    3    3    0    0  0.37664083837E+00  0.14796071454E-01 -0.31914591752E+00  0.49389434361E+00  0.51100000000E-03 0.  1.
        -12    1    3    3    0    0 -0.16093998813E+02 -0.23024743280E+01 -0.13966189105E+02  0.21432979820E+02  0.00000000000E+00 0.  1.
</event>
<event>
 7    1  0.3750159E-013  0.5930198E+02  0.7816164E-02  0.1266605E+00
        -11   -1    0    0    0    0  0.00000000000E+00  0.00000000000E+00  0.45593999997E+02  0.45594000000E+02  0.51100000000E-03 0. -1.
         11   -1    0    0    0    0 -0.00000000000E+00 -0.00000000000E+00 -0.45593999997E+02  0.45594000000E+02  0.51100000000E-03 0.  1.
    9900012    2    1    2    0    0  0.22152959435E+02  0.44097676054E+01  0.22505963952E+02  0.59301983072E+02  0.50000071208E+02 0.  0.
        -12    1    1    2    0    0 -0.22152959435E+02 -0.44097676054E+01 -0.22505963952E+02  0.31886016928E+02  0.00000000000E+00 0.  1.
         11    1    3    3    0    0  0.60023429855E+01  0.61809358228E+01 -0.12892720533E+02  0.15506589952E+02  0.51100000000E-03 0.  1.
        -11    1    3    3    0    0 -0.16891151954E+01 -0.21732776443E+00  0.20302842890E+02  0.20374144674E+02  0.51100000000E-03 0. -1.
        -12    1    3    3    0    0  0.17839731645E+02 -0.15538404530E+01  0.15095841595E+02  0.23421248446E+02  0.00000000000E+00 0.  1.
</event>
<event>
 7    1  0.3750159E-013  0.5930194E+02  0.7816164E-02  0.1266605E+00
        -11   -1    0    0    0    0  0.00000000000E+00  0.00000000000E+00  0.45593999997E+02  0.45594000000E+02  0.51100000000E-03 0. -1.
         11   -1    0    0    0    0 -0.00000000000E+00 -0.00000000000E+00 -0.45593999997E+02  0.45594000000E+02  0.51100000000E-03 0.  1.
    9900012    2    1    2    0    0 -0.26406746794E+02  0.17089060072E+02  0.52315276920E+01  0.59301935138E+02  0.49999983788E+02 0.  0.
        -12    1    1    2    0    0  0.26406746794E+02 -0.17089060072E+02 -0.52315276920E+01  0.31886064862E+02  0.00000000000E+00 0.  1.
         11    1    3    3    0    0 -0.64798577900E-01  0.19447476966E+02 -0.52677514081E+01  0.20148393592E+02  0.51100000000E-03 0. -1.
        -11    1    3    3    0    0 -0.29974181904E+01 -0.10151660607E+02  0.99636888517E+01  0.14536706115E+02  0.51100000000E-03 0.  1.
         12    1    3    3    0    0 -0.23344530026E+02  0.77932437132E+01  0.53559024840E+00  0.24616835430E+02  0.00000000000E+00 0. -1.
</event>
<event>
 7    1  0.3750159E-013  0.5930211E+02  0.7816164E-02  0.1266604E+00
        -11   -1    0    0    0    0  0.00000000000E+00  0.00000000000E+00  0.45593999997E+02  0.45594000000E+02  0.51100000000E-03 0.  1.
         11   -1    0    0    0    0 -0.00000000000E+00 -0.00000000000E+00 -0.45593999997E+02  0.45594000000E+02  0.51100000000E-03 0. -1.
    9900012    2    1    2    0    0 -0.30800484392E+02 -0.82167328119E+01 -0.72472549090E+00  0.59302113406E+02  0.50000308904E+02 0.  0.
        -12    1    1    2    0    0  0.30800484392E+02  0.82167328119E+01  0.72472549090E+00  0.31885886594E+02  0.00000000000E+00 0.  1.
         11    1    3    3    0    0  0.13508000828E+00 -0.22601184324E+01  0.29682552065E+01  0.37332186072E+01  0.51100000000E-03 0. -1.
        -11    1    3    3    0    0 -0.22514438746E+02  0.15175596473E+02  0.10096035789E+02  0.28967716846E+02  0.51100000000E-03 0.  1.
         12    1    3    3    0    0 -0.84211256541E+01 -0.21132210853E+02 -0.13789016487E+02  0.26601177953E+02  0.00000000000E+00 0. -1.
</event>
<event>
 7    1  0.3750159E-013  0.5930196E+02  0.7816164E-02  0.1266605E+00
        -11   -1    0    0    0    0  0.00000000000E+00  0.00000000000E+00  0.45593999997E+02  0.45594000000E+02  0.51100000000E-03 0.  1.
         11   -1    0    0    0    0 -0.00000000000E+00 -0.00000000000E+00 -0.45593999997E+02  0.45594000000E+02  0.51100000000E-03 0. -1.
    9900012    2    1    2    0    0  0.26574670092E+01  0.31626140112E+02 -0.30732568950E+01  0.59301956388E+02  0.50000022542E+02 0.  0.
        -12    1    1    2    0    0 -0.26574670092E+01 -0.31626140112E+02  0.30732568950E+01  0.31886043612E+02  0.00000000000E+00 0.  1.
         11    1    3    3    0    0 -0.41268993740E+01  0.16767394541E+02 -0.16236820738E+01  0.17343966152E+02  0.51100000000E-03 0. -1.
        -11    1    3    3    0    0 -0.17585404479E+01  0.26982504163E+02  0.15477624804E+00  0.27040191408E+02  0.51100000000E-03 0.  1.
        -12    1    3    3    0    0  0.85429068311E+01 -0.12123758592E+02 -0.16043510692E+01  0.14917798828E+02  0.00000000000E+00 0.  1.
</event>
<event>
 7    1  0.3750159E-013  0.5930193E+02  0.7816164E-02  0.1266605E+00
        -11   -1    0    0    0    0  0.00000000000E+00  0.00000000000E+00  0.45593999997E+02  0.45594000000E+02  0.51100000000E-03 0. -1.
         11   -1    0    0    0    0 -0.00000000000E+00 -0.00000000000E+00 -0.45593999997E+02  0.45594000000E+02  0.51100000000E-03 0.  1.
    9900012    2    1    2    0    0 -0.29353982233E+01 -0.31742825253E+02 -0.70545447152E+00  0.59301934332E+02  0.49999982318E+02 0.  0.
        -12    1    1    2    0    0  0.29353982233E+01  0.31742825253E+02  0.70545447152E+00  0.31886065668E+02  0.00000000000E+00 0.  1.
         11    1    3    3    0    0  0.91840518742E+01 -0.32473839380E+01 -0.13309487177E+02  0.16493476299E+02  0.51100000000E-03 0.  1.
        -11    1    3    3    0    0  0.69986622517E+01 -0.14792988610E+01  0.53336943904E+01  0.89228859986E+01  0.51100000000E-03 0. -1.
         12    1    3    3    0    0 -0.19118112349E+02 -0.27016142454E+02  0.72703383149E+01  0.33885572034E+02  0.00000000000E+00 0. -1.
</event>
<event>
 7    1  0.3750159E-013  0.5930195E+02  0.7816164E-02  0.1266605E+00
        -11   -1    0    0    0    0  0.00000000000E+00  0.00000000000E+00  0.45593999997E+02  0.45594000000E+02  0.51100000000E-03 0.  1.
         11   -1    0    0    0    0 -0.00000000000E+00 -0.00000000000E+00 -0.45593999997E+02  0.45594000000E+02  0.51100000000E-03 0. -1.
    9900012    2    1    2    0    0  0.21647186830E+02  0.22463740058E+02 -0.65954481247E+01  0.59301948959E+02  0.50000008993E+02 0.  0.
        -12    1    1    2    0    0 -0.21647186830E+02 -0.22463740058E+02  0.65954481247E+01  0.31886051041E+02  0.00000000000E+00 0.  1.
         11    1    3    3    0    0  0.12896926437E+02  0.27603754051E+02  0.10817293577E+02  0.32331281908E+02  0.51100000000E-03 0. -1.
        -11    1    3    3    0    0 -0.25227835298E+00  0.54176211426E+01 -0.96560137777E+01  0.11074875419E+02  0.51100000000E-03 0.  1.
        -12    1    3    3    0    0  0.90025387461E+01 -0.10557635135E+02 -0.77567279241E+01  0.15895791632E+02  0.00000000000E+00 0.  1.
</event>
<event>
 7    1  0.3750159E-013  0.5930194E+02  0.7816164E-02  0.1266605E+00
        -11   -1    0    0    0    0  0.00000000000E+00  0.00000000000E+00  0.45593999997E+02  0.45594000000E+02  0.51100000000E-03 0. -1.
         11   -1    0    0    0    0 -0.00000000000E+00 -0.00000000000E+00 -0.45593999997E+02  0.45594000000E+02  0.51100000000E-03 0.  1.
    9900012    2    1    2    0    0 -0.21725269143E+02 -0.16899783541E+02  0.16097535125E+02  0.59301942856E+02  0.49999997863E+02 0.  0.
        -12    1    1    2    0    0  0.21725269143E+02  0.16899783541E+02 -0.16097535125E+02  0.31886057144E+02  0.00000000000E+00 0.  1.
         11    1    3    3    0    0 -0.45846112614E+01  0.23151523002E+00 -0.20109224172E+01  0.50115934540E+01  0.51100000000E-03 0. -1.
        -11    1    3    3    0    0 -0.14583053288E+02  0.65129549014E+01 -0.89160399997E+01  0.18291522471E+02  0.51100000000E-03 0.  1.
         12    1    3    3    0    0 -0.25576045934E+01 -0.23644253673E+02  0.27024497542E+02  0.35998826931E+02  0.00000000000E+00 0. -1.
</event>
<event>
 7    1  0.3750159E-013  0.5930195E+02  0.7816164E-02  0.1266605E+00
        -11   -1    0    0    0    0  0.00000000000E+00  0.00000000000E+00  0.45593999997E+02  0.45594000000E+02  0.51100000000E-03 0.  1.
         11   -1    0    0    0    0 -0.00000000000E+00 -0.00000000000E+00 -0.45593999997E+02  0.45594000000E+02  0.51100000000E-03 0. -1.
    9900012    2    1    2    0    0  0.22100395404E+02 -0.46256555304E+01 -0.22514355886E+02  0.59301946825E+02  0.50000005102E+02 0.  0.
        -12    1    1    2    0    0 -0.22100395404E+02  0.46256555304E+01  0.22514355886E+02  0.31886053175E+02  0.00000000000E+00 0.  1.
         11    1    3    3    0    0 -0.16774537966E+01 -0.76076011683E+01  0.51727580512E+01  0.93513032724E+01  0.51100000000E-03 0. -1.
        -11    1    3    3    0    0 -0.52488719692E+01  0.97212690790E+01 -0.11863956572E+02  0.16211329225E+02  0.51100000000E-03 0.  1.
         12    1    3    3    0    0  0.29026721169E+02 -0.67393234411E+01 -0.15823157366E+02  0.33739314328E+02  0.00000000000E+00 0. -1.
</event>
<event>
 7    1  0.3750159E-013  0.5930198E+02  0.7816164E-02  0.1266605E+00
        -11   -1    0    0    0    0  0.00000000000E+00  0.00000000000E+00  0.45593999997E+02  0.45594000000E+02  0.51100000000E-03 0.  1.
         11   -1    0    0    0    0 -0.00000000000E+00 -0.00000000000E+00 -0.45593999997E+02  0.45594000000E+02  0.51100000000E-03 0. -1.
    9900012    2    1    2    0    0 -0.13348944668E+02  0.28136045462E+02 -0.68473961065E+01  0.59301980941E+02  0.50000067321E+02 0.  0.
        -12    1    1    2    0    0  0.13348944668E+02 -0.28136045462E+02  0.68473961065E+01  0.31886019059E+02  0.00000000000E+00 0.  1.
         11    1    3    3    0    0 -0.73468173720E+01  0.12926415948E+02 -0.43351968497E+01  0.15487475158E+02  0.51100000000E-03 0. -1.
        -11    1    3    3    0    0 -0.16590894650E+02  0.23589731613E+02 -0.68297126816E+01  0.29637445882E+02  0.51100000000E-03 0.  1.
         12    1    3    3    0    0  0.10588767354E+02 -0.83801020990E+01  0.43175134247E+01  0.14177059901E+02  0.00000000000E+00 0. -1.
</event>
<event>
 7    1  0.3750159E-013  0.5930192E+02  0.7816164E-02  0.1266605E+00
        -11   -1    0    0    0    0  0.00000000000E+00  0.00000000000E+00  0.45593999997E+02  0.45594000000E+02  0.51100000000E-03 0. -1.
         11   -1    0    0    0    0 -0.00000000000E+00 -0.00000000000E+00 -0.45593999997E+02  0.45594000000E+02  0.51100000000E-03 0.  1.
    9900012    2    1    2    0    0 -0.29657378258E+02 -0.77613180169E+01 -0.87706392596E+01  0.59301917526E+02  0.49999951667E+02 0.  0.
        -12    1    1    2    0    0  0.29657378258E+02  0.77613180169E+01  0.87706392596E+01  0.31886082474E+02  0.00000000000E+00 0.  1.
         11    1    3    3    0    0 -0.14706397310E+02 -0.48227151765E+01 -0.10031271472E+01  0.15509447696E+02  0.51100000000E-03 0. -1.
        -11    1    3    3    0    0 -0.21852142726E+00 -0.18081653876E+02  0.54316498894E+01  0.18881122300E+02  0.51100000000E-03 0.  1.
        -12    1    3    3    0    0 -0.14732459521E+02  0.15143051036E+02 -0.13199162002E+02  0.24911347530E+02  0.00000000000E+00 0.  1.
</event>
<event>
 7    1  0.3750159E-013  0.5930193E+02  0.7816164E-02  0.1266605E+00
        -11   -1    0    0    0    0  0.00000000000E+00  0.00000000000E+00  0.45593999997E+02  0.45594000000E+02  0.51100000000E-03 0.  1.
         11   -1    0    0    0    0 -0.00000000000E+00 -0.00000000000E+00 -0.45593999997E+02  0.45594000000E+02  0.51100000000E-03 0. -1.
    9900012    2    1    2    0    0 -0.83103194858E+01 -0.21795014742E+02 -0.21740220027E+02  0.59301933382E+02  0.49999980584E+02 0.  0.
        -12    1    1    2    0    0  0.83103194858E+01  0.21795014742E+02  0.21740220027E+02  0.31886066618E+02  0.00000000000E+00 0.  1.
         11    1    3    3    0    0  0.53195156374E+01 -0.27935261052E+02 -0.19928655776E+02  0.34725025241E+02  0.51100000000E-03 0. -1.
        -11    1    3    3    0    0  0.21141372987E+01 -0.65696155695E+00  0.55044017457E+01  0.59329262463E+01  0.51100000000E-03 0.  1.
        -12    1    3    3    0    0 -0.15743972422E+02  0.67972078671E+01 -0.73159659968E+01  0.18643981894E+02  0.00000000000E+00 0.  1.
</event>
<event>
 7    1  0.3750159E-013  0.5930194E+02  0.7816164E-02  0.1266605E+00
        -11   -1    0    0    0    0  0.00000000000E+00  0.00000000000E+00  0.45593999997E+02  0.45594000000E+02  0.51100000000E-03 0.  1.
         11   -1    0    0    0    0 -0.00000000000E+00 -0.00000000000E+00 -0.45593999997E+02  0.45594000000E+02  0.51100000000E-03 0. -1.
    9900012    2    1    2    0    0 -0.49051706846E+01 -0.31476760871E+02 -0.13687755675E+01  0.59301941590E+02  0.49999995553E+02 0.  0.
        -12    1    1    2    0    0  0.49051706846E+01  0.31476760871E+02  0.13687755675E+01  0.31886058410E+02  0.00000000000E+00 0.  1.
         11    1    3    3    0    0 -0.55519494225E+00 -0.53015512953E+01 -0.13181781648E+02  0.14218792327E+02  0.51100000000E-03 0. -1.
        -11    1    3    3    0    0  0.14298334604E+02 -0.77346390363E+01 -0.15082564093E+00  0.16256991176E+02  0.51100000000E-03 0.  1.
        -12    1    3    3    0    0 -0.18648310346E+02 -0.18440570540E+02  0.11963831721E+02  0.28826158087E+02  0.00000000000E+00 0.  1.
</event>
<event>
 7    1  0.3750159E-013  0.5930198E+02  0.7816164E-02  0.1266605E+00
        -11   -1    0    0    0    0  0.00000000000E+00  0.00000000000E+00  0.45593999997E+02  0.45594000000E+02  0.51100000000E-03 0. -1.
         11   -1    0    0    0    0 -0.00000000000E+00 -0.00000000000E+00 -0.45593999997E+02  0.45594000000E+02  0.51100000000E-03 0.  1.
    9900012    2    1    2    0    0  0.15696175272E+02  0.61701777378E+01  0.27060616375E+02  0.59301984725E+02  0.50000074222E+02 0.  0.
        -12    1    1    2    0    0 -0.15696175272E+02 -0.61701777378E+01 -0.27060616375E+02  0.31886015275E+02  0.00000000000E+00 0.  1.
         11    1    3    3    0    0  0.47503982949E+01  0.20981485912E+02  0.24756023009E+02  0.32797099117E+02  0.51100000000E-03 0. -1.
        -11    1    3    3    0    0 -0.41479844019E+00  0.37995631037E+01 -0.19477488460E+01  0.42898092444E+01  0.51100000000E-03 0.  1.
         12    1    3    3    0    0  0.11360575418E+02 -0.18610871278E+02  0.42523422127E+01  0.22215076363E+02  0.00000000000E+00 0. -1.
</event>
<event>
 7    1  0.3750159E-013  0.5930196E+02  0.7816164E-02  0.1266605E+00
        -11   -1    0    0    0    0  0.00000000000E+00  0.00000000000E+00  0.45593999997E+02  0.45594000000E+02  0.51100000000E-03 0.  1.
         11   -1    0    0    0    0 -0.00000000000E+00 -0.00000000000E+00 -0.45593999997E+02  0.45594000000E+02  0.51100000000E-03 0. -1.
    9900012    2    1    2    0    0 -0.19136600682E+02 -0.12976293005E+02 -0.21957364415E+02  0.59301960455E+02  0.50000029960E+02 0.  0.
        -12    1    1    2    0    0  0.19136600682E+02  0.12976293005E+02  0.21957364415E+02  0.31886039545E+02  0.00000000000E+00 0.  1.
         11    1    3    3    0    0 -0.14664323246E+02  0.69211156800E+01  0.26417552978E+01  0.16429336256E+02  0.51100000000E-03 0. -1.
        -11    1    3    3    0    0  0.18263136049E+01 -0.62456773623E+01  0.59543717351E+01  0.88203429705E+01  0.51100000000E-03 0.  1.
         12    1    3    3    0    0 -0.62985910412E+01 -0.13651731323E+02 -0.30553491447E+02  0.34052281228E+02  0.00000000000E+00 0. -1.
</event>
<event>
 7    1  0.3750159E-013  0.5930195E+02  0.7816164E-02  0.1266605E+00
        -11   -1    0    0    0    0  0.00000000000E+00  0.00000000000E+00  0.45593999997E+02  0.45594000000E+02  0.51100000000E-03 0. -1.
         11   -1    0    0    0    0 -0.00000000000E+00 -0.00000000000E+00 -0.45593999997E+02  0.45594000000E+02  0.51100000000E-03 0.  1.
    9900012    2    1    2    0    0 -0.38236809139E+01 -0.85518046034E+01  0.30478948936E+02  0.59301949352E+02  0.50000009710E+02 0.  0.
        -12    1    1    2    0    0  0.38236809139E+01  0.85518046034E+01 -0.30478948936E+02  0.31886050648E+02  0.00000000000E+00 0.  1.
         11    1    3    3    0    0  0.34365278700E+01 -0.22538880772E+02  0.14788825803E+02  0.27175728861E+02  0.51100000000E-03 0. -1.
        -11    1    3    3    0    0  0.76140643204E+01  0.35495349437E+01  0.45439129686E+00  0.84130639783E+01  0.51100000000E-03 0.  1.
         12    1    3    3    0    0 -0.14874273104E+02  0.10437541225E+02  0.15235731836E+02  0.23713156512E+02  0.00000000000E+00 0. -1.
</event>
<event>
 7    1  0.3750159E-013  0.5930194E+02  0.7816164E-02  0.1266605E+00
        -11   -1    0    0    0    0  0.00000000000E+00  0.00000000000E+00  0.45593999997E+02  0.45594000000E+02  0.51100000000E-03 0.  1.
         11   -1    0    0    0    0 -0.00000000000E+00 -0.00000000000E+00 -0.45593999997E+02  0.45594000000E+02  0.51100000000E-03 0. -1.
    9900012    2    1    2    0    0 -0.22960465122E+02  0.18863217198E+02 -0.11563604092E+02  0.59301939389E+02  0.49999991539E+02 0.  0.
        -12    1    1    2    0    0  0.22960465122E+02 -0.18863217198E+02  0.11563604092E+02  0.31886060611E+02  0.00000000000E+00 0.  1.
         11    1    3    3    0    0 -0.10306026319E+02 -0.11882979813E+01 -0.86251197001E+01  0.13491438792E+02  0.51100000000E-03 0. -1.
        -11    1    3    3    0    0 -0.87040947269E+01  0.41903350265E+01 -0.19982611407E+02  0.22195155588E+02  0.51100000000E-03 0.  1.
        -12    1    3    3    0    0 -0.39503440762E+01  0.15861180153E+02  0.17044127015E+02  0.23615345008E+02  0.00000000000E+00 0.  1.
</event>
<event>
 7    1  0.3750159E-013  0.5930196E+02  0.7816164E-02  0.1266605E+00
        -11   -1    0    0    0    0  0.00000000000E+00  0.00000000000E+00  0.45593999997E+02  0.45594000000E+02  0.51100000000E-03 0.  1.
         11   -1    0    0    0    0 -0.00000000000E+00 -0.00000000000E+00 -0.45593999997E+02  0.45594000000E+02  0.51100000000E-03 0. -1.
    9900012    2    1    2    0    0  0.49315892375E+01  0.29464641597E+02 -0.11146031589E+02  0.59301957645E+02  0.50000024835E+02 0.  0.
        -12    1    1    2    0    0 -0.49315892375E+01 -0.29464641597E+02  0.11146031589E+02  0.31886042355E+02  0.00000000000E+00 0.  1.
         11    1    3    3    0    0  0.18372788917E+02  0.30710924832E+02 -0.80355338806E+01  0.36678196270E+02  0.51100000000E-03 0. -1.
        -11    1    3    3    0    0  0.24755461125E+01 -0.50573515074E+01 -0.27179988559E+01  0.62524116040E+01  0.51100000000E-03 0.  1.
        -12    1    3    3    0    0 -0.15916745792E+02  0.38110682730E+01 -0.39249885215E+00  0.16371349771E+02  0.00000000000E+00 0.  1.
</event>
<event>
 7    1  0.3750159E-013  0.5930196E+02  0.7816164E-02  0.1266605E+00
        -11   -1    0    0    0    0  0.00000000000E+00  0.00000000000E+00  0.45593999997E+02  0.45594000000E+02  0.51100000000E-03 0. -1.
         11   -1    0    0    0    0 -0.00000000000E+00 -0.00000000000E+00 -0.45593999997E+02  0.45594000000E+02  0.51100000000E-03 0.  1.
    9900012    2    1    2    0    0 -0.31549991694E+02  0.15448025420E+01 -0.43509811230E+01  0.59301961872E+02  0.50000032544E+02 0.  0.
        -12    1    1    2    0    0  0.31549991694E+02 -0.15448025420E+01  0.43509811230E+01  0.31886038128E+02  0.00000000000E+00 0.  1.
         11    1    3    3    0    0 -0.41628923328E+01  0.78800233661E+01 -0.51824217571E+01  0.10309313088E+02  0.51100000000E-03 0. -1.
        -11    1    3    3    0    0 -0.16868198652E+01  0.11737895618E+02 -0.10252541514E+02  0.15676037846E+02  0.51100000000E-03 0.  1.
        -12    1    3    3    0    0 -0.25700279496E+02 -0.18073116442E+02  0.11083982148E+02  0.33316610937E+02  0.00000000000E+00 0.  1.
</event>
<event>
 7    1  0.3750159E-013  0.5930195E+02  0.7816164E-02  0.1266605E+00
        -11   -1    0    0    0    0  0.00000000000E+00  0.00000000000E+00  0.45593999997E+02  0.45594000000E+02  0.51100000000E-03 0. -1.
         11   -1    0    0    0    0 -0.00000000000E+00 -0.00000000000E+00 -0.45593999997E+02  0.45594000000E+02  0.51100000000E-03 0.  1.
    9900012    2    1    2    0    0 -0.19406286140E+02  0.23922257810E+02  0.82366104109E+01  0.59301951146E+02  0.50000012982E+02 0.  0.
        -12    1    1    2    0    0  0.19406286140E+02 -0.23922257810E+02 -0.82366104109E+01  0.31886048854E+02  0.00000000000E+00 0.  1.
         11    1    3    3    0    0 -0.23676092968E+02  0.74316774932E+01  0.20007814091E+02  0.31876320891E+02  0.51100000000E-03 0. -1.
        -11    1    3    3    0    0  0.60393865608E+01  0.10567479280E+02  0.19961262357E+01  0.12334112395E+02  0.51100000000E-03 0.  1.
        -12    1    3    3    0    0 -0.17695797328E+01  0.59231010363E+01 -0.13767329916E+02  0.15091517860E+02  0.00000000000E+00 0.  1.
</event>
<event>
 7    1  0.3750159E-013  0.5930195E+02  0.7816164E-02  0.1266605E+00
        -11   -1    0    0    0    0  0.00000000000E+00  0.00000000000E+00  0.45593999997E+02  0.45594000000E+02  0.51100000000E-03 0. -1.
         11   -1    0    0    0    0 -0.00000000000E+00 -0.00000000000E+00 -0.45593999997E+02  0.45594000000E+02  0.51100000000E-03 0.  1.
    9900012    2    1    2    0    0  0.88848937716E+01 -0.25077817765E+02 -0.17575029088E+02  0.59301954014E+02  0.50000018212E+02 0.  0.
        -12    1    1    2    0    0 -0.88848937716E+01  0.25077817765E+02  0.17575029088E+02  0.31886045986E+02  0.00000000000E+00 0.  1.
         11    1    3    3    0    0  0.59321512991E+01  0.35125932168E+01 -0.16583662580E+02  0.17959582261E+02  0.51100000000E-03 0.  1.
        -11    1    3    3    0    0 -0.33638000267E+01 -0.25735849755E+02 -0.11792705951E+02  0.28508192281E+02  0.51100000000E-03 0. -1.
         12    1    3    3    0    0  0.63165424993E+01 -0.28545612275E+01  0.10801339444E+02  0.12834179472E+02  0.00000000000E+00 0. -1.
</event>
<event>
 7    1  0.3750159E-013  0.5930193E+02  0.7816164E-02  0.1266605E+00
        -11   -1    0    0    0    0  0.00000000000E+00  0.00000000000E+00  0.45593999997E+02  0.45594000000E+02  0.51100000000E-03 0.  1.
         11   -1    0    0    0    0 -0.00000000000E+00 -0.00000000000E+00 -0.45593999997E+02  0.45594000000E+02  0.51100000000E-03 0. -1.
    9900012    2    1    2    0    0  0.62705035156E+01  0.11807028768E+02 -0.28948169304E+02  0.59301927042E+02  0.49999969021E+02 0.  0.
        -12    1    1    2    0    0 -0.62705035156E+01 -0.11807028768E+02  0.28948169304E+02  0.31886072958E+02  0.00000000000E+00 0.  1.
         11    1    3    3    0    0  0.10403678682E+02  0.12582905296E+02 -0.66117530772E+01  0.17614803854E+02  0.51100000000E-03 0. -1.
        -11    1    3    3    0    0  0.59845939364E+01  0.58825144038E+01  0.63664597041E+01  0.10533335166E+02  0.51100000000E-03 0.  1.
        -12    1    3    3    0    0 -0.10117769102E+02 -0.66583909314E+01 -0.28702875931E+02  0.31153788022E+02  0.00000000000E+00 0.  1.
</event>
<event>
 7    1  0.3750159E-013  0.5930193E+02  0.7816164E-02  0.1266605E+00
        -11   -1    0    0    0    0  0.00000000000E+00  0.00000000000E+00  0.45593999997E+02  0.45594000000E+02  0.51100000000E-03 0.  1.
         11   -1    0    0    0    0 -0.00000000000E+00 -0.00000000000E+00 -0.45593999997E+02  0.45594000000E+02  0.51100000000E-03 0. -1.
    9900012    2    1    2    0    0  0.19017980077E+02  0.25266437976E+02 -0.40797933273E+01  0.59301934582E+02  0.49999982774E+02 0.  0.
        -12    1    1    2    0    0 -0.19017980077E+02 -0.25266437976E+02  0.40797933273E+01  0.31886065418E+02  0.00000000000E+00 0.  1.
         11    1    3    3    0    0  0.20015188953E+02  0.11691250412E+02 -0.14593077303E+02  0.27390710660E+02  0.51100000000E-03 0. -1.
        -11    1    3    3    0    0 -0.97998686368E+01  0.10909162548E+02 -0.35679650155E+01  0.15092303582E+02  0.51100000000E-03 0.  1.
        -12    1    3    3    0    0  0.88026597609E+01  0.26660250166E+01  0.14081248992E+02  0.16818920340E+02  0.00000000000E+00 0.  1.
</event>
<event>
 7    1  0.3750159E-013  0.5930204E+02  0.7816164E-02  0.1266604E+00
        -11   -1    0    0    0    0  0.00000000000E+00  0.00000000000E+00  0.45593999997E+02  0.45594000000E+02  0.51100000000E-03 0. -1.
         11   -1    0    0    0    0 -0.00000000000E+00 -0.00000000000E+00 -0.45593999997E+02  0.45594000000E+02  0.51100000000E-03 0.  1.
    9900012    2    1    2    0    0 -0.28093532137E+02 -0.13511493352E+02  0.67013005213E+01  0.59302040250E+02  0.50000175485E+02 0.  0.
        -12    1    1    2    0    0  0.28093532137E+02  0.13511493352E+02 -0.67013005213E+01  0.31885959750E+02  0.00000000000E+00 0.  1.
         11    1    3    3    0    0 -0.70968006241E+01 -0.17033617931E+02  0.70954699116E+00  0.18466514996E+02  0.51100000000E-03 0. -1.
        -11    1    3    3    0    0  0.26732949763E+01 -0.11766725259E+02  0.34099986629E+01  0.12539155494E+02  0.51100000000E-03 0.  1.
         12    1    3    3    0    0 -0.23670026489E+02  0.15288849838E+02  0.25817548672E+01  0.28296369759E+02  0.00000000000E+00 0. -1.
</event>
<event>
 7    1  0.3750159E-013  0.5930179E+02  0.7816164E-02  0.1266605E+00
        -11   -1    0    0    0    0  0.00000000000E+00  0.00000000000E+00  0.45593999997E+02  0.45594000000E+02  0.51100000000E-03 0.  1.
         11   -1    0    0    0    0 -0.00000000000E+00 -0.00000000000E+00 -0.45593999997E+02  0.45594000000E+02  0.51100000000E-03 0. -1.
    9900012    2    1    2    0    0 -0.96887844283E+01 -0.14483517804E+02 -0.26703663483E+02  0.59301788637E+02  0.49999716603E+02 0.  0.
        -12    1    1    2    0    0  0.96887844283E+01  0.14483517804E+02  0.26703663483E+02  0.31886211363E+02  0.00000000000E+00 0.  1.
         11    1    3    3    0    0 -0.88217855918E+01 -0.18967559683E+01  0.99525289901E+01  0.13434076738E+02  0.51100000000E-03 0. -1.
        -11    1    3    3    0    0 -0.33959821066E+01 -0.40374111089E+01  0.24078166489E+01  0.57992210000E+01  0.51100000000E-03 0.  1.
         12    1    3    3    0    0  0.25289832701E+01 -0.85493507267E+01 -0.39064009122E+02  0.40068490899E+02  0.00000000000E+00 0. -1.
</event>
<event>
 7    1  0.3750159E-013  0.5930194E+02  0.7816164E-02  0.1266605E+00
        -11   -1    0    0    0    0  0.00000000000E+00  0.00000000000E+00  0.45593999997E+02  0.45594000000E+02  0.51100000000E-03 0. -1.
         11   -1    0    0    0    0 -0.00000000000E+00 -0.00000000000E+00 -0.45593999997E+02  0.45594000000E+02  0.51100000000E-03 0.  1.
    9900012    2    1    2    0    0 -0.17325802683E+02 -0.10916800547E+02  0.24440960445E+02  0.59301944736E+02  0.50000001292E+02 0.  0.
        -12    1    1    2    0    0  0.17325802683E+02  0.10916800547E+02 -0.24440960445E+02  0.31886055264E+02  0.00000000000E+00 0.  1.
         11    1    3    3    0    0  0.33600652992E+01 -0.55369944241E+01  0.57649039637E+00  0.65023601489E+01  0.51100000000E-03 0. -1.
        -11    1    3    3    0    0 -0.15694447215E+02 -0.16162742014E+02 -0.36559693748E+01  0.22823584625E+02  0.51100000000E-03 0.  1.
         12    1    3    3    0    0 -0.49914207681E+01  0.10782935891E+02  0.27520439423E+02  0.29975999963E+02  0.00000000000E+00 0. -1.
</event>
<event>
 7    1  0.3750159E-013  0.5930188E+02  0.7816164E-02  0.1266605E+00
        -11   -1    0    0    0    0  0.00000000000E+00  0.00000000000E+00  0.45593999997E+02  0.45594000000E+02  0.51100000000E-03 0. -1.
         11   -1    0    0    0    0 -0.00000000000E+00 -0.00000000000E+00 -0.45593999997E+02  0.45594000000E+02  0.51100000000E-03 0.  1.
    9900012    2    1    2    0    0  0.29497963426E+02  0.12091239830E+02  0.63006148385E+00  0.59301875990E+02  0.49999875916E+02 0.  0.
        -12    1    1    2    0    0 -0.29497963426E+02 -0.12091239830E+02 -0.63006148385E+00  0.31886124010E+02  0.00000000000E+00 0.  1.
         11    1    3    3    0    0  0.15469404970E+02  0.44027592544E+01  0.13745037206E+02  0.21156862414E+02  0.51100000000E-03 0. -1.
        -11    1    3    3    0    0  0.21783335354E+02 -0.36125510426E+01 -0.88833035511E+01  0.23800783735E+02  0.51100000000E-03 0.  1.
        -12    1    3    3    0    0 -0.77547768975E+01  0.11301031618E+02 -0.42316721708E+01  0.14344229841E+02  0.00000000000E+00 0.  1.
</event>
<event>
 7    1  0.3750159E-013  0.5930197E+02  0.7816164E-02  0.1266605E+00
        -11   -1    0    0    0    0  0.00000000000E+00  0.00000000000E+00  0.45593999997E+02  0.45594000000E+02  0.51100000000E-03 0.  1.
         11   -1    0    0    0    0 -0.00000000000E+00 -0.00000000000E+00 -0.45593999997E+02  0.45594000000E+02  0.51100000000E-03 0. -1.
    9900012    2    1    2    0    0  0.12621299583E+02  0.66278093118E+01 -0.28521816071E+02  0.59301967769E+02  0.50000043298E+02 0.  0.
        -12    1    1    2    0    0 -0.12621299583E+02 -0.66278093118E+01  0.28521816071E+02  0.31886032231E+02  0.00000000000E+00 0.  1.
         11    1    3    3    0    0  0.14091015396E+02 -0.13662984180E+02 -0.68363646173E+01  0.20783881568E+02  0.51100000000E-03 0. -1.
        -11    1    3    3    0    0 -0.75034669042E+01  0.14602149135E+01 -0.16332223426E+02  0.18032630576E+02  0.51100000000E-03 0.  1.
        -12    1    3    3    0    0  0.60337510910E+01  0.18830578579E+02 -0.53532280276E+01  0.20485455625E+02  0.00000000000E+00 0.  1.
</event>
<event>
 7    1  0.3750159E-013  0.5930199E+02  0.7816164E-02  0.1266605E+00
        -11   -1    0    0    0    0  0.00000000000E+00  0.00000000000E+00  0.45593999997E+02  0.45594000000E+02  0.51100000000E-03 0.  1.
         11   -1    0    0    0    0 -0.00000000000E+00 -0.00000000000E+00 -0.45593999997E+02  0.45594000000E+02  0.51100000000E-03 0. -1.
    9900012    2    1    2    0    0  0.15168526352E+02 -0.27332167445E+02  0.62917345817E+01  0.59301992207E+02  0.50000087867E+02 0.  0.
        -12    1    1    2    0    0 -0.15168526352E+02  0.27332167445E+02 -0.62917345817E+01  0.31886007793E+02  0.00000000000E+00 0.  1.
         11    1    3    3    0    0  0.50140563760E+01 -0.26950237419E+02  0.37358352670E+01  0.27666089779E+02  0.51100000000E-03 0.  1.
        -11    1    3    3    0    0 -0.15650071070E+01 -0.81497781347E+01 -0.98536898455E+01  0.12882675759E+02  0.51100000000E-03 0. -1.
         12    1    3    3    0    0  0.11719477084E+02  0.77678481085E+01  0.12409589160E+02  0.18753226668E+02  0.00000000000E+00 0. -1.
</event>
<event>
 7    1  0.3750159E-013  0.5930194E+02  0.7816164E-02  0.1266605E+00
        -11   -1    0    0    0    0  0.00000000000E+00  0.00000000000E+00  0.45593999997E+02  0.45594000000E+02  0.51100000000E-03 0. -1.
         11   -1    0    0    0    0 -0.00000000000E+00 -0.00000000000E+00 -0.45593999997E+02  0.45594000000E+02  0.51100000000E-03 0.  1.
    9900012    2    1    2    0    0 -0.11041401769E+02  0.25037867527E+02  0.16368061983E+02  0.59301940093E+02  0.49999992823E+02 0.  0.
        -12    1    1    2    0    0  0.11041401769E+02 -0.25037867527E+02 -0.16368061983E+02  0.31886059907E+02  0.00000000000E+00 0.  1.
         11    1    3    3    0    0 -0.92417538997E+00  0.10641117648E+02 -0.46943887008E+01  0.11667252054E+02  0.51100000000E-03 0. -1.
        -11    1    3    3    0    0 -0.60438838497E+01  0.27856715699E+02  0.12155052570E+02  0.30988230746E+02  0.51100000000E-03 0.  1.
        -12    1    3    3    0    0 -0.40733425289E+01 -0.13459965820E+02  0.89073981135E+01  0.16646457292E+02  0.00000000000E+00 0.  1.
</event>
<event>
 7    1  0.3750159E-013  0.5930193E+02  0.7816164E-02  0.1266605E+00
        -11   -1    0    0    0    0  0.00000000000E+00  0.00000000000E+00  0.45593999997E+02  0.45594000000E+02  0.51100000000E-03 0.  1.
         11   -1    0    0    0    0 -0.00000000000E+00 -0.00000000000E+00 -0.45593999997E+02  0.45594000000E+02  0.51100000000E-03 0. -1.
    9900012    2    1    2    0    0 -0.22094542912E+02  0.22085734017E+02  0.63853692545E+01  0.59301930721E+02  0.49999975731E+02 0.  0.
        -12    1    1    2    0    0  0.22094542912E+02 -0.22085734017E+02 -0.63853692545E+01  0.31886069279E+02  0.00000000000E+00 0.  1.
         11    1    3    3    0    0 -0.82337516430E+01  0.16882755410E+02 -0.58131032921E+01  0.19662509161E+02  0.51100000000E-03 0. -1.
        -11    1    3    3    0    0  0.79128564557E+01 -0.84437770727E+01  0.10210946080E+01  0.11616940346E+02  0.51100000000E-03 0.  1.
        -12    1    3    3    0    0 -0.21773647725E+02  0.13646755680E+02  0.11177377939E+02  0.28022481214E+02  0.00000000000E+00 0.  1.
</event>
<event>
 7    1  0.3750159E-013  0.5930194E+02  0.7816164E-02  0.1266605E+00
        -11   -1    0    0    0    0  0.00000000000E+00  0.00000000000E+00  0.45593999997E+02  0.45594000000E+02  0.51100000000E-03 0. -1.
         11   -1    0    0    0    0 -0.00000000000E+00 -0.00000000000E+00 -0.45593999997E+02  0.45594000000E+02  0.51100000000E-03 0.  1.
    9900012    2    1    2    0    0 -0.25657579768E+02 -0.71030633079E+01  0.17548664229E+02  0.59301944676E+02  0.50000001182E+02 0.  0.
        -12    1    1    2    0    0  0.25657579768E+02  0.71030633079E+01 -0.17548664229E+02  0.31886055324E+02  0.00000000000E+00 0.  1.
         11    1    3    3    0    0  0.59256256290E+01  0.10575626646E+01 -0.60187299067E+01  0.85121435511E+01  0.51100000000E-03 0. -1.
        -11    1    3    3    0    0 -0.28708527773E+01  0.64776286923E+01 -0.42108063168E+01  0.82421089075E+01  0.51100000000E-03 0.  1.
         12    1    3    3    0    0 -0.28712352620E+02 -0.14638254665E+02  0.27778200453E+02  0.42547692217E+02  0.00000000000E+00 0. -1.
</event>
<event>
 7    1  0.3750159E-013  0.5930193E+02  0.7816164E-02  0.1266605E+00
        -11   -1    0    0    0    0  0.00000000000E+00  0.00000000000E+00  0.45593999997E+02  0.45594000000E+02  0.51100000000E-03 0.  1.
         11   -1    0    0    0    0 -0.00000000000E+00 -0.00000000000E+00 -0.45593999997E+02  0.45594000000E+02  0.51100000000E-03 0. -1.
    9900012    2    1    2    0    0  0.29736215191E+01  0.15286492860E+02 -0.27824483324E+02  0.59301934687E+02  0.49999982964E+02 0.  0.
        -12    1    1    2    0    0 -0.29736215191E+01 -0.15286492860E+02  0.27824483324E+02  0.31886065313E+02  0.00000000000E+00 0.  1.
         11    1    3    3    0    0  0.17817703384E+02  0.22796715873E+02 -0.16514637494E+02  0.33315072569E+02  0.51100000000E-03 0.  1.
        -11    1    3    3    0    0 -0.21424242848E+00  0.37790679208E+01 -0.53828118626E+01  0.65804192858E+01  0.51100000000E-03 0. -1.
        -12    1    3    3    0    0 -0.14629839437E+02 -0.11289290933E+02 -0.59270339675E+01  0.19406442831E+02  0.00000000000E+00 0.  1.
</event>
<event>
 7    1  0.3750159E-013  0.5930195E+02  0.7816164E-02  0.1266605E+00
        -11   -1    0    0    0    0  0.00000000000E+00  0.00000000000E+00  0.45593999997E+02  0.45594000000E+02  0.51100000000E-03 0. -1.
         11   -1    0    0    0    0 -0.00000000000E+00 -0.00000000000E+00 -0.45593999997E+02  0.45594000000E+02  0.51100000000E-03 0.  1.
    9900012    2    1    2    0    0  0.92892458302E+01 -0.13602700411E+02  0.27301958696E+02  0.59301945130E+02  0.50000002010E+02 0.  0.
        -12    1    1    2    0    0 -0.92892458302E+01  0.13602700411E+02 -0.27301958696E+02  0.31886054870E+02  0.00000000000E+00 0.  1.
         11    1    3    3    0    0  0.90825062692E+01  0.10948878940E+02  0.74554947396E+01  0.16060954898E+02  0.51100000000E-03 0. -1.
        -11    1    3    3    0    0 -0.10540286732E+02  0.10810111095E+01  0.62151857386E+01  0.12283922966E+02  0.51100000000E-03 0.  1.
        -12    1    3    3    0    0  0.10747026293E+02 -0.25632590460E+02  0.13631278217E+02  0.30957067266E+02  0.00000000000E+00 0.  1.
</event>
<event>
 7    1  0.3750159E-013  0.5930200E+02  0.7816164E-02  0.1266605E+00
        -11   -1    0    0    0    0  0.00000000000E+00  0.00000000000E+00  0.45593999997E+02  0.45594000000E+02  0.51100000000E-03 0. -1.
         11   -1    0    0    0    0 -0.00000000000E+00 -0.00000000000E+00 -0.45593999997E+02  0.45594000000E+02  0.51100000000E-03 0.  1.
    9900012    2    1    2    0    0  0.12309325890E+02  0.29205414036E+02  0.34987685307E+01  0.59301998461E+02  0.50000099274E+02 0.  0.
        -12    1    1    2    0    0 -0.12309325890E+02 -0.29205414036E+02 -0.34987685307E+01  0.31886001539E+02  0.00000000000E+00 0.  1.
         11    1    3    3    0    0 -0.21189869882E+01 -0.21888353844E+01 -0.16099855650E+01  0.34457451990E+01  0.51100000000E-03 0. -1.
        -11    1    3    3    0    0 -0.42318376504E+01 -0.96318119355E+01  0.17026116184E+01  0.10657351343E+02  0.51100000000E-03 0.  1.
         12    1    3    3    0    0  0.18660150529E+02  0.41026061356E+02  0.34061424773E+01  0.45198901919E+02  0.00000000000E+00 0. -1.
</event>
<event>
 7    1  0.3750159E-013  0.5930195E+02  0.7816164E-02  0.1266605E+00
        -11   -1    0    0    0    0  0.00000000000E+00  0.00000000000E+00  0.45593999997E+02  0.45594000000E+02  0.51100000000E-03 0. -1.
         11   -1    0    0    0    0 -0.00000000000E+00 -0.00000000000E+00 -0.45593999997E+02  0.45594000000E+02  0.51100000000E-03 0.  1.
    9900012    2    1    2    0    0 -0.12555420960E+02  0.26874688463E+01  0.29186621784E+02  0.59301953280E+02  0.50000016874E+02 0.  0.
        -12    1    1    2    0    0  0.12555420960E+02 -0.26874688463E+01 -0.29186621784E+02  0.31886046720E+02  0.00000000000E+00 0.  1.
         11    1    3    3    0    0 -0.90038840651E+00  0.14030294965E+02  0.21698442483E+02  0.25855024319E+02  0.51100000000E-03 0. -1.
        -11    1    3    3    0    0 -0.18376191188E+01  0.81043195907E+01  0.81672568120E+01  0.11651648988E+02  0.51100000000E-03 0.  1.
        -12    1    3    3    0    0 -0.98174134345E+01 -0.19447145710E+02 -0.67907751087E+00  0.21795279972E+02  0.00000000000E+00 0.  1.
</event>
<event>
 7    1  0.3750159E-013  0.5930193E+02  0.7816164E-02  0.1266605E+00
        -11   -1    0    0    0    0  0.00000000000E+00  0.00000000000E+00  0.45593999997E+02  0.45594000000E+02  0.51100000000E-03 0.  1.
         11   -1    0    0    0    0 -0.00000000000E+00 -0.00000000000E+00 -0.45593999997E+02  0.45594000000E+02  0.51100000000E-03 0. -1.
    9900012    2    1    2    0    0 -0.11505188925E+02  0.17323466829E+02 -0.24171252979E+02  0.59301931792E+02  0.49999977686E+02 0.  0.
        -12    1    1    2    0    0  0.11505188925E+02 -0.17323466829E+02  0.24171252979E+02  0.31886068208E+02  0.00000000000E+00 0.  1.
         11    1    3    3    0    0 -0.38061151627E+01 -0.17580141809E+01 -0.20140090210E+01  0.46511674975E+01  0.51100000000E-03 0. -1.
        -11    1    3    3    0    0 -0.26744430341E+02  0.95105921117E+01 -0.15381424505E+02  0.32284735350E+02  0.51100000000E-03 0.  1.
         12    1    3    3    0    0  0.19045356578E+02  0.95708888986E+01 -0.67758194524E+01  0.22366028945E+02  0.00000000000E+00 0. -1.
</event>
<event>
 7    1  0.3750159E-013  0.5930155E+02  0.7816164E-02  0.1266606E+00
        -11   -1    0    0    0    0  0.00000000000E+00  0.00000000000E+00  0.45593999997E+02  0.45594000000E+02  0.51100000000E-03 0. -1.
         11   -1    0    0    0    0 -0.00000000000E+00 -0.00000000000E+00 -0.45593999997E+02  0.45594000000E+02  0.51100000000E-03 0.  1.
    9900012    2    1    2    0    0 -0.23616758701E+02  0.20956355106E+02 -0.44526081587E+01  0.59301547857E+02  0.49999277474E+02 0.  0.
        -12    1    1    2    0    0  0.23616758701E+02 -0.20956355106E+02  0.44526081587E+01  0.31886452143E+02  0.00000000000E+00 0.  1.
         11    1    3    3    0    0 -0.15884556426E+02  0.86995150711E+00 -0.82363633891E+01  0.17914062370E+02  0.51100000000E-03 0. -1.
        -11    1    3    3    0    0 -0.10449279502E+01  0.22675367414E+02 -0.10798773682E+02  0.25137177150E+02  0.51100000000E-03 0.  1.
         12    1    3    3    0    0 -0.66872743251E+01 -0.25889638150E+01  0.14582528912E+02  0.16250308336E+02  0.00000000000E+00 0. -1.
</event>
<event>
 7    1  0.3750159E-013  0.5930216E+02  0.7816164E-02  0.1266604E+00
        -11   -1    0    0    0    0  0.00000000000E+00  0.00000000000E+00  0.45593999997E+02  0.45594000000E+02  0.51100000000E-03 0.  1.
         11   -1    0    0    0    0 -0.00000000000E+00 -0.00000000000E+00 -0.45593999997E+02  0.45594000000E+02  0.51100000000E-03 0. -1.
    9900012    2    1    2    0    0  0.93850985857E+01  0.20337085415E+02 -0.22694260670E+02  0.59302163238E+02  0.50000399786E+02 0.  0.
        -12    1    1    2    0    0 -0.93850985857E+01 -0.20337085415E+02  0.22694260670E+02  0.31885836762E+02  0.00000000000E+00 0.  1.
         11    1    3    3    0    0  0.77578983308E+01 -0.88677375341E+01 -0.91504058013E+01  0.14918166177E+02  0.51100000000E-03 0.  1.
        -11    1    3    3    0    0 -0.10668795028E+02  0.16274989416E+02 -0.17427676059E+02  0.26123214981E+02  0.51100000000E-03 0. -1.
         12    1    3    3    0    0  0.12295995283E+02  0.12929833533E+02  0.38838211907E+01  0.18260782081E+02  0.00000000000E+00 0. -1.
</event>
<event>
 7    1  0.3750159E-013  0.5930189E+02  0.7816164E-02  0.1266605E+00
        -11   -1    0    0    0    0  0.00000000000E+00  0.00000000000E+00  0.45593999997E+02  0.45594000000E+02  0.51100000000E-03 0.  1.
         11   -1    0    0    0    0 -0.00000000000E+00 -0.00000000000E+00 -0.45593999997E+02  0.45594000000E+02  0.51100000000E-03 0. -1.
    9900012    2    1    2    0    0 -0.19890419729E+02 -0.40896797948E+01 -0.24583933365E+02  0.59301889269E+02  0.49999900134E+02 0.  0.
        -12    1    1    2    0    0  0.19890419729E+02  0.40896797948E+01  0.24583933365E+02  0.31886110731E+02  0.00000000000E+00 0.  1.
         11    1    3    3    0    0 -0.15070327828E+00  0.95151995634E+01 -0.26436232634E+02  0.28096906063E+02  0.51100000000E-03 0. -1.
        -11    1    3    3    0    0 -0.17358230499E+02 -0.53726443719E+01 -0.64418712902E+01  0.19278775365E+02  0.51100000000E-03 0.  1.
        -12    1    3    3    0    0 -0.23814859523E+01 -0.82322349864E+01  0.82941705585E+01  0.11926207841E+02  0.00000000000E+00 0.  1.
</event>
<event>
 7    1  0.3750159E-013  0.5930191E+02  0.7816164E-02  0.1266605E+00
        -11   -1    0    0    0    0  0.00000000000E+00  0.00000000000E+00  0.45593999997E+02  0.45594000000E+02  0.51100000000E-03 0.  1.
         11   -1    0    0    0    0 -0.00000000000E+00 -0.00000000000E+00 -0.45593999997E+02  0.45594000000E+02  0.51100000000E-03 0. -1.
    9900012    2    1    2    0    0 -0.19264601021E+02 -0.13188728185E+02 -0.21717631884E+02  0.59301906820E+02  0.49999932142E+02 0.  0.
        -12    1    1    2    0    0  0.19264601021E+02  0.13188728185E+02  0.21717631884E+02  0.31886093180E+02  0.00000000000E+00 0.  1.
         11    1    3    3    0    0 -0.14057642317E+02  0.76475824048E+01 -0.46126016564E+01  0.16654696589E+02  0.51100000000E-03 0. -1.
        -11    1    3    3    0    0  0.10118298414E+02 -0.36158976430E+01  0.39290628047E+01  0.11440813492E+02  0.51100000000E-03 0.  1.
         12    1    3    3    0    0 -0.15325257118E+02 -0.17220412946E+02 -0.21034093032E+02  0.31206396740E+02  0.00000000000E+00 0. -1.
</event>
<event>
 7    1  0.3750159E-013  0.5930192E+02  0.7816164E-02  0.1266605E+00
        -11   -1    0    0    0    0  0.00000000000E+00  0.00000000000E+00  0.45593999997E+02  0.45594000000E+02  0.51100000000E-03 0. -1.
         11   -1    0    0    0    0 -0.00000000000E+00 -0.00000000000E+00 -0.45593999997E+02  0.45594000000E+02  0.51100000000E-03 0.  1.
    9900012    2    1    2    0    0  0.75258010162E+01  0.30984912583E+02  0.14107286441E+00  0.59301915414E+02  0.49999947815E+02 0.  0.
        -12    1    1    2    0    0 -0.75258010162E+01 -0.30984912583E+02 -0.14107286441E+00  0.31886084586E+02  0.00000000000E+00 0.  1.
         11    1    3    3    0    0 -0.14413330489E+01  0.10706852691E+02  0.17513696677E+02  0.20577747862E+02  0.51100000000E-03 0. -1.
        -11    1    3    3    0    0 -0.49944229522E+01  0.16238696119E+02 -0.12766974338E+01  0.17037296407E+02  0.51100000000E-03 0.  1.
        -12    1    3    3    0    0  0.13961557017E+02  0.40393637729E+01 -0.16095926379E+02  0.21686871145E+02  0.00000000000E+00 0.  1.
</event>
<event>
 7    1  0.3750159E-013  0.5930194E+02  0.7816164E-02  0.1266605E+00
        -11   -1    0    0    0    0  0.00000000000E+00  0.00000000000E+00  0.45593999997E+02  0.45594000000E+02  0.51100000000E-03 0.  1.
         11   -1    0    0    0    0 -0.00000000000E+00 -0.00000000000E+00 -0.45593999997E+02  0.45594000000E+02  0.51100000000E-03 0. -1.
    9900012    2    1    2    0    0  0.22936506210E+02  0.20150077234E+02 -0.91984592160E+01  0.59301943774E+02  0.49999999538E+02 0.  0.
        -12    1    1    2    0    0 -0.22936506210E+02 -0.20150077234E+02  0.91984592160E+01  0.31886056226E+02  0.00000000000E+00 0.  1.
         11    1    3    3    0    0  0.75225456321E+01 -0.93136954201E+01 -0.39071379763E+01  0.12593623092E+02  0.51100000000E-03 0. -1.
        -11    1    3    3    0    0  0.26555940749E+01 -0.54004448102E+01 -0.73819397857E+01  0.95241807679E+01  0.51100000000E-03 0.  1.
        -12    1    3    3    0    0  0.12758366503E+02  0.34864217465E+02  0.20906185461E+01  0.37184139914E+02  0.00000000000E+00 0.  1.
</event>
<event>
 7    1  0.3750159E-013  0.5930195E+02  0.7816164E-02  0.1266605E+00
        -11   -1    0    0    0    0  0.00000000000E+00  0.00000000000E+00  0.45593999997E+02  0.45594000000E+02  0.51100000000E-03 0.  1.
         11   -1    0    0    0    0 -0.00000000000E+00 -0.00000000000E+00 -0.45593999997E+02  0.45594000000E+02  0.51100000000E-03 0. -1.
    9900012    2    1    2    0    0  0.24733925369E+02  0.11721535280E+02 -0.16357212907E+02  0.59301954971E+02  0.50000019959E+02 0.  0.
        -12    1    1    2    0    0 -0.24733925369E+02 -0.11721535280E+02  0.16357212907E+02  0.31886045029E+02  0.00000000000E+00 0.  1.
         11    1    3    3    0    0 -0.12406314993E+01  0.20909881656E+02 -0.71278249434E+01  0.22126188240E+02  0.51100000000E-03 0.  1.
        -11    1    3    3    0    0  0.22958159744E+02  0.29460083277E+01 -0.34538456336E+01  0.23402673219E+02  0.51100000000E-03 0. -1.
        -12    1    3    3    0    0  0.30163971250E+01 -0.12134354703E+02 -0.57755423296E+01  0.13773093512E+02  0.00000000000E+00 0.  1.
</event>
<event>
 7    1  0.3750159E-013  0.5930191E+02  0.7816164E-02  0.1266605E+00
        -11   -1    0    0    0    0  0.00000000000E+00  0.00000000000E+00  0.45593999997E+02  0.45594000000E+02  0.51100000000E-03 0. -1.
         11   -1    0    0    0    0 -0.00000000000E+00 -0.00000000000E+00 -0.45593999997E+02  0.45594000000E+02  0.51100000000E-03 0.  1.
    9900012    2    1    2    0    0 -0.15545838148E+02 -0.24473089208E+02  0.13270936864E+02  0.59301906725E+02  0.49999931968E+02 0.  0.
        -12    1    1    2    0    0  0.15545838148E+02  0.24473089208E+02 -0.13270936864E+02  0.31886093275E+02  0.00000000000E+00 0.  1.
         11    1    3    3    0    0 -0.24640187602E+02  0.11715234751E+01  0.15592807955E+02  0.29182991150E+02  0.51100000000E-03 0. -1.
        -11    1    3    3    0    0  0.35619358815E+01 -0.23153239327E+00 -0.20354635938E+01  0.41090274733E+01  0.51100000000E-03 0.  1.
        -12    1    3    3    0    0  0.55324135726E+01 -0.25413080290E+02 -0.28640749684E+00  0.26009888101E+02  0.00000000000E+00 0.  1.
</event>
<event>
 7    1  0.3750159E-013  0.5930194E+02  0.7816164E-02  0.1266605E+00
        -11   -1    0    0    0    0  0.00000000000E+00  0.00000000000E+00  0.45593999997E+02  0.45594000000E+02  0.51100000000E-03 0.  1.
         11   -1    0    0    0    0 -0.00000000000E+00 -0.00000000000E+00 -0.45593999997E+02  0.45594000000E+02  0.51100000000E-03 0. -1.
    9900012    2    1    2    0    0  0.11005752206E+02 -0.15013376721E+02 -0.25888076508E+02  0.59301943996E+02  0.49999999943E+02 0.  0.
        -12    1    1    2    0    0 -0.11005752206E+02  0.15013376721E+02  0.25888076508E+02  0.31886056004E+02  0.00000000000E+00 0.  1.
         11    1    3    3    0    0  0.69081229314E+01 -0.25227414358E+02 -0.24316611261E+02  0.35713333380E+02  0.51100000000E-03 0. -1.
        -11    1    3    3    0    0  0.26843417682E+01  0.92239917254E+01 -0.10652863599E+02  0.14344727854E+02  0.51100000000E-03 0.  1.
        -12    1    3    3    0    0  0.14132875069E+01  0.99004591209E+00  0.90813983523E+01  0.92438827620E+01  0.00000000000E+00 0.  1.
</event>
<event>
 7    1  0.3750159E-013  0.5930195E+02  0.7816164E-02  0.1266605E+00
        -11   -1    0    0    0    0  0.00000000000E+00  0.00000000000E+00  0.45593999997E+02  0.45594000000E+02  0.51100000000E-03 0.  1.
         11   -1    0    0    0    0 -0.00000000000E+00 -0.00000000000E+00 -0.45593999997E+02  0.45594000000E+02  0.51100000000E-03 0. -1.
    9900012    2    1    2    0    0  0.29730582946E+02 -0.70257406419E+01 -0.91351923502E+01  0.59301947671E+02  0.50000006644E+02 0.  0.
        -12    1    1    2    0    0 -0.29730582946E+02  0.70257406419E+01  0.91351923502E+01  0.31886052329E+02  0.00000000000E+00 0.  1.
         11    1    3    3    0    0 -0.29705979706E+00  0.67550310081E+01  0.10597593480E+02  0.12570905945E+02  0.51100000000E-03 0. -1.
        -11    1    3    3    0    0  0.34171333810E+00 -0.91144256799E+01  0.23743533304E+01  0.94248118007E+01  0.51100000000E-03 0.  1.
         12    1    3    3    0    0  0.29685929405E+02 -0.46663459702E+01 -0.22107139161E+02  0.37306229925E+02  0.00000000000E+00 0. -1.
</event>
<event>
 7    1  0.3750159E-013  0.5930195E+02  0.7816164E-02  0.1266605E+00
        -11   -1    0    0    0    0  0.00000000000E+00  0.00000000000E+00  0.45593999997E+02  0.45594000000E+02  0.51100000000E-03 0.  1.
         11   -1    0    0    0    0 -0.00000000000E+00 -0.00000000000E+00 -0.45593999997E+02  0.45594000000E+02  0.51100000000E-03 0. -1.
    9900012    2    1    2    0    0 -0.59520893183E+01 -0.12800812689E+02 -0.28590765096E+02  0.59301952557E+02  0.50000015555E+02 0.  0.
        -12    1    1    2    0    0  0.59520893183E+01  0.12800812689E+02  0.28590765096E+02  0.31886047443E+02  0.00000000000E+00 0.  1.
         11    1    3    3    0    0  0.25172190510E+01  0.85563831791E+01 -0.27112865495E+02  0.28542171614E+02  0.51100000000E-03 0. -1.
        -11    1    3    3    0    0 -0.49105842438E+01  0.16892365733E+01  0.42918698814E+01  0.67370249484E+01  0.51100000000E-03 0.  1.
        -12    1    3    3    0    0 -0.35587241255E+01 -0.23046432441E+02 -0.57697694828E+01  0.24022755994E+02  0.00000000000E+00 0.  1.
</event>
<event>
 7    1  0.3750159E-013  0.5930195E+02  0.7816164E-02  0.1266605E+00
        -11   -1    0    0    0    0  0.00000000000E+00  0.00000000000E+00  0.45593999997E+02  0.45594000000E+02  0.51100000000E-03 0.  1.
         11   -1    0    0    0    0 -0.00000000000E+00 -0.00000000000E+00 -0.45593999997E+02  0.45594000000E+02  0.51100000000E-03 0. -1.
    9900012    2    1    2    0    0  0.22753918571E+02  0.14897539489E+02 -0.16644599544E+02  0.59301949960E+02  0.50000010819E+02 0.  0.
        -12    1    1    2    0    0 -0.22753918571E+02 -0.14897539489E+02  0.16644599544E+02  0.31886050040E+02  0.00000000000E+00 0.  1.
         11    1    3    3    0    0  0.30684547703E+02  0.10905339072E+01 -0.12717932283E+02  0.33233665668E+02  0.51100000000E-03 0. -1.
        -11    1    3    3    0    0  0.10085188407E+01  0.54881163390E+01  0.74976720031E+01  0.93462086929E+01  0.51100000000E-03 0.  1.
        -12    1    3    3    0    0 -0.89391479722E+01  0.83188892429E+01 -0.11424339264E+02  0.16722075599E+02  0.00000000000E+00 0.  1.
</event>
<event>
 7    1  0.3750159E-013  0.5930231E+02  0.7816164E-02  0.1266603E+00
        -11   -1    0    0    0    0  0.00000000000E+00  0.00000000000E+00  0.45593999997E+02  0.45594000000E+02  0.51100000000E-03 0.  1.
         11   -1    0    0    0    0 -0.00000000000E+00 -0.00000000000E+00 -0.45593999997E+02  0.45594000000E+02  0.51100000000E-03 0. -1.
    9900012    2    1    2    0    0 -0.65734965306E+01 -0.18835817146E+02 -0.24873649123E+02  0.59302309089E+02  0.50000665779E+02 0.  0.
        -12    1    1    2    0    0  0.65734965306E+01  0.18835817146E+02  0.24873649123E+02  0.31885690911E+02  0.00000000000E+00 0.  1.
         11    1    3    3    0    0  0.24024970731E+01 -0.99042403257E+01 -0.24046028505E+02  0.26116612639E+02  0.51100000000E-03 0. -1.
        -11    1    3    3    0    0 -0.17293663043E+00 -0.13521317577E+02 -0.12113511918E+02  0.18154699319E+02  0.51100000000E-03 0.  1.
        -12    1    3    3    0    0 -0.88030569733E+01  0.45897407570E+01  0.11285891300E+02  0.15030997130E+02  0.00000000000E+00 0.  1.
</event>
<event>
 7    1  0.3750159E-013  0.5930193E+02  0.7816164E-02  0.1266605E+00
        -11   -1    0    0    0    0  0.00000000000E+00  0.00000000000E+00  0.45593999997E+02  0.45594000000E+02  0.51100000000E-03 0.  1.
         11   -1    0    0    0    0 -0.00000000000E+00 -0.00000000000E+00 -0.45593999997E+02  0.45594000000E+02  0.51100000000E-03 0. -1.
    9900012    2    1    2    0    0  0.65833816674E+01 -0.44949446123E+01 -0.30873547211E+02  0.59301931590E+02  0.49999977316E+02 0.  0.
        -12    1    1    2    0    0 -0.65833816674E+01  0.44949446123E+01  0.30873547211E+02  0.31886068410E+02  0.00000000000E+00 0.  1.
         11    1    3    3    0    0  0.18547052097E+01 -0.10753126006E+02 -0.12660893854E+02  0.16714301773E+02  0.51100000000E-03 0. -1.
        -11    1    3    3    0    0  0.13084490426E+02  0.36359064550E+01 -0.26974107733E+02  0.30199771418E+02  0.51100000000E-03 0.  1.
        -12    1    3    3    0    0 -0.83558139688E+01  0.26222749386E+01  0.87614543755E+01  0.12387858399E+02  0.00000000000E+00 0.  1.
</event>
<event>
 7    1  0.3750159E-013  0.5930193E+02  0.7816164E-02  0.1266605E+00
        -11   -1    0    0    0    0  0.00000000000E+00  0.00000000000E+00  0.45593999997E+02  0.45594000000E+02  0.51100000000E-03 0.  1.
         11   -1    0    0    0    0 -0.00000000000E+00 -0.00000000000E+00 -0.45593999997E+02  0.45594000000E+02  0.51100000000E-03 0. -1.
    9900012    2    1    2    0    0 -0.21552588363E+02 -0.17691134085E+01 -0.23432411008E+02  0.59301926033E+02  0.49999967181E+02 0.  0.
        -12    1    1    2    0    0  0.21552588363E+02  0.17691134085E+01  0.23432411008E+02  0.31886073967E+02  0.00000000000E+00 0.  1.
         11    1    3    3    0    0 -0.16452303282E+02  0.31757962668E+01 -0.22269176724E+02  0.27868982713E+02  0.51100000000E-03 0. -1.
        -11    1    3    3    0    0 -0.10287998739E+02 -0.13782823603E+02  0.67593114895E+01  0.18479649255E+02  0.51100000000E-03 0.  1.
         12    1    3    3    0    0  0.51877136584E+01  0.88379139276E+01 -0.79225457734E+01  0.12953294065E+02  0.00000000000E+00 0. -1.
</event>
<event>
 7    1  0.3750159E-013  0.5930193E+02  0.7816164E-02  0.1266605E+00
        -11   -1    0    0    0    0  0.00000000000E+00  0.00000000000E+00  0.45593999997E+02  0.45594000000E+02  0.51100000000E-03 0.  1.
         11   -1    0    0    0    0 -0.00000000000E+00 -0.00000000000E+00 -0.45593999997E+02  0.45594000000E+02  0.51100000000E-03 0. -1.
    9900012    2    1    2    0    0 -0.13353451346E+02 -0.11695764415E+01 -0.28931619966E+02  0.59301933987E+02  0.49999981688E+02 0.  0.
        -12    1    1    2    0    0  0.13353451346E+02  0.11695764415E+01  0.28931619966E+02  0.31886066013E+02  0.00000000000E+00 0.  1.
         11    1    3    3    0    0 -0.10431730900E+02  0.13769652634E+02 -0.11036730582E+02  0.20499604031E+02  0.51100000000E-03 0. -1.
        -11    1    3    3    0    0  0.14019352255E+02 -0.61907219603E+01 -0.88766095005E+01  0.17710490466E+02  0.51100000000E-03 0.  1.
        -12    1    3    3    0    0 -0.16941072702E+02 -0.87485071150E+01 -0.90182798838E+01  0.21091839490E+02  0.00000000000E+00 0.  1.
</event>
<event>
 7    1  0.3750159E-013  0.5930193E+02  0.7816164E-02  0.1266605E+00
        -11   -1    0    0    0    0  0.00000000000E+00  0.00000000000E+00  0.45593999997E+02  0.45594000000E+02  0.51100000000E-03 0.  1.
         11   -1    0    0    0    0 -0.00000000000E+00 -0.00000000000E+00 -0.45593999997E+02  0.45594000000E+02  0.51100000000E-03 0. -1.
    9900012    2    1    2    0    0  0.88797901023E+01  0.21768601572E+02 -0.21540623437E+02  0.59301934945E+02  0.49999983435E+02 0.  0.
        -12    1    1    2    0    0 -0.88797901023E+01 -0.21768601572E+02  0.21540623437E+02  0.31886065055E+02  0.00000000000E+00 0.  1.
         11    1    3    3    0    0  0.11668132279E+02  0.19147955338E+02 -0.24974399983E+02  0.33563524238E+02  0.51100000000E-03 0. -1.
        -11    1    3    3    0    0  0.51380756015E+01  0.11543312646E+02 -0.16946177635E+01  0.12748318217E+02  0.51100000000E-03 0.  1.
        -12    1    3    3    0    0 -0.79264177779E+01 -0.89226664124E+01  0.51283943095E+01  0.12990092490E+02  0.00000000000E+00 0.  1.
</event>
<event>
 7    1  0.3750159E-013  0.5930193E+02  0.7816164E-02  0.1266605E+00
        -11   -1    0    0    0    0  0.00000000000E+00  0.00000000000E+00  0.45593999997E+02  0.45594000000E+02  0.51100000000E-03 0.  1.
         11   -1    0    0    0    0 -0.00000000000E+00 -0.00000000000E+00 -0.45593999997E+02  0.45594000000E+02  0.51100000000E-03 0. -1.
    9900012    2    1    2    0    0 -0.21931924183E+01  0.20724761876E+02 -0.24132876933E+02  0.59301927854E+02  0.49999970504E+02 0.  0.
        -12    1    1    2    0    0  0.21931924183E+01 -0.20724761876E+02  0.24132876933E+02  0.31886072146E+02  0.00000000000E+00 0.  1.
         11    1    3    3    0    0  0.59508060907E+01  0.61345040777E+00  0.62444257347E+01  0.86476162929E+01  0.51100000000E-03 0. -1.
        -11    1    3    3    0    0  0.76525758483E+01  0.17996345629E+02 -0.28559814323E+02  0.34613485342E+02  0.51100000000E-03 0.  1.
         12    1    3    3    0    0 -0.15796574357E+02  0.21149658399E+01 -0.18174883449E+01  0.16040826220E+02  0.00000000000E+00 0. -1.
</event>
<event>
 7    1  0.3750159E-013  0.5930197E+02  0.7816164E-02  0.1266605E+00
        -11   -1    0    0    0    0  0.00000000000E+00  0.00000000000E+00  0.45593999997E+02  0.45594000000E+02  0.51100000000E-03 0.  1.
         11   -1    0    0    0    0 -0.00000000000E+00 -0.00000000000E+00 -0.45593999997E+02  0.45594000000E+02  0.51100000000E-03 0. -1.
    9900012    2    1    2    0    0  0.48093186039E+01  0.25309148937E+02 -0.18789258570E+02  0.59301971665E+02  0.50000050404E+02 0.  0.
        -12    1    1    2    0    0 -0.48093186039E+01 -0.25309148937E+02  0.18789258570E+02  0.31886028335E+02  0.00000000000E+00 0.  1.
         11    1    3    3    0    0  0.13869992324E+02 -0.51650649660E+01  0.12513042705E+01  0.14853294106E+02  0.51100000000E-03 0. -1.
        -11    1    3    3    0    0  0.47052591047E+01  0.28500887178E+01  0.26841756759E+01  0.61210512383E+01  0.51100000000E-03 0.  1.
         12    1    3    3    0    0 -0.13765932824E+02  0.27624125185E+02 -0.22724738516E+02  0.38327626321E+02  0.00000000000E+00 0. -1.
</event>
<event>
 7    1  0.3750159E-013  0.5930194E+02  0.7816164E-02  0.1266605E+00
        -11   -1    0    0    0    0  0.00000000000E+00  0.00000000000E+00  0.45593999997E+02  0.45594000000E+02  0.51100000000E-03 0.  1.
         11   -1    0    0    0    0 -0.00000000000E+00 -0.00000000000E+00 -0.45593999997E+02  0.45594000000E+02  0.51100000000E-03 0. -1.
    9900012    2    1    2    0    0 -0.25253998419E+02  0.59765479816E+01 -0.18526664704E+02  0.59301939299E+02  0.49999991377E+02 0.  0.
        -12    1    1    2    0    0  0.25253998419E+02 -0.59765479816E+01  0.18526664704E+02  0.31886060701E+02  0.00000000000E+00 0.  1.
         11    1    3    3    0    0  0.12018422472E+02  0.73010154297E-01  0.14020424564E+01  0.12100145971E+02  0.51100000000E-03 0. -1.
        -11    1    3    3    0    0  0.10808680439E+01  0.12070293496E+01  0.21552624803E+01  0.26963590635E+01  0.51100000000E-03 0.  1.
         12    1    3    3    0    0 -0.38353288935E+02  0.46965084777E+01 -0.22083969641E+02  0.44505434265E+02  0.00000000000E+00 0. -1.
</event>
<event>
 7    1  0.3750159E-013  0.5930194E+02  0.7816164E-02  0.1266605E+00
        -11   -1    0    0    0    0  0.00000000000E+00  0.00000000000E+00  0.45593999997E+02  0.45594000000E+02  0.51100000000E-03 0.  1.
         11   -1    0    0    0    0 -0.00000000000E+00 -0.00000000000E+00 -0.45593999997E+02  0.45594000000E+02  0.51100000000E-03 0. -1.
    9900012    2    1    2    0    0  0.14637042678E+02 -0.19656539506E+02 -0.20398486941E+02  0.59301939829E+02  0.49999992343E+02 0.  0.
        -12    1    1    2    0    0 -0.14637042678E+02  0.19656539506E+02  0.20398486941E+02  0.31886060171E+02  0.00000000000E+00 0.  1.
         11    1    3    3    0    0 -0.64005391623E+01  0.11319248017E+01  0.85924660961E+01  0.10773979265E+02  0.51100000000E-03 0. -1.
        -11    1    3    3    0    0  0.10877263719E+02 -0.87125401147E+01  0.16776823266E+01  0.14037016760E+02  0.51100000000E-03 0.  1.
         12    1    3    3    0    0  0.10160318121E+02 -0.12075924193E+02 -0.30668635364E+02  0.34490943805E+02  0.00000000000E+00 0. -1.
</event>
<event>
 7    1  0.3750159E-013  0.5930221E+02  0.7816164E-02  0.1266604E+00
        -11   -1    0    0    0    0  0.00000000000E+00  0.00000000000E+00  0.45593999997E+02  0.45594000000E+02  0.51100000000E-03 0. -1.
         11   -1    0    0    0    0 -0.00000000000E+00 -0.00000000000E+00 -0.45593999997E+02  0.45594000000E+02  0.51100000000E-03 0.  1.
    9900012    2    1    2    0    0 -0.38964332218E+01  0.62645018790E+01  0.31020595629E+02  0.59302211178E+02  0.50000487216E+02 0.  0.
        -12    1    1    2    0    0  0.38964332218E+01 -0.62645018790E+01 -0.31020595629E+02  0.31885788822E+02  0.00000000000E+00 0.  1.
         11    1    3    3    0    0 -0.17729627068E+00  0.58365039448E+01  0.30366913348E+02  0.30923221675E+02  0.51100000000E-03 0. -1.
        -11    1    3    3    0    0 -0.73610888730E+01  0.11912056102E+02  0.59548697906E+01  0.15216543118E+02  0.51100000000E-03 0.  1.
        -12    1    3    3    0    0  0.36419519219E+01 -0.11484058168E+02 -0.53011875097E+01  0.13162446385E+02  0.00000000000E+00 0.  1.
</event>
<event>
 7    1  0.3750159E-013  0.5930194E+02  0.7816164E-02  0.1266605E+00
        -11   -1    0    0    0    0  0.00000000000E+00  0.00000000000E+00  0.45593999997E+02  0.45594000000E+02  0.51100000000E-03 0. -1.
         11   -1    0    0    0    0 -0.00000000000E+00 -0.00000000000E+00 -0.45593999997E+02  0.45594000000E+02  0.51100000000E-03 0.  1.
    9900012    2    1    2    0    0 -0.31531628215E+02 -0.45438600459E+01 -0.13530383788E+01  0.59301937922E+02  0.49999988864E+02 0.  0.
        -12    1    1    2    0    0  0.31531628215E+02  0.45438600459E+01  0.13530383788E+01  0.31886062078E+02  0.00000000000E+00 0.  1.
         11    1    3    3    0    0 -0.14617166643E+02 -0.46702495303E+01 -0.14048649739E+02  0.20804743476E+02  0.51100000000E-03 0. -1.
        -11    1    3    3    0    0 -0.18533199957E+01 -0.14826433515E+02  0.33791438370E+01  0.15319155953E+02  0.51100000000E-03 0.  1.
         12    1    3    3    0    0 -0.15061141576E+02  0.14952823000E+02  0.93164675233E+01  0.23178038492E+02  0.00000000000E+00 0. -1.
</event>
<event>
 7    1  0.3750159E-013  0.5930195E+02  0.7816164E-02  0.1266605E+00
        -11   -1    0    0    0    0  0.00000000000E+00  0.00000000000E+00  0.45593999997E+02  0.45594000000E+02  0.51100000000E-03 0.  1.
         11   -1    0    0    0    0 -0.00000000000E+00 -0.00000000000E+00 -0.45593999997E+02  0.45594000000E+02  0.51100000000E-03 0. -1.
    9900012    2    1    2    0    0 -0.97793111937E+01 -0.77564301368E+01 -0.29341487351E+02  0.59301952646E+02  0.50000015718E+02 0.  0.
        -12    1    1    2    0    0  0.97793111937E+01  0.77564301368E+01  0.29341487351E+02  0.31886047354E+02  0.00000000000E+00 0.  1.
         11    1    3    3    0    0  0.13104790303E+02  0.34633056896E+01  0.25986301501E+00  0.13557195293E+02  0.51100000000E-03 0. -1.
        -11    1    3    3    0    0  0.48198333067E+01 -0.60896855049E+00 -0.21019130931E+01  0.52933613812E+01  0.51100000000E-03 0.  1.
         12    1    3    3    0    0 -0.27703934803E+02 -0.10610767276E+02 -0.27499437273E+02  0.40451395972E+02  0.00000000000E+00 0. -1.
</event>
<event>
 7    1  0.3750159E-013  0.5930195E+02  0.7816164E-02  0.1266605E+00
        -11   -1    0    0    0    0  0.00000000000E+00  0.00000000000E+00  0.45593999997E+02  0.45594000000E+02  0.51100000000E-03 0.  1.
         11   -1    0    0    0    0 -0.00000000000E+00 -0.00000000000E+00 -0.45593999997E+02  0.45594000000E+02  0.51100000000E-03 0. -1.
    9900012    2    1    2    0    0  0.15525940213E+01 -0.27574616489E+02 -0.15935813762E+02  0.59301950025E+02  0.50000010938E+02 0.  0.
        -12    1    1    2    0    0 -0.15525940213E+01  0.27574616489E+02  0.15935813762E+02  0.31886049975E+02  0.00000000000E+00 0.  1.
         11    1    3    3    0    0 -0.18027422964E+00 -0.56314084088E+01  0.11442654807E+02  0.12754591674E+02  0.51100000000E-03 0. -1.
        -11    1    3    3    0    0  0.49756000402E+00  0.76511413957E+01 -0.31853879995E+01  0.83026638847E+01  0.51100000000E-03 0.  1.
         12    1    3    3    0    0  0.12353082470E+01 -0.29594349476E+02 -0.24193080570E+02  0.38244694467E+02  0.00000000000E+00 0. -1.
</event>
<event>
 7    1  0.3750159E-013  0.5930190E+02  0.7816164E-02  0.1266605E+00
        -11   -1    0    0    0    0  0.00000000000E+00  0.00000000000E+00  0.45593999997E+02  0.45594000000E+02  0.51100000000E-03 0. -1.
         11   -1    0    0    0    0 -0.00000000000E+00 -0.00000000000E+00 -0.45593999997E+02  0.45594000000E+02  0.51100000000E-03 0.  1.
    9900012    2    1    2    0    0  0.49552351742E+00  0.29202768038E+02 -0.12793602510E+02  0.59301898485E+02  0.49999916941E+02 0.  0.
        -12    1    1    2    0    0 -0.49552351742E+00 -0.29202768038E+02  0.12793602510E+02  0.31886101515E+02  0.00000000000E+00 0.  1.
         11    1    3    3    0    0 -0.38606579066E+01  0.50450917104E+01 -0.50991881388E+01  0.81461248318E+01  0.51100000000E-03 0. -1.
        -11    1    3    3    0    0 -0.18494492410E+02  0.21289281992E+01 -0.51406682710E+01  0.19313338792E+02  0.51100000000E-03 0.  1.
         12    1    3    3    0    0  0.22850673834E+02  0.22028748128E+02 -0.25537461005E+01  0.31842434861E+02  0.00000000000E+00 0. -1.
</event>
<event>
 7    1  0.3750159E-013  0.5930205E+02  0.7816164E-02  0.1266604E+00
        -11   -1    0    0    0    0  0.00000000000E+00  0.00000000000E+00  0.45593999997E+02  0.45594000000E+02  0.51100000000E-03 0.  1.
         11   -1    0    0    0    0 -0.00000000000E+00 -0.00000000000E+00 -0.45593999997E+02  0.45594000000E+02  0.51100000000E-03 0. -1.
    9900012    2    1    2    0    0  0.19876508500E+02  0.77414559657E+01 -0.23700377790E+02  0.59302052656E+02  0.50000198112E+02 0.  0.
        -12    1    1    2    0    0 -0.19876508500E+02 -0.77414559657E+01  0.23700377790E+02  0.31885947344E+02  0.00000000000E+00 0.  1.
         11    1    3    3    0    0  0.54853572760E+01  0.68317233470E+00 -0.16790097957E+02  0.17676630294E+02  0.51100000000E-03 0. -1.
        -11    1    3    3    0    0  0.15079868957E+01 -0.11490022188E+02  0.84249042611E+01  0.14327374024E+02  0.51100000000E-03 0.  1.
         12    1    3    3    0    0  0.12883164329E+02  0.18548305819E+02 -0.15335184094E+02  0.27298048338E+02  0.00000000000E+00 0. -1.
</event>
<event>
 7    1  0.3750159E-013  0.5930197E+02  0.7816164E-02  0.1266605E+00
        -11   -1    0    0    0    0  0.00000000000E+00  0.00000000000E+00  0.45593999997E+02  0.45594000000E+02  0.51100000000E-03 0.  1.
         11   -1    0    0    0    0 -0.00000000000E+00 -0.00000000000E+00 -0.45593999997E+02  0.45594000000E+02  0.51100000000E-03 0. -1.
    9900012    2    1    2    0    0  0.49638273265E+01  0.25523834377E+02 -0.18455705129E+02  0.59301972420E+02  0.50000051781E+02 0.  0.
        -12    1    1    2    0    0 -0.49638273265E+01 -0.25523834377E+02  0.18455705129E+02  0.31886027580E+02  0.00000000000E+00 0.  1.
         11    1    3    3    0    0  0.12421553183E+02  0.23428107229E+01  0.67866176485E+00  0.12658764854E+02  0.51100000000E-03 0. -1.
        -11    1    3    3    0    0  0.13519524011E+02  0.13221815062E+02 -0.54076918754E+01  0.19668173649E+02  0.51100000000E-03 0.  1.
        -12    1    3    3    0    0 -0.20977249868E+02  0.99592085923E+01 -0.13726675018E+02  0.26975033918E+02  0.00000000000E+00 0.  1.
</event>
<event>
 7    1  0.3750159E-013  0.5930196E+02  0.7816164E-02  0.1266605E+00
        -11   -1    0    0    0    0  0.00000000000E+00  0.00000000000E+00  0.45593999997E+02  0.45594000000E+02  0.51100000000E-03 0.  1.
         11   -1    0    0    0    0 -0.00000000000E+00 -0.00000000000E+00 -0.45593999997E+02  0.45594000000E+02  0.51100000000E-03 0. -1.
    9900012    2    1    2    0    0  0.23521191226E+02  0.21156466863E+02  0.39845982279E+01  0.59301959953E+02  0.50000029045E+02 0.  0.
        -12    1    1    2    0    0 -0.23521191226E+02 -0.21156466863E+02 -0.39845982279E+01  0.31886040047E+02  0.00000000000E+00 0.  1.
         11    1    3    3    0    0 -0.51679939273E+01  0.41203055409E+01 -0.47080601805E+01  0.81148573560E+01  0.51100000000E-03 0. -1.
        -11    1    3    3    0    0 -0.10917801880E+01 -0.10022985790E+02  0.32106689578E+00  0.10087383820E+02  0.51100000000E-03 0.  1.
         12    1    3    3    0    0  0.29780965341E+02  0.27059147112E+02  0.83715915126E+01  0.41099718777E+02  0.00000000000E+00 0. -1.
</event>
<event>
 7    1  0.3750159E-013  0.5930193E+02  0.7816164E-02  0.1266605E+00
        -11   -1    0    0    0    0  0.00000000000E+00  0.00000000000E+00  0.45593999997E+02  0.45594000000E+02  0.51100000000E-03 0.  1.
         11   -1    0    0    0    0 -0.00000000000E+00 -0.00000000000E+00 -0.45593999997E+02  0.45594000000E+02  0.51100000000E-03 0. -1.
    9900012    2    1    2    0    0  0.59785520435E+01 -0.23115969116E+01 -0.31235154075E+02  0.59301930708E+02  0.49999975708E+02 0.  0.
        -12    1    1    2    0    0 -0.59785520435E+01  0.23115969116E+01  0.31235154075E+02  0.31886069292E+02  0.00000000000E+00 0.  1.
         11    1    3    3    0    0 -0.28377635313E+01 -0.15749602674E+02 -0.25543980264E+02  0.30142956296E+02  0.51100000000E-03 0. -1.
        -11    1    3    3    0    0  0.34599846398E+01  0.16179128313E+02 -0.12001745446E+02  0.20439608134E+02  0.51100000000E-03 0.  1.
        -12    1    3    3    0    0  0.53563309350E+01 -0.27411225507E+01  0.63105716358E+01  0.87193662782E+01  0.00000000000E+00 0.  1.
</event>
<event>
 7    1  0.3750159E-013  0.5930193E+02  0.7816164E-02  0.1266605E+00
        -11   -1    0    0    0    0  0.00000000000E+00  0.00000000000E+00  0.45593999997E+02  0.45594000000E+02  0.51100000000E-03 0.  1.
         11   -1    0    0    0    0 -0.00000000000E+00 -0.00000000000E+00 -0.45593999997E+02  0.45594000000E+02  0.51100000000E-03 0. -1.
    9900012    2    1    2    0    0 -0.23761852795E+02  0.11356425782E+02 -0.17975747171E+02  0.59301928729E+02  0.49999972098E+02 0.  0.
        -12    1    1    2    0    0  0.23761852795E+02 -0.11356425782E+02  0.17975747171E+02  0.31886071271E+02  0.00000000000E+00 0.  1.
         11    1    3    3    0    0  0.38379270710E+00 -0.14727918943E+01 -0.15362004422E+02  0.15437214546E+02  0.51100000000E-03 0. -1.
        -11    1    3    3    0    0  0.30630553861E+01 -0.68808433198E+01 -0.66219063538E+01  0.10028856221E+02  0.51100000000E-03 0.  1.
        -12    1    3    3    0    0 -0.27208700888E+02  0.19710060996E+02  0.40081636054E+01  0.33835857961E+02  0.00000000000E+00 0.  1.
</event>
<event>
 7    1  0.3750159E-013  0.5930197E+02  0.7816164E-02  0.1266605E+00
        -11   -1    0    0    0    0  0.00000000000E+00  0.00000000000E+00  0.45593999997E+02  0.45594000000E+02  0.51100000000E-03 0. -1.
         11   -1    0    0    0    0 -0.00000000000E+00 -0.00000000000E+00 -0.45593999997E+02  0.45594000000E+02  0.51100000000E-03 0.  1.
    9900012    2    1    2    0    0 -0.23147968536E+02  0.81031504984E+01  0.20377182188E+02  0.59301967803E+02  0.50000043361E+02 0.  0.
        -12    1    1    2    0    0  0.23147968536E+02 -0.81031504984E+01 -0.20377182188E+02  0.31886032197E+02  0.00000000000E+00 0.  1.
         11    1    3    3    0    0  0.47680001139E+01  0.53530573227E+01  0.10342791866E+01  0.72428434667E+01  0.51100000000E-03 0. -1.
        -11    1    3    3    0    0 -0.26450844354E+02  0.82527137986E+00 -0.55579403724E+01  0.27041060285E+02  0.51100000000E-03 0.  1.
         12    1    3    3    0    0 -0.14651242959E+01  0.19248217958E+01  0.24900843374E+02  0.25018064052E+02  0.00000000000E+00 0. -1.
</event>
<event>
 7    1  0.3750159E-013  0.5930194E+02  0.7816164E-02  0.1266605E+00
        -11   -1    0    0    0    0  0.00000000000E+00  0.00000000000E+00  0.45593999997E+02  0.45594000000E+02  0.51100000000E-03 0.  1.
         11   -1    0    0    0    0 -0.00000000000E+00 -0.00000000000E+00 -0.45593999997E+02  0.45594000000E+02  0.51100000000E-03 0. -1.
    9900012    2    1    2    0    0 -0.96776165325E+01  0.25338004440E+02  0.16764550708E+02  0.59301938920E+02  0.49999990685E+02 0.  0.
        -12    1    1    2    0    0  0.96776165325E+01 -0.25338004440E+02 -0.16764550708E+02  0.31886061080E+02  0.00000000000E+00 0.  1.
         11    1    3    3    0    0 -0.23363408382E+01  0.42255592043E+01  0.15825776123E+02  0.16545967160E+02  0.51100000000E-03 0. -1.
        -11    1    3    3    0    0  0.50845810599E+00 -0.17483014612E+01  0.14787285411E+02  0.14898956263E+02  0.51100000000E-03 0.  1.
         12    1    3    3    0    0 -0.78497338003E+01  0.22860746697E+02 -0.13848510826E+02  0.27857015496E+02  0.00000000000E+00 0. -1.
</event>
<event>
 7    1  0.3750159E-013  0.5930193E+02  0.7816164E-02  0.1266605E+00
        -11   -1    0    0    0    0  0.00000000000E+00  0.00000000000E+00  0.45593999997E+02  0.45594000000E+02  0.51100000000E-03 0.  1.
         11   -1    0    0    0    0 -0.00000000000E+00 -0.00000000000E+00 -0.45593999997E+02  0.45594000000E+02  0.51100000000E-03 0. -1.
    9900012    2    1    2    0    0  0.12858609821E+02  0.23813874953E+02 -0.16860519420E+02  0.59301927775E+02  0.49999970359E+02 0.  0.
        -12    1    1    2    0    0 -0.12858609821E+02 -0.23813874953E+02  0.16860519420E+02  0.31886072225E+02  0.00000000000E+00 0.  1.
         11    1    3    3    0    0  0.13377852842E+02  0.94734916055E+01 -0.16690183839E+02  0.23393935683E+02  0.51100000000E-03 0. -1.
        -11    1    3    3    0    0  0.50530315744E+01  0.22130985635E+02  0.72079394232E+01  0.23817389535E+02  0.51100000000E-03 0.  1.
         12    1    3    3    0    0 -0.55722745952E+01 -0.77906022874E+01 -0.73782750038E+01  0.12090602557E+02  0.00000000000E+00 0. -1.
</event>
<event>
 7    1  0.3750159E-013  0.5930195E+02  0.7816164E-02  0.1266605E+00
        -11   -1    0    0    0    0  0.00000000000E+00  0.00000000000E+00  0.45593999997E+02  0.45594000000E+02  0.51100000000E-03 0.  1.
         11   -1    0    0    0    0 -0.00000000000E+00 -0.00000000000E+00 -0.45593999997E+02  0.45594000000E+02  0.51100000000E-03 0. -1.
    9900012    2    1    2    0    0  0.25131691638E+02 -0.18184217231E+02 -0.73792033284E+01  0.59301947835E+02  0.50000006944E+02 0.  0.
        -12    1    1    2    0    0 -0.25131691638E+02  0.18184217231E+02  0.73792033284E+01  0.31886052165E+02  0.00000000000E+00 0.  1.
         11    1    3    3    0    0 -0.36646986163E+01 -0.85105827500E+01  0.75359440220E+01  0.11943637941E+02  0.51100000000E-03 0. -1.
        -11    1    3    3    0    0 -0.36623078252E+01  0.33919673995E+01 -0.11088146088E+02  0.12159972261E+02  0.51100000000E-03 0.  1.
         12    1    3    3    0    0  0.32458698080E+02 -0.13065601880E+02 -0.38270012620E+01  0.35198337634E+02  0.00000000000E+00 0. -1.
</event>
<event>
 7    1  0.3750159E-013  0.5930188E+02  0.7816164E-02  0.1266605E+00
        -11   -1    0    0    0    0  0.00000000000E+00  0.00000000000E+00  0.45593999997E+02  0.45594000000E+02  0.51100000000E-03 0.  1.
         11   -1    0    0    0    0 -0.00000000000E+00 -0.00000000000E+00 -0.45593999997E+02  0.45594000000E+02  0.51100000000E-03 0. -1.
    9900012    2    1    2    0    0 -0.10512843131E+02  0.25653997937E+02 -0.15750470581E+02  0.59301877558E+02  0.49999878775E+02 0.  0.
        -12    1    1    2    0    0  0.10512843131E+02 -0.25653997937E+02  0.15750470581E+02  0.31886122442E+02  0.00000000000E+00 0.  1.
         11    1    3    3    0    0 -0.25309136189E+01 -0.54131299151E+00  0.41253422040E+01  0.48700094520E+01  0.51100000000E-03 0.  1.
        -11    1    3    3    0    0 -0.10921246300E+02  0.32613307001E+02 -0.27504243068E+02  0.44038446853E+02  0.51100000000E-03 0. -1.
         12    1    3    3    0    0  0.29393167874E+01 -0.64179960719E+01  0.76284302830E+01  0.10393421253E+02  0.00000000000E+00 0. -1.
</event>
<event>
 7    1  0.3750159E-013  0.5930194E+02  0.7816164E-02  0.1266605E+00
        -11   -1    0    0    0    0  0.00000000000E+00  0.00000000000E+00  0.45593999997E+02  0.45594000000E+02  0.51100000000E-03 0.  1.
         11   -1    0    0    0    0 -0.00000000000E+00 -0.00000000000E+00 -0.45593999997E+02  0.45594000000E+02  0.51100000000E-03 0. -1.
    9900012    2    1    2    0    0 -0.26980165630E+01  0.31766044741E+02 -0.59968690740E+00  0.59301944800E+02  0.50000001408E+02 0.  0.
        -12    1    1    2    0    0  0.26980165630E+01 -0.31766044741E+02  0.59968690740E+00  0.31886055200E+02  0.00000000000E+00 0.  1.
         11    1    3    3    0    0 -0.99595160947E+01 -0.33005565864E+00  0.13166282034E+02  0.16512173704E+02  0.51100000000E-03 0. -1.
        -11    1    3    3    0    0  0.42370394194E+01  0.26658220181E+02  0.74273779406E+00  0.27003052901E+02  0.51100000000E-03 0.  1.
         12    1    3    3    0    0  0.30244601124E+01  0.54378802182E+01 -0.14508706735E+02  0.15786718195E+02  0.00000000000E+00 0. -1.
</event>
<event>
 7    1  0.3750159E-013  0.5930207E+02  0.7816164E-02  0.1266604E+00
        -11   -1    0    0    0    0  0.00000000000E+00  0.00000000000E+00  0.45593999997E+02  0.45594000000E+02  0.51100000000E-03 0.  1.
         11   -1    0    0    0    0 -0.00000000000E+00 -0.00000000000E+00 -0.45593999997E+02  0.45594000000E+02  0.51100000000E-03 0. -1.
    9900012    2    1    2    0    0 -0.18256844527E+02  0.22521325447E+02  0.13273651225E+02  0.59302073812E+02  0.50000236695E+02 0.  0.
        -12    1    1    2    0    0  0.18256844527E+02 -0.22521325447E+02 -0.13273651225E+02  0.31885926188E+02  0.00000000000E+00 0.  1.
         11    1    3    3    0    0 -0.12495936045E+02  0.12161754685E+02  0.15238353408E+02  0.23157377000E+02  0.51100000000E-03 0. -1.
        -11    1    3    3    0    0 -0.13950438060E+02  0.16556214556E+02  0.67477516000E+01  0.22677193706E+02  0.51100000000E-03 0.  1.
        -12    1    3    3    0    0  0.81895295774E+01 -0.61966437934E+01 -0.87124537829E+01  0.13467503106E+02  0.00000000000E+00 0.  1.
</event>
<event>
 7    1  0.3750159E-013  0.5930193E+02  0.7816164E-02  0.1266605E+00
        -11   -1    0    0    0    0  0.00000000000E+00  0.00000000000E+00  0.45593999997E+02  0.45594000000E+02  0.51100000000E-03 0.  1.
         11   -1    0    0    0    0 -0.00000000000E+00 -0.00000000000E+00 -0.45593999997E+02  0.45594000000E+02  0.51100000000E-03 0. -1.
    9900012    2    1    2    0    0  0.99573160623E+00 -0.22649585032E+02 -0.22421557715E+02  0.59301930410E+02  0.49999975165E+02 0.  0.
        -12    1    1    2    0    0 -0.99573160623E+00  0.22649585032E+02  0.22421557715E+02  0.31886069590E+02  0.00000000000E+00 0.  1.
         11    1    3    3    0    0 -0.13861948781E+02 -0.30672642458E+02 -0.17362923848E+02  0.37873945453E+02  0.51100000000E-03 0. -1.
        -11    1    3    3    0    0 -0.15059639794E+01 -0.12081158800E+01 -0.11190486886E+01  0.22315334896E+01  0.51100000000E-03 0.  1.
        -12    1    3    3    0    0  0.16363644367E+02  0.92311733062E+01 -0.39395851787E+01  0.19196451468E+02  0.00000000000E+00 0.  1.
</event>
<event>
 7    1  0.3750159E-013  0.5930196E+02  0.7816164E-02  0.1266605E+00
        -11   -1    0    0    0    0  0.00000000000E+00  0.00000000000E+00  0.45593999997E+02  0.45594000000E+02  0.51100000000E-03 0.  1.
         11   -1    0    0    0    0 -0.00000000000E+00 -0.00000000000E+00 -0.45593999997E+02  0.45594000000E+02  0.51100000000E-03 0. -1.
    9900012    2    1    2    0    0  0.18322777273E+02 -0.22097733688E+02 -0.13881128967E+02  0.59301956932E+02  0.50000023534E+02 0.  0.
        -12    1    1    2    0    0 -0.18322777273E+02  0.22097733688E+02  0.13881128967E+02  0.31886043068E+02  0.00000000000E+00 0.  1.
         11    1    3    3    0    0 -0.13241396465E+01 -0.67636566971E+01 -0.10884281624E+02  0.12882856223E+02  0.51100000000E-03 0. -1.
        -11    1    3    3    0    0  0.25383005224E+01  0.12741806114E+02  0.20601802514E+01  0.13154502481E+02  0.51100000000E-03 0.  1.
        -12    1    3    3    0    0  0.17108616397E+02 -0.28075883105E+02 -0.50570275941E+01  0.33264598228E+02  0.00000000000E+00 0.  1.
</event>
<event>
 7    1  0.3750159E-013  0.5930184E+02  0.7816164E-02  0.1266605E+00
        -11   -1    0    0    0    0  0.00000000000E+00  0.00000000000E+00  0.45593999997E+02  0.45594000000E+02  0.51100000000E-03 0.  1.
         11   -1    0    0    0    0 -0.00000000000E+00 -0.00000000000E+00 -0.45593999997E+02  0.45594000000E+02  0.51100000000E-03 0. -1.
    9900012    2    1    2    0    0  0.12673279850E+02  0.24622042903E+02 -0.15807286155E+02  0.59301838198E+02  0.49999806991E+02 0.  0.
        -12    1    1    2    0    0 -0.12673279850E+02 -0.24622042903E+02  0.15807286155E+02  0.31886161802E+02  0.00000000000E+00 0.  1.
         11    1    3    3    0    0 -0.87783377972E+01  0.19413896709E+01  0.42156654505E+01  0.99297554748E+01  0.51100000000E-03 0. -1.
        -11    1    3    3    0    0  0.18261230108E+02  0.21736441346E+02  0.68608988916E+00  0.28397466913E+02  0.51100000000E-03 0.  1.
        -12    1    3    3    0    0  0.31903875390E+01  0.94421188593E+00 -0.20709041495E+02  0.20974615810E+02  0.00000000000E+00 0.  1.
</event>
<event>
 7    1  0.3750159E-013  0.5930197E+02  0.7816164E-02  0.1266605E+00
        -11   -1    0    0    0    0  0.00000000000E+00  0.00000000000E+00  0.45593999997E+02  0.45594000000E+02  0.51100000000E-03 0.  1.
         11   -1    0    0    0    0 -0.00000000000E+00 -0.00000000000E+00 -0.45593999997E+02  0.45594000000E+02  0.51100000000E-03 0. -1.
    9900012    2    1    2    0    0  0.21546033168E+02  0.23504997474E+02  0.51108047709E-01  0.59301967579E+02  0.50000042951E+02 0.  0.
        -12    1    1    2    0    0 -0.21546033168E+02 -0.23504997474E+02 -0.51108047709E-01  0.31886032421E+02  0.00000000000E+00 0.  1.
         11    1    3    3    0    0  0.60089259658E+01  0.20016028084E+02  0.60706618860E+01  0.21762387450E+02  0.51100000000E-03 0. -1.
        -11    1    3    3    0    0  0.16267081817E+01  0.15885898678E+02 -0.95048081453E+01  0.18583577010E+02  0.51100000000E-03 0.  1.
        -12    1    3    3    0    0  0.13910399021E+02 -0.12396929288E+02  0.34852543071E+01  0.18956003119E+02  0.00000000000E+00 0.  1.
</event>
<event>
 7    1  0.3750159E-013  0.5930194E+02  0.7816164E-02  0.1266605E+00
        -11   -1    0    0    0    0  0.00000000000E+00  0.00000000000E+00  0.45593999997E+02  0.45594000000E+02  0.51100000000E-03 0.  1.
         11   -1    0    0    0    0 -0.00000000000E+00 -0.00000000000E+00 -0.45593999997E+02  0.45594000000E+02  0.51100000000E-03 0. -1.
    9900012    2    1    2    0    0 -0.58751908516E+01  0.19481236637E+02 -0.24549635628E+02  0.59301936306E+02  0.49999985917E+02 0.  0.
        -12    1    1    2    0    0  0.58751908516E+01 -0.19481236637E+02  0.24549635628E+02  0.31886063694E+02  0.00000000000E+00 0.  1.
         11    1    3    3    0    0 -0.72055676516E+00  0.26539260092E+02 -0.96760323225E+01  0.28257337632E+02  0.51100000000E-03 0.  1.
        -11    1    3    3    0    0 -0.34819058626E+01  0.93068705259E+01 -0.94778464374E+01  0.13732118583E+02  0.51100000000E-03 0. -1.
        -12    1    3    3    0    0 -0.16727282238E+01 -0.16364893981E+02 -0.53957568681E+01  0.17312480091E+02  0.00000000000E+00 0.  1.
</event>
<event>
 7    1  0.3750159E-013  0.5930194E+02  0.7816164E-02  0.1266605E+00
        -11   -1    0    0    0    0  0.00000000000E+00  0.00000000000E+00  0.45593999997E+02  0.45594000000E+02  0.51100000000E-03 0.  1.
         11   -1    0    0    0    0 -0.00000000000E+00 -0.00000000000E+00 -0.45593999997E+02  0.45594000000E+02  0.51100000000E-03 0. -1.
    9900012    2    1    2    0    0 -0.19807954116E+02  0.20424808611E+02  0.14394189556E+02  0.59301944333E+02  0.50000000557E+02 0.  0.
        -12    1    1    2    0    0  0.19807954116E+02 -0.20424808611E+02 -0.14394189556E+02  0.31886055667E+02  0.00000000000E+00 0.  1.
         11    1    3    3    0    0  0.12285584427E+02 -0.10238917440E+00  0.70325895405E-01  0.12286212364E+02  0.51100000000E-03 0. -1.
        -11    1    3    3    0    0 -0.14113255859E+02  0.14762480155E+02  0.18635700658E+02  0.27647859782E+02  0.51100000000E-03 0.  1.
        -12    1    3    3    0    0 -0.17980282684E+02  0.57647176305E+01 -0.43118369982E+01  0.19367872187E+02  0.00000000000E+00 0.  1.
</event>
<event>
 7    1  0.3750159E-013  0.5930194E+02  0.7816164E-02  0.1266605E+00
        -11   -1    0    0    0    0  0.00000000000E+00  0.00000000000E+00  0.45593999997E+02  0.45594000000E+02  0.51100000000E-03 0. -1.
         11   -1    0    0    0    0 -0.00000000000E+00 -0.00000000000E+00 -0.45593999997E+02  0.45594000000E+02  0.51100000000E-03 0.  1.
    9900012    2    1    2    0    0  0.74479437499E+01  0.30873566782E+02 -0.28411056511E+01  0.59301939201E+02  0.49999991197E+02 0.  0.
        -12    1    1    2    0    0 -0.74479437499E+01 -0.30873566782E+02  0.28411056511E+01  0.31886060799E+02  0.00000000000E+00 0.  1.
         11    1    3    3    0    0  0.50985456612E+01 -0.29911247292E+01 -0.96943449323E+00  0.59901417765E+01  0.51100000000E-03 0.  1.
        -11    1    3    3    0    0  0.18198481771E+02  0.29214196702E+02 -0.85995835201E+01  0.35476849701E+02  0.51100000000E-03 0. -1.
         12    1    3    3    0    0 -0.15849083682E+02  0.46504948091E+01  0.67279123622E+01  0.17834947723E+02  0.00000000000E+00 0. -1.
</event>
<event>
 7    1  0.3750159E-013  0.5930193E+02  0.7816164E-02  0.1266605E+00
        -11   -1    0    0    0    0  0.00000000000E+00  0.00000000000E+00  0.45593999997E+02  0.45594000000E+02  0.51100000000E-03 0. -1.
         11   -1    0    0    0    0 -0.00000000000E+00 -0.00000000000E+00 -0.45593999997E+02  0.45594000000E+02  0.51100000000E-03 0.  1.
    9900012    2    1    2    0    0  0.62814191709E+01  0.17081090741E+02  0.26182081920E+02  0.59301932488E+02  0.49999978955E+02 0.  0.
        -12    1    1    2    0    0 -0.62814191709E+01 -0.17081090741E+02 -0.26182081920E+02  0.31886067512E+02  0.00000000000E+00 0.  1.
         11    1    3    3    0    0  0.36193726420E+01  0.23590710716E+01  0.13944680795E+01  0.45397815067E+01  0.51100000000E-03 0. -1.
        -11    1    3    3    0    0  0.28322837954E+01  0.27552490697E+02  0.97791715666E+00  0.27714939966E+02  0.51100000000E-03 0.  1.
        -12    1    3    3    0    0 -0.17023726659E+00 -0.12830471028E+02  0.23809696684E+02  0.27047211015E+02  0.00000000000E+00 0.  1.
</event>
<event>
 7    1  0.3750159E-013  0.5930196E+02  0.7816164E-02  0.1266605E+00
        -11   -1    0    0    0    0  0.00000000000E+00  0.00000000000E+00  0.45593999997E+02  0.45594000000E+02  0.51100000000E-03 0.  1.
         11   -1    0    0    0    0 -0.00000000000E+00 -0.00000000000E+00 -0.45593999997E+02  0.45594000000E+02  0.51100000000E-03 0. -1.
    9900012    2    1    2    0    0  0.13242161376E+00  0.13178379260E+02 -0.29035013831E+02  0.59301964756E+02  0.50000037803E+02 0.  0.
        -12    1    1    2    0    0 -0.13242161376E+00 -0.13178379260E+02  0.29035013831E+02  0.31886035244E+02  0.00000000000E+00 0.  1.
         11    1    3    3    0    0 -0.82182334276E+01  0.42545569760E+01  0.47485765696E+01  0.10401422760E+02  0.51100000000E-03 0. -1.
        -11    1    3    3    0    0  0.90494002066E+01 -0.18370856965E+01  0.36616479214E+01  0.99334884969E+01  0.51100000000E-03 0.  1.
         12    1    3    3    0    0 -0.69874516527E+00  0.10760907981E+02 -0.37445238322E+02  0.38967053499E+02  0.00000000000E+00 0. -1.
</event>
<event>
 7    1  0.3750159E-013  0.5930194E+02  0.7816164E-02  0.1266605E+00
        -11   -1    0    0    0    0  0.00000000000E+00  0.00000000000E+00  0.45593999997E+02  0.45594000000E+02  0.51100000000E-03 0.  1.
         11   -1    0    0    0    0 -0.00000000000E+00 -0.00000000000E+00 -0.45593999997E+02  0.45594000000E+02  0.51100000000E-03 0. -1.
    9900012    2    1    2    0    0 -0.27510203655E+02 -0.89085132637E+01 -0.13436806778E+02  0.59301942074E+02  0.49999996436E+02 0.  0.
        -12    1    1    2    0    0  0.27510203655E+02  0.89085132637E+01  0.13436806778E+02  0.31886057926E+02  0.00000000000E+00 0.  1.
         11    1    3    3    0    0 -0.10413458217E+02  0.10285853205E+02 -0.19570689463E+02  0.24438714666E+02  0.51100000000E-03 0. -1.
        -11    1    3    3    0    0 -0.36955158870E+01  0.50903468655E+01 -0.60493366643E+00  0.63193681554E+01  0.51100000000E-03 0.  1.
        -12    1    3    3    0    0 -0.13401229550E+02 -0.24284713335E+02  0.67388163510E+01  0.28543859252E+02  0.00000000000E+00 0.  1.
</event>
<event>
 7    1  0.3750159E-013  0.5930205E+02  0.7816164E-02  0.1266604E+00
        -11   -1    0    0    0    0  0.00000000000E+00  0.00000000000E+00  0.45593999997E+02  0.45594000000E+02  0.51100000000E-03 0.  1.
         11   -1    0    0    0    0 -0.00000000000E+00 -0.00000000000E+00 -0.45593999997E+02  0.45594000000E+02  0.51100000000E-03 0. -1.
    9900012    2    1    2    0    0  0.29916396339E+02 -0.11015453342E+02 -0.61885642179E+00  0.59302047521E+02  0.50000188746E+02 0.  0.
        -12    1    1    2    0    0 -0.29916396339E+02  0.11015453342E+02  0.61885642179E+00  0.31885952479E+02  0.00000000000E+00 0.  1.
         11    1    3    3    0    0  0.83782000633E+01 -0.94832154961E+01 -0.12943052522E+02  0.18101055806E+02  0.51100000000E-03 0. -1.
        -11    1    3    3    0    0  0.24600513360E+02  0.53832716577E+01 -0.17289249397E+01  0.25241910645E+02  0.51100000000E-03 0.  1.
        -12    1    3    3    0    0 -0.30623170844E+01 -0.69155095040E+01  0.14053121040E+02  0.15959081070E+02  0.00000000000E+00 0.  1.
</event>
<event>
 7    1  0.3750159E-013  0.5930197E+02  0.7816164E-02  0.1266605E+00
        -11   -1    0    0    0    0  0.00000000000E+00  0.00000000000E+00  0.45593999997E+02  0.45594000000E+02  0.51100000000E-03 0.  1.
         11   -1    0    0    0    0 -0.00000000000E+00 -0.00000000000E+00 -0.45593999997E+02  0.45594000000E+02  0.51100000000E-03 0. -1.
    9900012    2    1    2    0    0  0.71731690204E+01  0.25949901565E+02 -0.17084117118E+02  0.59301971669E+02  0.50000050411E+02 0.  0.
        -12    1    1    2    0    0 -0.71731690204E+01 -0.25949901565E+02  0.17084117118E+02  0.31886028331E+02  0.00000000000E+00 0.  1.
         11    1    3    3    0    0  0.79214849689E+01  0.21523625990E+01 -0.14881521830E+02  0.16995360576E+02  0.51100000000E-03 0. -1.
        -11    1    3    3    0    0  0.27544588470E+01 -0.77019024017E+01 -0.63333797113E+01  0.10344952536E+02  0.51100000000E-03 0.  1.
         12    1    3    3    0    0 -0.35027747954E+01  0.31499441368E+02  0.41307844236E+01  0.31961658557E+02  0.00000000000E+00 0. -1.
</event>
<event>
 7    1  0.3750159E-013  0.5930193E+02  0.7816164E-02  0.1266605E+00
        -11   -1    0    0    0    0  0.00000000000E+00  0.00000000000E+00  0.45593999997E+02  0.45594000000E+02  0.51100000000E-03 0. -1.
         11   -1    0    0    0    0 -0.00000000000E+00 -0.00000000000E+00 -0.45593999997E+02  0.45594000000E+02  0.51100000000E-03 0.  1.
    9900012    2    1    2    0    0  0.27969288630E+02 -0.49108101399E+01  0.14502556472E+02  0.59301932401E+02  0.49999978795E+02 0.  0.
        -12    1    1    2    0    0 -0.27969288630E+02  0.49108101399E+01 -0.14502556472E+02  0.31886067599E+02  0.00000000000E+00 0.  1.
         11    1    3    3    0    0  0.96392829395E+01  0.13419757975E+02 -0.41276199662E+01  0.17030646686E+02  0.51100000000E-03 0. -1.
        -11    1    3    3    0    0  0.52557174768E+01  0.62231171682E+01 -0.10258404299E+01  0.82098783385E+01  0.51100000000E-03 0.  1.
        -12    1    3    3    0    0  0.13074288214E+02 -0.24553685283E+02  0.19656016868E+02  0.34061407376E+02  0.00000000000E+00 0.  1.
</event>
<event>
 7    1  0.3750159E-013  0.5930191E+02  0.7816164E-02  0.1266605E+00
        -11   -1    0    0    0    0  0.00000000000E+00  0.00000000000E+00  0.45593999997E+02  0.45594000000E+02  0.51100000000E-03 0. -1.
         11   -1    0    0    0    0 -0.00000000000E+00 -0.00000000000E+00 -0.45593999997E+02  0.45594000000E+02  0.51100000000E-03 0.  1.
    9900012    2    1    2    0    0  0.28482403052E+02  0.82731693143E+01  0.11705999467E+02  0.59301905262E+02  0.49999929300E+02 0.  0.
        -12    1    1    2    0    0 -0.28482403052E+02 -0.82731693143E+01 -0.11705999467E+02  0.31886094738E+02  0.00000000000E+00 0.  1.
         11    1    3    3    0    0  0.93379841949E+01 -0.94133113927E+00  0.31047615122E+01  0.98855246419E+01  0.51100000000E-03 0. -1.
        -11    1    3    3    0    0  0.19421636122E+02 -0.40897301761E+01  0.22616267348E+02  0.30090220863E+02  0.51100000000E-03 0.  1.
        -12    1    3    3    0    0 -0.27721726438E+00  0.13304230630E+02 -0.14015029393E+02  0.19326159757E+02  0.00000000000E+00 0.  1.
</event>
<event>
 7    1  0.3750159E-013  0.5930210E+02  0.7816164E-02  0.1266604E+00
        -11   -1    0    0    0    0  0.00000000000E+00  0.00000000000E+00  0.45593999997E+02  0.45594000000E+02  0.51100000000E-03 0.  1.
         11   -1    0    0    0    0 -0.00000000000E+00 -0.00000000000E+00 -0.45593999997E+02  0.45594000000E+02  0.51100000000E-03 0. -1.
    9900012    2    1    2    0    0  0.17187247123E+02  0.19540628181E+02 -0.18424796248E+02  0.59302098254E+02  0.50000281271E+02 0.  0.
        -12    1    1    2    0    0 -0.17187247123E+02 -0.19540628181E+02  0.18424796248E+02  0.31885901746E+02  0.00000000000E+00 0.  1.
         11    1    3    3    0    0 -0.38377992462E+01 -0.19465637711E+01  0.82455630292E+01  0.93009205727E+01  0.51100000000E-03 0. -1.
        -11    1    3    3    0    0 -0.32129085060E+01  0.10449264393E+01  0.44406527057E+01  0.55797893370E+01  0.51100000000E-03 0.  1.
         12    1    3    3    0    0  0.24237954875E+02  0.20442265512E+02 -0.31111011983E+02  0.44421388344E+02  0.00000000000E+00 0. -1.
</event>
<event>
 7    1  0.3750159E-013  0.5930194E+02  0.7816164E-02  0.1266605E+00
        -11   -1    0    0    0    0  0.00000000000E+00  0.00000000000E+00  0.45593999997E+02  0.45594000000E+02  0.51100000000E-03 0.  1.
         11   -1    0    0    0    0 -0.00000000000E+00 -0.00000000000E+00 -0.45593999997E+02  0.45594000000E+02  0.51100000000E-03 0. -1.
    9900012    2    1    2    0    0 -0.11120767904E+02 -0.29865488917E+02  0.10497776958E+01  0.59301938150E+02  0.49999989281E+02 0.  0.
        -12    1    1    2    0    0  0.11120767904E+02  0.29865488917E+02 -0.10497776958E+01  0.31886061850E+02  0.00000000000E+00 0.  1.
         11    1    3    3    0    0 -0.37751665909E+01 -0.25889579874E+01 -0.13201548556E+02  0.13972668707E+02  0.51100000000E-03 0. -1.
        -11    1    3    3    0    0 -0.74536642952E+01  0.58064361758E+01  0.38071095267E+00  0.94560432306E+01  0.51100000000E-03 0.  1.
        -12    1    3    3    0    0  0.10806298161E+00 -0.33082967106E+02  0.13870615299E+02  0.35873226213E+02  0.00000000000E+00 0.  1.
</event>
<event>
 7    1  0.3750159E-013  0.5930196E+02  0.7816164E-02  0.1266605E+00
        -11   -1    0    0    0    0  0.00000000000E+00  0.00000000000E+00  0.45593999997E+02  0.45594000000E+02  0.51100000000E-03 0. -1.
         11   -1    0    0    0    0 -0.00000000000E+00 -0.00000000000E+00 -0.45593999997E+02  0.45594000000E+02  0.51100000000E-03 0.  1.
    9900012    2    1    2    0    0 -0.23665546577E+02  0.20108508842E+02  0.72325361745E+01  0.59301955997E+02  0.50000021830E+02 0.  0.
        -12    1    1    2    0    0  0.23665546577E+02 -0.20108508842E+02 -0.72325361745E+01  0.31886044003E+02  0.00000000000E+00 0.  1.
         11    1    3    3    0    0 -0.88466641677E+01 -0.71383306342E+01  0.12621577725E+02  0.16985978207E+02  0.51100000000E-03 0. -1.
        -11    1    3    3    0    0 -0.61796913388E+01  0.13849895050E+02  0.11544207600E+02  0.19059824430E+02  0.51100000000E-03 0.  1.
        -12    1    3    3    0    0 -0.86391910702E+01  0.13396944426E+02 -0.16933249150E+02  0.23256153360E+02  0.00000000000E+00 0.  1.
</event>
<event>
 7    1  0.3750159E-013  0.5930196E+02  0.7816164E-02  0.1266605E+00
        -11   -1    0    0    0    0  0.00000000000E+00  0.00000000000E+00  0.45593999997E+02  0.45594000000E+02  0.51100000000E-03 0.  1.
         11   -1    0    0    0    0 -0.00000000000E+00 -0.00000000000E+00 -0.45593999997E+02  0.45594000000E+02  0.51100000000E-03 0. -1.
    9900012    2    1    2    0    0  0.18898027450E+02  0.18497083898E+02  0.17816907473E+02  0.59301956876E+02  0.50000023431E+02 0.  0.
        -12    1    1    2    0    0 -0.18898027450E+02 -0.18497083898E+02 -0.17816907473E+02  0.31886043124E+02  0.00000000000E+00 0.  1.
         11    1    3    3    0    0  0.32463502036E+00 -0.82367511101E-01  0.16304656629E+02  0.16308096160E+02  0.51100000000E-03 0. -1.
        -11    1    3    3    0    0  0.43387955871E+01  0.18017343246E+02  0.14643410901E+02  0.23619468408E+02  0.51100000000E-03 0.  1.
         12    1    3    3    0    0  0.14234596843E+02  0.56210816386E+00 -0.13131160057E+02  0.19374392308E+02  0.00000000000E+00 0. -1.
</event>
<event>
 7    1  0.3750159E-013  0.5930194E+02  0.7816164E-02  0.1266605E+00
        -11   -1    0    0    0    0  0.00000000000E+00  0.00000000000E+00  0.45593999997E+02  0.45594000000E+02  0.51100000000E-03 0.  1.
         11   -1    0    0    0    0 -0.00000000000E+00 -0.00000000000E+00 -0.45593999997E+02  0.45594000000E+02  0.51100000000E-03 0. -1.
    9900012    2    1    2    0    0  0.31847716222E+02  0.19030145419E+00 -0.15516727683E+01  0.59301938286E+02  0.49999989529E+02 0.  0.
        -12    1    1    2    0    0 -0.31847716222E+02 -0.19030145419E+00  0.15516727683E+01  0.31886061714E+02  0.00000000000E+00 0.  1.
         11    1    3    3    0    0 -0.12123549332E+01 -0.36258470068E+01 -0.10901761728E+02  0.11552704446E+02  0.51100000000E-03 0. -1.
        -11    1    3    3    0    0  0.13387928992E+02 -0.34235629960E+01  0.19942981771E+02  0.24262727556E+02  0.51100000000E-03 0.  1.
        -12    1    3    3    0    0  0.19672142164E+02  0.72397114570E+01 -0.10592892812E+02  0.23486506284E+02  0.00000000000E+00 0.  1.
</event>
<event>
 7    1  0.3750159E-013  0.5930194E+02  0.7816164E-02  0.1266605E+00
        -11   -1    0    0    0    0  0.00000000000E+00  0.00000000000E+00  0.45593999997E+02  0.45594000000E+02  0.51100000000E-03 0. -1.
         11   -1    0    0    0    0 -0.00000000000E+00 -0.00000000000E+00 -0.45593999997E+02  0.45594000000E+02  0.51100000000E-03 0.  1.
    9900012    2    1    2    0    0  0.34148286647E+01 -0.19058443908E+02  0.25334466046E+02  0.59301944916E+02  0.50000001619E+02 0.  0.
        -12    1    1    2    0    0 -0.34148286647E+01  0.19058443908E+02 -0.25334466046E+02  0.31886055084E+02  0.00000000000E+00 0.  1.
         11    1    3    3    0    0  0.31591420367E+01  0.25528162028E+01  0.26958998744E+01  0.48749282422E+01  0.51100000000E-03 0. -1.
        -11    1    3    3    0    0  0.97826547653E+01  0.68832094108E+01 -0.55883071203E+01  0.13202578641E+02  0.51100000000E-03 0.  1.
         12    1    3    3    0    0 -0.95269681373E+01 -0.28494469521E+02  0.28226873292E+02  0.41224438032E+02  0.00000000000E+00 0. -1.
</event>
<event>
 7    1  0.3750159E-013  0.5930170E+02  0.7816164E-02  0.1266606E+00
        -11   -1    0    0    0    0  0.00000000000E+00  0.00000000000E+00  0.45593999997E+02  0.45594000000E+02  0.51100000000E-03 0.  1.
         11   -1    0    0    0    0 -0.00000000000E+00 -0.00000000000E+00 -0.45593999997E+02  0.45594000000E+02  0.51100000000E-03 0. -1.
    9900012    2    1    2    0    0  0.11681493554E+02  0.28241885028E+02 -0.90925642095E+01  0.59301700661E+02  0.49999556156E+02 0.  0.
        -12    1    1    2    0    0 -0.11681493554E+02 -0.28241885028E+02  0.90925642095E+01  0.31886299339E+02  0.00000000000E+00 0.  1.
         11    1    3    3    0    0 -0.99576606481E+01  0.10004739439E+01 -0.37558055550E+01  0.10689341856E+02  0.51100000000E-03 0. -1.
        -11    1    3    3    0    0 -0.22193947565E-01  0.23045208135E+02  0.59897548363E+01  0.23810906615E+02  0.51100000000E-03 0.  1.
         12    1    3    3    0    0  0.21661348150E+02  0.41962029493E+01 -0.11326513491E+02  0.24801452190E+02  0.00000000000E+00 0. -1.
</event>
<event>
 7    1  0.3750159E-013  0.5930195E+02  0.7816164E-02  0.1266605E+00
        -11   -1    0    0    0    0  0.00000000000E+00  0.00000000000E+00  0.45593999997E+02  0.45594000000E+02  0.51100000000E-03 0. -1.
         11   -1    0    0    0    0 -0.00000000000E+00 -0.00000000000E+00 -0.45593999997E+02  0.45594000000E+02  0.51100000000E-03 0.  1.
    9900012    2    1    2    0    0  0.42621927213E+01 -0.19210306574E+02  0.25090197507E+02  0.59301950129E+02  0.50000011127E+02 0.  0.
        -12    1    1    2    0    0 -0.42621927213E+01  0.19210306574E+02 -0.25090197507E+02  0.31886049871E+02  0.00000000000E+00 0.  1.
         11    1    3    3    0    0 -0.27627458807E+01  0.40617148625E+01 -0.60251392352E+00  0.49490722075E+01  0.51100000000E-03 0. -1.
        -11    1    3    3    0    0  0.17943800297E+02 -0.51358546421E+01  0.27357870195E+02  0.33118122438E+02  0.51100000000E-03 0.  1.
        -12    1    3    3    0    0 -0.10918861695E+02 -0.18136166795E+02 -0.16651587644E+01  0.21234755483E+02  0.00000000000E+00 0.  1.
</event>
<event>
 7    1  0.3750159E-013  0.5930194E+02  0.7816164E-02  0.1266605E+00
        -11   -1    0    0    0    0  0.00000000000E+00  0.00000000000E+00  0.45593999997E+02  0.45594000000E+02  0.51100000000E-03 0.  1.
         11   -1    0    0    0    0 -0.00000000000E+00 -0.00000000000E+00 -0.45593999997E+02  0.45594000000E+02  0.51100000000E-03 0. -1.
    9900012    2    1    2    0    0  0.10563353213E+02 -0.47184477561E+00 -0.30081788728E+02  0.59301935933E+02  0.49999985238E+02 0.  0.
        -12    1    1    2    0    0 -0.10563353213E+02  0.47184477561E+00  0.30081788728E+02  0.31886064067E+02  0.00000000000E+00 0.  1.
         11    1    3    3    0    0 -0.62237651176E+01 -0.62262492322E+01  0.49710596246E+01  0.10110037873E+02  0.51100000000E-03 0. -1.
        -11    1    3    3    0    0  0.46143117368E+01 -0.55593229064E+01  0.28805502527E+01  0.77778862169E+01  0.51100000000E-03 0.  1.
         12    1    3    3    0    0  0.12172806594E+02  0.11313727363E+02 -0.37933398605E+02  0.41414011843E+02  0.00000000000E+00 0. -1.
</event>
<event>
 7    1  0.3750159E-013  0.5930194E+02  0.7816164E-02  0.1266605E+00
        -11   -1    0    0    0    0  0.00000000000E+00  0.00000000000E+00  0.45593999997E+02  0.45594000000E+02  0.51100000000E-03 0.  1.
         11   -1    0    0    0    0 -0.00000000000E+00 -0.00000000000E+00 -0.45593999997E+02  0.45594000000E+02  0.51100000000E-03 0. -1.
    9900012    2    1    2    0    0  0.13260485741E+02  0.27153284452E+02 -0.10177400806E+02  0.59301939946E+02  0.49999992555E+02 0.  0.
        -12    1    1    2    0    0 -0.13260485741E+02 -0.27153284452E+02  0.10177400806E+02  0.31886060054E+02  0.00000000000E+00 0.  1.
         11    1    3    3    0    0 -0.18142968045E+01  0.44706889276E+01  0.70305210869E+01  0.85268375965E+01  0.51100000000E-03 0. -1.
        -11    1    3    3    0    0 -0.88688207913E+01 -0.53336145370E+01 -0.64123947879E+00  0.10368925431E+02  0.51100000000E-03 0.  1.
         12    1    3    3    0    0  0.23943603337E+02  0.28016210062E+02 -0.16566682414E+02  0.40406176918E+02  0.00000000000E+00 0. -1.
</event>
<event>
 7    1  0.3750159E-013  0.5930195E+02  0.7816164E-02  0.1266605E+00
        -11   -1    0    0    0    0  0.00000000000E+00  0.00000000000E+00  0.45593999997E+02  0.45594000000E+02  0.51100000000E-03 0.  1.
         11   -1    0    0    0    0 -0.00000000000E+00 -0.00000000000E+00 -0.45593999997E+02  0.45594000000E+02  0.51100000000E-03 0. -1.
    9900012    2    1    2    0    0  0.43768050114E+01 -0.26475205162E+02 -0.17222863764E+02  0.59301953730E+02  0.50000017695E+02 0.  0.
        -12    1    1    2    0    0 -0.43768050114E+01  0.26475205162E+02  0.17222863764E+02  0.31886046270E+02  0.00000000000E+00 0.  1.
         11    1    3    3    0    0  0.11531989324E+02 -0.18766154348E+02 -0.23440534442E+01  0.22150618808E+02  0.51100000000E-03 0. -1.
        -11    1    3    3    0    0 -0.10508155363E+02 -0.13952872306E+02 -0.21328829324E+02  0.27568513477E+02  0.51100000000E-03 0.  1.
         12    1    3    3    0    0  0.33529710511E+01  0.62438214917E+01  0.64500190046E+01  0.95828214452E+01  0.00000000000E+00 0. -1.
</event>
<event>
 7    1  0.3750159E-013  0.5930193E+02  0.7816164E-02  0.1266605E+00
        -11   -1    0    0    0    0  0.00000000000E+00  0.00000000000E+00  0.45593999997E+02  0.45594000000E+02  0.51100000000E-03 0. -1.
         11   -1    0    0    0    0 -0.00000000000E+00 -0.00000000000E+00 -0.45593999997E+02  0.45594000000E+02  0.51100000000E-03 0.  1.
    9900012    2    1    2    0    0  0.24154158714E+01  0.31722423177E+02 -0.21389216806E+01  0.59301931694E+02  0.49999977507E+02 0.  0.
        -12    1    1    2    0    0 -0.24154158714E+01 -0.31722423177E+02  0.21389216806E+01  0.31886068306E+02  0.00000000000E+00 0.  1.
         11    1    3    3    0    0  0.45470636126E+01  0.10466785630E+01  0.41763343481E+01  0.62620357999E+01  0.51100000000E-03 0. -1.
        -11    1    3    3    0    0  0.17384747849E+02  0.13425621740E+02 -0.13797531185E+02  0.25939326205E+02  0.51100000000E-03 0.  1.
         12    1    3    3    0    0 -0.19516395591E+02  0.17250122874E+02  0.74822751558E+01  0.27100569690E+02  0.00000000000E+00 0. -1.
</event>
<event>
 7    1  0.3750159E-013  0.5930194E+02  0.7816164E-02  0.1266605E+00
        -11   -1    0    0    0    0  0.00000000000E+00  0.00000000000E+00  0.45593999997E+02  0.45594000000E+02  0.51100000000E-03 0.  1.
         11   -1    0    0    0    0 -0.00000000000E+00 -0.00000000000E+00 -0.45593999997E+02  0.45594000000E+02  0.51100000000E-03 0. -1.
    9900012    2    1    2    0    0  0.13849723577E+02 -0.23804656056E+02 -0.16069974136E+02  0.59301944085E+02  0.50000000104E+02 0.  0.
        -12    1    1    2    0    0 -0.13849723577E+02  0.23804656056E+02  0.16069974136E+02  0.31886055915E+02  0.00000000000E+00 0.  1.
         11    1    3    3    0    0  0.10090126006E+02 -0.20483145422E+02 -0.53451785712E+01  0.23450817116E+02  0.51100000000E-03 0. -1.
        -11    1    3    3    0    0 -0.11101049445E+02 -0.11761602394E+02 -0.94077675145E+01  0.18710282721E+02  0.51100000000E-03 0.  1.
         12    1    3    3    0    0  0.14860647016E+02  0.84400917591E+01 -0.13170280501E+01  0.17140844247E+02  0.00000000000E+00 0. -1.
</event>
<event>
 7    1  0.3750159E-013  0.5930202E+02  0.7816164E-02  0.1266605E+00
        -11   -1    0    0    0    0  0.00000000000E+00  0.00000000000E+00  0.45593999997E+02  0.45594000000E+02  0.51100000000E-03 0. -1.
         11   -1    0    0    0    0 -0.00000000000E+00 -0.00000000000E+00 -0.45593999997E+02  0.45594000000E+02  0.51100000000E-03 0.  1.
    9900012    2    1    2    0    0 -0.23323941939E+02 -0.17034249499E+02  0.13510886122E+02  0.59302016130E+02  0.50000131498E+02 0.  0.
        -12    1    1    2    0    0  0.23323941939E+02  0.17034249499E+02 -0.13510886122E+02  0.31885983870E+02  0.00000000000E+00 0.  1.
         11    1    3    3    0    0 -0.12518714339E+02 -0.24914142935E+02  0.10065501101E+02  0.29643667781E+02  0.51100000000E-03 0. -1.
        -11    1    3    3    0    0  0.78879115183E+01  0.55053823023E+01  0.48309501675E+01  0.10764128492E+02  0.51100000000E-03 0.  1.
         12    1    3    3    0    0 -0.18693139118E+02  0.23745111340E+01 -0.13855651465E+01  0.18894219857E+02  0.00000000000E+00 0. -1.
</event>
<event>
 7    1  0.3750159E-013  0.5930193E+02  0.7816164E-02  0.1266605E+00
        -11   -1    0    0    0    0  0.00000000000E+00  0.00000000000E+00  0.45593999997E+02  0.45594000000E+02  0.51100000000E-03 0.  1.
         11   -1    0    0    0    0 -0.00000000000E+00 -0.00000000000E+00 -0.45593999997E+02  0.45594000000E+02  0.51100000000E-03 0. -1.
    9900012    2    1    2    0    0 -0.28534087955E+01 -0.24055793064E+02 -0.20733986850E+02  0.59301932002E+02  0.49999978068E+02 0.  0.
        -12    1    1    2    0    0  0.28534087955E+01  0.24055793064E+02  0.20733986850E+02  0.31886067998E+02  0.00000000000E+00 0.  1.
         11    1    3    3    0    0  0.30836449205E+01 -0.11952536811E+02 -0.19426181679E+02  0.23016266794E+02  0.51100000000E-03 0. -1.
        -11    1    3    3    0    0 -0.19459474703E+02 -0.75069537529E+01 -0.51739408058E+01  0.21489420050E+02  0.51100000000E-03 0.  1.
        -12    1    3    3    0    0  0.13522420987E+02 -0.45963024994E+01  0.38661356345E+01  0.14796245158E+02  0.00000000000E+00 0.  1.
</event>
<event>
 7    1  0.3750159E-013  0.5930199E+02  0.7816164E-02  0.1266605E+00
        -11   -1    0    0    0    0  0.00000000000E+00  0.00000000000E+00  0.45593999997E+02  0.45594000000E+02  0.51100000000E-03 0. -1.
         11   -1    0    0    0    0 -0.00000000000E+00 -0.00000000000E+00 -0.45593999997E+02  0.45594000000E+02  0.51100000000E-03 0.  1.
    9900012    2    1    2    0    0 -0.12523342926E+02  0.11070985170E+02  0.27153573672E+02  0.59301993762E+02  0.50000090703E+02 0.  0.
        -12    1    1    2    0    0  0.12523342926E+02 -0.11070985170E+02 -0.27153573672E+02  0.31886006238E+02  0.00000000000E+00 0.  1.
         11    1    3    3    0    0 -0.13487518951E+02  0.65148031609E+01  0.12479559065E+02  0.19496030939E+02  0.51100000000E-03 0. -1.
        -11    1    3    3    0    0 -0.12370184574E+02 -0.76735972421E+01  0.16040369443E+02  0.21661002127E+02  0.51100000000E-03 0.  1.
        -12    1    3    3    0    0  0.13334360599E+02  0.12229779251E+02 -0.13663548358E+01  0.18144960696E+02  0.00000000000E+00 0.  1.
</event>
<event>
 7    1  0.3750159E-013  0.5930215E+02  0.7816164E-02  0.1266604E+00
        -11   -1    0    0    0    0  0.00000000000E+00  0.00000000000E+00  0.45593999997E+02  0.45594000000E+02  0.51100000000E-03 0. -1.
         11   -1    0    0    0    0 -0.00000000000E+00 -0.00000000000E+00 -0.45593999997E+02  0.45594000000E+02  0.51100000000E-03 0.  1.
    9900012    2    1    2    0    0  0.10402201031E+02  0.21610608847E+02  0.21011498695E+02  0.59302152380E+02  0.50000379983E+02 0.  0.
        -12    1    1    2    0    0 -0.10402201031E+02 -0.21610608847E+02 -0.21011498695E+02  0.31885847620E+02  0.00000000000E+00 0.  1.
         11    1    3    3    0    0 -0.26536244840E+01  0.35495231929E+01  0.70536371945E+01  0.83303442745E+01  0.51100000000E-03 0. -1.
        -11    1    3    3    0    0 -0.14254164434E+02 -0.11973714684E+01 -0.10421020104E+01  0.14342275935E+02  0.51100000000E-03 0.  1.
         12    1    3    3    0    0  0.27309989948E+02  0.19258457122E+02  0.14999963511E+02  0.36629532171E+02  0.00000000000E+00 0. -1.
</event>
<event>
 7    1  0.3750159E-013  0.5930203E+02  0.7816164E-02  0.1266604E+00
        -11   -1    0    0    0    0  0.00000000000E+00  0.00000000000E+00  0.45593999997E+02  0.45594000000E+02  0.51100000000E-03 0. -1.
         11   -1    0    0    0    0 -0.00000000000E+00 -0.00000000000E+00 -0.45593999997E+02  0.45594000000E+02  0.51100000000E-03 0.  1.
    9900012    2    1    2    0    0  0.76917531369E+01  0.30439038141E+02  0.55692873583E+01  0.59302030187E+02  0.50000157133E+02 0.  0.
        -12    1    1    2    0    0 -0.76917531369E+01 -0.30439038141E+02 -0.55692873583E+01  0.31885969813E+02  0.00000000000E+00 0.  1.
         11    1    3    3    0    0  0.34912086499E+01  0.23554992981E+02  0.68002249134E+00  0.23822020549E+02  0.51100000000E-03 0. -1.
        -11    1    3    3    0    0 -0.12912568466E+01  0.17090529350E+02 -0.73277075093E+01  0.18639979488E+02  0.51100000000E-03 0.  1.
         12    1    3    3    0    0  0.54918013335E+01 -0.10206484191E+02  0.12216972376E+02  0.16840030150E+02  0.00000000000E+00 0. -1.
</event>
<event>
 7    1  0.3750159E-013  0.5930197E+02  0.7816164E-02  0.1266605E+00
        -11   -1    0    0    0    0  0.00000000000E+00  0.00000000000E+00  0.45593999997E+02  0.45594000000E+02  0.51100000000E-03 0.  1.
         11   -1    0    0    0    0 -0.00000000000E+00 -0.00000000000E+00 -0.45593999997E+02  0.45594000000E+02  0.51100000000E-03 0. -1.
    9900012    2    1    2    0    0 -0.16213467461E+02  0.27444224136E+02 -0.81060672034E+00  0.59301967810E+02  0.50000043373E+02 0.  0.
        -12    1    1    2    0    0  0.16213467461E+02 -0.27444224136E+02  0.81060672034E+00  0.31886032190E+02  0.00000000000E+00 0.  1.
         11    1    3    3    0    0 -0.54541229515E+01  0.32008819268E+01 -0.18510673903E+02  0.19561138793E+02  0.51100000000E-03 0. -1.
        -11    1    3    3    0    0 -0.10115517232E+02  0.68510284617E+01 -0.31152241265E+01  0.12608128389E+02  0.51100000000E-03 0.  1.
        -12    1    3    3    0    0 -0.64382727715E+00  0.17392313748E+02  0.20815291309E+02  0.27132700628E+02  0.00000000000E+00 0.  1.
</event>
<event>
 7    1  0.3750159E-013  0.5930196E+02  0.7816164E-02  0.1266605E+00
        -11   -1    0    0    0    0  0.00000000000E+00  0.00000000000E+00  0.45593999997E+02  0.45594000000E+02  0.51100000000E-03 0.  1.
         11   -1    0    0    0    0 -0.00000000000E+00 -0.00000000000E+00 -0.45593999997E+02  0.45594000000E+02  0.51100000000E-03 0. -1.
    9900012    2    1    2    0    0  0.13292514993E+02  0.27518883296E+02 -0.90961421740E+01  0.59301957675E+02  0.50000024889E+02 0.  0.
        -12    1    1    2    0    0 -0.13292514993E+02 -0.27518883296E+02  0.90961421740E+01  0.31886042325E+02  0.00000000000E+00 0.  1.
         11    1    3    3    0    0  0.12028464259E+02  0.17953024463E+02  0.36156720765E+01  0.21910456970E+02  0.51100000000E-03 0. -1.
        -11    1    3    3    0    0  0.15242842200E+02 -0.72467681039E+00 -0.12976482776E+02  0.20031437799E+02  0.51100000000E-03 0.  1.
        -12    1    3    3    0    0 -0.13978791466E+02  0.10290535643E+02  0.26466852541E+00  0.17360062906E+02  0.00000000000E+00 0.  1.
</event>
<event>
 7    1  0.3750159E-013  0.5930192E+02  0.7816164E-02  0.1266605E+00
        -11   -1    0    0    0    0  0.00000000000E+00  0.00000000000E+00  0.45593999997E+02  0.45594000000E+02  0.51100000000E-03 0. -1.
         11   -1    0    0    0    0 -0.00000000000E+00 -0.00000000000E+00 -0.45593999997E+02  0.45594000000E+02  0.51100000000E-03 0.  1.
    9900012    2    1    2    0    0 -0.10067129129E+02  0.29009027515E+02 -0.85936790062E+01  0.59301920198E+02  0.49999956541E+02 0.  0.
        -12    1    1    2    0    0  0.10067129129E+02 -0.29009027515E+02  0.85936790062E+01  0.31886079802E+02  0.00000000000E+00 0.  1.
         11    1    3    3    0    0  0.72098522332E+01  0.50087610400E+01 -0.19521214243E+01  0.89933550301E+01  0.51100000000E-03 0.  1.
        -11    1    3    3    0    0 -0.28568331909E+01  0.30462346841E+02  0.45671608044E+01  0.30935012995E+02  0.51100000000E-03 0. -1.
         12    1    3    3    0    0 -0.14420148171E+02 -0.64620803659E+01 -0.11208718386E+02  0.19373552173E+02  0.00000000000E+00 0. -1.
</event>
<event>
 7    1  0.3750159E-013  0.5930191E+02  0.7816164E-02  0.1266605E+00
        -11   -1    0    0    0    0  0.00000000000E+00  0.00000000000E+00  0.45593999997E+02  0.45594000000E+02  0.51100000000E-03 0.  1.
         11   -1    0    0    0    0 -0.00000000000E+00 -0.00000000000E+00 -0.45593999997E+02  0.45594000000E+02  0.51100000000E-03 0. -1.
    9900012    2    1    2    0    0  0.48617867471E+01 -0.27750049992E+02 -0.14933863417E+02  0.59301913356E+02  0.49999944062E+02 0.  0.
        -12    1    1    2    0    0 -0.48617867471E+01  0.27750049992E+02  0.14933863417E+02  0.31886086644E+02  0.00000000000E+00 0.  1.
         11    1    3    3    0    0 -0.49826005951E+01  0.99666919035E+01 -0.32629102439E+01  0.11610677832E+02  0.51100000000E-03 0. -1.
        -11    1    3    3    0    0  0.15712094855E+02 -0.13570986957E+02 -0.14159127924E+01  0.20809767443E+02  0.51100000000E-03 0.  1.
         12    1    3    3    0    0 -0.58677075132E+01 -0.24145754938E+02 -0.10255040381E+02  0.26881468081E+02  0.00000000000E+00 0. -1.
</event>
<event>
 7    1  0.3750159E-013  0.5930194E+02  0.7816164E-02  0.1266605E+00
        -11   -1    0    0    0    0  0.00000000000E+00  0.00000000000E+00  0.45593999997E+02  0.45594000000E+02  0.51100000000E-03 0.  1.
         11   -1    0    0    0    0 -0.00000000000E+00 -0.00000000000E+00 -0.45593999997E+02  0.45594000000E+02  0.51100000000E-03 0. -1.
    9900012    2    1    2    0    0  0.43549397969E+01 -0.26029097919E+02 -0.17895289161E+02  0.59301940142E+02  0.49999992913E+02 0.  0.
        -12    1    1    2    0    0 -0.43549397969E+01  0.26029097919E+02  0.17895289161E+02  0.31886059858E+02  0.00000000000E+00 0.  1.
         11    1    3    3    0    0  0.75437538255E+00  0.53936822323E+01  0.60628935498E+00  0.54798245669E+01  0.51100000000E-03 0. -1.
        -11    1    3    3    0    0 -0.11033518089E+02 -0.20268928601E+02  0.53583870992E+01  0.23691354976E+02  0.51100000000E-03 0.  1.
         12    1    3    3    0    0  0.14634082503E+02 -0.11153851551E+02 -0.23859965615E+02  0.30130760599E+02  0.00000000000E+00 0. -1.
</event>
<event>
 7    1  0.3750159E-013  0.5930196E+02  0.7816164E-02  0.1266605E+00
        -11   -1    0    0    0    0  0.00000000000E+00  0.00000000000E+00  0.45593999997E+02  0.45594000000E+02  0.51100000000E-03 0. -1.
         11   -1    0    0    0    0 -0.00000000000E+00 -0.00000000000E+00 -0.45593999997E+02  0.45594000000E+02  0.51100000000E-03 0.  1.
    9900012    2    1    2    0    0 -0.65231028236E+01 -0.14097135085E+02  0.27846715228E+02  0.59301958586E+02  0.50000026551E+02 0.  0.
        -12    1    1    2    0    0  0.65231028236E+01  0.14097135085E+02 -0.27846715228E+02  0.31886041414E+02  0.00000000000E+00 0.  1.
         11    1    3    3    0    0  0.16804003818E+01 -0.11937271463E+02 -0.14183759334E+00  0.12055799998E+02  0.51100000000E-03 0. -1.
        -11    1    3    3    0    0 -0.16860255281E+02 -0.14348189730E+02  0.21786193516E+02  0.31060859371E+02  0.51100000000E-03 0.  1.
        -12    1    3    3    0    0  0.86567520756E+01  0.12188326108E+02  0.62023593049E+01  0.16185299217E+02  0.00000000000E+00 0.  1.
</event>
<event>
 7    1  0.3750159E-013  0.5930194E+02  0.7816164E-02  0.1266605E+00
        -11   -1    0    0    0    0  0.00000000000E+00  0.00000000000E+00  0.45593999997E+02  0.45594000000E+02  0.51100000000E-03 0.  1.
         11   -1    0    0    0    0 -0.00000000000E+00 -0.00000000000E+00 -0.45593999997E+02  0.45594000000E+02  0.51100000000E-03 0. -1.
    9900012    2    1    2    0    0 -0.13626537795E+02  0.23269407867E+02 -0.17016840138E+02  0.59301941557E+02  0.49999995494E+02 0.  0.
        -12    1    1    2    0    0  0.13626537795E+02 -0.23269407867E+02  0.17016840138E+02  0.31886058443E+02  0.00000000000E+00 0.  1.
         11    1    3    3    0    0 -0.96984849427E+00 -0.53231705630E+01 -0.23107656830E+01  0.58835694308E+01  0.51100000000E-03 0. -1.
        -11    1    3    3    0    0 -0.12677237203E+02 -0.60682277262E+01 -0.12295368549E+02  0.18673827108E+02  0.51100000000E-03 0.  1.
        -12    1    3    3    0    0  0.20547901944E-01  0.34660806156E+02 -0.24107059054E+01  0.34744545019E+02  0.00000000000E+00 0.  1.
</event>
<event>
 7    1  0.3750159E-013  0.5930196E+02  0.7816164E-02  0.1266605E+00
        -11   -1    0    0    0    0  0.00000000000E+00  0.00000000000E+00  0.45593999997E+02  0.45594000000E+02  0.51100000000E-03 0.  1.
         11   -1    0    0    0    0 -0.00000000000E+00 -0.00000000000E+00 -0.45593999997E+02  0.45594000000E+02  0.51100000000E-03 0. -1.
    9900012    2    1    2    0    0  0.29671218676E+02  0.11283111596E+02 -0.30049890798E+01  0.59301956276E+02  0.50000022338E+02 0.  0.
        -12    1    1    2    0    0 -0.29671218676E+02 -0.11283111596E+02  0.30049890798E+01  0.31886043724E+02  0.00000000000E+00 0.  1.
         11    1    3    3    0    0  0.88689810615E+01 -0.16605486611E+02 -0.12066795690E+01  0.18864174684E+02  0.51100000000E-03 0. -1.
        -11    1    3    3    0    0  0.80995882844E+01  0.84407980804E+01 -0.10414585450E+02  0.15662502768E+02  0.51100000000E-03 0.  1.
        -12    1    3    3    0    0  0.12702649330E+02  0.19447800127E+02  0.86162759390E+01  0.24775278824E+02  0.00000000000E+00 0.  1.
</event>
<event>
 7    1  0.3750159E-013  0.5930207E+02  0.7816164E-02  0.1266604E+00
        -11   -1    0    0    0    0  0.00000000000E+00  0.00000000000E+00  0.45593999997E+02  0.45594000000E+02  0.51100000000E-03 0. -1.
         11   -1    0    0    0    0 -0.00000000000E+00 -0.00000000000E+00 -0.45593999997E+02  0.45594000000E+02  0.51100000000E-03 0.  1.
    9900012    2    1    2    0    0  0.18651639473E+02 -0.23593231125E+02  0.10591908211E+02  0.59302066902E+02  0.50000224093E+02 0.  0.
        -12    1    1    2    0    0 -0.18651639473E+02  0.23593231125E+02 -0.10591908211E+02  0.31885933098E+02  0.00000000000E+00 0.  1.
         11    1    3    3    0    0  0.15896310133E+02 -0.18192869283E+02 -0.52888871276E+01  0.24731467727E+02  0.51100000000E-03 0. -1.
        -11    1    3    3    0    0 -0.69729288444E+01  0.23537759078E+01 -0.59366952708E+01  0.94554930434E+01  0.51100000000E-03 0.  1.
         12    1    3    3    0    0  0.97282581843E+01 -0.77541377498E+01  0.21817490610E+02  0.25115106132E+02  0.00000000000E+00 0. -1.
</event>
<event>
 7    1  0.3750159E-013  0.5930197E+02  0.7816164E-02  0.1266605E+00
        -11   -1    0    0    0    0  0.00000000000E+00  0.00000000000E+00  0.45593999997E+02  0.45594000000E+02  0.51100000000E-03 0.  1.
         11   -1    0    0    0    0 -0.00000000000E+00 -0.00000000000E+00 -0.45593999997E+02  0.45594000000E+02  0.51100000000E-03 0. -1.
    9900012    2    1    2    0    0  0.83971729505E+01  0.26154646561E+02 -0.16190771196E+02  0.59301966659E+02  0.50000041274E+02 0.  0.
        -12    1    1    2    0    0 -0.83971729505E+01 -0.26154646561E+02  0.16190771196E+02  0.31886033341E+02  0.00000000000E+00 0.  1.
         11    1    3    3    0    0 -0.50688242174E+01  0.81817476071E+01 -0.22936561801E+02  0.24874079689E+02  0.51100000000E-03 0. -1.
        -11    1    3    3    0    0  0.17630300705E+02  0.15085382046E+02 -0.30460916737E+01  0.23402455622E+02  0.51100000000E-03 0.  1.
         12    1    3    3    0    0 -0.41643035371E+01  0.28875169079E+01  0.97918822788E+01  0.11025431348E+02  0.00000000000E+00 0. -1.
</event>
<event>
 7    1  0.3750159E-013  0.5930193E+02  0.7816164E-02  0.1266605E+00
        -11   -1    0    0    0    0  0.00000000000E+00  0.00000000000E+00  0.45593999997E+02  0.45594000000E+02  0.51100000000E-03 0. -1.
         11   -1    0    0    0    0 -0.00000000000E+00 -0.00000000000E+00 -0.45593999997E+02  0.45594000000E+02  0.51100000000E-03 0.  1.
    9900012    2    1    2    0    0 -0.27603916709E+02  0.60110552076E+01 -0.14785555137E+02  0.59301927129E+02  0.49999969181E+02 0.  0.
        -12    1    1    2    0    0  0.27603916709E+02 -0.60110552076E+01  0.14785555137E+02  0.31886072871E+02  0.00000000000E+00 0.  1.
         11    1    3    3    0    0 -0.18209264293E+02  0.12776544629E+02 -0.55001054384E+01  0.22914374503E+02  0.51100000000E-03 0. -1.
        -11    1    3    3    0    0  0.82195703686E+01  0.84012486046E+01 -0.48970431556E+01  0.12732766671E+02  0.51100000000E-03 0.  1.
         12    1    3    3    0    0 -0.17614222784E+02 -0.15166738026E+02 -0.43884065432E+01  0.23654785956E+02  0.00000000000E+00 0. -1.
</event>
<event>
 7    1  0.3750159E-013  0.5930221E+02  0.7816164E-02  0.1266604E+00
        -11   -1    0    0    0    0  0.00000000000E+00  0.00000000000E+00  0.45593999997E+02  0.45594000000E+02  0.51100000000E-03 0.  1.
         11   -1    0    0    0    0 -0.00000000000E+00 -0.00000000000E+00 -0.45593999997E+02  0.45594000000E+02  0.51100000000E-03 0. -1.
    9900012    2    1    2    0    0  0.27674975624E+02 -0.11310797444E+02 -0.11084444023E+02  0.59302214547E+02  0.50000493361E+02 0.  0.
        -12    1    1    2    0    0 -0.27674975624E+02  0.11310797444E+02  0.11084444023E+02  0.31885785453E+02  0.00000000000E+00 0.  1.
         11    1    3    3    0    0  0.18207437821E+02  0.54372097102E+00 -0.14669614056E+02  0.23388116669E+02  0.51100000000E-03 0. -1.
        -11    1    3    3    0    0  0.17379585600E+01  0.98857192736E+01 -0.51018374298E+01  0.11259515573E+02  0.51100000000E-03 0.  1.
         12    1    3    3    0    0  0.77295792428E+01 -0.21740237689E+02  0.86870074621E+01  0.24654582306E+02  0.00000000000E+00 0. -1.
</event>
<event>
 7    1  0.3750159E-013  0.5930198E+02  0.7816164E-02  0.1266605E+00
        -11   -1    0    0    0    0  0.00000000000E+00  0.00000000000E+00  0.45593999997E+02  0.45594000000E+02  0.51100000000E-03 0.  1.
         11   -1    0    0    0    0 -0.00000000000E+00 -0.00000000000E+00 -0.45593999997E+02  0.45594000000E+02  0.51100000000E-03 0. -1.
    9900012    2    1    2    0    0 -0.14996227040E+02 -0.28092450874E+02 -0.16264590472E+01  0.59301984405E+02  0.50000073638E+02 0.  0.
        -12    1    1    2    0    0  0.14996227040E+02  0.28092450874E+02  0.16264590472E+01  0.31886015595E+02  0.00000000000E+00 0.  1.
         11    1    3    3    0    0 -0.19150241702E+02 -0.23669415442E+02  0.24406944759E+01  0.30543902409E+02  0.51100000000E-03 0.  1.
        -11    1    3    3    0    0 -0.43264499029E+01  0.22251433467E+01 -0.13554378575E+02  0.14401062825E+02  0.51100000000E-03 0. -1.
        -12    1    3    3    0    0  0.84804645645E+01 -0.66481787787E+01  0.94872250514E+01  0.14357019171E+02  0.00000000000E+00 0.  1.
</event>
<event>
 7    1  0.3750159E-013  0.5930189E+02  0.7816164E-02  0.1266605E+00
        -11   -1    0    0    0    0  0.00000000000E+00  0.00000000000E+00  0.45593999997E+02  0.45594000000E+02  0.51100000000E-03 0.  1.
         11   -1    0    0    0    0 -0.00000000000E+00 -0.00000000000E+00 -0.45593999997E+02  0.45594000000E+02  0.51100000000E-03 0. -1.
    9900012    2    1    2    0    0  0.18160959839E+02 -0.57157169354E+01 -0.25578004106E+02  0.59301887405E+02  0.49999896733E+02 0.  0.
        -12    1    1    2    0    0 -0.18160959839E+02  0.57157169354E+01  0.25578004106E+02  0.31886112595E+02  0.00000000000E+00 0.  1.
         11    1    3    3    0    0  0.16714572473E+02  0.60980935260E+01 -0.34263964594E+02  0.38608068426E+02  0.51100000000E-03 0. -1.
        -11    1    3    3    0    0  0.31554300205E+01 -0.38838570679E-01 -0.27536657799E+01  0.41881884554E+01  0.51100000000E-03 0.  1.
        -12    1    3    3    0    0 -0.17090426536E+01 -0.11774971891E+02  0.11439626268E+02  0.16505630523E+02  0.00000000000E+00 0.  1.
</event>
<event>
 7    1  0.3750159E-013  0.5930196E+02  0.7816164E-02  0.1266605E+00
        -11   -1    0    0    0    0  0.00000000000E+00  0.00000000000E+00  0.45593999997E+02  0.45594000000E+02  0.51100000000E-03 0.  1.
         11   -1    0    0    0    0 -0.00000000000E+00 -0.00000000000E+00 -0.45593999997E+02  0.45594000000E+02  0.51100000000E-03 0. -1.
    9900012    2    1    2    0    0  0.28320256328E+02 -0.13934482122E+02 -0.45291095993E+01  0.59301960041E+02  0.50000029205E+02 0.  0.
        -12    1    1    2    0    0 -0.28320256328E+02  0.13934482122E+02  0.45291095993E+01  0.31886039959E+02  0.00000000000E+00 0.  1.
         11    1    3    3    0    0 -0.39094474776E+01 -0.11479575276E+02 -0.11309276945E+02  0.16582043703E+02  0.51100000000E-03 0. -1.
        -11    1    3    3    0    0  0.11441287833E+02  0.11705352283E+02 -0.97877033170E+00  0.16397448917E+02  0.51100000000E-03 0.  1.
        -12    1    3    3    0    0  0.20788415972E+02 -0.14160259129E+02  0.77589376774E+01  0.26322467421E+02  0.00000000000E+00 0.  1.
</event>
<event>
 7    1  0.3750159E-013  0.5930190E+02  0.7816164E-02  0.1266605E+00
        -11   -1    0    0    0    0  0.00000000000E+00  0.00000000000E+00  0.45593999997E+02  0.45594000000E+02  0.51100000000E-03 0.  1.
         11   -1    0    0    0    0 -0.00000000000E+00 -0.00000000000E+00 -0.45593999997E+02  0.45594000000E+02  0.51100000000E-03 0. -1.
    9900012    2    1    2    0    0  0.43830721900E+01 -0.24065537718E+02 -0.20453905805E+02  0.59301895030E+02  0.49999910640E+02 0.  0.
        -12    1    1    2    0    0 -0.43830721900E+01  0.24065537718E+02  0.20453905805E+02  0.31886104970E+02  0.00000000000E+00 0.  1.
         11    1    3    3    0    0  0.80426711489E+01 -0.11156799331E+02  0.71032238599E+01  0.15479487071E+02  0.51100000000E-03 0. -1.
        -11    1    3    3    0    0  0.12644584123E+01  0.69791268741E+01  0.24359852301E+01  0.74994060634E+01  0.51100000000E-03 0.  1.
         12    1    3    3    0    0 -0.49240573712E+01 -0.19887865261E+02 -0.29993114895E+02  0.36323001896E+02  0.00000000000E+00 0. -1.
</event>
<event>
 7    1  0.3982486E-013  0.5930197E+02  0.7816164E-02  0.1266605E+00
        -11   -1    0    0    0    0  0.00000000000E+00  0.00000000000E+00  0.45593999997E+02  0.45594000000E+02  0.51100000000E-03 0. -1.
         11   -1    0    0    0    0 -0.00000000000E+00 -0.00000000000E+00 -0.45593999997E+02  0.45594000000E+02  0.51100000000E-03 0.  1.
    9900012    2    1    2    0    0  0.22639569548E+02 -0.12843045838E+02  0.18418058479E+02  0.59301971494E+02  0.50000050092E+02 0.  0.
        -12    1    1    2    0    0 -0.22639569548E+02  0.12843045838E+02 -0.18418058479E+02  0.31886028506E+02  0.00000000000E+00 0.  1.
         11    1    3    3    0    0  0.19000117296E+01  0.66315331420E+01  0.10758426456E+02  0.12780102365E+02  0.51100000000E-03 0. -1.
        -11    1    3    3    0    0 -0.35470419633E+01  0.58491405352E+00 -0.98481411051E+01  0.10483773873E+02  0.51100000000E-03 0.  1.
         12    1    3    3    0    0  0.24286599782E+02 -0.20059493034E+02  0.17507773129E+02  0.36038095256E+02  0.00000000000E+00 0. -1.
</event>
<event>
 7    1  0.3750159E-013  0.5930178E+02  0.7816164E-02  0.1266605E+00
        -11   -1    0    0    0    0  0.00000000000E+00  0.00000000000E+00  0.45593999997E+02  0.45594000000E+02  0.51100000000E-03 0. -1.
         11   -1    0    0    0    0 -0.00000000000E+00 -0.00000000000E+00 -0.45593999997E+02  0.45594000000E+02  0.51100000000E-03 0.  1.
    9900012    2    1    2    0    0 -0.57365283302E+01 -0.19312634767E+02  0.24715285279E+02  0.59301781263E+02  0.49999703156E+02 0.  0.
        -12    1    1    2    0    0  0.57365283302E+01  0.19312634767E+02 -0.24715285279E+02  0.31886218737E+02  0.00000000000E+00 0.  1.
         11    1    3    3    0    0 -0.98821061317E+01 -0.35888892594E+01  0.10831468489E+02  0.15094928208E+02  0.51100000000E-03 0. -1.
        -11    1    3    3    0    0 -0.68846267400E+01  0.11035801604E+02  0.36896029613E+01  0.13520361411E+02  0.51100000000E-03 0.  1.
         12    1    3    3    0    0  0.11030204541E+02 -0.26759547112E+02  0.10194213828E+02  0.30686491644E+02  0.00000000000E+00 0. -1.
</event>
<event>
 7    1  0.3750159E-013  0.5930193E+02  0.7816164E-02  0.1266605E+00
        -11   -1    0    0    0    0  0.00000000000E+00  0.00000000000E+00  0.45593999997E+02  0.45594000000E+02  0.51100000000E-03 0.  1.
         11   -1    0    0    0    0 -0.00000000000E+00 -0.00000000000E+00 -0.45593999997E+02  0.45594000000E+02  0.51100000000E-03 0. -1.
    9900012    2    1    2    0    0 -0.23129427856E+02 -0.21948505565E+02  0.11872555501E+00  0.59301930546E+02  0.49999975412E+02 0.  0.
        -12    1    1    2    0    0  0.23129427856E+02  0.21948505565E+02 -0.11872555501E+00  0.31886069454E+02  0.00000000000E+00 0.  1.
         11    1    3    3    0    0 -0.78464256127E+00 -0.86003796850E+01 -0.11751933126E+02  0.14583899586E+02  0.51100000000E-03 0. -1.
        -11    1    3    3    0    0 -0.21393741583E+02  0.58503524661E+00 -0.58202597692E+01  0.22179041215E+02  0.51100000000E-03 0.  1.
        -12    1    3    3    0    0 -0.95104371098E+00 -0.13933161127E+02  0.17690918450E+02  0.22538989745E+02  0.00000000000E+00 0.  1.
</event>
<event>
 7    1  0.3750159E-013  0.5930190E+02  0.7816164E-02  0.1266605E+00
        -11   -1    0    0    0    0  0.00000000000E+00  0.00000000000E+00  0.45593999997E+02  0.45594000000E+02  0.51100000000E-03 0.  1.
         11   -1    0    0    0    0 -0.00000000000E+00 -0.00000000000E+00 -0.45593999997E+02  0.45594000000E+02  0.51100000000E-03 0. -1.
    9900012    2    1    2    0    0  0.83958198697E+01 -0.30717061740E+02  0.16418903973E+01  0.59301898368E+02  0.49999916727E+02 0.  0.
        -12    1    1    2    0    0 -0.83958198697E+01  0.30717061740E+02 -0.16418903973E+01  0.31886101632E+02  0.00000000000E+00 0.  1.
         11    1    3    3    0    0  0.13669805104E+02 -0.37408140876E+02  0.78666007069E+01  0.40596994745E+02  0.51100000000E-03 0. -1.
        -11    1    3    3    0    0 -0.34329059118E+01 -0.16975304154E+01  0.38744791948E+01  0.54477556666E+01  0.51100000000E-03 0.  1.
        -12    1    3    3    0    0 -0.18410793230E+01  0.83886095515E+01 -0.10099189505E+02  0.13257147956E+02  0.00000000000E+00 0.  1.
</event>
<event>
 7    1  0.3750159E-013  0.5930195E+02  0.7816164E-02  0.1266605E+00
        -11   -1    0    0    0    0  0.00000000000E+00  0.00000000000E+00  0.45593999997E+02  0.45594000000E+02  0.51100000000E-03 0.  1.
         11   -1    0    0    0    0 -0.00000000000E+00 -0.00000000000E+00 -0.45593999997E+02  0.45594000000E+02  0.51100000000E-03 0. -1.
    9900012    2    1    2    0    0  0.13366653740E+02 -0.50980028124E+01 -0.28496720369E+02  0.59301950752E+02  0.50000012263E+02 0.  0.
        -12    1    1    2    0    0 -0.13366653740E+02  0.50980028124E+01  0.28496720369E+02  0.31886049248E+02  0.00000000000E+00 0.  1.
         11    1    3    3    0    0  0.90954949212E+00  0.95430547489E+01 -0.14472630024E+02  0.17359556282E+02  0.51100000000E-03 0. -1.
        -11    1    3    3    0    0  0.22760030018E+02 -0.12904850632E+02 -0.23404420061E+01  0.26268456470E+02  0.51100000000E-03 0.  1.
         12    1    3    3    0    0 -0.10302925770E+02 -0.17362069293E+01 -0.11683648339E+02  0.15673938000E+02  0.00000000000E+00 0. -1.
</event>
<event>
 7    1  0.3750159E-013  0.5930195E+02  0.7816164E-02  0.1266605E+00
        -11   -1    0    0    0    0  0.00000000000E+00  0.00000000000E+00  0.45593999997E+02  0.45594000000E+02  0.51100000000E-03 0.  1.
         11   -1    0    0    0    0 -0.00000000000E+00 -0.00000000000E+00 -0.45593999997E+02  0.45594000000E+02  0.51100000000E-03 0. -1.
    9900012    2    1    2    0    0  0.20542490131E+02 -0.22195064968E+01 -0.24285795653E+02  0.59301953202E+02  0.50000016732E+02 0.  0.
        -12    1    1    2    0    0 -0.20542490131E+02  0.22195064968E+01  0.24285795653E+02  0.31886046798E+02  0.00000000000E+00 0.  1.
         11    1    3    3    0    0  0.26194149920E+02 -0.10955763841E+02 -0.15983859700E+01  0.28437951568E+02  0.51100000000E-03 0. -1.
        -11    1    3    3    0    0 -0.68071959502E+01 -0.39712821119E+01 -0.62689574009E+01  0.10070194907E+02  0.51100000000E-03 0.  1.
        -12    1    3    3    0    0  0.11555361609E+01  0.12707539456E+02 -0.16418452283E+02  0.20793806727E+02  0.00000000000E+00 0.  1.
</event>
<event>
 7    1  0.3750159E-013  0.5930194E+02  0.7816164E-02  0.1266605E+00
        -11   -1    0    0    0    0  0.00000000000E+00  0.00000000000E+00  0.45593999997E+02  0.45594000000E+02  0.51100000000E-03 0.  1.
         11   -1    0    0    0    0 -0.00000000000E+00 -0.00000000000E+00 -0.45593999997E+02  0.45594000000E+02  0.51100000000E-03 0. -1.
    9900012    2    1    2    0    0 -0.11681364794E+02 -0.54034962930E+01 -0.29173079598E+02  0.59301943034E+02  0.49999998187E+02 0.  0.
        -12    1    1    2    0    0  0.11681364794E+02  0.54034962930E+01  0.29173079598E+02  0.31886056966E+02  0.00000000000E+00 0.  1.
         11    1    3    3    0    0 -0.20625169034E+00 -0.44174697576E+00 -0.20566231863E+02  0.20572009466E+02  0.51100000000E-03 0. -1.
        -11    1    3    3    0    0  0.21904333313E+00  0.69255979275E+01 -0.18212414697E+02  0.19485993328E+02  0.51100000000E-03 0.  1.
         12    1    3    3    0    0 -0.11694156437E+02 -0.11887347245E+02  0.96055669622E+01  0.19243940240E+02  0.00000000000E+00 0. -1.
</event>
<event>
 7    1  0.3750159E-013  0.5930193E+02  0.7816164E-02  0.1266605E+00
        -11   -1    0    0    0    0  0.00000000000E+00  0.00000000000E+00  0.45593999997E+02  0.45594000000E+02  0.51100000000E-03 0.  1.
         11   -1    0    0    0    0 -0.00000000000E+00 -0.00000000000E+00 -0.45593999997E+02  0.45594000000E+02  0.51100000000E-03 0. -1.
    9900012    2    1    2    0    0 -0.16106428997E+02  0.18823265403E+02 -0.20074582766E+02  0.59301933314E+02  0.49999980461E+02 0.  0.
        -12    1    1    2    0    0  0.16106428997E+02 -0.18823265403E+02  0.20074582766E+02  0.31886066686E+02  0.00000000000E+00 0.  1.
         11    1    3    3    0    0 -0.18267354082E+02  0.80123580327E+01 -0.25225163344E+02  0.32159026297E+02  0.51100000000E-03 0. -1.
        -11    1    3    3    0    0 -0.23339972992E+01  0.11207314685E+02 -0.75173365826E+01  0.13695320200E+02  0.51100000000E-03 0.  1.
        -12    1    3    3    0    0  0.44949223836E+01 -0.39640731469E+00  0.12667917161E+02  0.13447586816E+02  0.00000000000E+00 0.  1.
</event>
<event>
 7    1  0.3750159E-013  0.5930205E+02  0.7816164E-02  0.1266604E+00
        -11   -1    0    0    0    0  0.00000000000E+00  0.00000000000E+00  0.45593999997E+02  0.45594000000E+02  0.51100000000E-03 0.  1.
         11   -1    0    0    0    0 -0.00000000000E+00 -0.00000000000E+00 -0.45593999997E+02  0.45594000000E+02  0.51100000000E-03 0. -1.
    9900012    2    1    2    0    0 -0.10773634286E+02  0.17283213162E+02 -0.24534331206E+02  0.59302046029E+02  0.50000186025E+02 0.  0.
        -12    1    1    2    0    0  0.10773634286E+02 -0.17283213162E+02  0.24534331206E+02  0.31885953971E+02  0.00000000000E+00 0.  1.
         11    1    3    3    0    0 -0.96588207401E+01  0.21646735903E+02 -0.83830877298E+01  0.25142596395E+02  0.51100000000E-03 0. -1.
        -11    1    3    3    0    0  0.83278533570E+01  0.85636462858E+01 -0.78754691867E+00  0.11971190820E+02  0.51100000000E-03 0.  1.
        -12    1    3    3    0    0 -0.94426669027E+01 -0.12927169027E+02 -0.15363696557E+02  0.22188258814E+02  0.00000000000E+00 0.  1.
</event>
<event>
 7    1  0.3750159E-013  0.5930196E+02  0.7816164E-02  0.1266605E+00
        -11   -1    0    0    0    0  0.00000000000E+00  0.00000000000E+00  0.45593999997E+02  0.45594000000E+02  0.51100000000E-03 0.  1.
         11   -1    0    0    0    0 -0.00000000000E+00 -0.00000000000E+00 -0.45593999997E+02  0.45594000000E+02  0.51100000000E-03 0. -1.
    9900012    2    1    2    0    0 -0.57415244846E+01  0.30253360226E+02 -0.82757998121E+01  0.59301956487E+02  0.50000022723E+02 0.  0.
        -12    1    1    2    0    0  0.57415244846E+01 -0.30253360226E+02  0.82757998121E+01  0.31886043513E+02  0.00000000000E+00 0.  1.
         11    1    3    3    0    0 -0.84305716743E+01  0.75686743588E+01 -0.16220525901E+00  0.11330740537E+02  0.51100000000E-03 0. -1.
        -11    1    3    3    0    0 -0.16592423122E+02 -0.11366041449E+01 -0.30619356075E+01  0.16910819730E+02  0.51100000000E-03 0.  1.
         12    1    3    3    0    0  0.19281470311E+02  0.23821290012E+02 -0.50516589455E+01  0.31060396220E+02  0.00000000000E+00 0. -1.
</event>
<event>
 7    1  0.3750159E-013  0.5930214E+02  0.7816164E-02  0.1266604E+00
        -11   -1    0    0    0    0  0.00000000000E+00  0.00000000000E+00  0.45593999997E+02  0.45594000000E+02  0.51100000000E-03 0.  1.
         11   -1    0    0    0    0 -0.00000000000E+00 -0.00000000000E+00 -0.45593999997E+02  0.45594000000E+02  0.51100000000E-03 0. -1.
    9900012    2    1    2    0    0  0.29912784348E+02 -0.12904295815E+01 -0.10966693572E+02  0.59302137241E+02  0.50000352374E+02 0.  0.
        -12    1    1    2    0    0 -0.29912784348E+02  0.12904295815E+01  0.10966693572E+02  0.31885862759E+02  0.00000000000E+00 0.  1.
         11    1    3    3    0    0  0.15440974015E+02  0.16027830765E+01  0.36132548146E+01  0.15938889633E+02  0.51100000000E-03 0. -1.
        -11    1    3    3    0    0 -0.28233804229E+01 -0.17337598417E+02 -0.10494949449E+02  0.20462349818E+02  0.51100000000E-03 0.  1.
         12    1    3    3    0    0  0.17295190756E+02  0.14444385759E+02 -0.40849989378E+01  0.22900897790E+02  0.00000000000E+00 0. -1.
</event>
<event>
 7    1  0.3750159E-013  0.5930195E+02  0.7816164E-02  0.1266605E+00
        -11   -1    0    0    0    0  0.00000000000E+00  0.00000000000E+00  0.45593999997E+02  0.45594000000E+02  0.51100000000E-03 0.  1.
         11   -1    0    0    0    0 -0.00000000000E+00 -0.00000000000E+00 -0.45593999997E+02  0.45594000000E+02  0.51100000000E-03 0. -1.
    9900012    2    1    2    0    0 -0.57702873925E+01 -0.23202400972E+02 -0.21096750287E+02  0.59301945052E+02  0.50000001868E+02 0.  0.
        -12    1    1    2    0    0  0.57702873925E+01  0.23202400972E+02  0.21096750287E+02  0.31886054948E+02  0.00000000000E+00 0.  1.
         11    1    3    3    0    0  0.60908227407E+01 -0.10811558374E+02 -0.10149712659E+01  0.12450625811E+02  0.51100000000E-03 0. -1.
        -11    1    3    3    0    0  0.11175865262E+02 -0.10077731490E+02  0.15974507584E+01  0.15133158478E+02  0.51100000000E-03 0.  1.
        -12    1    3    3    0    0 -0.23036975395E+02 -0.23131111080E+01 -0.21679229780E+02  0.31718160763E+02  0.00000000000E+00 0.  1.
</event>
<event>
 7    1  0.3750159E-013  0.5930194E+02  0.7816164E-02  0.1266605E+00
        -11   -1    0    0    0    0  0.00000000000E+00  0.00000000000E+00  0.45593999997E+02  0.45594000000E+02  0.51100000000E-03 0. -1.
         11   -1    0    0    0    0 -0.00000000000E+00 -0.00000000000E+00 -0.45593999997E+02  0.45594000000E+02  0.51100000000E-03 0.  1.
    9900012    2    1    2    0    0 -0.15329902333E+02  0.20139114554E+02 -0.19394096253E+02  0.59301940193E+02  0.49999993007E+02 0.  0.
        -12    1    1    2    0    0  0.15329902333E+02 -0.20139114554E+02  0.19394096253E+02  0.31886059807E+02  0.00000000000E+00 0.  1.
         11    1    3    3    0    0  0.90201326093E+01  0.78315168535E+01 -0.46273508248E+01  0.12810457620E+02  0.51100000000E-03 0. -1.
        -11    1    3    3    0    0 -0.83722542376E+01  0.10938309910E+02 -0.24229552005E+02  0.27871355463E+02  0.51100000000E-03 0.  1.
         12    1    3    3    0    0 -0.15977780704E+02  0.13692877900E+01  0.94628065773E+01  0.18620127110E+02  0.00000000000E+00 0. -1.
</event>
<event>
 7    1  0.3750159E-013  0.5930198E+02  0.7816164E-02  0.1266605E+00
        -11   -1    0    0    0    0  0.00000000000E+00  0.00000000000E+00  0.45593999997E+02  0.45594000000E+02  0.51100000000E-03 0.  1.
         11   -1    0    0    0    0 -0.00000000000E+00 -0.00000000000E+00 -0.45593999997E+02  0.45594000000E+02  0.51100000000E-03 0. -1.
    9900012    2    1    2    0    0  0.15019244703E+02  0.15508894545E+01 -0.28084433877E+02  0.59301978051E+02  0.50000062049E+02 0.  0.
        -12    1    1    2    0    0 -0.15019244703E+02 -0.15508894545E+01  0.28084433877E+02  0.31886021949E+02  0.00000000000E+00 0.  1.
         11    1    3    3    0    0 -0.26097550115E+01  0.40790494941E+01 -0.87169664500E+01  0.99717084969E+01  0.51100000000E-03 0. -1.
        -11    1    3    3    0    0 -0.82778997387E+01  0.17538785747E+01 -0.21381289191E+02  0.22994765532E+02  0.51100000000E-03 0.  1.
        -12    1    3    3    0    0  0.25906899453E+02 -0.42820386143E+01  0.20138217636E+01  0.26335504022E+02  0.00000000000E+00 0.  1.
</event>
<event>
 7    1  0.3750159E-013  0.5930195E+02  0.7816164E-02  0.1266605E+00
        -11   -1    0    0    0    0  0.00000000000E+00  0.00000000000E+00  0.45593999997E+02  0.45594000000E+02  0.51100000000E-03 0. -1.
         11   -1    0    0    0    0 -0.00000000000E+00 -0.00000000000E+00 -0.45593999997E+02  0.45594000000E+02  0.51100000000E-03 0.  1.
    9900012    2    1    2    0    0 -0.17344971567E+02 -0.26367571835E+02  0.45412968259E+01  0.59301948818E+02  0.50000008736E+02 0.  0.
        -12    1    1    2    0    0  0.17344971567E+02  0.26367571835E+02 -0.45412968259E+01  0.31886051182E+02  0.00000000000E+00 0.  1.
         11    1    3    3    0    0 -0.14123437744E+02 -0.12037686107E+02  0.11995679959E+02  0.22096916492E+02  0.51100000000E-03 0. -1.
        -11    1    3    3    0    0 -0.75070601714E+01  0.89022954237E+01  0.18948325158E+01  0.11798186587E+02  0.51100000000E-03 0.  1.
         12    1    3    3    0    0  0.42855263485E+01 -0.23232181151E+02 -0.93492156488E+01  0.25406845738E+02  0.00000000000E+00 0. -1.
</event>
<event>
 7    1  0.3750159E-013  0.5930194E+02  0.7816164E-02  0.1266605E+00
        -11   -1    0    0    0    0  0.00000000000E+00  0.00000000000E+00  0.45593999997E+02  0.45594000000E+02  0.51100000000E-03 0.  1.
         11   -1    0    0    0    0 -0.00000000000E+00 -0.00000000000E+00 -0.45593999997E+02  0.45594000000E+02  0.51100000000E-03 0. -1.
    9900012    2    1    2    0    0 -0.26355125067E+02 -0.15915179710E+01  0.17877219572E+02  0.59301944641E+02  0.50000001119E+02 0.  0.
        -12    1    1    2    0    0  0.26355125067E+02  0.15915179710E+01 -0.17877219572E+02  0.31886055359E+02  0.00000000000E+00 0.  1.
         11    1    3    3    0    0 -0.15561493768E+02 -0.24625771432E+02  0.85379942963E+01  0.30355988764E+02  0.51100000000E-03 0. -1.
        -11    1    3    3    0    0 -0.78964500969E+00  0.10784375923E+01 -0.19048642657E+01  0.23270313736E+01  0.51100000000E-03 0.  1.
        -12    1    3    3    0    0 -0.10003986289E+02  0.21955815869E+02  0.11244089541E+02  0.26618924504E+02  0.00000000000E+00 0.  1.
</event>
<event>
 7    1  0.3750159E-013  0.5930197E+02  0.7816164E-02  0.1266605E+00
        -11   -1    0    0    0    0  0.00000000000E+00  0.00000000000E+00  0.45593999997E+02  0.45594000000E+02  0.51100000000E-03 0.  1.
         11   -1    0    0    0    0 -0.00000000000E+00 -0.00000000000E+00 -0.45593999997E+02  0.45594000000E+02  0.51100000000E-03 0. -1.
    9900012    2    1    2    0    0 -0.30200787160E+02  0.84988440337E+01 -0.56922068197E+01  0.59301966796E+02  0.50000041525E+02 0.  0.
        -12    1    1    2    0    0  0.30200787160E+02 -0.84988440337E+01  0.56922068197E+01  0.31886033204E+02  0.00000000000E+00 0.  1.
         11    1    3    3    0    0 -0.17184162678E+02 -0.11538567681E+02 -0.89035139574E+01  0.22532344576E+02  0.51100000000E-03 0. -1.
        -11    1    3    3    0    0  0.16803715694E+01 -0.55500920961E+01  0.43351737014E+01  0.72402280468E+01  0.51100000000E-03 0.  1.
         12    1    3    3    0    0 -0.14696996052E+02  0.25587503810E+02 -0.11238665637E+01  0.29529394173E+02  0.00000000000E+00 0. -1.
</event>
<event>
 7    1  0.3750159E-013  0.5930195E+02  0.7816164E-02  0.1266605E+00
        -11   -1    0    0    0    0  0.00000000000E+00  0.00000000000E+00  0.45593999997E+02  0.45594000000E+02  0.51100000000E-03 0. -1.
         11   -1    0    0    0    0 -0.00000000000E+00 -0.00000000000E+00 -0.45593999997E+02  0.45594000000E+02  0.51100000000E-03 0.  1.
    9900012    2    1    2    0    0  0.22052890175E+02 -0.11351648582E+02 -0.20038222241E+02  0.59301949113E+02  0.50000009274E+02 0.  0.
        -12    1    1    2    0    0 -0.22052890175E+02  0.11351648582E+02  0.20038222241E+02  0.31886050887E+02  0.00000000000E+00 0.  1.
         11    1    3    3    0    0  0.96130079762E+00 -0.35745178935E+01  0.98934736756E+01  0.10563242827E+02  0.51100000000E-03 0. -1.
        -11    1    3    3    0    0  0.87879118366E+01  0.76214749252E+01  0.14066772696E+01  0.11717210235E+02  0.51100000000E-03 0.  1.
         12    1    3    3    0    0  0.12303677541E+02 -0.15398605614E+02 -0.31338373186E+02  0.37021496051E+02  0.00000000000E+00 0. -1.
</event>
<event>
 7    1  0.3750159E-013  0.5930196E+02  0.7816164E-02  0.1266605E+00
        -11   -1    0    0    0    0  0.00000000000E+00  0.00000000000E+00  0.45593999997E+02  0.45594000000E+02  0.51100000000E-03 0. -1.
         11   -1    0    0    0    0 -0.00000000000E+00 -0.00000000000E+00 -0.45593999997E+02  0.45594000000E+02  0.51100000000E-03 0.  1.
    9900012    2    1    2    0    0 -0.20949386170E+01  0.30618932303E+01  0.31669473399E+02  0.59301960683E+02  0.50000030374E+02 0.  0.
        -12    1    1    2    0    0  0.20949386170E+01 -0.30618932303E+01 -0.31669473399E+02  0.31886039317E+02  0.00000000000E+00 0.  1.
         11    1    3    3    0    0 -0.13695932339E+02  0.20025154228E+01  0.21958521894E+02  0.25956989708E+02  0.51100000000E-03 0. -1.
        -11    1    3    3    0    0  0.71793034808E+01 -0.13534647593E+02  0.96291904634E+01  0.18095590435E+02  0.51100000000E-03 0.  1.
         12    1    3    3    0    0  0.44216902411E+01  0.14594025401E+02  0.81761041721E-01  0.15249380540E+02  0.00000000000E+00 0. -1.
</event>
<event>
 7    1  0.3750159E-013  0.5930197E+02  0.7816164E-02  0.1266605E+00
        -11   -1    0    0    0    0  0.00000000000E+00  0.00000000000E+00  0.45593999997E+02  0.45594000000E+02  0.51100000000E-03 0. -1.
         11   -1    0    0    0    0 -0.00000000000E+00 -0.00000000000E+00 -0.45593999997E+02  0.45594000000E+02  0.51100000000E-03 0.  1.
    9900012    2    1    2    0    0 -0.30264837276E+02 -0.94945430058E+01  0.32575929215E+01  0.59301974317E+02  0.50000055240E+02 0.  0.
        -12    1    1    2    0    0  0.30264837276E+02  0.94945430058E+01 -0.32575929215E+01  0.31886025683E+02  0.00000000000E+00 0.  1.
         11    1    3    3    0    0 -0.16810418576E+02 -0.18270937023E+02 -0.32127445937E+01  0.25034756650E+02  0.51100000000E-03 0. -1.
        -11    1    3    3    0    0  0.80266685997E+01 -0.28558827106E+01 -0.13319059015E+01  0.86230765077E+01  0.51100000000E-03 0.  1.
         12    1    3    3    0    0 -0.21481087300E+02  0.11632276728E+02  0.78022434168E+01  0.25644141159E+02  0.00000000000E+00 0. -1.
</event>
<event>
 7    1  0.3750159E-013  0.5930190E+02  0.7816164E-02  0.1266605E+00
        -11   -1    0    0    0    0  0.00000000000E+00  0.00000000000E+00  0.45593999997E+02  0.45594000000E+02  0.51100000000E-03 0. -1.
         11   -1    0    0    0    0 -0.00000000000E+00 -0.00000000000E+00 -0.45593999997E+02  0.45594000000E+02  0.51100000000E-03 0.  1.
    9900012    2    1    2    0    0 -0.17963214446E+02 -0.26344626551E+02  0.81816996389E-01  0.59301904043E+02  0.49999927078E+02 0.  0.
        -12    1    1    2    0    0  0.17963214446E+02  0.26344626551E+02 -0.81816996389E-01  0.31886095957E+02  0.00000000000E+00 0.  1.
         11    1    3    3    0    0  0.10129424569E+01 -0.36811821263E+01  0.56419017496E+00  0.38594643517E+01  0.51100000000E-03 0. -1.
        -11    1    3    3    0    0  0.14855043535E+02 -0.43603900478E+01 -0.59601377549E+01  0.16589411144E+02  0.51100000000E-03 0.  1.
         12    1    3    3    0    0 -0.33831200437E+02 -0.18303054377E+02  0.54777645763E+01  0.38853028547E+02  0.00000000000E+00 0. -1.
</event>
<event>
 7    1  0.3750159E-013  0.5930190E+02  0.7816164E-02  0.1266605E+00
        -11   -1    0    0    0    0  0.00000000000E+00  0.00000000000E+00  0.45593999997E+02  0.45594000000E+02  0.51100000000E-03 0.  1.
         11   -1    0    0    0    0 -0.00000000000E+00 -0.00000000000E+00 -0.45593999997E+02  0.45594000000E+02  0.51100000000E-03 0. -1.
    9900012    2    1    2    0    0 -0.17919258042E+02  0.77739557486E+01 -0.25202960729E+02  0.59301899168E+02  0.49999918186E+02 0.  0.
        -12    1    1    2    0    0  0.17919258042E+02 -0.77739557486E+01  0.25202960729E+02  0.31886100832E+02  0.00000000000E+00 0.  1.
         11    1    3    3    0    0 -0.11529671819E+02  0.19979366199E+02 -0.26205921966E+02  0.34912157657E+02  0.51100000000E-03 0. -1.
        -11    1    3    3    0    0 -0.61761106441E+01  0.11203260862E+01 -0.65490280962E+01  0.90713418243E+01  0.51100000000E-03 0.  1.
        -12    1    3    3    0    0 -0.21347557936E+00 -0.13325736537E+02  0.75519893325E+01  0.15318399686E+02  0.00000000000E+00 0.  1.
</event>
<event>
 7    1  0.3750159E-013  0.5930183E+02  0.7816164E-02  0.1266605E+00
        -11   -1    0    0    0    0  0.00000000000E+00  0.00000000000E+00  0.45593999997E+02  0.45594000000E+02  0.51100000000E-03 0.  1.
         11   -1    0    0    0    0 -0.00000000000E+00 -0.00000000000E+00 -0.45593999997E+02  0.45594000000E+02  0.51100000000E-03 0. -1.
    9900012    2    1    2    0    0 -0.17898383400E+02  0.25341522452E+02 -0.73608865984E+01  0.59301834661E+02  0.49999800541E+02 0.  0.
        -12    1    1    2    0    0  0.17898383400E+02 -0.25341522452E+02  0.73608865984E+01  0.31886165339E+02  0.00000000000E+00 0.  1.
         11    1    3    3    0    0 -0.15760268593E+02  0.51031741917E+01  0.10224567975E+02  0.19467158074E+02  0.51100000000E-03 0. -1.
        -11    1    3    3    0    0 -0.12716468218E+01 -0.72661618462E+01 -0.39240068697E+00  0.73870272894E+01  0.51100000000E-03 0.  1.
         12    1    3    3    0    0 -0.86646798489E+00  0.27504510107E+02 -0.17193053886E+02  0.32447649297E+02  0.00000000000E+00 0. -1.
</event>
<event>
 7    1  0.3750159E-013  0.5930193E+02  0.7816164E-02  0.1266605E+00
        -11   -1    0    0    0    0  0.00000000000E+00  0.00000000000E+00  0.45593999997E+02  0.45594000000E+02  0.51100000000E-03 0.  1.
         11   -1    0    0    0    0 -0.00000000000E+00 -0.00000000000E+00 -0.45593999997E+02  0.45594000000E+02  0.51100000000E-03 0. -1.
    9900012    2    1    2    0    0 -0.18678008671E+02 -0.22353297855E+02  0.12968555232E+02  0.59301931605E+02  0.49999977344E+02 0.  0.
        -12    1    1    2    0    0  0.18678008671E+02  0.22353297855E+02 -0.12968555232E+02  0.31886068395E+02  0.00000000000E+00 0.  1.
         11    1    3    3    0    0  0.81994687298E+01 -0.49727899066E+01  0.12062196298E+02  0.15409623834E+02  0.51100000000E-03 0. -1.
        -11    1    3    3    0    0  0.30061702323E+01 -0.37687975760E+01  0.88766117945E+01  0.10101244074E+02  0.51100000000E-03 0.  1.
        -12    1    3    3    0    0 -0.29883647633E+02 -0.13611710372E+02 -0.79702528609E+01  0.33791063697E+02  0.00000000000E+00 0.  1.
</event>
<event>
 7    1  0.3750159E-013  0.5930195E+02  0.7816164E-02  0.1266605E+00
        -11   -1    0    0    0    0  0.00000000000E+00  0.00000000000E+00  0.45593999997E+02  0.45594000000E+02  0.51100000000E-03 0.  1.
         11   -1    0    0    0    0 -0.00000000000E+00 -0.00000000000E+00 -0.45593999997E+02  0.45594000000E+02  0.51100000000E-03 0. -1.
    9900012    2    1    2    0    0 -0.30679664694E+02 -0.82952934795E+01 -0.25819583466E+01  0.59301949311E+02  0.50000009636E+02 0.  0.
        -12    1    1    2    0    0  0.30679664694E+02  0.82952934795E+01  0.25819583466E+01  0.31886050689E+02  0.00000000000E+00 0.  1.
         11    1    3    3    0    0 -0.24464144477E+02  0.10118124358E+02 -0.14723079430E+02  0.30292571262E+02  0.51100000000E-03 0. -1.
        -11    1    3    3    0    0 -0.67482367840E+01 -0.13871748458E+02 -0.63542338741E+00  0.15439166691E+02  0.51100000000E-03 0.  1.
        -12    1    3    3    0    0  0.53271656720E+00 -0.45416693791E+01  0.12776544471E+02  0.13570211358E+02  0.00000000000E+00 0.  1.
</event>
<event>
 7    1  0.3750159E-013  0.5930195E+02  0.7816164E-02  0.1266605E+00
        -11   -1    0    0    0    0  0.00000000000E+00  0.00000000000E+00  0.45593999997E+02  0.45594000000E+02  0.51100000000E-03 0.  1.
         11   -1    0    0    0    0 -0.00000000000E+00 -0.00000000000E+00 -0.45593999997E+02  0.45594000000E+02  0.51100000000E-03 0. -1.
    9900012    2    1    2    0    0  0.40629205068E+01 -0.31625045014E+02 -0.26395276024E+00  0.59301945584E+02  0.50000002838E+02 0.  0.
        -12    1    1    2    0    0 -0.40629205068E+01  0.31625045014E+02  0.26395276024E+00  0.31886054416E+02  0.00000000000E+00 0.  1.
         11    1    3    3    0    0  0.19941353756E+02 -0.72094975553E+00 -0.34282264510E+01  0.20246730477E+02  0.51100000000E-03 0. -1.
        -11    1    3    3    0    0 -0.28437596554E+01 -0.13536566300E+02 -0.65044915790E+01  0.15285091009E+02  0.51100000000E-03 0.  1.
        -12    1    3    3    0    0 -0.13034673593E+02 -0.17367528958E+02  0.96687652698E+01  0.23770124098E+02  0.00000000000E+00 0.  1.
</event>
<event>
 7    1  0.3750159E-013  0.5930195E+02  0.7816164E-02  0.1266605E+00
        -11   -1    0    0    0    0  0.00000000000E+00  0.00000000000E+00  0.45593999997E+02  0.45594000000E+02  0.51100000000E-03 0. -1.
         11   -1    0    0    0    0 -0.00000000000E+00 -0.00000000000E+00 -0.45593999997E+02  0.45594000000E+02  0.51100000000E-03 0.  1.
    9900012    2    1    2    0    0  0.22593204685E+02 -0.83602813194E+01  0.20889547248E+02  0.59301946843E+02  0.50000005135E+02 0.  0.
        -12    1    1    2    0    0 -0.22593204685E+02  0.83602813194E+01 -0.20889547248E+02  0.31886053157E+02  0.00000000000E+00 0.  1.
         11    1    3    3    0    0  0.78164991596E+01 -0.32459991500E+01  0.61182046954E+01  0.10443495514E+02  0.51100000000E-03 0. -1.
        -11    1    3    3    0    0  0.19270712782E+02  0.89690614554E+01 -0.71432574787E+01  0.22423883744E+02  0.51100000000E-03 0.  1.
        -12    1    3    3    0    0 -0.44940072561E+01 -0.14083343625E+02  0.21914600031E+02  0.26434567585E+02  0.00000000000E+00 0.  1.
</event>
<event>
 7    1  0.3750159E-013  0.5930198E+02  0.7816164E-02  0.1266605E+00
        -11   -1    0    0    0    0  0.00000000000E+00  0.00000000000E+00  0.45593999997E+02  0.45594000000E+02  0.51100000000E-03 0.  1.
         11   -1    0    0    0    0 -0.00000000000E+00 -0.00000000000E+00 -0.45593999997E+02  0.45594000000E+02  0.51100000000E-03 0. -1.
    9900012    2    1    2    0    0  0.17684482593E+02  0.25229232501E+02  0.82135940916E+01  0.59301980727E+02  0.50000066931E+02 0.  0.
        -12    1    1    2    0    0 -0.17684482593E+02 -0.25229232501E+02 -0.82135940916E+01  0.31886019273E+02  0.00000000000E+00 0.  1.
         11    1    3    3    0    0  0.11632420838E+02  0.22787290625E+02 -0.11209342165E+02  0.27932475376E+02  0.51100000000E-03 0. -1.
        -11    1    3    3    0    0  0.20805535882E+01  0.23038695407E+01 -0.54009731569E+01  0.62295288262E+01  0.51100000000E-03 0.  1.
        -12    1    3    3    0    0  0.39715081662E+01  0.13807233586E+00  0.24823909414E+02  0.25139976525E+02  0.00000000000E+00 0.  1.
</event>
<event>
 7    1  0.3750159E-013  0.5930199E+02  0.7816164E-02  0.1266605E+00
        -11   -1    0    0    0    0  0.00000000000E+00  0.00000000000E+00  0.45593999997E+02  0.45594000000E+02  0.51100000000E-03 0.  1.
         11   -1    0    0    0    0 -0.00000000000E+00 -0.00000000000E+00 -0.45593999997E+02  0.45594000000E+02  0.51100000000E-03 0. -1.
    9900012    2    1    2    0    0  0.27397243245E+02  0.10220273984E+01 -0.16280789637E+02  0.59301990707E+02  0.50000085132E+02 0.  0.
        -12    1    1    2    0    0 -0.27397243245E+02 -0.10220273984E+01  0.16280789637E+02  0.31886009293E+02  0.00000000000E+00 0.  1.
         11    1    3    3    0    0 -0.50963147184E-01  0.36734246951E+01  0.21910656458E+01  0.42775477973E+01  0.51100000000E-03 0.  1.
        -11    1    3    3    0    0 -0.55799595516E+01  0.11014696246E+02 -0.14524057496E+02  0.19063255976E+02  0.51100000000E-03 0. -1.
        -12    1    3    3    0    0  0.33028165944E+02 -0.13666093543E+02 -0.39477977871E+01  0.35961186934E+02  0.00000000000E+00 0.  1.
</event>
<event>
 7    1  0.3750159E-013  0.5930190E+02  0.7816164E-02  0.1266605E+00
        -11   -1    0    0    0    0  0.00000000000E+00  0.00000000000E+00  0.45593999997E+02  0.45594000000E+02  0.51100000000E-03 0. -1.
         11   -1    0    0    0    0 -0.00000000000E+00 -0.00000000000E+00 -0.45593999997E+02  0.45594000000E+02  0.51100000000E-03 0.  1.
    9900012    2    1    2    0    0  0.18824011455E+02  0.63601553481E+01  0.24938486295E+02  0.59301904566E+02  0.49999928032E+02 0.  0.
        -12    1    1    2    0    0 -0.18824011455E+02 -0.63601553481E+01 -0.24938486295E+02  0.31886095434E+02  0.00000000000E+00 0.  1.
         11    1    3    3    0    0  0.15307285104E+02 -0.79888925356E+01  0.28418492015E+01  0.17498899632E+02  0.51100000000E-03 0. -1.
        -11    1    3    3    0    0  0.16459348734E+02  0.10857216939E+01  0.70780322932E+01  0.17949581994E+02  0.51100000000E-03 0.  1.
         12    1    3    3    0    0 -0.12942622384E+02  0.13263326190E+02  0.15018604801E+02  0.23853422940E+02  0.00000000000E+00 0. -1.
</event>
<event>
 7    1  0.3750159E-013  0.5930195E+02  0.7816164E-02  0.1266605E+00
        -11   -1    0    0    0    0  0.00000000000E+00  0.00000000000E+00  0.45593999997E+02  0.45594000000E+02  0.51100000000E-03 0.  1.
         11   -1    0    0    0    0 -0.00000000000E+00 -0.00000000000E+00 -0.45593999997E+02  0.45594000000E+02  0.51100000000E-03 0. -1.
    9900012    2    1    2    0    0  0.75769439287E+01 -0.65594203807E+01 -0.30270181911E+02  0.59301953084E+02  0.50000016516E+02 0.  0.
        -12    1    1    2    0    0 -0.75769439287E+01  0.65594203807E+01  0.30270181911E+02  0.31886046916E+02  0.00000000000E+00 0.  1.
         11    1    3    3    0    0 -0.71312106685E+01  0.59790958211E+01 -0.12055170319E+01  0.93838704174E+01  0.51100000000E-03 0.  1.
        -11    1    3    3    0    0  0.10213507891E+02 -0.19348253934E+02 -0.23726388380E+01  0.22006819148E+02  0.51100000000E-03 0. -1.
         12    1    3    3    0    0  0.44946467065E+01  0.68097377319E+01 -0.26692026041E+02  0.27911263518E+02  0.00000000000E+00 0. -1.
</event>
<event>
 7    1  0.3750159E-013  0.5930197E+02  0.7816164E-02  0.1266605E+00
        -11   -1    0    0    0    0  0.00000000000E+00  0.00000000000E+00  0.45593999997E+02  0.45594000000E+02  0.51100000000E-03 0.  1.
         11   -1    0    0    0    0 -0.00000000000E+00 -0.00000000000E+00 -0.45593999997E+02  0.45594000000E+02  0.51100000000E-03 0. -1.
    9900012    2    1    2    0    0 -0.23595658037E+02 -0.19961668733E+02 -0.78419213568E+01  0.59301968147E+02  0.50000043987E+02 0.  0.
        -12    1    1    2    0    0  0.23595658037E+02  0.19961668733E+02  0.78419213568E+01  0.31886031853E+02  0.00000000000E+00 0.  1.
         11    1    3    3    0    0  0.28328469222E+01 -0.18361709779E+02 -0.11629303045E+02  0.21918441945E+02  0.51100000000E-03 0. -1.
        -11    1    3    3    0    0  0.99145854557E+00 -0.86032129640E+01 -0.86592336710E+00  0.87033376868E+01  0.51100000000E-03 0.  1.
        -12    1    3    3    0    0 -0.27419963505E+02  0.70032540102E+01  0.46533050558E+01  0.28680188515E+02  0.00000000000E+00 0.  1.
</event>
<event>
 7    1  0.3750159E-013  0.5930204E+02  0.7816164E-02  0.1266604E+00
        -11   -1    0    0    0    0  0.00000000000E+00  0.00000000000E+00  0.45593999997E+02  0.45594000000E+02  0.51100000000E-03 0.  1.
         11   -1    0    0    0    0 -0.00000000000E+00 -0.00000000000E+00 -0.45593999997E+02  0.45594000000E+02  0.51100000000E-03 0. -1.
    9900012    2    1    2    0    0 -0.17012578782E+01  0.30555522478E+02 -0.89543482358E+01  0.59302037813E+02  0.50000171041E+02 0.  0.
        -12    1    1    2    0    0  0.17012578782E+01 -0.30555522478E+02  0.89543482358E+01  0.31885962187E+02  0.00000000000E+00 0.  1.
         11    1    3    3    0    0 -0.17082326805E+01 -0.37946628493E+01  0.14465250307E+02  0.15051943121E+02  0.51100000000E-03 0.  1.
        -11    1    3    3    0    0 -0.44542839591E+01  0.25286129009E+02 -0.10235505285E+02  0.27640451056E+02  0.51100000000E-03 0. -1.
        -12    1    3    3    0    0  0.44612587614E+01  0.90640563183E+01 -0.13184093257E+02  0.16609643635E+02  0.00000000000E+00 0.  1.
</event>
<event>
 7    1  0.3750159E-013  0.5930196E+02  0.7816164E-02  0.1266605E+00
        -11   -1    0    0    0    0  0.00000000000E+00  0.00000000000E+00  0.45593999997E+02  0.45594000000E+02  0.51100000000E-03 0.  1.
         11   -1    0    0    0    0 -0.00000000000E+00 -0.00000000000E+00 -0.45593999997E+02  0.45594000000E+02  0.51100000000E-03 0. -1.
    9900012    2    1    2    0    0  0.68444555050E+01  0.15560415951E+02 -0.26976779962E+02  0.59301956457E+02  0.50000022668E+02 0.  0.
        -12    1    1    2    0    0 -0.68444555050E+01 -0.15560415951E+02  0.26976779962E+02  0.31886043543E+02  0.00000000000E+00 0.  1.
         11    1    3    3    0    0  0.21114023208E+02  0.99285705205E+00 -0.81527691013E+01  0.22655140376E+02  0.51100000000E-03 0. -1.
        -11    1    3    3    0    0 -0.60459338552E+01  0.38276960157E+01  0.53574957761E+01  0.89390902346E+01  0.51100000000E-03 0.  1.
         12    1    3    3    0    0 -0.82236338478E+01  0.10739862883E+02 -0.24181506636E+02  0.27707725847E+02  0.00000000000E+00 0. -1.
</event>
<event>
 7    1  0.3750159E-013  0.5930194E+02  0.7816164E-02  0.1266605E+00
        -11   -1    0    0    0    0  0.00000000000E+00  0.00000000000E+00  0.45593999997E+02  0.45594000000E+02  0.51100000000E-03 0.  1.
         11   -1    0    0    0    0 -0.00000000000E+00 -0.00000000000E+00 -0.45593999997E+02  0.45594000000E+02  0.51100000000E-03 0. -1.
    9900012    2    1    2    0    0 -0.23151955375E+02  0.12629997673E+02 -0.17921809662E+02  0.59301935012E+02  0.49999983557E+02 0.  0.
        -12    1    1    2    0    0  0.23151955375E+02 -0.12629997673E+02  0.17921809662E+02  0.31886064988E+02  0.00000000000E+00 0.  1.
         11    1    3    3    0    0  0.24603208191E+01 -0.11614341237E+01 -0.61899302467E+01  0.67614602326E+01  0.51100000000E-03 0. -1.
        -11    1    3    3    0    0  0.12676746411E+01 -0.14891043202E+01 -0.20348781932E+02  0.20442537931E+02  0.51100000000E-03 0.  1.
        -12    1    3    3    0    0 -0.26879950835E+02  0.15280536117E+02  0.86169025173E+01  0.32097936848E+02  0.00000000000E+00 0.  1.
</event>
<event>
 7    1  0.3750159E-013  0.5930199E+02  0.7816164E-02  0.1266605E+00
        -11   -1    0    0    0    0  0.00000000000E+00  0.00000000000E+00  0.45593999997E+02  0.45594000000E+02  0.51100000000E-03 0.  1.
         11   -1    0    0    0    0 -0.00000000000E+00 -0.00000000000E+00 -0.45593999997E+02  0.45594000000E+02  0.51100000000E-03 0. -1.
    9900012    2    1    2    0    0  0.96533683983E+01 -0.18753647535E+02 -0.23912982011E+02  0.59301991690E+02  0.50000086925E+02 0.  0.
        -12    1    1    2    0    0 -0.96533683983E+01  0.18753647535E+02  0.23912982011E+02  0.31886008310E+02  0.00000000000E+00 0.  1.
         11    1    3    3    0    0  0.15710842430E+01 -0.15531713177E+01 -0.18290647253E+01  0.28681221856E+01  0.51100000000E-03 0. -1.
        -11    1    3    3    0    0 -0.96724846144E+01  0.12059278989E+00 -0.29092452156E+02  0.30658478011E+02  0.51100000000E-03 0.  1.
        -12    1    3    3    0    0  0.17754768770E+02 -0.17321069007E+02  0.70085348706E+01  0.25775391493E+02  0.00000000000E+00 0.  1.
</event>
<event>
 7    1  0.3750159E-013  0.5930191E+02  0.7816164E-02  0.1266605E+00
        -11   -1    0    0    0    0  0.00000000000E+00  0.00000000000E+00  0.45593999997E+02  0.45594000000E+02  0.51100000000E-03 0. -1.
         11   -1    0    0    0    0 -0.00000000000E+00 -0.00000000000E+00 -0.45593999997E+02  0.45594000000E+02  0.51100000000E-03 0.  1.
    9900012    2    1    2    0    0 -0.28276208285E+02  0.54610348615E+01  0.13687799260E+02  0.59301910473E+02  0.49999938804E+02 0.  0.
        -12    1    1    2    0    0  0.28276208285E+02 -0.54610348615E+01 -0.13687799260E+02  0.31886089527E+02  0.00000000000E+00 0.  1.
         11    1    3    3    0    0 -0.69441406740E+01  0.18444107508E+02  0.64014908505E+00  0.19718417344E+02  0.51100000000E-03 0. -1.
        -11    1    3    3    0    0 -0.84189608771E+01 -0.46449146359E+01 -0.86899243389E+01  0.12960282385E+02  0.51100000000E-03 0.  1.
         12    1    3    3    0    0 -0.12913106734E+02 -0.83381580103E+01  0.21737574514E+02  0.26623210743E+02  0.00000000000E+00 0. -1.
</event>
<event>
 7    1  0.3750159E-013  0.5930194E+02  0.7816164E-02  0.1266605E+00
        -11   -1    0    0    0    0  0.00000000000E+00  0.00000000000E+00  0.45593999997E+02  0.45594000000E+02  0.51100000000E-03 0. -1.
         11   -1    0    0    0    0 -0.00000000000E+00 -0.00000000000E+00 -0.45593999997E+02  0.45594000000E+02  0.51100000000E-03 0.  1.
    9900012    2    1    2    0    0 -0.10857473499E+02 -0.19134639549E+02  0.23080329265E+02  0.59301940971E+02  0.49999994425E+02 0.  0.
        -12    1    1    2    0    0  0.10857473499E+02  0.19134639549E+02 -0.23080329265E+02  0.31886059029E+02  0.00000000000E+00 0.  1.
         11    1    3    3    0    0  0.87926988210E+01 -0.46865371605E+01  0.80828612816E+01  0.12829958296E+02  0.51100000000E-03 0.  1.
        -11    1    3    3    0    0 -0.29418277540E+02 -0.11607772389E+02  0.46571403359E+01  0.31966613671E+02  0.51100000000E-03 0. -1.
         12    1    3    3    0    0  0.97681052198E+01 -0.28403299991E+01  0.10340327647E+02  0.14505369004E+02  0.00000000000E+00 0. -1.
</event>
<event>
 7    1  0.3750159E-013  0.5930197E+02  0.7816164E-02  0.1266605E+00
        -11   -1    0    0    0    0  0.00000000000E+00  0.00000000000E+00  0.45593999997E+02  0.45594000000E+02  0.51100000000E-03 0. -1.
         11   -1    0    0    0    0 -0.00000000000E+00 -0.00000000000E+00 -0.45593999997E+02  0.45594000000E+02  0.51100000000E-03 0.  1.
    9900012    2    1    2    0    0 -0.55933956422E+01 -0.28722726638E+02 -0.12666410180E+02  0.59301967835E+02  0.50000043420E+02 0.  0.
        -12    1    1    2    0    0  0.55933956422E+01  0.28722726638E+02  0.12666410180E+02  0.31886032165E+02  0.00000000000E+00 0.  1.
         11    1    3    3    0    0 -0.13241230771E+02 -0.25476860616E+02 -0.20042613029E+02  0.35015810093E+02  0.51100000000E-03 0. -1.
        -11    1    3    3    0    0 -0.58107500021E+01 -0.27454233783E+01 -0.31836348123E+01  0.71720078076E+01  0.51100000000E-03 0.  1.
        -12    1    3    3    0    0  0.13458585131E+02 -0.50044264373E+00  0.10559837661E+02  0.17114149935E+02  0.00000000000E+00 0.  1.
</event>
<event>
 7    1  0.3750159E-013  0.5930196E+02  0.7816164E-02  0.1266605E+00
        -11   -1    0    0    0    0  0.00000000000E+00  0.00000000000E+00  0.45593999997E+02  0.45594000000E+02  0.51100000000E-03 0. -1.
         11   -1    0    0    0    0 -0.00000000000E+00 -0.00000000000E+00 -0.45593999997E+02  0.45594000000E+02  0.51100000000E-03 0.  1.
    9900012    2    1    2    0    0 -0.46474195896E+01  0.13314511754E+02  0.28597982912E+02  0.59301962950E+02  0.50000034510E+02 0.  0.
        -12    1    1    2    0    0  0.46474195896E+01 -0.13314511754E+02 -0.28597982912E+02  0.31886037050E+02  0.00000000000E+00 0.  1.
         11    1    3    3    0    0 -0.12365772491E+01  0.10426286924E+02  0.34342056773E+02  0.35911188312E+02  0.51100000000E-03 0.  1.
        -11    1    3    3    0    0  0.65854618774E+01  0.73378487786E+00  0.51924208671E+01  0.84183123670E+01  0.51100000000E-03 0. -1.
        -12    1    3    3    0    0 -0.99963042180E+01  0.21544399520E+01 -0.10936494728E+02  0.14972462271E+02  0.00000000000E+00 0.  1.
</event>
<event>
 7    1  0.3750159E-013  0.5930194E+02  0.7816164E-02  0.1266605E+00
        -11   -1    0    0    0    0  0.00000000000E+00  0.00000000000E+00  0.45593999997E+02  0.45594000000E+02  0.51100000000E-03 0.  1.
         11   -1    0    0    0    0 -0.00000000000E+00 -0.00000000000E+00 -0.45593999997E+02  0.45594000000E+02  0.51100000000E-03 0. -1.
    9900012    2    1    2    0    0  0.17780414280E+02  0.11232572389E+02 -0.23966788801E+02  0.59301940665E+02  0.49999993868E+02 0.  0.
        -12    1    1    2    0    0 -0.17780414280E+02 -0.11232572389E+02  0.23966788801E+02  0.31886059335E+02  0.00000000000E+00 0.  1.
         11    1    3    3    0    0 -0.10436252536E+02  0.31520533105E+01 -0.50997008322E+01  0.12035686765E+02  0.51100000000E-03 0. -1.
        -11    1    3    3    0    0  0.16555394099E+01  0.80567406975E+01  0.65414093613E+01  0.10509134983E+02  0.51100000000E-03 0.  1.
         12    1    3    3    0    0  0.26561127406E+02  0.23778381110E-01 -0.25408497330E+02  0.36757118917E+02  0.00000000000E+00 0. -1.
</event>
<event>
 7    1  0.3750159E-013  0.5930187E+02  0.7816164E-02  0.1266605E+00
        -11   -1    0    0    0    0  0.00000000000E+00  0.00000000000E+00  0.45593999997E+02  0.45594000000E+02  0.51100000000E-03 0.  1.
         11   -1    0    0    0    0 -0.00000000000E+00 -0.00000000000E+00 -0.45593999997E+02  0.45594000000E+02  0.51100000000E-03 0. -1.
    9900012    2    1    2    0    0  0.11676750185E+02  0.29659405126E+01 -0.29522565566E+02  0.59301871737E+02  0.49999868159E+02 0.  0.
        -12    1    1    2    0    0 -0.11676750185E+02 -0.29659405126E+01  0.29522565566E+02  0.31886128263E+02  0.00000000000E+00 0.  1.
         11    1    3    3    0    0  0.83594432822E+01  0.31967324265E+01 -0.26017231607E+02  0.27513555404E+02  0.51100000000E-03 0. -1.
        -11    1    3    3    0    0  0.14185803272E+00  0.14105256910E+02 -0.82695118443E+01  0.16351245292E+02  0.51100000000E-03 0.  1.
        -12    1    3    3    0    0  0.31754488703E+01 -0.14336048824E+02  0.47641778856E+01  0.15437071041E+02  0.00000000000E+00 0.  1.
</event>
<event>
 7    1  0.3750159E-013  0.5930195E+02  0.7816164E-02  0.1266605E+00
        -11   -1    0    0    0    0  0.00000000000E+00  0.00000000000E+00  0.45593999997E+02  0.45594000000E+02  0.51100000000E-03 0. -1.
         11   -1    0    0    0    0 -0.00000000000E+00 -0.00000000000E+00 -0.45593999997E+02  0.45594000000E+02  0.51100000000E-03 0.  1.
    9900012    2    1    2    0    0  0.36688143911E+00  0.31576638104E+02  0.44160398154E+01  0.59301951584E+02  0.50000013781E+02 0.  0.
        -12    1    1    2    0    0 -0.36688143911E+00 -0.31576638104E+02 -0.44160398154E+01  0.31886048416E+02  0.00000000000E+00 0.  1.
         11    1    3    3    0    0  0.43256114152E+01  0.16967534922E+02  0.15006539820E+02  0.23060884482E+02  0.51100000000E-03 0. -1.
        -11    1    3    3    0    0  0.74476500517E+01  0.18912224269E+02 -0.12557886292E+02  0.23892262900E+02  0.51100000000E-03 0.  1.
         12    1    3    3    0    0 -0.11406380028E+02 -0.43031210869E+01  0.19673862878E+01  0.12348804203E+02  0.00000000000E+00 0. -1.
</event>
<event>
 7    1  0.3750159E-013  0.5930194E+02  0.7816164E-02  0.1266605E+00
        -11   -1    0    0    0    0  0.00000000000E+00  0.00000000000E+00  0.45593999997E+02  0.45594000000E+02  0.51100000000E-03 0. -1.
         11   -1    0    0    0    0 -0.00000000000E+00 -0.00000000000E+00 -0.45593999997E+02  0.45594000000E+02  0.51100000000E-03 0.  1.
    9900012    2    1    2    0    0 -0.14283739986E+02  0.11845051934E+02  0.25930485401E+02  0.59301944170E+02  0.50000000259E+02 0.  0.
        -12    1    1    2    0    0  0.14283739986E+02 -0.11845051934E+02 -0.25930485401E+02  0.31886055830E+02  0.00000000000E+00 0.  1.
         11    1    3    3    0    0  0.12211812983E+02 -0.35426108809E+01  0.47395793868E+01  0.13569896138E+02  0.51100000000E-03 0. -1.
        -11    1    3    3    0    0 -0.34007541078E+01  0.10539092371E+02 -0.34643979870E+01  0.11603432689E+02  0.51100000000E-03 0.  1.
         12    1    3    3    0    0 -0.23094798861E+02  0.48485704438E+01  0.24655304001E+02  0.34128615342E+02  0.00000000000E+00 0. -1.
</event>
<event>
 7    1  0.3750159E-013  0.5930195E+02  0.7816164E-02  0.1266605E+00
        -11   -1    0    0    0    0  0.00000000000E+00  0.00000000000E+00  0.45593999997E+02  0.45594000000E+02  0.51100000000E-03 0.  1.
         11   -1    0    0    0    0 -0.00000000000E+00 -0.00000000000E+00 -0.45593999997E+02  0.45594000000E+02  0.51100000000E-03 0. -1.
    9900012    2    1    2    0    0 -0.14149859486E+02  0.25982655562E+02 -0.11891318813E+02  0.59301946989E+02  0.50000005401E+02 0.  0.
        -12    1    1    2    0    0  0.14149859486E+02 -0.25982655562E+02  0.11891318813E+02  0.31886053011E+02  0.00000000000E+00 0.  1.
         11    1    3    3    0    0  0.24558173717E+01  0.20599115417E+02 -0.17606455367E+02  0.27209223910E+02  0.51100000000E-03 0. -1.
        -11    1    3    3    0    0 -0.93965399383E-01 -0.89312056183E+01 -0.15471543265E+01  0.90647090446E+01  0.51100000000E-03 0.  1.
         12    1    3    3    0    0 -0.16511711458E+02  0.14314745763E+02  0.72622908807E+01  0.23028014035E+02  0.00000000000E+00 0. -1.
</event>
<event>
 7    1  0.3750159E-013  0.5930190E+02  0.7816164E-02  0.1266605E+00
        -11   -1    0    0    0    0  0.00000000000E+00  0.00000000000E+00  0.45593999997E+02  0.45594000000E+02  0.51100000000E-03 0. -1.
         11   -1    0    0    0    0 -0.00000000000E+00 -0.00000000000E+00 -0.45593999997E+02  0.45594000000E+02  0.51100000000E-03 0.  1.
    9900012    2    1    2    0    0 -0.12138990913E+02  0.29355259638E+02 -0.27634832435E+01  0.59301902584E+02  0.49999924416E+02 0.  0.
        -12    1    1    2    0    0  0.12138990913E+02 -0.29355259638E+02  0.27634832435E+01  0.31886097416E+02  0.00000000000E+00 0.  1.
         11    1    3    3    0    0  0.12281529479E+01 -0.12148363444E+01 -0.50177449971E+01  0.53067835950E+01  0.51100000000E-03 0. -1.
        -11    1    3    3    0    0 -0.81544797368E+01  0.96458272218E+01 -0.19584481891E+02  0.23304279730E+02  0.51100000000E-03 0.  1.
         12    1    3    3    0    0 -0.52126641245E+01  0.20924268760E+02  0.21838743644E+02  0.30690839258E+02  0.00000000000E+00 0. -1.
</event>
<event>
 7    1  0.3750159E-013  0.5930196E+02  0.7816164E-02  0.1266605E+00
        -11   -1    0    0    0    0  0.00000000000E+00  0.00000000000E+00  0.45593999997E+02  0.45594000000E+02  0.51100000000E-03 0. -1.
         11   -1    0    0    0    0 -0.00000000000E+00 -0.00000000000E+00 -0.45593999997E+02  0.45594000000E+02  0.51100000000E-03 0.  1.
    9900012    2    1    2    0    0 -0.11546141648E+02  0.28691374670E+02 -0.77596042867E+01  0.59301955622E+02  0.50000021145E+02 0.  0.
        -12    1    1    2    0    0  0.11546141648E+02 -0.28691374670E+02  0.77596042867E+01  0.31886044378E+02  0.00000000000E+00 0.  1.
         11    1    3    3    0    0 -0.15623963985E+01  0.64624338684E+01  0.79496576134E+01  0.10363454561E+02  0.51100000000E-03 0. -1.
        -11    1    3    3    0    0 -0.13312968953E+02 -0.69583181711E+01  0.11538804658E+01  0.15066013889E+02  0.51100000000E-03 0.  1.
        -12    1    3    3    0    0  0.33292237028E+01  0.29187258972E+02 -0.16863142366E+02  0.33872487172E+02  0.00000000000E+00 0.  1.
</event>
<event>
 7    1  0.3750159E-013  0.5930198E+02  0.7816164E-02  0.1266605E+00
        -11   -1    0    0    0    0  0.00000000000E+00  0.00000000000E+00  0.45593999997E+02  0.45594000000E+02  0.51100000000E-03 0. -1.
         11   -1    0    0    0    0 -0.00000000000E+00 -0.00000000000E+00 -0.45593999997E+02  0.45594000000E+02  0.51100000000E-03 0.  1.
    9900012    2    1    2    0    0  0.81213151631E+01 -0.12401314838E+01  0.30809489504E+02  0.59301979088E+02  0.50000063941E+02 0.  0.
        -12    1    1    2    0    0 -0.81213151631E+01  0.12401314838E+01 -0.30809489504E+02  0.31886020912E+02  0.00000000000E+00 0.  1.
         11    1    3    3    0    0  0.13200782536E+02  0.40220192055E+01  0.78157313977E+01  0.15859475263E+02  0.51100000000E-03 0. -1.
        -11    1    3    3    0    0  0.37247051841E+01  0.28575134350E-01  0.30496154306E+02  0.30722787520E+02  0.51100000000E-03 0.  1.
        -12    1    3    3    0    0 -0.88041725574E+01 -0.52907258237E+01 -0.75023961995E+01  0.12719716306E+02  0.00000000000E+00 0.  1.
</event>
<event>
 7    1  0.3750159E-013  0.5930202E+02  0.7816164E-02  0.1266604E+00
        -11   -1    0    0    0    0  0.00000000000E+00  0.00000000000E+00  0.45593999997E+02  0.45594000000E+02  0.51100000000E-03 0. -1.
         11   -1    0    0    0    0 -0.00000000000E+00 -0.00000000000E+00 -0.45593999997E+02  0.45594000000E+02  0.51100000000E-03 0.  1.
    9900012    2    1    2    0    0  0.25312523094E+02  0.70454130484E+01  0.18065272014E+02  0.59302019957E+02  0.50000138476E+02 0.  0.
        -12    1    1    2    0    0 -0.25312523094E+02 -0.70454130484E+01 -0.18065272014E+02  0.31885980043E+02  0.00000000000E+00 0.  1.
         11    1    3    3    0    0 -0.30184307715E+01 -0.11023184402E+02  0.11643150326E+02  0.16315160694E+02  0.51100000000E-03 0. -1.
        -11    1    3    3    0    0  0.81126330121E+01  0.81682402357E+01 -0.98971847226E+01  0.15181871710E+02  0.51100000000E-03 0.  1.
        -12    1    3    3    0    0  0.20218320853E+02  0.99003572145E+01  0.16319306410E+02  0.27804987553E+02  0.00000000000E+00 0.  1.
</event>
<event>
 7    1  0.3750159E-013  0.5930194E+02  0.7816164E-02  0.1266605E+00
        -11   -1    0    0    0    0  0.00000000000E+00  0.00000000000E+00  0.45593999997E+02  0.45594000000E+02  0.51100000000E-03 0.  1.
         11   -1    0    0    0    0 -0.00000000000E+00 -0.00000000000E+00 -0.45593999997E+02  0.45594000000E+02  0.51100000000E-03 0. -1.
    9900012    2    1    2    0    0  0.63251908182E+01 -0.92719607714E+01 -0.29845322484E+02  0.59301943963E+02  0.49999999882E+02 0.  0.
        -12    1    1    2    0    0 -0.63251908182E+01  0.92719607714E+01  0.29845322484E+02  0.31886056037E+02  0.00000000000E+00 0.  1.
         11    1    3    3    0    0 -0.72051889125E+01  0.14254951137E+02 -0.66886473386E+01  0.17316361704E+02  0.51100000000E-03 0. -1.
        -11    1    3    3    0    0  0.80768178124E+01 -0.58125572054E+01 -0.21110378007E+02  0.23338141895E+02  0.51100000000E-03 0.  1.
        -12    1    3    3    0    0  0.54535619184E+01 -0.17714354703E+02 -0.20462971376E+01  0.18647440364E+02  0.00000000000E+00 0.  1.
</event>
<event>
 7    1  0.3750159E-013  0.5930193E+02  0.7816164E-02  0.1266605E+00
        -11   -1    0    0    0    0  0.00000000000E+00  0.00000000000E+00  0.45593999997E+02  0.45594000000E+02  0.51100000000E-03 0. -1.
         11   -1    0    0    0    0 -0.00000000000E+00 -0.00000000000E+00 -0.45593999997E+02  0.45594000000E+02  0.51100000000E-03 0.  1.
    9900012    2    1    2    0    0  0.19272685870E+02  0.12950584990E+02  0.21853322393E+02  0.59301925111E+02  0.49999965501E+02 0.  0.
        -12    1    1    2    0    0 -0.19272685870E+02 -0.12950584990E+02 -0.21853322393E+02  0.31886074889E+02  0.00000000000E+00 0.  1.
         11    1    3    3    0    0 -0.91603917900E+01 -0.38567780452E+01  0.15870867810E+02  0.18726237207E+02  0.51100000000E-03 0. -1.
        -11    1    3    3    0    0  0.23013588914E+01 -0.10269722905E+01  0.84734771250E+01  0.88402907011E+01  0.51100000000E-03 0.  1.
        -12    1    3    3    0    0  0.26131718769E+02  0.17834335325E+02 -0.24910225423E+01  0.31735397203E+02  0.00000000000E+00 0.  1.
</event>
<event>
 7    1  0.3750159E-013  0.5930195E+02  0.7816164E-02  0.1266605E+00
        -11   -1    0    0    0    0  0.00000000000E+00  0.00000000000E+00  0.45593999997E+02  0.45594000000E+02  0.51100000000E-03 0.  1.
         11   -1    0    0    0    0 -0.00000000000E+00 -0.00000000000E+00 -0.45593999997E+02  0.45594000000E+02  0.51100000000E-03 0. -1.
    9900012    2    1    2    0    0 -0.80621047744E+01  0.67060160871E+01 -0.30112319453E+02  0.59301953397E+02  0.50000017086E+02 0.  0.
        -12    1    1    2    0    0  0.80621047744E+01 -0.67060160871E+01  0.30112319453E+02  0.31886046603E+02  0.00000000000E+00 0.  1.
         11    1    3    3    0    0 -0.11670878125E+02  0.25642109588E+02 -0.16502374019E+02  0.32650505798E+02  0.51100000000E-03 0. -1.
        -11    1    3    3    0    0  0.14612530843E+01  0.67306694632E+00 -0.47716439805E+01  0.50355601703E+01  0.51100000000E-03 0.  1.
        -12    1    3    3    0    0  0.21475202659E+01 -0.19609160447E+02 -0.88383014538E+01  0.21615887429E+02  0.00000000000E+00 0.  1.
</event>
<event>
 7    1  0.3750159E-013  0.5930195E+02  0.7816164E-02  0.1266605E+00
        -11   -1    0    0    0    0  0.00000000000E+00  0.00000000000E+00  0.45593999997E+02  0.45594000000E+02  0.51100000000E-03 0. -1.
         11   -1    0    0    0    0 -0.00000000000E+00 -0.00000000000E+00 -0.45593999997E+02  0.45594000000E+02  0.51100000000E-03 0.  1.
    9900012    2    1    2    0    0  0.20122358656E+02  0.19768978288E+02  0.14866005633E+02  0.59301953774E+02  0.50000017775E+02 0.  0.
        -12    1    1    2    0    0 -0.20122358656E+02 -0.19768978288E+02 -0.14866005633E+02  0.31886046226E+02  0.00000000000E+00 0.  1.
         11    1    3    3    0    0 -0.11423222120E+02  0.87324868090E+00 -0.57478627975E+01  0.12817585337E+02  0.51100000000E-03 0. -1.
        -11    1    3    3    0    0  0.11224029855E+01 -0.18203479284E+01 -0.22900230657E+01  0.31333146897E+01  0.51100000000E-03 0.  1.
         12    1    3    3    0    0  0.30423177791E+02  0.20716077535E+02  0.22903891497E+02  0.43351053748E+02  0.00000000000E+00 0. -1.
</event>
<event>
 7    1  0.3750159E-013  0.5930197E+02  0.7816164E-02  0.1266605E+00
        -11   -1    0    0    0    0  0.00000000000E+00  0.00000000000E+00  0.45593999997E+02  0.45594000000E+02  0.51100000000E-03 0. -1.
         11   -1    0    0    0    0 -0.00000000000E+00 -0.00000000000E+00 -0.45593999997E+02  0.45594000000E+02  0.51100000000E-03 0.  1.
    9900012    2    1    2    0    0  0.52461542524E+01  0.41623491575E+01  0.31174860530E+02  0.59301965220E+02  0.50000038650E+02 0.  0.
        -12    1    1    2    0    0 -0.52461542524E+01 -0.41623491575E+01 -0.31174860530E+02  0.31886034780E+02  0.00000000000E+00 0.  1.
         11    1    3    3    0    0  0.22122292789E+01  0.15854585661E+02  0.22484967537E+02  0.27601369717E+02  0.51100000000E-03 0. -1.
        -11    1    3    3    0    0  0.12019993174E+02  0.61382233356E+00 -0.31067603294E+01  0.12430163868E+02  0.51100000000E-03 0.  1.
         12    1    3    3    0    0 -0.89860682009E+01 -0.12306058837E+02  0.11796653322E+02  0.19270431635E+02  0.00000000000E+00 0. -1.
</event>
<event>
 7    1  0.3750159E-013  0.5930193E+02  0.7816164E-02  0.1266605E+00
        -11   -1    0    0    0    0  0.00000000000E+00  0.00000000000E+00  0.45593999997E+02  0.45594000000E+02  0.51100000000E-03 0.  1.
         11   -1    0    0    0    0 -0.00000000000E+00 -0.00000000000E+00 -0.45593999997E+02  0.45594000000E+02  0.51100000000E-03 0. -1.
    9900012    2    1    2    0    0  0.49909584388E+01  0.28376425398E+02 -0.13659797614E+02  0.59301933210E+02  0.49999980271E+02 0.  0.
        -12    1    1    2    0    0 -0.49909584388E+01 -0.28376425398E+02  0.13659797614E+02  0.31886066790E+02  0.00000000000E+00 0.  1.
         11    1    3    3    0    0  0.10792892609E+02  0.55024110310E+01 -0.14404522202E+02  0.18821618373E+02  0.51100000000E-03 0. -1.
        -11    1    3    3    0    0  0.93912027583E+01  0.21484869133E+02 -0.53519833730E+01  0.24050738392E+02  0.51100000000E-03 0.  1.
        -12    1    3    3    0    0 -0.15193136929E+02  0.13891452340E+01  0.60967079612E+01  0.16429576446E+02  0.00000000000E+00 0.  1.
</event>
<event>
 7    1  0.3750159E-013  0.5930193E+02  0.7816164E-02  0.1266605E+00
        -11   -1    0    0    0    0  0.00000000000E+00  0.00000000000E+00  0.45593999997E+02  0.45594000000E+02  0.51100000000E-03 0. -1.
         11   -1    0    0    0    0 -0.00000000000E+00 -0.00000000000E+00 -0.45593999997E+02  0.45594000000E+02  0.51100000000E-03 0.  1.
    9900012    2    1    2    0    0  0.54330766803E+01 -0.13747930852E+02  0.28252394642E+02  0.59301925799E+02  0.49999966756E+02 0.  0.
        -12    1    1    2    0    0 -0.54330766803E+01  0.13747930852E+02 -0.28252394642E+02  0.31886074201E+02  0.00000000000E+00 0.  1.
         11    1    3    3    0    0 -0.10178509290E+02  0.37415347377E+01  0.11354630320E+02  0.15701234459E+02  0.51100000000E-03 0. -1.
        -11    1    3    3    0    0 -0.42426577421E+01 -0.12844835360E+02  0.18756726204E+02  0.23125845245E+02  0.51100000000E-03 0.  1.
        -12    1    3    3    0    0  0.19854243712E+02 -0.46446302297E+01 -0.18589618827E+01  0.20474846095E+02  0.00000000000E+00 0.  1.
</event>
<event>
 7    1  0.3750159E-013  0.5930197E+02  0.7816164E-02  0.1266605E+00
        -11   -1    0    0    0    0  0.00000000000E+00  0.00000000000E+00  0.45593999997E+02  0.45594000000E+02  0.51100000000E-03 0.  1.
         11   -1    0    0    0    0 -0.00000000000E+00 -0.00000000000E+00 -0.45593999997E+02  0.45594000000E+02  0.51100000000E-03 0. -1.
    9900012    2    1    2    0    0  0.29942160523E+02 -0.29261417266E+01 -0.10565204927E+02  0.59301971126E+02  0.50000049421E+02 0.  0.
        -12    1    1    2    0    0 -0.29942160523E+02  0.29261417266E+01  0.10565204927E+02  0.31886028874E+02  0.00000000000E+00 0.  1.
         11    1    3    3    0    0  0.33731105706E+02 -0.83439619107E+01 -0.67754634681E+01  0.35402204705E+02  0.51100000000E-03 0. -1.
        -11    1    3    3    0    0  0.93914714842E+00 -0.22913196084E+01  0.83797022593E+01  0.87379375787E+01  0.51100000000E-03 0.  1.
         12    1    3    3    0    0 -0.47280923311E+01  0.77091397925E+01 -0.12169443719E+02  0.15161828843E+02  0.00000000000E+00 0. -1.
</event>
<event>
 7    1  0.3750159E-013  0.5930195E+02  0.7816164E-02  0.1266605E+00
        -11   -1    0    0    0    0  0.00000000000E+00  0.00000000000E+00  0.45593999997E+02  0.45594000000E+02  0.51100000000E-03 0. -1.
         11   -1    0    0    0    0 -0.00000000000E+00 -0.00000000000E+00 -0.45593999997E+02  0.45594000000E+02  0.51100000000E-03 0.  1.
    9900012    2    1    2    0    0  0.39029626512E+01 -0.13585462259E+02  0.28581855055E+02  0.59301947553E+02  0.50000006430E+02 0.  0.
        -12    1    1    2    0    0 -0.39029626512E+01  0.13585462259E+02 -0.28581855055E+02  0.31886052447E+02  0.00000000000E+00 0.  1.
         11    1    3    3    0    0 -0.71332918774E+01  0.69860404340E+00  0.27944254054E+02  0.28848799551E+02  0.51100000000E-03 0. -1.
        -11    1    3    3    0    0  0.97541802030E+01 -0.10635788794E+02  0.11799012166E+02  0.18640834827E+02  0.51100000000E-03 0.  1.
         12    1    3    3    0    0  0.12820743255E+01 -0.36482775088E+01 -0.11161411165E+02  0.11812313175E+02  0.00000000000E+00 0. -1.
</event>
<event>
 7    1  0.3750159E-013  0.5930194E+02  0.7816164E-02  0.1266605E+00
        -11   -1    0    0    0    0  0.00000000000E+00  0.00000000000E+00  0.45593999997E+02  0.45594000000E+02  0.51100000000E-03 0.  1.
         11   -1    0    0    0    0 -0.00000000000E+00 -0.00000000000E+00 -0.45593999997E+02  0.45594000000E+02  0.51100000000E-03 0. -1.
    9900012    2    1    2    0    0  0.27799501653E+02  0.28256030449E+01  0.15359832981E+02  0.59301940445E+02  0.49999993467E+02 0.  0.
        -12    1    1    2    0    0 -0.27799501653E+02 -0.28256030449E+01 -0.15359832981E+02  0.31886059555E+02  0.00000000000E+00 0.  1.
         11    1    3    3    0    0  0.21735585500E+01  0.12329575965E+02  0.87319195766E+01  0.15263984407E+02  0.51100000000E-03 0. -1.
        -11    1    3    3    0    0 -0.49744979766E+01 -0.10225065039E+02  0.71363575469E+01  0.13424797371E+02  0.51100000000E-03 0.  1.
         12    1    3    3    0    0  0.30600441079E+02  0.72109211900E+00 -0.50844414218E+00  0.30613158666E+02  0.00000000000E+00 0. -1.
</event>
<event>
 7    1  0.3750159E-013  0.5930193E+02  0.7816164E-02  0.1266605E+00
        -11   -1    0    0    0    0  0.00000000000E+00  0.00000000000E+00  0.45593999997E+02  0.45594000000E+02  0.51100000000E-03 0.  1.
         11   -1    0    0    0    0 -0.00000000000E+00 -0.00000000000E+00 -0.45593999997E+02  0.45594000000E+02  0.51100000000E-03 0. -1.
    9900012    2    1    2    0    0  0.30856481850E+02 -0.65988023369E+01 -0.45885440501E+01  0.59301930927E+02  0.49999976108E+02 0.  0.
        -12    1    1    2    0    0 -0.30856481850E+02  0.65988023369E+01  0.45885440501E+01  0.31886069073E+02  0.00000000000E+00 0.  1.
         11    1    3    3    0    0  0.70992892723E+00  0.18086029078E+01 -0.34718814512E+01  0.39785681636E+01  0.51100000000E-03 0. -1.
        -11    1    3    3    0    0 -0.32778769863E+01  0.12118529072E+02 -0.88299813751E+01  0.15348348307E+02  0.51100000000E-03 0.  1.
        -12    1    3    3    0    0  0.33424429909E+02 -0.20525934317E+02  0.77133187762E+01  0.39975014457E+02  0.00000000000E+00 0.  1.
</event>
<event>
 7    1  0.3750159E-013  0.5930196E+02  0.7816164E-02  0.1266605E+00
        -11   -1    0    0    0    0  0.00000000000E+00  0.00000000000E+00  0.45593999997E+02  0.45594000000E+02  0.51100000000E-03 0.  1.
         11   -1    0    0    0    0 -0.00000000000E+00 -0.00000000000E+00 -0.45593999997E+02  0.45594000000E+02  0.51100000000E-03 0. -1.
    9900012    2    1    2    0    0  0.11965874708E+02 -0.11863378639E+02 -0.27070231856E+02  0.59301962883E+02  0.50000034388E+02 0.  0.
        -12    1    1    2    0    0 -0.11965874708E+02  0.11863378639E+02  0.27070231856E+02  0.31886037117E+02  0.00000000000E+00 0.  1.
         11    1    3    3    0    0 -0.27544672091E+00 -0.19078551367E+02 -0.17093175740E+02  0.25617252981E+02  0.51100000000E-03 0. -1.
        -11    1    3    3    0    0 -0.80535514489E+01  0.65114542625E+00  0.31125322525E+01  0.86586106617E+01  0.51100000000E-03 0.  1.
        -12    1    3    3    0    0  0.20294872878E+02  0.65640273014E+01 -0.13089588369E+02  0.25026099241E+02  0.00000000000E+00 0.  1.
</event>
<event>
 7    1  0.3750159E-013  0.5930184E+02  0.7816164E-02  0.1266605E+00
        -11   -1    0    0    0    0  0.00000000000E+00  0.00000000000E+00  0.45593999997E+02  0.45594000000E+02  0.51100000000E-03 0.  1.
         11   -1    0    0    0    0 -0.00000000000E+00 -0.00000000000E+00 -0.45593999997E+02  0.45594000000E+02  0.51100000000E-03 0. -1.
    9900012    2    1    2    0    0 -0.74092621419E+01 -0.22205623248E+02 -0.21650414577E+02  0.59301838100E+02  0.49999806813E+02 0.  0.
        -12    1    1    2    0    0  0.74092621419E+01  0.22205623248E+02  0.21650414577E+02  0.31886161900E+02  0.00000000000E+00 0.  1.
         11    1    3    3    0    0  0.26972845966E+01 -0.84782763457E+00 -0.12419742234E+02  0.12737509698E+02  0.51100000000E-03 0. -1.
        -11    1    3    3    0    0  0.13055679701E+02  0.11657733265E+01 -0.47767124107E+01  0.13950870282E+02  0.51100000000E-03 0.  1.
         12    1    3    3    0    0 -0.23162226440E+02 -0.22523568940E+02 -0.44539599325E+01  0.32613458120E+02  0.00000000000E+00 0. -1.
</event>
<event>
 7    1  0.3750159E-013  0.5930197E+02  0.7816164E-02  0.1266605E+00
        -11   -1    0    0    0    0  0.00000000000E+00  0.00000000000E+00  0.45593999997E+02  0.45594000000E+02  0.51100000000E-03 0.  1.
         11   -1    0    0    0    0 -0.00000000000E+00 -0.00000000000E+00 -0.45593999997E+02  0.45594000000E+02  0.51100000000E-03 0. -1.
    9900012    2    1    2    0    0  0.14910869213E+02  0.27440638683E+02 -0.64340030067E+01  0.59301967529E+02  0.50000042862E+02 0.  0.
        -12    1    1    2    0    0 -0.14910869213E+02 -0.27440638683E+02  0.64340030067E+01  0.31886032471E+02  0.00000000000E+00 0.  1.
         11    1    3    3    0    0  0.47423811208E+01  0.17156498466E+02 -0.15952526505E+02  0.23902274378E+02  0.51100000000E-03 0. -1.
        -11    1    3    3    0    0 -0.35881587132E+01  0.16184725601E+02 -0.17411716656E+01  0.16668890328E+02  0.51100000000E-03 0.  1.
        -12    1    3    3    0    0  0.13756646805E+02 -0.59005853837E+01  0.11259695164E+02  0.18730802823E+02  0.00000000000E+00 0.  1.
</event>
<event>
 7    1  0.3750159E-013  0.5930194E+02  0.7816164E-02  0.1266605E+00
        -11   -1    0    0    0    0  0.00000000000E+00  0.00000000000E+00  0.45593999997E+02  0.45594000000E+02  0.51100000000E-03 0.  1.
         11   -1    0    0    0    0 -0.00000000000E+00 -0.00000000000E+00 -0.45593999997E+02  0.45594000000E+02  0.51100000000E-03 0. -1.
    9900012    2    1    2    0    0 -0.17363013842E+02 -0.26735423721E+02  0.68094933161E+00  0.59301939986E+02  0.49999992629E+02 0.  0.
        -12    1    1    2    0    0  0.17363013842E+02  0.26735423721E+02 -0.68094933161E+00  0.31886060014E+02  0.00000000000E+00 0.  1.
         11    1    3    3    0    0 -0.11751200637E+02 -0.12407349548E+02  0.60115768758E+01  0.18115520860E+02  0.51100000000E-03 0. -1.
        -11    1    3    3    0    0 -0.15151643881E+02  0.39926848441E+01  0.69660194195E+01  0.17147573338E+02  0.51100000000E-03 0.  1.
        -12    1    3    3    0    0  0.95398306764E+01 -0.18320759017E+02 -0.12296646964E+02  0.24038845788E+02  0.00000000000E+00 0.  1.
</event>
<event>
 7    1  0.3750159E-013  0.5930193E+02  0.7816164E-02  0.1266605E+00
        -11   -1    0    0    0    0  0.00000000000E+00  0.00000000000E+00  0.45593999997E+02  0.45594000000E+02  0.51100000000E-03 0.  1.
         11   -1    0    0    0    0 -0.00000000000E+00 -0.00000000000E+00 -0.45593999997E+02  0.45594000000E+02  0.51100000000E-03 0. -1.
    9900012    2    1    2    0    0 -0.82785343921E+00 -0.25416805826E+02  0.19235954711E+02  0.59301932300E+02  0.49999978611E+02 0.  0.
        -12    1    1    2    0    0  0.82785343921E+00  0.25416805826E+02 -0.19235954711E+02  0.31886067700E+02  0.00000000000E+00 0.  1.
         11    1    3    3    0    0 -0.10454228345E+02 -0.11513034279E+02 -0.70753531877E+01  0.17085124278E+02  0.51100000000E-03 0. -1.
        -11    1    3    3    0    0 -0.13111553318E+01  0.61146897555E+01 -0.13142435592E+01  0.63902891565E+01  0.51100000000E-03 0.  1.
         12    1    3    3    0    0  0.10937530238E+02 -0.20018461303E+02  0.27625551458E+02  0.35826518865E+02  0.00000000000E+00 0. -1.
</event>
<event>
 7    1  0.3750159E-013  0.5930196E+02  0.7816164E-02  0.1266605E+00
        -11   -1    0    0    0    0  0.00000000000E+00  0.00000000000E+00  0.45593999997E+02  0.45594000000E+02  0.51100000000E-03 0.  1.
         11   -1    0    0    0    0 -0.00000000000E+00 -0.00000000000E+00 -0.45593999997E+02  0.45594000000E+02  0.51100000000E-03 0. -1.
    9900012    2    1    2    0    0  0.15013678945E+02 -0.71838689116E+01 -0.27197449927E+02  0.59301955866E+02  0.50000021590E+02 0.  0.
        -12    1    1    2    0    0 -0.15013678945E+02  0.71838689116E+01  0.27197449927E+02  0.31886044134E+02  0.00000000000E+00 0.  1.
         11    1    3    3    0    0  0.20631856720E+02  0.39722755091E+01 -0.88281776632E+01  0.22790112013E+02  0.51100000000E-03 0. -1.
        -11    1    3    3    0    0  0.94109370824E+01 -0.64117713165E+00  0.14090289672E+01  0.95374109576E+01  0.51100000000E-03 0.  1.
        -12    1    3    3    0    0 -0.15029114857E+02 -0.10514967289E+02 -0.19778301231E+02  0.26974432896E+02  0.00000000000E+00 0.  1.
</event>
<event>
 7    1  0.3750159E-013  0.5930196E+02  0.7816164E-02  0.1266605E+00
        -11   -1    0    0    0    0  0.00000000000E+00  0.00000000000E+00  0.45593999997E+02  0.45594000000E+02  0.51100000000E-03 0.  1.
         11   -1    0    0    0    0 -0.00000000000E+00 -0.00000000000E+00 -0.45593999997E+02  0.45594000000E+02  0.51100000000E-03 0. -1.
    9900012    2    1    2    0    0  0.75281310844E+00  0.23225645769E+02 -0.21833975667E+02  0.59301955366E+02  0.50000020678E+02 0.  0.
        -12    1    1    2    0    0 -0.75281310844E+00 -0.23225645769E+02  0.21833975667E+02  0.31886044634E+02  0.00000000000E+00 0.  1.
         11    1    3    3    0    0  0.22972068902E+01  0.72696122012E+01  0.10339594375E+02  0.12846463838E+02  0.51100000000E-03 0. -1.
        -11    1    3    3    0    0 -0.10406640721E+02  0.17343427941E+02 -0.10055651184E+02  0.22587801682E+02  0.51100000000E-03 0.  1.
         12    1    3    3    0    0  0.88622469389E+01 -0.13873943730E+01 -0.22117918858E+02  0.23867689845E+02  0.00000000000E+00 0. -1.
</event>
<event>
 7    1  0.3750159E-013  0.5930201E+02  0.7816164E-02  0.1266605E+00
        -11   -1    0    0    0    0  0.00000000000E+00  0.00000000000E+00  0.45593999997E+02  0.45594000000E+02  0.51100000000E-03 0. -1.
         11   -1    0    0    0    0 -0.00000000000E+00 -0.00000000000E+00 -0.45593999997E+02  0.45594000000E+02  0.51100000000E-03 0.  1.
    9900012    2    1    2    0    0 -0.20374249327E+02 -0.11281672607E+02  0.21779120244E+02  0.59302011682E+02  0.50000123384E+02 0.  0.
        -12    1    1    2    0    0  0.20374249327E+02  0.11281672607E+02 -0.21779120244E+02  0.31885988318E+02  0.00000000000E+00 0.  1.
         11    1    3    3    0    0  0.57614489398E+01 -0.10160152953E+02 -0.49280134141E+01  0.12677078464E+02  0.51100000000E-03 0. -1.
        -11    1    3    3    0    0 -0.89211386141E+01  0.68659183195E+01 -0.27460097836E+01  0.11587412072E+02  0.51100000000E-03 0.  1.
        -12    1    3    3    0    0 -0.17214559652E+02 -0.79874379739E+01  0.29453143442E+02  0.35037521145E+02  0.00000000000E+00 0.  1.
</event>
<event>
 7    1  0.3750159E-013  0.5930195E+02  0.7816164E-02  0.1266605E+00
        -11   -1    0    0    0    0  0.00000000000E+00  0.00000000000E+00  0.45593999997E+02  0.45594000000E+02  0.51100000000E-03 0.  1.
         11   -1    0    0    0    0 -0.00000000000E+00 -0.00000000000E+00 -0.45593999997E+02  0.45594000000E+02  0.51100000000E-03 0. -1.
    9900012    2    1    2    0    0 -0.13106559340E+02 -0.26057229279E+02  0.12882502246E+02  0.59301953529E+02  0.50000017327E+02 0.  0.
        -12    1    1    2    0    0  0.13106559340E+02  0.26057229279E+02 -0.12882502246E+02  0.31886046471E+02  0.00000000000E+00 0.  1.
         11    1    3    3    0    0 -0.14679832183E+02 -0.12804206708E+02  0.11234596557E+02  0.22486914915E+02  0.51100000000E-03 0. -1.
        -11    1    3    3    0    0 -0.14916915122E+02 -0.71784559639E+01  0.76613436885E+01  0.18241183463E+02  0.51100000000E-03 0.  1.
        -12    1    3    3    0    0  0.16490187964E+02 -0.60745666072E+01 -0.60134379994E+01  0.18573855150E+02  0.00000000000E+00 0.  1.
</event>
<event>
 7    1  0.3750159E-013  0.5930194E+02  0.7816164E-02  0.1266605E+00
        -11   -1    0    0    0    0  0.00000000000E+00  0.00000000000E+00  0.45593999997E+02  0.45594000000E+02  0.51100000000E-03 0. -1.
         11   -1    0    0    0    0 -0.00000000000E+00 -0.00000000000E+00 -0.45593999997E+02  0.45594000000E+02  0.51100000000E-03 0.  1.
    9900012    2    1    2    0    0  0.49234889416E+01  0.81866876639E+01  0.30421345445E+02  0.59301939457E+02  0.49999991664E+02 0.  0.
        -12    1    1    2    0    0 -0.49234889416E+01 -0.81866876639E+01 -0.30421345445E+02  0.31886060543E+02  0.00000000000E+00 0.  1.
         11    1    3    3    0    0  0.67983036033E+01  0.38951185203E+01  0.12989077387E+01  0.79420426683E+01  0.51100000000E-03 0. -1.
        -11    1    3    3    0    0  0.19184989908E+02  0.59777344677E+01  0.19987144086E+02  0.28342248960E+02  0.51100000000E-03 0.  1.
         12    1    3    3    0    0 -0.21059804570E+02 -0.16861653241E+01  0.91352936202E+01  0.23017647828E+02  0.00000000000E+00 0. -1.
</event>
<event>
 7    1  0.3750159E-013  0.5930193E+02  0.7816164E-02  0.1266605E+00
        -11   -1    0    0    0    0  0.00000000000E+00  0.00000000000E+00  0.45593999997E+02  0.45594000000E+02  0.51100000000E-03 0.  1.
         11   -1    0    0    0    0 -0.00000000000E+00 -0.00000000000E+00 -0.45593999997E+02  0.45594000000E+02  0.51100000000E-03 0. -1.
    9900012    2    1    2    0    0  0.10627657707E+02  0.19982137293E+02 -0.22460821949E+02  0.59301930287E+02  0.49999974940E+02 0.  0.
        -12    1    1    2    0    0 -0.10627657707E+02 -0.19982137293E+02  0.22460821949E+02  0.31886069713E+02  0.00000000000E+00 0.  1.
         11    1    3    3    0    0 -0.14865841513E+01  0.14766014152E+01 -0.22802876706E+02  0.22898940380E+02  0.51100000000E-03 0. -1.
        -11    1    3    3    0    0 -0.88216708607E+01  0.71868226624E+01  0.45124044892E+01  0.12240673645E+02  0.51100000000E-03 0.  1.
        -12    1    3    3    0    0  0.20935912719E+02  0.11318713215E+02 -0.41703497322E+01  0.24162316262E+02  0.00000000000E+00 0.  1.
</event>
<event>
 7    1  0.3750159E-013  0.5930203E+02  0.7816164E-02  0.1266604E+00
        -11   -1    0    0    0    0  0.00000000000E+00  0.00000000000E+00  0.45593999997E+02  0.45594000000E+02  0.51100000000E-03 0.  1.
         11   -1    0    0    0    0 -0.00000000000E+00 -0.00000000000E+00 -0.45593999997E+02  0.45594000000E+02  0.51100000000E-03 0. -1.
    9900012    2    1    2    0    0  0.15279982797E+02  0.62801441818E+01 -0.27272643965E+02  0.59302028256E+02  0.50000153612E+02 0.  0.
        -12    1    1    2    0    0 -0.15279982797E+02 -0.62801441818E+01  0.27272643965E+02  0.31885971744E+02  0.00000000000E+00 0.  1.
         11    1    3    3    0    0 -0.69726852165E+01 -0.12124309193E+02 -0.11725723916E+02  0.18251296232E+02  0.51100000000E-03 0. -1.
        -11    1    3    3    0    0 -0.18237288177E+01  0.17793727701E+01  0.47851656871E+01  0.54212512550E+01  0.51100000000E-03 0.  1.
         12    1    3    3    0    0  0.24076396831E+02  0.16625080605E+02 -0.20332085736E+02  0.35629480769E+02  0.00000000000E+00 0. -1.
</event>
<event>
 7    1  0.4183445E-013  0.5930197E+02  0.7816164E-02  0.1266605E+00
        -11   -1    0    0    0    0  0.00000000000E+00  0.00000000000E+00  0.45593999997E+02  0.45594000000E+02  0.51100000000E-03 0. -1.
         11   -1    0    0    0    0 -0.00000000000E+00 -0.00000000000E+00 -0.45593999997E+02  0.45594000000E+02  0.51100000000E-03 0.  1.
    9900012    2    1    2    0    0  0.60708734229E+01 -0.17062234766E+02  0.26243925598E+02  0.59301968731E+02  0.50000045052E+02 0.  0.
        -12    1    1    2    0    0 -0.60708734229E+01  0.17062234766E+02 -0.26243925598E+02  0.31886031269E+02  0.00000000000E+00 0.  1.
         11    1    3    3    0    0  0.79564907700E+00 -0.19711666235E+02  0.15580264114E+02  0.25138167661E+02  0.51100000000E-03 0. -1.
        -11    1    3    3    0    0 -0.10096467871E+02  0.94104709570E+01 -0.80961708663E+00  0.13825740746E+02  0.51100000000E-03 0.  1.
         12    1    3    3    0    0  0.15371692217E+02 -0.67610394877E+01  0.11473278571E+02  0.20338060323E+02  0.00000000000E+00 0. -1.
</event>
<event>
 7    1  0.3750159E-013  0.5930194E+02  0.7816164E-02  0.1266605E+00
        -11   -1    0    0    0    0  0.00000000000E+00  0.00000000000E+00  0.45593999997E+02  0.45594000000E+02  0.51100000000E-03 0.  1.
         11   -1    0    0    0    0 -0.00000000000E+00 -0.00000000000E+00 -0.45593999997E+02  0.45594000000E+02  0.51100000000E-03 0. -1.
    9900012    2    1    2    0    0 -0.57508761042E+01 -0.24636465340E+02 -0.19408581554E+02  0.59301936612E+02  0.49999986476E+02 0.  0.
        -12    1    1    2    0    0  0.57508761042E+01  0.24636465340E+02  0.19408581554E+02  0.31886063388E+02  0.00000000000E+00 0.  1.
         11    1    3    3    0    0 -0.33378857866E+01 -0.11855032904E+02 -0.89004755529E+01  0.15195451688E+02  0.51100000000E-03 0. -1.
        -11    1    3    3    0    0  0.25050356556E+01 -0.26639183639E+02 -0.13657246746E+01  0.26791538081E+02  0.51100000000E-03 0.  1.
        -12    1    3    3    0    0 -0.49180259732E+01  0.13857751203E+02 -0.91423813269E+01  0.17314946843E+02  0.00000000000E+00 0.  1.
</event>
